Title
43134
    1CHL1    C3    1   0.566   3.738   7.105  0.7496 -0.3084 -0.7374
    1CHL1    H3    2   0.564   3.848   7.092 -4.5590 -0.2901 -1.8205
    1CHL1    O3    3   0.505   3.711   7.230  0.5871 -0.5685  0.6961
    1CHL1   H3'    4   0.525   3.619   7.247 -0.1216 -0.9608 -0.4883
    1CHL1    C4    5   0.475   3.687   6.988  0.5647  0.2821 -0.1288
    1CHL1   H4A    6   0.452   3.581   7.012  0.8379  0.4444  0.8760
    1CHL1   H4B    7   0.375   3.736   6.993  0.2746 -0.3152  0.1466
    1CHL1    C5    8   0.535   3.685   6.854 -0.0607 -0.1250  0.3149
    1CHL1    C6    9   0.466   3.735   6.745  0.6520  1.1949 -0.2458
    1CHL1    H6   10   0.363   3.772   6.755  0.1496 -0.3222  0.4688
    1CHL1    C7   11   0.515   3.743   6.607 -0.4074  0.0412 -0.2194
    1CHL1   H7A   12   0.444   3.718   6.525  0.1280  0.2858 -0.7645
    1CHL1   H7B   13   0.549   3.843   6.575  2.7393 -1.1369 -0.8889
    1CHL1    C8   14   0.647   3.663   6.591  0.3756 -0.1073  0.0811
    1CHL1    H8   15   0.622   3.555   6.589 -0.1353  0.0136 -0.2835
    1CHL1   C14   16   0.712   3.705   6.462  0.0906  0.1910  0.2744
    1CHL1   H14   17   0.739   3.813   6.463  0.2986  0.1348  0.9523
    1CHL1   C15   18   0.628   3.696   6.331  0.1515 -0.4755  0.0002
    1CHL1  H15A   19   0.562   3.607   6.330 -0.2248 -0.2482 -3.1129
    1CHL1  H15B   20   0.574   3.790   6.308  1.7304  0.5989  0.4788
    1CHL1   C16   21   0.737   3.696   6.222  0.7480  0.2393  0.5174
    1CHL1  H16A   22   0.730   3.611   6.150 -0.3331 -0.1239  1.0367
    1CHL1  H16B   23   0.729   3.792   6.165 -0.7288  1.3374  2.4740
    1CHL1   C17   24   0.873   3.682   6.292 -0.1135  0.2038  0.3461
    1CHL1   H17   25   0.911   3.785   6.308  2.8142 -0.6599 -0.4927
    1CHL1   C13   26   0.837   3.628   6.432 -0.6837  0.2299 -0.2470
    1CHL1   C18   27   0.810   3.478   6.412  0.6198  0.0620 -0.3618
    1CHL1  H18A   28   0.790   3.431   6.511 -0.5325 -0.1419 -0.6802
    1CHL1  H18B   29   0.724   3.459   6.344 -0.1066  2.4556 -0.2038
    1CHL1  H18C   30   0.899   3.421   6.379  1.5337  1.6976 -0.8030
    1CHL1   C12   31   0.939   3.651   6.547  0.0556  0.2500 -0.8447
    1CHL1  H12A   32   1.033   3.596   6.527  0.2930  0.5360 -0.5350
    1CHL1  H12B   33   0.965   3.759   6.545  2.3041 -0.0492  2.8532
    1CHL1   C11   34   0.890   3.609   6.682  0.0736  0.2056 -0.1123
    1CHL1  H11A   35   0.877   3.500   6.696  2.4508 -0.2134 -0.7610
    1CHL1  H11B   36   0.957   3.637   6.766 -1.5796  1.3194  0.9086
    1CHL1    C9   37   0.746   3.676   6.710 -0.4925  0.0297  0.2324
    1CHL1    H9   38   0.762   3.786   6.712  0.0686 -0.0513  0.3479
    1CHL1   C10   39   0.681   3.643   6.851  0.0457 -0.4048  0.1328
    1CHL1   C19   40   0.669   3.490   6.877 -0.7663  0.5142 -0.6698
    1CHL1  H19A   41   0.626   3.448   6.784  0.2024 -0.2423 -0.7883
    1CHL1  H19B   42   0.767   3.440   6.895 -0.3783  1.4784  0.0105
    1CHL1  H19C   43   0.607   3.464   6.965 -1.1268 -0.5364 -1.2107
    1CHL1    C1   44   0.766   3.719   6.959 -0.7669 -0.0435 -0.0357
    1CHL1   H1A   45   0.875   3.694   6.955  0.5778  4.8484 -1.7321
    1CHL1   H1B   46   0.763   3.830   6.966 -0.2743 -0.1051  1.2663
    1CHL1    C2   47   0.712   3.694   7.107 -0.1742 -0.3301 -0.2436
    1CHL1   H2A   48   0.767   3.744   7.189 -0.9488  0.0890  0.0390
    1CHL1   H2B   49   0.710   3.586   7.134 -1.9136 -0.4650 -0.7747
    1CHL1   C20   50   0.984   3.611   6.205 -0.1153 -0.0457  0.3913
    1CHL1   H20   51   0.959   3.503   6.199 -2.4202  0.4256  0.2855
    1CHL1   C21   52   1.125   3.633   6.265 -0.3327 -1.0470  0.9754
    1CHL1  H21A   53   1.203   3.593   6.198 -1.3473  2.1801 -2.5077
    1CHL1  H21B   54   1.129   3.566   6.353  0.6418 -0.7017  1.1998
    1CHL1  H21C   55   1.144   3.738   6.296 -3.6073  0.4678 -1.4695
    1CHL1   C22   56   0.997   3.665   6.057 -0.5665 -0.1076 -0.6086
    1CHL1  H22A   57   0.894   3.675   6.017 -1.4797 -0.9462  1.3754
    1CHL1  H22B   58   1.046   3.765   6.051  1.5894 -0.7388  3.2862
    1CHL1   C23   59   1.051   3.561   5.960 -0.1441  0.2656  0.4741
    1CHL1  H23A   60   1.160   3.541   5.971 -0.3173 -1.6237 -0.7789
    1CHL1  H23B   61   0.994   3.466   5.971 -0.3155  0.2423 -0.5738
    1CHL1   C24   62   1.020   3.582   5.806 -0.9542 -0.0489 -0.0492
    1CHL1  H24A   63   1.080   3.672   5.780  0.4848 -1.0212 -0.1936
    1CHL1  H24B   64   1.070   3.505   5.745  0.9953 -0.4021  1.8754
    1CHL1   C25   65   0.874   3.601   5.761  0.4898  0.7039 -0.0059
    1CHL1   H25   66   0.837   3.698   5.800  1.4779  1.1442 -0.1276
    1CHL1   C26   67   0.860   3.620   5.610  0.0577  0.4550 -0.2094
    1CHL1  H26A   68   0.883   3.521   5.563 -0.8552  1.1174 -2.1363
    1CHL1  H26B   69   0.754   3.624   5.578 -0.0753 -1.0353 -0.0528
    1CHL1  H26C   70   0.907   3.710   5.564  1.2323 -0.2052 -0.3528
    1CHL1   C27   71   0.782   3.492   5.801  0.0867 -0.1194  0.5158
    1CHL1  H27A   72   0.821   3.399   5.754  0.9351  0.7245 -0.4904
    1CHL1  H27B   73   0.785   3.471   5.910  1.4685 -2.3206  0.1214
    1CHL1  H27C   74   0.677   3.514   5.771 -0.6615 -3.2755  0.4928
    2CHL1    C3   75   1.321   4.414   7.812 -0.0135 -0.5333 -0.9951
    2CHL1    H3   76   1.212   4.415   7.791 -0.4887  1.2492  1.1498
    2CHL1    O3   77   1.341   4.412   7.957  0.0596 -0.3591  0.2283
    2CHL1   H3'   78   1.286   4.485   7.986  2.5694  1.3700  0.9746
    2CHL1    C4   79   1.391   4.300   7.742  0.2008  0.1712  0.1123
    2CHL1   H4A   80   1.498   4.293   7.772  0.4345 -1.6764 -1.0055
    2CHL1   H4B   81   1.347   4.207   7.784  1.0066  0.7820  2.4830
    2CHL1    C5   82   1.387   4.313   7.591 -0.3223  0.0865  0.4233
    2CHL1    C6   83   1.336   4.209   7.520  0.1454 -0.4716 -0.2725
    2CHL1    H6   84   1.286   4.123   7.566 -1.5321  1.1167  1.0565
    2CHL1    C7   85   1.327   4.208   7.368  0.3970  0.0295 -0.2592
    2CHL1   H7A   86   1.365   4.106   7.346 -0.3858 -1.0874  2.8879
    2CHL1   H7B   87   1.219   4.215   7.343  0.0073 -2.6009  0.2838
    2CHL1    C8   88   1.420   4.320   7.307  0.7140 -0.1865 -0.4021
    2CHL1    H8   89   1.524   4.285   7.324  0.9078  1.0685  1.3263
    2CHL1   C14   90   1.384   4.344   7.165 -0.1137  0.2412  0.2594
    2CHL1   H14   91   1.279   4.380   7.174 -0.7849 -1.4669 -0.2948
    2CHL1   C15   92   1.395   4.214   7.079 -0.1249 -0.7268  0.8996
    2CHL1  H15A   93   1.480   4.150   7.112  0.2264  0.2730  2.0133
    2CHL1  H15B   94   1.300   4.158   7.075 -1.5043  1.4740  1.1453
    2CHL1   C16   95   1.407   4.279   6.934  0.2342  0.3777  0.3298
    2CHL1  H16A   96   1.495   4.227   6.890  0.4676  1.9472 -1.1884
    2CHL1  H16B   97   1.316   4.261   6.874  0.7553  0.4725 -0.5096
    2CHL1   C17   98   1.408   4.434   6.944 -0.0326 -0.7658 -0.6548
    2CHL1   H17   99   1.306   4.477   6.942  0.8710  1.6130  0.1180
    2CHL1   C13  100   1.462   4.452   7.085 -0.0146 -0.3793 -0.5411
    2CHL1   C18  101   1.614   4.424   7.093  0.1496 -0.1372  0.7547
    2CHL1  H18A  102   1.648   4.329   7.045  3.4871  0.6863  1.2415
    2CHL1  H18B  103   1.665   4.507   7.040  1.2438 -2.4712 -2.1423
    2CHL1  H18C  104   1.660   4.414   7.194  2.8158 -0.4267 -0.3879
    2CHL1   C12  105   1.435   4.592   7.153 -0.3844 -0.5578 -0.4722
    2CHL1  H12A  106   1.508   4.661   7.105 -0.1730 -0.2000  0.3324
    2CHL1  H12B  107   1.332   4.626   7.132 -0.2795  0.6140  0.7313
    2CHL1   C11  108   1.468   4.577   7.301  0.1916 -0.1920  0.1223
    2CHL1  H11A  109   1.577   4.561   7.316 -0.2590 -3.3404  0.7627
    2CHL1  H11B  110   1.448   4.676   7.347  1.5544 -0.1174  0.5900
    2CHL1    C9  111   1.401   4.461   7.377 -0.4394  0.1517  0.0770
    2CHL1    H9  112   1.292   4.481   7.375 -0.5106 -0.1545  0.6576
    2CHL1   C10  113   1.438   4.453   7.533 -0.3260 -0.8419  0.6409
    2CHL1   C19  114   1.600   4.445   7.541  0.6567  0.3447  0.1849
    2CHL1  H19A  115   1.639   4.370   7.469 -0.1406 -0.6088  0.7269
    2CHL1  H19B  116   1.647   4.543   7.518 -0.4560 -0.0700 -5.1944
    2CHL1  H19C  117   1.635   4.425   7.644 -0.3545  1.7163  0.8326
    2CHL1    C1  118   1.380   4.569   7.615  0.5385  0.8056  0.6682
    2CHL1   H1A  119   1.421   4.671   7.601  1.5734  0.8453  3.4222
    2CHL1   H1B  120   1.274   4.583   7.585  0.0708 -3.2192 -0.1625
    2CHL1    C2  121   1.380   4.548   7.770 -0.4520 -0.5833  0.5844
    2CHL1   H2A  122   1.318   4.625   7.822 -0.9668 -2.2482  2.5811
    2CHL1   H2B  123   1.483   4.550   7.812 -0.2104 -0.6432  0.0039
    2CHL1   C20  124   1.481   4.508   6.834  0.6097 -0.2689  0.2906
    2CHL1   H20  125   1.589   4.489   6.850  0.5923  0.8677  2.0065
    2CHL1   C21  126   1.451   4.660   6.831 -1.1360 -0.2844  0.4639
    2CHL1  H21A  127   1.495   4.707   6.741 -1.8790 -1.2304 -0.4120
    2CHL1  H21B  128   1.507   4.713   6.911 -1.0927  0.6058 -0.1466
    2CHL1  H21C  129   1.346   4.690   6.847 -0.0850  3.8074  0.7936
    2CHL1   C22  130   1.452   4.456   6.684  0.0559  0.3835 -0.3250
    2CHL1  H22A  131   1.530   4.512   6.628 -2.7213  1.5048 -3.4167
    2CHL1  H22B  132   1.480   4.349   6.679 -1.1918  0.0724 -1.1939
    2CHL1   C23  133   1.314   4.481   6.646  1.0901 -0.1043  0.9287
    2CHL1  H23A  134   1.247   4.414   6.705  0.3630 -1.5707 -1.4372
    2CHL1  H23B  135   1.277   4.583   6.667 -1.4115 -1.3664  3.4506
    2CHL1   C24  136   1.280   4.456   6.491  0.0390 -0.2946 -0.2013
    2CHL1  H24A  137   1.308   4.351   6.467  1.4120  0.0617 -0.2626
    2CHL1  H24B  138   1.172   4.467   6.467  0.2050 -3.0617 -2.8576
    2CHL1   C25  139   1.366   4.535   6.394 -0.3592 -0.7285 -0.1511
    2CHL1   H25  140   1.472   4.511   6.416  0.0263  0.2814 -0.8465
    2CHL1   C26  141   1.339   4.477   6.247 -0.1451 -0.2202 -0.0011
    2CHL1  H26A  142   1.229   4.491   6.243 -0.2757 -1.0091  0.6691
    2CHL1  H26B  143   1.395   4.540   6.175 -0.1193 -0.3432 -0.0894
    2CHL1  H26C  144   1.370   4.371   6.232  0.8617  0.0778 -0.1342
    2CHL1   C27  145   1.339   4.681   6.396  0.2364 -0.4048 -0.1092
    2CHL1  H27A  146   1.239   4.711   6.356  0.8608  1.1528 -0.6033
    2CHL1  H27B  147   1.336   4.730   6.496  1.1425  0.6672 -0.5812
    2CHL1  H27C  148   1.411   4.736   6.331  0.2956 -0.1194  0.1976
    3CHL1    C3  149   3.168   5.565   7.541 -0.1025  0.3268  0.6021
    3CHL1    H3  150   3.203   5.669   7.527  4.5289 -0.8752  1.6033
    3CHL1    O3  151   3.151   5.538   7.677  0.4196  0.0770 -0.8361
    3CHL1   H3'  152   3.144   5.443   7.691 -0.0033  0.3700  1.4544
    3CHL1    C4  153   3.031   5.536   7.469 -0.2806 -0.4968  1.0380
    3CHL1   H4A  154   2.982   5.441   7.499 -1.3109 -0.3628 -0.1638
    3CHL1   H4B  155   2.967   5.614   7.514 -2.3150 -0.9397 -0.9194
    3CHL1    C5  156   3.034   5.553   7.315 -1.1964 -0.0199 -0.3661
    3CHL1    C6  157   2.964   5.638   7.242 -0.1350  0.1453 -0.0349
    3CHL1    H6  158   2.895   5.709   7.290  1.7379  2.2293 -0.3097
    3CHL1    C7  159   2.972   5.634   7.088  0.7211 -0.6945  0.1011
    3CHL1   H7A  160   2.868   5.633   7.048  0.5824 -0.0943  0.4236
    3CHL1   H7B  161   3.022   5.728   7.057 -1.0065  0.2955  0.2235
    3CHL1    C8  162   3.043   5.510   7.027  0.2773  0.0102  0.3300
    3CHL1    H8  163   2.979   5.419   7.033  2.2650 -1.5382 -0.7674
    3CHL1   C14  164   3.064   5.535   6.881  0.4055  0.1674  0.9830
    3CHL1   H14  165   3.134   5.619   6.864 -0.4555  0.6447 -0.3942
    3CHL1   C15  166   2.945   5.570   6.786 -0.0654 -0.1455  0.1070
    3CHL1  H15A  167   2.866   5.497   6.814  0.3895 -0.8531 -0.4255
    3CHL1  H15B  168   2.904   5.672   6.798 -0.2748 -0.3122  0.8914
    3CHL1   C16  169   2.998   5.537   6.644  0.0324 -0.2474  0.2341
    3CHL1  H16A  170   2.933   5.462   6.593 -1.0443  0.4471  0.5635
    3CHL1  H16B  171   3.015   5.631   6.587 -0.9304  0.7147  1.4887
    3CHL1   C17  172   3.140   5.470   6.665  0.4335 -0.0112 -0.1022
    3CHL1   H17  173   3.212   5.553   6.650  0.6247 -0.1119  0.2360
    3CHL1   C13  174   3.143   5.422   6.811 -0.4011  0.5432  0.1765
    3CHL1   C18  175   3.077   5.281   6.812 -0.1875  1.0491  0.9289
    3CHL1  H18A  176   3.053   5.248   6.915  0.1492  1.1322  1.0376
    3CHL1  H18B  177   2.979   5.292   6.760 -1.1830 -1.8640  2.0044
    3CHL1  H18C  178   3.130   5.198   6.759 -2.0707  0.7822 -0.6695
    3CHL1   C12  179   3.286   5.430   6.874 -0.0487  0.7184  0.4289
    3CHL1  H12A  180   3.349   5.351   6.828 -3.0189 -0.4218 -2.0242
    3CHL1  H12B  181   3.338   5.527   6.859 -0.0434  0.9773  1.9784
    3CHL1   C11  182   3.270   5.400   7.025  0.5142  0.1381 -0.1750
    3CHL1  H11A  183   3.228   5.297   7.028 -0.5204  0.5623  2.2807
    3CHL1  H11B  184   3.365   5.378   7.078  0.8371  0.2655 -0.7020
    3CHL1    C9  185   3.174   5.492   7.098 -0.6736  0.2908 -0.2358
    3CHL1    H9  186   3.224   5.590   7.086 -1.9530  0.9704 -0.1556
    3CHL1   C10  187   3.154   5.466   7.254 -0.1191 -0.4344 -0.0430
    3CHL1   C19  188   3.121   5.313   7.271 -0.0816 -0.1116 -0.6624
    3CHL1  H19A  189   3.101   5.285   7.377  1.7428  1.3242  0.1140
    3CHL1  H19B  190   3.026   5.286   7.220 -2.0047  2.5564  1.2346
    3CHL1  H19C  191   3.207   5.253   7.233 -0.2580 -0.6398 -0.2396
    3CHL1    C1  192   3.288   5.499   7.330 -0.6207  0.0207  0.4978
    3CHL1   H1A  193   3.371   5.435   7.293 -0.9460  1.3450 -2.9603
    3CHL1   H1B  194   3.308   5.605   7.301 -0.1872 -0.6593 -1.9667
    3CHL1    C2  195   3.280   5.477   7.481 -0.6287  0.4363 -0.0127
    3CHL1   H2A  196   3.371   5.518   7.531 -0.4872 -0.1240  0.1928
    3CHL1   H2B  197   3.276   5.371   7.511  1.8939  0.5010  0.7731
    3CHL1   C20  198   3.183   5.374   6.546 -0.1525 -0.2572 -0.0541
    3CHL1   H20  199   3.113   5.288   6.542  1.0929 -1.2793 -1.2553
    3CHL1   C21  200   3.314   5.312   6.558  0.7175  0.0335  0.4523
    3CHL1  H21A  201   3.397   5.386   6.570  0.0326  0.8990 -0.0247
    3CHL1  H21B  202   3.328   5.240   6.475 -2.3595  1.7612 -1.7607
    3CHL1  H21C  203   3.311   5.253   6.652 -0.2544  0.6696  0.8337
    3CHL1   C22  204   3.172   5.455   6.415 -0.3167 -0.2177 -0.5064
    3CHL1  H22A  205   3.151   5.564   6.422  1.1640  0.1577 -1.5019
    3CHL1  H22B  206   3.277   5.445   6.378 -0.0052  0.2509  0.2160
    3CHL1   C23  207   3.072   5.403   6.303  0.5945 -0.3476 -0.8118
    3CHL1  H23A  208   3.059   5.293   6.306 -2.0517 -0.1317 -1.3309
    3CHL1  H23B  209   2.972   5.451   6.311  1.5286  1.7896 -1.2629
    3CHL1   C24  210   3.123   5.444   6.161 -0.9282  0.1001 -0.9276
    3CHL1  H24A  211   3.151   5.552   6.153 -1.2027  0.2665  0.2727
    3CHL1  H24B  212   3.216   5.386   6.141 -0.6135 -0.2728  1.3587
    3CHL1   C25  213   3.032   5.420   6.041  0.2657 -0.2358 -0.0901
    3CHL1   H25  214   2.982   5.322   6.058 -0.0619 -0.5039 -2.3295
    3CHL1   C26  215   2.924   5.531   6.022  0.1742  0.5703 -0.7692
    3CHL1  H26A  216   2.879   5.499   5.925  1.8932  1.6541 -1.9697
    3CHL1  H26B  217   2.853   5.540   6.107  1.4475  1.2890  0.2531
    3CHL1  H26C  218   2.967   5.633   6.014 -3.7014  2.3446 -1.2888
    3CHL1   C27  219   3.119   5.404   5.917  0.2534  0.1542  0.1561
    3CHL1  H27A  220   3.175   5.307   5.919 -0.7239 -0.5079 -1.7725
    3CHL1  H27B  221   3.047   5.394   5.833 -0.2627  0.5001  0.5553
    3CHL1  H27C  222   3.190   5.489   5.906  0.4613  0.4723  3.0399
    4CHL1    C3  223   0.361   4.089   7.158 -0.8726  0.8563 -0.3016
    4CHL1    H3  224   0.377   3.983   7.129  3.3649  1.4373 -0.6606
    4CHL1    O3  225   0.345   4.084   7.305  0.9730  0.3321  0.3909
    4CHL1   H3'  226   0.317   4.174   7.322 -2.7222 -0.5490 -0.2063
    4CHL1    C4  227   0.475   4.175   7.117  0.1267 -0.3893 -0.0485
    4CHL1   H4A  228   0.435   4.275   7.142 -0.9761 -0.9159  0.3388
    4CHL1   H4B  229   0.568   4.156   7.176 -0.3547 -0.5449  0.6790
    4CHL1    C5  230   0.488   4.148   6.963 -0.5844  0.0078  0.2562
    4CHL1    C6  231   0.603   4.093   6.904  0.5307 -0.2288 -0.5748
    4CHL1    H6  232   0.684   4.077   6.976  0.4219 -1.2475 -0.6728
    4CHL1    C7  233   0.639   4.080   6.758 -0.0293  0.6574  0.7230
    4CHL1   H7A  234   0.741   4.120   6.744  1.1592 -1.8393  1.6318
    4CHL1   H7B  235   0.627   3.979   6.712 -2.2599  0.5839  1.3170
    4CHL1    C8  236   0.534   4.163   6.674 -0.1411  0.3605 -0.9468
    4CHL1    H8  237   0.559   4.270   6.689 -1.1601  0.4704  0.0651
    4CHL1   C14  238   0.537   4.140   6.521 -0.7434  0.0046 -0.6598
    4CHL1   H14  239   0.517   4.031   6.517  0.9188 -0.6323  3.3735
    4CHL1   C15  240   0.666   4.150   6.443 -0.3258  0.1086 -1.0701
    4CHL1  H15A  241   0.695   4.255   6.468 -0.2997 -0.3449  1.0197
    4CHL1  H15B  242   0.751   4.092   6.485 -0.8776  1.1771  1.7515
    4CHL1   C16  243   0.631   4.145   6.295  0.9075 -0.3652 -0.0196
    4CHL1  H16A  244   0.679   4.225   6.235 -0.2595  0.8141  0.5786
    4CHL1  H16B  245   0.670   4.051   6.249  1.1041  0.2950 -1.2629
    4CHL1   C17  246   0.479   4.154   6.295  0.4600 -0.3492 -0.5696
    4CHL1   H17  247   0.431   4.056   6.277 -0.2733 -0.2891  0.8842
    4CHL1   C13  248   0.438   4.213   6.434 -0.6860 -0.9385 -0.0854
    4CHL1   C18  249   0.456   4.367   6.440  0.5099  0.2819 -0.3333
    4CHL1  H18A  250   0.454   4.413   6.542 -0.3945 -0.7925  0.1598
    4CHL1  H18B  251   0.547   4.406   6.389  1.5346  0.6541  1.6782
    4CHL1  H18C  252   0.371   4.415   6.386 -1.2656 -0.3127  1.7820
    4CHL1   C12  253   0.307   4.174   6.481  0.3180  0.5052 -0.1957
    4CHL1  H12A  254   0.221   4.210   6.420 -2.3772 -0.6341  2.6305
    4CHL1  H12B  255   0.292   4.064   6.480  0.6831  0.4595 -1.3680
    4CHL1   C11  256   0.282   4.208   6.629 -0.4135  0.3168 -0.1607
    4CHL1  H11A  257   0.287   4.319   6.635 -0.6662  0.5726 -3.1121
    4CHL1  H11B  258   0.181   4.176   6.664 -0.8885  2.2703  0.3841
    4CHL1    C9  259   0.380   4.144   6.732 -0.2982 -0.7848 -0.7616
    4CHL1    H9  260   0.383   4.033   6.724 -0.2223 -1.0135  1.6049
    4CHL1   C10  261   0.360   4.181   6.878  0.0029 -0.1718  0.1955
    4CHL1   C19  262   0.336   4.335   6.894  0.0605  0.4874 -0.1026
    4CHL1  H19A  263   0.334   4.361   7.002  0.7964 -1.4691  0.4243
    4CHL1  H19B  264   0.408   4.404   6.845 -0.2533  1.6215  0.9802
    4CHL1  H19C  265   0.234   4.364   6.862 -0.0975  1.0214  0.8426
    4CHL1    C1  266   0.234   4.108   6.940  0.1276 -0.2952  0.3188
    4CHL1   H1A  267   0.146   4.157   6.894  1.1690  0.4632 -0.9452
    4CHL1   H1B  268   0.236   4.002   6.906 -1.7593  0.1072 -1.2401
    4CHL1    C2  269   0.227   4.129   7.096  0.0735  0.3105 -0.3818
    4CHL1   H2A  270   0.147   4.067   7.141  0.2563  2.7943  3.9295
    4CHL1   H2B  271   0.193   4.232   7.120 -0.5765 -0.1552  0.7842
    4CHL1   C20  272   0.433   4.236   6.181  0.0804  0.5943  0.4401
    4CHL1   H20  273   0.462   4.341   6.202 -0.3678  0.9380 -0.6139
    4CHL1   C21  274   0.284   4.230   6.162  0.7067 -0.4288  0.7510
    4CHL1  H21A  275   0.245   4.283   6.072  1.9366 -0.4797  0.1577
    4CHL1  H21B  276   0.220   4.277   6.240 -2.8873 -1.4117 -1.3545
    4CHL1  H21C  277   0.248   4.125   6.159  0.7330 -0.4503  1.2015
    4CHL1   C22  278   0.496   4.188   6.044 -0.0001 -0.2456  0.7521
    4CHL1  H22A  279   0.478   4.269   5.970 -2.1093 -1.8614 -0.6272
    4CHL1  H22B  280   0.600   4.152   6.059 -0.4987 -1.4786  1.4102
    4CHL1   C23  281   0.428   4.066   5.983 -0.3684  0.2377 -0.4367
    4CHL1  H23A  282   0.382   4.004   6.063 -0.6270  1.4902  0.4188
    4CHL1  H23B  283   0.339   4.097   5.924  0.3987  0.7597 -1.3415
    4CHL1   C24  284   0.539   3.979   5.920  0.4087 -0.0038 -0.2618
    4CHL1  H24A  285   0.624   3.965   5.991  0.6014  0.6955 -0.3537
    4CHL1  H24B  286   0.498   3.881   5.887 -1.6858  1.0445 -0.8868
    4CHL1   C25  287   0.601   4.046   5.800 -0.4469 -0.7875 -0.1181
    4CHL1   H25  288   0.648   4.140   5.835 -0.4870 -0.7299 -0.2197
    4CHL1   C26  289   0.706   3.955   5.738  0.0883 -0.0963  0.5882
    4CHL1  H26A  290   0.765   3.901   5.816 -1.7928  1.7430  3.4729
    4CHL1  H26B  291   0.651   3.882   5.674 -1.7050  2.1995 -0.6532
    4CHL1  H26C  292   0.763   4.015   5.664  0.5309 -0.2240  0.8255
    4CHL1   C27  293   0.495   4.079   5.692  0.2960 -0.3353  0.0572
    4CHL1  H27A  294   0.439   3.984   5.683 -1.0903  0.1592  2.5948
    4CHL1  H27B  295   0.419   4.153   5.725 -0.3246  0.5852 -3.0582
    4CHL1  H27C  296   0.529   4.108   5.590  0.9721  2.0749  0.8945
    5CHL1    C3  297   6.779   6.149   7.753 -0.3549  0.6810  0.3103
    5CHL1    H3  298   6.682   6.097   7.744 -0.9475  1.6481  0.8749
    5CHL1    O3  299   6.779   6.190   7.890  0.2460  0.2652 -0.3637
    5CHL1   H3'  300   6.871   6.209   7.911 -0.2326  2.7817 -0.2247
    5CHL1    C4  301   6.903   6.051   7.721 -0.6285 -0.1487 -0.2663
    5CHL1   H4A  302   6.992   6.103   7.761  0.3776 -0.3874 -2.0933
    5CHL1   H4B  303   6.884   5.959   7.780 -3.0919  0.7612  0.4922
    5CHL1    C5  304   6.917   6.025   7.571 -0.9646  0.0428  0.3409
    5CHL1    C6  305   6.927   5.902   7.516 -0.3071  0.1172 -0.1501
    5CHL1    H6  306   6.919   5.822   7.591  0.2126  0.1793 -0.0240
    5CHL1    C7  307   6.958   5.872   7.375 -0.0902  0.1691  0.2225
    5CHL1   H7A  308   7.034   5.792   7.368 -1.4604 -1.1099 -0.6358
    5CHL1   H7B  309   6.865   5.843   7.321 -0.0333 -3.0624  1.5940
    5CHL1    C8  310   7.006   5.986   7.288  0.7251 -1.2720  0.2508
    5CHL1    H8  311   7.113   6.013   7.302  1.2833 -2.8816 -0.7064
    5CHL1   C14  312   6.987   5.962   7.140 -1.0224  0.5138  1.0341
    5CHL1   H14  313   6.879   5.945   7.118 -0.5950  0.7501 -1.4862
    5CHL1   C15  314   7.056   5.829   7.092  0.1970  0.4503 -0.3843
    5CHL1  H15A  315   7.151   5.815   7.147 -0.0902  0.0804  0.0258
    5CHL1  H15B  316   6.981   5.756   7.130  1.3545 -1.2244 -1.2053
    5CHL1   C16  317   7.056   5.848   6.939 -0.1774 -0.1913  0.3353
    5CHL1  H16A  318   7.158   5.835   6.896 -1.3053 -1.8812 -2.0072
    5CHL1  H16B  319   6.983   5.777   6.896 -1.5891  1.5066 -0.1907
    5CHL1   C17  320   7.001   5.992   6.908  0.0362  0.7399  0.0581
    5CHL1   H17  321   6.890   5.982   6.908  0.0225  0.4056 -2.0070
    5CHL1   C13  322   7.029   6.067   7.043 -0.2548  0.0635 -0.5566
    5CHL1   C18  323   7.177   6.106   7.047 -0.8010 -0.3803 -0.2585
    5CHL1  H18A  324   7.208   6.144   7.147  0.5176 -2.1229  0.0361
    5CHL1  H18B  325   7.257   6.035   7.018 -1.3001 -2.0534  2.1847
    5CHL1  H18C  326   7.189   6.196   6.983  0.6122  0.0355  0.5565
    5CHL1   C12  327   6.935   6.184   7.075  0.4649 -0.1688 -0.4059
    5CHL1  H12A  328   6.951   6.274   7.011 -1.7245 -0.7673 -1.9379
    5CHL1  H12B  329   6.830   6.153   7.055  1.1853 -4.1637  1.2598
    5CHL1   C11  330   6.929   6.227   7.220 -0.7476 -0.3281 -0.3383
    5CHL1  H11A  331   7.022   6.280   7.248  0.1800 -1.0514 -1.8875
    5CHL1  H11B  332   6.848   6.303   7.229  0.4302  1.0417 -0.7546
    5CHL1    C9  333   6.916   6.110   7.322  1.1059  0.0760 -0.4477
    5CHL1    H9  334   6.810   6.076   7.320  1.0695 -0.2009  2.1617
    5CHL1   C10  335   6.923   6.148   7.479 -0.3325  0.1205  1.2104
    5CHL1   C19  336   7.059   6.214   7.507  0.4830  0.1403 -0.3059
    5CHL1  H19A  337   7.139   6.143   7.476  1.3345  0.7913  0.3659
    5CHL1  H19B  338   7.079   6.303   7.445 -0.8911  0.7102  0.0343
    5CHL1  H19C  339   7.067   6.243   7.614  1.7823 -0.8912 -0.1056
    5CHL1    C1  340   6.800   6.234   7.514  0.4704 -0.2418 -0.4462
    5CHL1   H1A  341   6.783   6.329   7.459 -1.2976 -0.4188 -0.2921
    5CHL1   H1B  342   6.706   6.177   7.498 -0.7275  0.5242  2.9726
    5CHL1    C2  343   6.796   6.275   7.662  0.7098  0.5298  0.5518
    5CHL1   H2A  344   6.711   6.340   7.688 -0.7433 -1.2182  0.3860
    5CHL1   H2B  345   6.884   6.333   7.698  0.1060  2.1879 -0.5197
    5CHL1   C20  346   7.043   6.040   6.773  0.2291 -0.8401  0.3836
    5CHL1   H20  347   7.151   6.064   6.768  0.5996 -2.5598 -0.7189
    5CHL1   C21  348   6.965   6.170   6.747 -0.3180  0.0795  0.3005
    5CHL1  H21A  349   6.966   6.206   6.641  1.6764 -0.9049 -0.0588
    5CHL1  H21B  350   7.015   6.260   6.787  2.0151  0.0166 -2.1280
    5CHL1  H21C  351   6.865   6.168   6.795 -0.9771 -0.2492 -1.0334
    5CHL1   C22  352   7.011   5.940   6.660 -0.4012 -0.3813 -0.7099
    5CHL1  H22A  353   7.060   5.845   6.692 -2.1463 -0.7544  1.0101
    5CHL1  H22B  354   6.903   5.917   6.649 -0.1746 -1.2732 -1.1136
    5CHL1   C23  355   7.058   5.980   6.517  0.1499  0.2927  0.1877
    5CHL1  H23A  356   7.002   6.067   6.475 -0.8181 -1.0283 -1.3383
    5CHL1  H23B  357   7.163   6.012   6.530  0.2411  0.0877 -0.0500
    5CHL1   C24  358   7.041   5.857   6.418 -0.1256 -0.6607 -0.8866
    5CHL1  H24A  359   7.090   5.769   6.464 -1.5479 -1.0532 -0.0423
    5CHL1  H24B  360   6.934   5.826   6.415 -0.1358 -0.8412  0.6015
    5CHL1   C25  361   7.088   5.880   6.276 -0.0066 -0.8783 -0.2266
    5CHL1   H25  362   7.196   5.906   6.287 -0.0446 -1.4480  1.9572
    5CHL1   C26  363   7.092   5.743   6.212  0.0147  0.3352 -0.4150
    5CHL1  H26A  364   6.989   5.704   6.201 -0.2491 -0.1721  2.8718
    5CHL1  H26B  365   7.133   5.730   6.110  1.9866 -0.1096  0.3904
    5CHL1  H26C  366   7.139   5.672   6.283 -2.7703  0.5277  1.8202
    5CHL1   C27  367   7.015   5.991   6.195 -1.1979 -0.4302 -0.5280
    5CHL1  H27A  368   7.026   6.093   6.239  4.0090 -0.6221 -0.7412
    5CHL1  H27B  369   7.064   5.997   6.095  1.7744 -0.2960  0.8241
    5CHL1  H27C  370   6.908   5.962   6.186 -1.3911  0.1589 -0.1679
    6CHL1    C3  371   0.510   2.492   7.170 -0.4747  0.4419  0.5252
    6CHL1    H3  372   0.618   2.468   7.162 -1.2046 -3.3617 -0.1752
    6CHL1    O3  373   0.473   2.535   7.296 -0.0039 -0.1337  0.2308
    6CHL1   H3'  374   0.402   2.598   7.280  1.2529  0.9968 -1.1857
    6CHL1    C4  375   0.487   2.608   7.069 -0.2078 -1.0085 -0.0444
    6CHL1   H4A  376   0.389   2.655   7.090  0.8654  1.8536 -1.0234
    6CHL1   H4B  377   0.554   2.691   7.102  0.1445 -0.6388 -1.6101
    6CHL1    C5  378   0.505   2.568   6.929  0.8978  0.6982  0.0235
    6CHL1    C6  379   0.601   2.627   6.855  0.2980  0.1361 -0.5334
    6CHL1    H6  380   0.667   2.705   6.898  0.7055 -1.1398  1.2716
    6CHL1    C7  381   0.638   2.591   6.720  0.7133  0.6750  0.4802
    6CHL1   H7A  382   0.649   2.682   6.657  0.7070 -0.2926 -0.9691
    6CHL1   H7B  383   0.729   2.528   6.724  0.0533 -0.5494 -1.9374
    6CHL1    C8  384   0.537   2.494   6.652 -0.2363 -0.7796 -1.0240
    6CHL1    H8  385   0.438   2.539   6.631 -0.7286 -1.2770  0.1998
    6CHL1   C14  386   0.594   2.429   6.529 -0.0713 -0.8551  0.1256
    6CHL1   H14  387   0.678   2.366   6.566  0.5503 -1.1789 -1.7172
    6CHL1   C15  388   0.662   2.521   6.426 -0.1362 -0.6895  0.0169
    6CHL1  H15A  389   0.609   2.619   6.432 -0.8937 -1.1182  0.5533
    6CHL1  H15B  390   0.767   2.529   6.459 -0.1744 -1.7533  0.4335
    6CHL1   C16  391   0.655   2.447   6.291 -0.1464 -0.1796  0.0073
    6CHL1  H16A  392   0.591   2.510   6.226 -1.7914 -2.7430 -1.0371
    6CHL1  H16B  393   0.752   2.428   6.239 -1.2892 -0.5651 -2.0825
    6CHL1   C17  394   0.592   2.307   6.327  0.7177  0.0345 -0.4683
    6CHL1   H17  395   0.682   2.248   6.352  0.6701  0.8267  1.8363
    6CHL1   C13  396   0.508   2.330   6.456  0.0881  0.0712 -0.3938
    6CHL1   C18  397   0.376   2.401   6.416  0.1933  0.4201  0.3219
    6CHL1  H18A  398   0.389   2.496   6.360  0.3074  0.3202  0.1785
    6CHL1  H18B  399   0.318   2.330   6.353 -0.5222 -0.6368  2.1034
    6CHL1  H18C  400   0.319   2.439   6.503 -0.2651 -0.2303  0.3076
    6CHL1   C12  401   0.483   2.215   6.549  0.1930  0.0545 -0.8099
    6CHL1  H12A  402   0.415   2.141   6.502 -0.4160  0.3263 -0.3618
    6CHL1  H12B  403   0.576   2.162   6.581 -0.2800  1.6014  3.8421
    6CHL1   C11  404   0.416   2.274   6.674 -0.2138  0.2844 -0.7146
    6CHL1  H11A  405   0.315   2.300   6.635  0.7848 -0.0040 -3.7217
    6CHL1  H11B  406   0.394   2.193   6.746  0.5931  0.2069 -0.5476
    6CHL1    C9  407   0.492   2.384   6.749  0.2940 -0.0080 -0.1703
    6CHL1    H9  408   0.590   2.336   6.769  1.2408  0.1568 -3.7906
    6CHL1   C10  409   0.434   2.436   6.887 -0.3449  0.4657 -0.7276
    6CHL1   C19  410   0.282   2.461   6.869 -0.0988  0.0724 -0.7303
    6CHL1  H19A  411   0.238   2.361   6.848 -0.4409  0.3444 -1.3194
    6CHL1  H19B  412   0.244   2.511   6.960  1.0333  1.9727 -1.2435
    6CHL1  H19C  413   0.271   2.526   6.779  1.1488  0.5843 -0.5321
    6CHL1    C1  414   0.462   2.328   6.994 -0.0097  0.5411  0.2438
    6CHL1   H1A  415   0.418   2.232   6.959 -1.1189  0.5899  1.4342
    6CHL1   H1B  416   0.572   2.313   7.002  0.1097  0.6175 -1.0450
    6CHL1    C2  417   0.413   2.370   7.134  0.2720 -0.1190 -0.4869
    6CHL1   H2A  418   0.442   2.279   7.191  0.8521 -2.1104 -3.6929
    6CHL1   H2B  419   0.304   2.388   7.145  0.3372 -0.5386  1.0175
    6CHL1   C20  420   0.528   2.230   6.207 -0.2451 -0.2498  0.2183
    6CHL1   H20  421   0.442   2.171   6.247 -0.4013 -1.0184 -1.1907
    6CHL1   C21  422   0.640   2.146   6.152 -0.2342 -0.3905  0.2656
    6CHL1  H21A  423   0.722   2.214   6.121 -1.4215  1.0414  0.2073
    6CHL1  H21B  424   0.607   2.099   6.057 -0.1963 -2.5807  1.2689
    6CHL1  H21C  425   0.691   2.069   6.214  0.6250  0.3525  0.5062
    6CHL1   C22  426   0.466   2.321   6.096  0.1160  0.4706 -0.5279
    6CHL1  H22A  427   0.410   2.403   6.145 -0.7784 -0.1453 -0.4947
    6CHL1  H22B  428   0.551   2.362   6.038  0.7880 -0.9904 -0.6168
    6CHL1   C23  429   0.377   2.245   6.002 -0.4283  0.1703 -0.3499
    6CHL1  H23A  430   0.356   2.145   6.045  0.3937  0.5174  0.9111
    6CHL1  H23B  431   0.280   2.299   6.004 -0.1367  0.6980 -0.1709
    6CHL1   C24  432   0.423   2.232   5.861 -0.4706  0.7516  0.0097
    6CHL1  H24A  433   0.527   2.192   5.861 -1.2762 -1.5604 -1.7456
    6CHL1  H24B  434   0.357   2.153   5.821  1.0025  0.7957 -2.7851
    6CHL1   C25  435   0.410   2.358   5.773 -0.1460 -0.5784 -0.2602
    6CHL1   H25  436   0.486   2.428   5.814 -1.0108  0.4736 -0.4390
    6CHL1   C26  437   0.466   2.322   5.632 -0.3533 -0.4332  0.8936
    6CHL1  H26A  438   0.468   2.410   5.565  1.1516 -1.0048  0.1636
    6CHL1  H26B  439   0.571   2.287   5.629  0.7015  2.3483 -3.1539
    6CHL1  H26C  440   0.405   2.236   5.596  0.3442 -1.2620  1.6564
    6CHL1   C27  441   0.277   2.419   5.767  0.3377 -0.0866 -0.3342
    6CHL1  H27A  442   0.250   2.451   5.870  1.1655 -0.8200  0.1254
    6CHL1  H27B  443   0.292   2.515   5.714  0.6228 -1.0192 -1.9808
    6CHL1  H27C  444   0.195   2.359   5.722 -1.3044 -1.8441  4.3725
    7CHL1    C3  445   1.089   0.679   7.689  0.4133 -0.9585  1.0041
    7CHL1    H3  446   1.173   0.608   7.682  2.7045  1.2804  3.6311
    7CHL1    O3  447   1.077   0.732   7.819 -0.0491 -0.6049 -0.1058
    7CHL1   H3'  448   1.013   0.803   7.806 -2.8096 -3.2344 -2.4545
    7CHL1    C4  449   1.122   0.793   7.588 -0.1741  1.2581 -0.1923
    7CHL1   H4A  450   1.056   0.882   7.597 -0.7903  0.7168  0.7726
    7CHL1   H4B  451   1.218   0.838   7.621 -0.5706  1.6472  0.4563
    7CHL1    C5  452   1.117   0.743   7.445  0.2779 -0.0293  0.2779
    7CHL1    C6  453   1.217   0.777   7.362 -0.3141  0.1518  0.2482
    7CHL1    H6  454   1.303   0.837   7.395  1.1911 -1.2622 -0.9583
    7CHL1    C7  455   1.228   0.730   7.218  0.1652  0.8544  0.1217
    7CHL1   H7A  456   1.269   0.806   7.148 -1.6743 -1.2287 -3.5192
    7CHL1   H7B  457   1.289   0.638   7.210 -0.1319  0.7961 -4.2717
    7CHL1    C8  458   1.096   0.684   7.164 -0.4357  0.3329 -0.2250
    7CHL1    H8  459   1.032   0.772   7.140  1.4946  2.2173  1.0951
    7CHL1   C14  460   1.111   0.612   7.025  0.6572  0.1163  0.6844
    7CHL1   H14  461   1.165   0.517   7.044  0.4109 -0.6723 -2.1358
    7CHL1   C15  462   1.191   0.681   6.918  0.5619  0.4236  0.3005
    7CHL1  H15A  463   1.157   0.787   6.915 -0.8116  0.0313 -3.2596
    7CHL1  H15B  464   1.301   0.668   6.927  0.4884  0.1564  0.8408
    7CHL1   C16  465   1.134   0.624   6.786 -0.2559  0.2107 -0.0206
    7CHL1  H16A  466   1.071   0.698   6.731  1.1473  0.7992 -0.8859
    7CHL1  H16B  467   1.217   0.581   6.725  0.6924  0.3697  1.1312
    7CHL1   C17  468   1.034   0.509   6.828 -0.0818  0.1476 -1.0645
    7CHL1   H17  469   1.103   0.424   6.846  0.9701  0.8777 -1.5675
    7CHL1   C13  470   0.979   0.561   6.957  0.2710  0.1837 -0.6004
    7CHL1   C18  471   0.871   0.675   6.936 -0.6443 -0.2435  0.3741
    7CHL1  H18A  472   0.856   0.738   7.026  2.7806  0.6037  0.4954
    7CHL1  H18B  473   0.905   0.732   6.847 -0.7208  0.1370  0.5856
    7CHL1  H18C  474   0.773   0.634   6.903 -0.6353  1.1524 -1.5702
    7CHL1   C12  475   0.906   0.461   7.061 -0.4217  0.4442 -0.1901
    7CHL1  H12A  476   0.807   0.440   7.014 -0.2942 -2.0867  0.5523
    7CHL1  H12B  477   0.960   0.366   7.078 -1.4612  0.0124  0.8103
    7CHL1   C11  478   0.891   0.534   7.193  0.2291 -0.1785  0.0915
    7CHL1  H11A  479   0.807   0.606   7.185 -0.6471 -1.2741 -1.0183
    7CHL1  H11B  480   0.860   0.457   7.267 -0.8764  0.6664  0.5333
    7CHL1    C9  481   1.019   0.593   7.256 -0.0819 -0.8094  0.1906
    7CHL1    H9  482   1.081   0.506   7.285 -0.1798 -0.9243  0.0578
    7CHL1   C10  483   0.992   0.660   7.401 -1.1045  0.2626  0.2156
    7CHL1   C19  484   0.873   0.759   7.396 -0.3751 -0.1906  0.3368
    7CHL1  H19A  485   0.771   0.716   7.401 -1.1474  1.6363  1.2847
    7CHL1  H19B  486   0.874   0.824   7.487 -1.4246 -0.5487  0.6203
    7CHL1  H19C  487   0.883   0.842   7.323  1.9538 -0.2222  0.5316
    7CHL1    C1  488   0.959   0.556   7.504 -0.5841 -0.3654  0.3070
    7CHL1   H1A  489   0.859   0.512   7.487 -0.7753 -0.2181  1.0175
    7CHL1   H1B  490   1.039   0.479   7.513 -1.2332 -0.9474  1.4363
    7CHL1    C2  491   0.960   0.606   7.654 -0.0251 -0.2157  0.3197
    7CHL1   H2A  492   0.950   0.516   7.717 -0.6594  0.7114  1.5783
    7CHL1   H2B  493   0.871   0.672   7.664 -0.1905  0.0270 -2.1710
    7CHL1   C20  494   0.942   0.453   6.720  0.2338  0.0939 -0.9552
    7CHL1   H20  495   0.853   0.519   6.713  1.2578  1.5731 -0.3819
    7CHL1   C21  496   0.889   0.314   6.763  0.0621 -0.3547 -0.6672
    7CHL1  H21A  497   0.823   0.311   6.852  0.5165 -0.4583 -0.3289
    7CHL1  H21B  498   0.973   0.253   6.804  0.6592  1.5352  1.1362
    7CHL1  H21C  499   0.839   0.260   6.680 -2.3782  0.1694  0.3640
    7CHL1   C22  500   0.997   0.450   6.576 -0.1674 -0.3975  0.3581
    7CHL1  H22A  501   0.916   0.418   6.508 -0.1156  0.9613 -0.3630
    7CHL1  H22B  502   1.030   0.553   6.551 -0.3162 -0.4627 -0.1006
    7CHL1   C23  503   1.117   0.357   6.553 -0.0867 -0.6792  0.7437
    7CHL1  H23A  504   1.185   0.356   6.641 -0.9740 -1.3923  1.4416
    7CHL1  H23B  505   1.088   0.251   6.542 -2.1170  0.0178 -1.4316
    7CHL1   C24  506   1.207   0.405   6.438 -0.0733 -0.5231  0.9514
    7CHL1  H24A  507   1.156   0.415   6.340  0.8415 -0.0825  0.5107
    7CHL1  H24B  508   1.236   0.509   6.461 -3.7702  0.5366  1.5929
    7CHL1   C25  509   1.324   0.309   6.411  0.4178 -0.3043 -0.5306
    7CHL1   H25  510   1.364   0.289   6.512 -0.4397 -1.6053 -0.4204
    7CHL1   C26  511   1.278   0.179   6.345  0.3149  0.1065 -0.0064
    7CHL1  H26A  512   1.358   0.103   6.360 -1.6833 -1.7065  2.3228
    7CHL1  H26B  513   1.184   0.132   6.381 -0.6835  0.9975 -1.3871
    7CHL1  H26C  514   1.265   0.203   6.238  1.4391  0.9698  0.0247
    7CHL1   C27  515   1.438   0.366   6.329  0.3102 -0.3152  0.4380
    7CHL1  H27A  516   1.531   0.311   6.357  1.4204  0.9028 -0.6849
    7CHL1  H27B  517   1.417   0.358   6.220  2.1725  1.6396 -0.1250
    7CHL1  H27C  518   1.457   0.471   6.359  0.1510  0.2077 -1.1797
    8CHL1    C3  519   0.994   2.643   7.189 -0.4231 -0.7854  0.5036
    8CHL1    H3  520   1.088   2.614   7.239  0.1738 -0.0217 -0.1396
    8CHL1    O3  521   0.888   2.640   7.276 -0.4089  0.3724 -0.2059
    8CHL1   H3'  522   0.904   2.704   7.346 -0.8396 -1.4227  1.6617
    8CHL1    C4  523   0.999   2.773   7.110 -0.2822  0.2434 -0.8206
    8CHL1   H4A  524   0.910   2.790   7.046 -0.9032  1.9569  0.4259
    8CHL1   H4B  525   0.990   2.855   7.184  2.6864  0.2538 -0.3567
    8CHL1    C5  526   1.131   2.773   7.031  0.4361 -0.1089  0.0905
    8CHL1    C6  527   1.234   2.857   7.054  0.0954  0.1635 -1.1082
    8CHL1    H6  528   1.233   2.927   7.139 -2.1422 -1.2255  0.0982
    8CHL1    C7  529   1.362   2.840   6.978  0.3930 -0.3063 -0.4174
    8CHL1   H7A  530   1.411   2.939   6.967  0.8408 -0.1413  2.2433
    8CHL1   H7B  531   1.435   2.787   7.043  1.4293 -0.2075 -1.4640
    8CHL1    C8  532   1.342   2.770   6.846  0.6710 -0.1571  0.0958
    8CHL1    H8  533   1.303   2.837   6.766  1.5684  0.2013 -0.0611
    8CHL1   C14  534   1.480   2.730   6.787  1.1431  0.4129  0.0419
    8CHL1   H14  535   1.523   2.665   6.867 -0.5836 -0.6421  0.1720
    8CHL1   C15  536   1.578   2.843   6.773  0.1523  0.1440  0.6754
    8CHL1  H15A  537   1.529   2.934   6.732  2.2063  0.4223 -1.3810
    8CHL1  H15B  538   1.639   2.854   6.866  1.5484 -2.0706  0.1089
    8CHL1   C16  539   1.674   2.798   6.666  0.2214  0.3891 -0.2963
    8CHL1  H16A  540   1.672   2.862   6.576 -0.4214 -0.1756 -0.6891
    8CHL1  H16B  541   1.777   2.780   6.704  0.0273 -2.4801 -0.8916
    8CHL1   C17  542   1.627   2.656   6.614 -0.2630 -0.1105  0.1881
    8CHL1   H17  543   1.671   2.571   6.669 -0.2090 -1.5999 -2.0219
    8CHL1   C13  544   1.475   2.656   6.646 -1.0505 -0.6206  0.1244
    8CHL1   C18  545   1.408   2.744   6.537 -0.1180 -0.1910  0.2370
    8CHL1  H18A  546   1.303   2.770   6.562  0.3342  0.0171  2.0254
    8CHL1  H18B  547   1.457   2.842   6.524 -1.2753  0.8189  2.8998
    8CHL1  H18C  548   1.399   2.691   6.439 -0.6321 -0.0518  0.2078
    8CHL1   C12  549   1.407   2.522   6.670 -0.2797  0.6560  0.2442
    8CHL1  H12A  550   1.405   2.463   6.576 -0.4610  1.6365 -0.3889
    8CHL1  H12B  551   1.470   2.464   6.741  0.4472  0.8786 -0.2087
    8CHL1   C11  552   1.267   2.543   6.728  0.1212 -0.0411 -0.2294
    8CHL1  H11A  553   1.209   2.590   6.644 -1.9441 -1.6999  0.1836
    8CHL1  H11B  554   1.229   2.440   6.744 -0.2338  0.1548  0.2019
    8CHL1    C9  555   1.261   2.641   6.852 -0.0969  0.6307 -0.4946
    8CHL1    H9  556   1.321   2.581   6.923 -2.2603 -1.8790 -0.6175
    8CHL1   C10  557   1.125   2.661   6.917 -0.1449 -0.5271 -0.4425
    8CHL1   C19  558   1.020   2.698   6.808  0.2354 -0.0372 -0.4214
    8CHL1  H19A  559   0.925   2.738   6.848  0.5563  0.2804  0.0407
    8CHL1  H19B  560   1.054   2.772   6.732  0.8563 -0.2449 -0.3578
    8CHL1  H19C  561   0.989   2.600   6.766 -1.4259 -1.6275  3.9581
    8CHL1    C1  562   1.086   2.531   6.989  0.0754  0.2281  0.2121
    8CHL1   H1A  563   1.059   2.445   6.924  3.1109 -1.3703  0.8808
    8CHL1   H1B  564   1.172   2.489   7.046 -0.8497 -2.0538  0.0549
    8CHL1    C2  565   0.963   2.534   7.085 -0.0809  0.2465  0.0965
    8CHL1   H2A  566   0.971   2.434   7.134 -2.1844  0.9681  2.0826
    8CHL1   H2B  567   0.864   2.564   7.047 -0.2883 -0.3467  0.1502
    8CHL1   C20  568   1.672   2.627   6.466  0.1245 -0.1543  0.3934
    8CHL1   H20  569   1.622   2.707   6.407  2.2346  2.4435  1.8600
    8CHL1   C21  570   1.634   2.481   6.417  0.1976 -0.0786 -0.7388
    8CHL1  H21A  571   1.635   2.408   6.501  0.9105 -1.6609 -2.0778
    8CHL1  H21B  572   1.716   2.435   6.358  2.7460 -0.2257  2.6269
    8CHL1  H21C  573   1.530   2.481   6.379 -1.0072  0.4398  2.2366
    8CHL1   C22  574   1.822   2.655   6.446 -0.2400 -0.7636 -0.2420
    8CHL1  H22A  575   1.866   2.726   6.519 -0.2341  0.9957 -1.8719
    8CHL1  H22B  576   1.867   2.555   6.433  0.2638 -0.3347 -2.1648
    8CHL1   C23  577   1.843   2.731   6.315  0.0038  0.1324  0.1220
    8CHL1  H23A  578   1.797   2.659   6.243 -1.1611  0.5965  0.3659
    8CHL1  H23B  579   1.799   2.833   6.311 -1.4881 -0.4685  0.4823
    8CHL1   C24  580   1.990   2.742   6.271 -0.2290 -0.3334  0.1553
    8CHL1  H24A  581   2.052   2.796   6.346  0.0343  1.0739 -1.0429
    8CHL1  H24B  582   2.034   2.642   6.249  2.7865  0.7780  0.6492
    8CHL1   C25  583   2.006   2.824   6.146  0.1501 -0.3674 -0.2082
    8CHL1   H25  584   1.956   2.924   6.144  1.4074  0.3011  0.7104
    8CHL1   C26  585   2.160   2.858   6.126 -0.1458 -0.2049 -0.1042
    8CHL1  H26A  586   2.191   2.903   6.030 -1.3040  0.1986 -0.3016
    8CHL1  H26B  587   2.198   2.934   6.198 -0.9284  1.6697 -1.5921
    8CHL1  H26C  588   2.206   2.757   6.132 -1.0608 -0.5908  0.6656
    8CHL1   C27  589   1.953   2.739   6.034  0.1159  0.1829  0.2958
    8CHL1  H27A  590   1.845   2.712   6.042 -0.4352  2.3001  0.7651
    8CHL1  H27B  591   1.972   2.791   5.938 -1.1756  2.2365  1.0810
    8CHL1  H27C  592   2.007   2.644   6.019 -1.5475 -0.5919 -1.2048
    9CHL1    C3  593   3.181   2.773   7.925 -0.4018  0.1756 -0.4783
    9CHL1    H3  594   3.075   2.739   7.920  0.1042 -1.4063 -1.3367
    9CHL1    O3  595   3.226   2.788   8.057  0.1609 -0.1723  0.5117
    9CHL1   H3'  596   3.317   2.818   8.054  0.2773 -0.5343  0.3666
    9CHL1    C4  597   3.272   2.666   7.847 -0.0726  0.1270  0.4462
    9CHL1   H4A  598   3.374   2.710   7.840  0.1729 -0.6110 -0.9978
    9CHL1   H4B  599   3.270   2.574   7.909 -1.1787  1.1629  1.9950
    9CHL1    C5  600   3.206   2.651   7.707 -0.6925  0.0790  0.5834
    9CHL1    C6  601   3.160   2.535   7.665  0.2426  0.6429  0.5615
    9CHL1    H6  602   3.164   2.448   7.731  1.9987 -0.0460 -0.3770
    9CHL1    C7  603   3.099   2.513   7.530  0.6681  0.8950  0.3192
    9CHL1   H7A  604   3.116   2.416   7.480 -0.5315  0.8245  0.0198
    9CHL1   H7B  605   2.989   2.520   7.545  0.1437 -2.8224 -0.9700
    9CHL1    C8  606   3.133   2.624   7.428  0.5850 -0.0566  0.5498
    9CHL1    H8  607   3.240   2.609   7.400 -0.6149 -1.4970 -4.2174
    9CHL1   C14  608   3.040   2.618   7.312 -0.1297  0.5340  0.5089
    9CHL1   H14  609   2.941   2.642   7.357 -1.1069  0.2221 -1.3587
    9CHL1   C15  610   3.024   2.487   7.231 -0.1702 -0.5170 -0.0415
    9CHL1  H15A  611   3.121   2.437   7.214  0.4934  0.9762 -0.8321
    9CHL1  H15B  612   2.948   2.427   7.286 -2.4400  0.9354 -1.4019
    9CHL1   C16  613   2.981   2.534   7.094 -0.3013 -0.0430  0.0048
    9CHL1  H16A  614   3.067   2.507   7.029  2.2268  1.4748  2.4769
    9CHL1  H16B  615   2.886   2.485   7.063  1.1404 -1.1869 -2.9778
    9CHL1   C17  616   2.952   2.683   7.097 -0.8014 -0.1801  0.4098
    9CHL1   H17  617   2.851   2.694   7.143 -1.1796  1.8539 -0.7408
    9CHL1   C13  618   3.054   2.726   7.200 -0.2102  0.5238 -0.6738
    9CHL1   C18  619   3.196   2.730   7.139 -0.5256 -0.0010  0.0195
    9CHL1  H18A  620   3.227   2.626   7.117 -0.3329  0.0475  0.0567
    9CHL1  H18B  621   3.193   2.788   7.044  0.5002 -0.8325 -0.5395
    9CHL1  H18C  622   3.276   2.768   7.207 -0.4653 -1.9168  1.0747
    9CHL1   C12  623   3.025   2.859   7.270 -0.4490  0.7594  0.4143
    9CHL1  H12A  624   3.030   2.944   7.197  0.6936  0.1645 -0.2293
    9CHL1  H12B  625   2.916   2.852   7.290 -0.2176 -0.7404  1.2679
    9CHL1   C11  626   3.102   2.886   7.403  0.1584  0.7012  0.3074
    9CHL1  H11A  627   3.206   2.908   7.371  0.1835  0.2433  0.0722
    9CHL1  H11B  628   3.057   2.979   7.444 -1.0503  0.4494 -0.3750
    9CHL1    C9  629   3.104   2.760   7.497 -0.3197 -0.5048  0.4631
    9CHL1    H9  630   3.001   2.752   7.538 -1.1666  0.4209 -1.3894
    9CHL1   C10  631   3.194   2.783   7.627 -0.7155 -0.4137 -0.2712
    9CHL1   C19  632   3.336   2.818   7.578 -1.0347  0.0019 -0.3008
    9CHL1  H19A  633   3.334   2.909   7.515 -3.1484 -0.9829 -1.7738
    9CHL1  H19B  634   3.395   2.827   7.672 -0.4230 -1.0072 -0.5798
    9CHL1  H19C  635   3.370   2.734   7.515 -0.4923 -0.8231  1.0355
    9CHL1    C1  636   3.125   2.895   7.714 -0.3849 -0.4567  0.6509
    9CHL1   H1A  637   3.143   2.990   7.659  1.6575 -1.3384 -0.3479
    9CHL1   H1B  638   3.016   2.875   7.711 -0.4181 -0.2715  0.6514
    9CHL1    C2  639   3.172   2.907   7.860  0.1500 -0.5007 -0.9939
    9CHL1   H2A  640   3.092   2.966   7.911  1.6519  0.5786  0.2091
    9CHL1   H2B  641   3.268   2.962   7.848 -0.0280  0.2386  0.5844
    9CHL1   C20  642   2.942   2.760   6.966  0.3766 -0.3020  0.1955
    9CHL1   H20  643   2.976   2.863   6.990  0.8588 -0.0645 -1.3703
    9CHL1   C21  644   2.794   2.767   6.934  0.2809 -0.0561 -0.0252
    9CHL1  H21A  645   2.737   2.795   7.025  1.0397 -2.5871  1.3366
    9CHL1  H21B  646   2.758   2.667   6.902 -0.0811  0.2346 -0.5431
    9CHL1  H21C  647   2.757   2.842   6.861 -1.5796 -0.1196  0.7856
    9CHL1   C22  648   3.023   2.707   6.849  0.0213 -0.1723 -0.4355
    9CHL1  H22A  649   3.127   2.679   6.878 -0.3602 -2.1067 -0.8161
    9CHL1  H22B  650   2.969   2.616   6.815  2.0301 -0.8899 -1.9344
    9CHL1   C23  651   3.040   2.804   6.736 -0.1383  0.2517  0.1079
    9CHL1  H23A  652   2.942   2.849   6.709 -0.9849 -0.7519  1.3378
    9CHL1  H23B  653   3.106   2.887   6.767  2.2694 -1.9301  1.1793
    9CHL1   C24  654   3.100   2.730   6.614 -0.1206  0.0264  0.0765
    9CHL1  H24A  655   3.171   2.657   6.661  0.3001  0.8302  0.7265
    9CHL1  H24B  656   3.018   2.675   6.564  0.3680 -1.5187  0.8991
    9CHL1   C25  657   3.165   2.823   6.507 -0.0195 -0.8024  0.2457
    9CHL1   H25  658   3.244   2.888   6.550 -0.1966  0.5614 -1.3856
    9CHL1   C26  659   3.235   2.738   6.408 -0.7576  0.1759  0.6117
    9CHL1  H26A  660   3.180   2.644   6.389  0.8850 -0.7308  0.0927
    9CHL1  H26B  661   3.248   2.797   6.315  1.4052  1.9305  1.9112
    9CHL1  H26C  662   3.339   2.711   6.436 -0.2379 -0.7303 -1.8881
    9CHL1   C27  663   3.060   2.918   6.443 -0.2860  0.3556 -0.1420
    9CHL1  H27A  664   2.999   2.970   6.520 -1.1968  1.2403 -1.4119
    9CHL1  H27B  665   3.109   2.993   6.376 -1.1465 -0.0282 -1.2483
    9CHL1  H27C  666   2.999   2.859   6.370  0.3492  1.7207 -1.8552
   10CHL1    C3  667   0.771   4.833   7.619  0.4778  0.0070 -0.6599
   10CHL1    H3  668   0.686   4.887   7.573  2.6232  4.4985  0.0887
   10CHL1    O3  669   0.768   4.855   7.758 -0.2354  0.2209  0.1146
   10CHL1   H3'  670   0.686   4.816   7.789 -0.1067  0.1635  0.3903
   10CHL1    C4  671   0.774   4.677   7.594 -0.6218  0.2264 -0.2764
   10CHL1   H4A  672   0.841   4.614   7.656 -1.6375  0.1263  0.7601
   10CHL1   H4B  673   0.676   4.639   7.629 -0.8255  0.2492 -0.8108
   10CHL1    C5  674   0.783   4.658   7.441  0.3289 -0.5284 -0.6879
   10CHL1    C6  675   0.688   4.587   7.380  0.2217 -0.0482  0.3451
   10CHL1    H6  676   0.605   4.537   7.432  1.7166 -1.0545  1.8446
   10CHL1    C7  677   0.693   4.551   7.234  0.3444 -0.6196 -0.0629
   10CHL1   H7A  678   0.671   4.443   7.219 -2.5644 -0.4191  1.9470
   10CHL1   H7B  679   0.614   4.612   7.185 -0.8041 -1.8851  0.1272
   10CHL1    C8  680   0.824   4.592   7.163 -0.8625  0.4729  0.0757
   10CHL1    H8  681   0.893   4.507   7.182 -0.2725  0.4775 -1.8601
   10CHL1   C14  682   0.796   4.603   7.012 -0.5634 -0.0016  0.2686
   10CHL1   H14  683   0.718   4.682   7.002 -0.8691 -0.4975 -1.7864
   10CHL1   C15  684   0.739   4.480   6.939  0.2813 -0.2437 -0.3809
   10CHL1  H15A  685   0.811   4.398   6.962  2.2431  1.6118  0.3526
   10CHL1  H15B  686   0.638   4.443   6.964  0.1348 -1.4585 -2.5138
   10CHL1   C16  687   0.757   4.514   6.796  0.1443 -0.8613  0.8630
   10CHL1  H16A  688   0.810   4.434   6.740 -0.8665 -1.2011  0.3687
   10CHL1  H16B  689   0.661   4.533   6.743  0.1627 -0.8325  0.8400
   10CHL1   C17  690   0.851   4.643   6.786 -0.2534  0.4383  0.2176
   10CHL1   H17  691   0.787   4.732   6.773 -0.9631 -0.4879 -4.3582
   10CHL1   C13  692   0.919   4.652   6.930 -0.1194 -0.2943  0.2366
   10CHL1   C18  693   1.044   4.554   6.943  0.7983  1.4798 -0.0750
   10CHL1  H18A  694   1.064   4.540   7.051  0.4704  1.9047  0.0446
   10CHL1  H18B  695   1.010   4.452   6.915  2.7373  1.8014 -4.4104
   10CHL1  H18C  696   1.135   4.587   6.889  0.8512  0.9229 -0.3393
   10CHL1   C12  697   0.955   4.791   6.986  0.0852  1.0686  0.0768
   10CHL1  H12A  698   1.039   4.838   6.930 -0.1330  0.5184 -0.7268
   10CHL1  H12B  699   0.865   4.855   6.975 -0.5583  0.7659  2.8341
   10CHL1   C11  700   0.998   4.780   7.136  0.8126  0.6238  0.0725
   10CHL1  H11A  701   1.090   4.718   7.149  1.8257  2.1225  0.3012
   10CHL1  H11B  702   1.021   4.881   7.176  1.4797  1.2503 -1.7492
   10CHL1    C9  703   0.881   4.722   7.218  0.8343 -0.2499  0.0153
   10CHL1    H9  704   0.798   4.792   7.194 -0.1137 -1.1092  0.6845
   10CHL1   C10  705   0.903   4.728   7.370  0.3273  0.2045  0.0911
   10CHL1   C19  706   1.027   4.643   7.411  0.2506 -0.0085  0.0707
   10CHL1  H19A  707   1.047   4.617   7.517  1.2983 -0.9458 -0.3401
   10CHL1  H19B  708   1.017   4.544   7.361 -2.1985  0.0809  0.2597
   10CHL1  H19C  709   1.124   4.689   7.380  1.4366 -2.1939  0.3124
   10CHL1    C1  710   0.915   4.874   7.417  0.6206 -0.9049  0.7358
   10CHL1   H1A  711   1.013   4.915   7.385 -0.7912  1.8418 -0.3455
   10CHL1   H1B  712   0.841   4.942   7.370 -0.2825 -2.6263 -0.4427
   10CHL1    C2  713   0.892   4.894   7.566 -0.4105  0.1658  0.2101
   10CHL1   H2A  714   0.874   5.002   7.585 -1.0196  0.5774 -2.2714
   10CHL1   H2B  715   0.974   4.873   7.637 -1.0562 -0.2380  0.8555
   10CHL1   C20  716   0.934   4.647   6.657 -0.4741 -0.2096 -0.0648
   10CHL1   H20  717   0.997   4.556   6.649 -0.6880 -0.3768  0.1242
   10CHL1   C21  718   1.021   4.772   6.658  0.2539 -0.0743  0.5293
   10CHL1  H21A  719   0.956   4.862   6.657  0.3110  0.0054 -1.9280
   10CHL1  H21B  720   1.089   4.776   6.570 -1.1547  1.8496 -0.5395
   10CHL1  H21C  721   1.086   4.766   6.748  0.5640 -1.7167  0.2159
   10CHL1   C22  722   0.841   4.652   6.533 -0.5168 -0.1996 -0.1910
   10CHL1  H22A  723   0.751   4.592   6.558  1.1399 -3.2519 -0.9847
   10CHL1  H22B  724   0.820   4.760   6.516  2.0003  0.5553  0.9555
   10CHL1   C23  725   0.897   4.588   6.402  0.4531  0.0597 -0.0113
   10CHL1  H23A  726   1.005   4.614   6.397  0.9581 -1.3766  2.0531
   10CHL1  H23B  727   0.887   4.478   6.413 -2.6225 -0.2169 -3.5975
   10CHL1   C24  728   0.810   4.621   6.282  0.2205 -0.3014  0.0320
   10CHL1  H24A  729   0.704   4.593   6.302 -0.0217  0.1982 -0.5505
   10CHL1  H24B  730   0.806   4.730   6.264 -0.1844 -0.2319  0.5248
   10CHL1   C25  731   0.851   4.546   6.154 -0.0134  0.5250  0.5933
   10CHL1   H25  732   0.900   4.458   6.199  0.1811  1.5099  2.4074
   10CHL1   C26  733   0.738   4.509   6.068  0.8896 -0.1625  0.3138
   10CHL1  H26A  734   0.672   4.598   6.054  0.5129 -0.4051  0.5328
   10CHL1  H26B  735   0.768   4.471   5.968 -1.8957 -0.6338 -0.4270
   10CHL1  H26C  736   0.682   4.420   6.104 -0.3296  0.3557 -0.2255
   10CHL1   C27  737   0.953   4.621   6.080  0.9590 -0.2355  0.2857
   10CHL1  H27A  738   0.988   4.545   6.007  2.8565  0.8893 -0.0677
   10CHL1  H27B  739   0.906   4.700   6.018 -1.0582 -1.0960  0.6431
   10CHL1  H27C  740   1.038   4.657   6.143  1.7750 -1.0355 -0.3363
   11CHL1    C3  741   4.718   0.467   7.710  0.8366 -0.5814 -0.8189
   11CHL1    H3  742   4.650   0.387   7.674 -1.0551  0.0025  1.2135
   11CHL1    O3  743   4.680   0.472   7.841  0.7735 -0.1807  0.2594
   11CHL1   H3'  744   4.758   0.461   7.895  0.1906 -3.1221  0.7048
   11CHL1    C4  745   4.865   0.431   7.693 -0.3899 -0.5235  0.0422
   11CHL1   H4A  746   4.922   0.511   7.746 -1.2105  0.7056 -0.8662
   11CHL1   H4B  747   4.894   0.334   7.738  2.5896 -0.2253 -1.0167
   11CHL1    C5  748   4.903   0.420   7.546  0.1320  0.9764 -0.1190
   11CHL1    C6  749   4.947   0.301   7.503 -0.2917 -0.5953  0.7841
   11CHL1    H6  750   4.952   0.215   7.572 -1.1664 -2.1302 -0.9783
   11CHL1    C7  751   4.981   0.268   7.364  0.5141  0.0459  0.1711
   11CHL1   H7A  752   5.081   0.221   7.374  0.8337  0.7906  0.5827
   11CHL1   H7B  753   4.916   0.194   7.312 -0.7381  1.4652 -0.3882
   11CHL1    C8  754   4.982   0.396   7.271 -0.8656 -0.3031  0.4964
   11CHL1    H8  755   5.074   0.453   7.293 -0.2648 -0.6266 -1.0118
   11CHL1   C14  756   4.993   0.352   7.125 -0.0409 -0.2221  0.1093
   11CHL1   H14  757   4.910   0.281   7.105 -0.4681  0.2501  0.1795
   11CHL1   C15  758   5.119   0.283   7.092 -0.0560  0.5247 -0.3415
   11CHL1  H15A  759   5.201   0.341   7.138 -0.5428  0.2205  0.9497
   11CHL1  H15B  760   5.129   0.179   7.128  1.9568  0.6808 -0.3606
   11CHL1   C16  761   5.126   0.291   6.934  1.0562  0.6207 -0.2558
   11CHL1  H16A  762   5.221   0.336   6.898  0.5067  1.6688 -0.4283
   11CHL1  H16B  763   5.109   0.191   6.888 -0.0188  1.1854 -1.1308
   11CHL1   C17  764   5.011   0.388   6.900  0.1403 -0.2982  0.4118
   11CHL1   H17  765   4.926   0.321   6.876 -0.7304  1.1272 -0.6197
   11CHL1   C13  766   4.985   0.473   7.027 -0.1814  0.5499  0.1280
   11CHL1   C18  767   5.095   0.575   7.051  0.1562  0.1053  0.1656
   11CHL1  H18A  768   5.117   0.597   7.158  0.6280 -1.3834  0.3955
   11CHL1  H18B  769   5.190   0.536   7.007 -0.3803  1.2092 -2.1554
   11CHL1  H18C  770   5.061   0.668   6.999 -1.9970 -0.1819  0.9692
   11CHL1   C12  771   4.844   0.537   7.048 -0.3939  0.3853 -0.3214
   11CHL1  H12A  772   4.821   0.614   6.972  0.3868  2.0138  1.0053
   11CHL1  H12B  773   4.771   0.454   7.037  2.2463 -1.8108 -2.5493
   11CHL1   C11  774   4.830   0.593   7.189  0.6536  0.3959 -1.1649
   11CHL1  H11A  775   4.905   0.674   7.199  1.0033 -0.1709  3.1104
   11CHL1  H11B  776   4.729   0.635   7.206 -0.2049 -1.2264 -2.0462
   11CHL1    C9  777   4.856   0.481   7.299 -0.2704 -0.4274  0.5083
   11CHL1    H9  778   4.775   0.406   7.288 -0.1248 -0.4253 -0.7437
   11CHL1   C10  779   4.853   0.525   7.449  0.1867 -0.2713  0.1334
   11CHL1   C19  780   4.957   0.636   7.475 -0.4396 -0.3608  0.6939
   11CHL1  H19A  781   4.913   0.720   7.417  0.5890 -0.0572  0.3176
   11CHL1  H19B  782   4.974   0.656   7.583  1.7929  2.2712 -0.0248
   11CHL1  H19C  783   5.051   0.619   7.418  0.0906  1.6997  0.8695
   11CHL1    C1  784   4.706   0.574   7.485  0.8093 -0.2425 -0.8779
   11CHL1   H1A  785   4.684   0.663   7.422 -0.7806 -0.0397 -0.1070
   11CHL1   H1B  786   4.637   0.490   7.458  1.4943 -0.7683 -1.0291
   11CHL1    C2  787   4.693   0.601   7.635  0.2241  0.0207  0.3837
   11CHL1   H2A  788   4.592   0.644   7.654  0.9656  2.1088 -0.1075
   11CHL1   H2B  789   4.759   0.682   7.672  0.6507 -1.1964  2.4105
   11CHL1   C20  790   5.043   0.456   6.767 -0.4374 -0.2554  0.1682
   11CHL1   H20  791   5.106   0.546   6.782 -1.1332  0.1118  0.9831
   11CHL1   C21  792   4.912   0.513   6.711 -0.2581 -0.4074  0.2545
   11CHL1  H21A  793   4.824   0.454   6.744 -0.7798 -1.3137 -2.4646
   11CHL1  H21B  794   4.895   0.519   6.601 -0.1072 -0.2500  0.2391
   11CHL1  H21C  795   4.905   0.615   6.754 -2.5412 -0.4214  0.0513
   11CHL1   C22  796   5.116   0.378   6.651 -0.3140 -0.3039  0.1351
   11CHL1  H22A  797   5.219   0.352   6.684 -0.5355  0.9089  1.9209
   11CHL1  H22B  798   5.050   0.295   6.617 -0.8977  0.4079 -0.5109
   11CHL1   C23  799   5.148   0.477   6.534 -0.2438 -0.1295 -0.4140
   11CHL1  H23A  800   5.061   0.536   6.499 -0.1400  0.9938  1.1048
   11CHL1  H23B  801   5.216   0.553   6.577  0.1532 -0.8118  0.1787
   11CHL1   C24  802   5.220   0.413   6.415  0.3982 -0.2096 -0.0225
   11CHL1  H24A  803   5.316   0.362   6.436  0.8835  1.5091  2.4058
   11CHL1  H24B  804   5.143   0.343   6.375 -1.3583  1.2136  0.6978
   11CHL1   C25  805   5.252   0.514   6.307 -0.1822 -0.2388 -0.0144
   11CHL1   H25  806   5.164   0.574   6.276  1.4332  1.9779 -0.5081
   11CHL1   C26  807   5.360   0.611   6.356  0.5160  0.0506 -0.5472
   11CHL1  H26A  808   5.451   0.552   6.383  0.6979 -0.4182 -2.0935
   11CHL1  H26B  809   5.384   0.672   6.267 -2.0854  0.2931 -1.1456
   11CHL1  H26C  810   5.325   0.676   6.439  0.9528  0.8690 -0.9963
   11CHL1   C27  811   5.321   0.440   6.186 -0.1229  0.4212 -0.5958
   11CHL1  H27A  812   5.398   0.365   6.215  0.0364  1.1651  1.0029
   11CHL1  H27B  813   5.239   0.380   6.141  0.5444  0.0460 -1.3220
   11CHL1  H27C  814   5.364   0.510   6.112  1.7410  0.9556  0.9041
   12CHL1    C3  815   6.054   2.111   7.527 -0.0116  0.7401  0.5366
   12CHL1    H3  816   6.131   2.174   7.477  0.8231 -0.9239 -0.3692
   12CHL1    O3  817   6.047   2.116   7.667 -0.2000 -0.0913  0.2043
   12CHL1   H3'  818   5.965   2.069   7.684  0.2643 -1.7488 -1.7744
   12CHL1    C4  819   5.920   2.155   7.468 -0.7071 -1.1404 -0.0832
   12CHL1   H4A  820   5.838   2.101   7.519  0.0137 -1.2527  0.9816
   12CHL1   H4B  821   5.906   2.265   7.476 -2.2894 -0.8681 -3.9946
   12CHL1    C5  822   5.905   2.122   7.321  0.8259  0.3937  0.3788
   12CHL1    C6  823   5.880   2.224   7.241  0.2817  0.7633 -0.9273
   12CHL1    H6  824   5.856   2.326   7.274  4.1891  2.0251 -1.4631
   12CHL1    C7  825   5.874   2.212   7.092  1.2313  0.2609  0.0471
   12CHL1   H7A  826   5.781   2.256   7.051  0.2056 -0.4896  1.5094
   12CHL1   H7B  827   5.952   2.270   7.036  1.8947 -1.4983 -0.9277
   12CHL1    C8  828   5.877   2.063   7.032  0.1493 -0.1989  0.0368
   12CHL1    H8  829   5.778   2.013   7.040  1.0792 -2.7313 -2.5351
   12CHL1   C14  830   5.928   2.067   6.888  0.1898 -0.1770 -0.3001
   12CHL1   H14  831   6.031   2.106   6.885  0.2584 -0.3088  0.2574
   12CHL1   C15  832   5.860   2.168   6.793  0.3416 -0.7877 -0.2370
   12CHL1  H15A  833   5.756   2.198   6.816  0.8743  2.2895 -1.3930
   12CHL1  H15B  834   5.920   2.261   6.796  0.4041 -0.8438  0.4943
   12CHL1   C16  835   5.872   2.105   6.654 -0.4815 -0.2041 -0.1856
   12CHL1  H16A  836   5.771   2.076   6.619 -0.5463 -0.9013  0.5664
   12CHL1  H16B  837   5.913   2.179   6.581 -1.5819  0.2048 -0.4007
   12CHL1   C17  838   5.947   1.967   6.675  0.6970 -0.3617 -0.0184
   12CHL1   H17  839   6.057   1.986   6.678  0.7943 -1.0029  0.6334
   12CHL1   C13  840   5.919   1.929   6.822 -0.1629 -0.2747 -0.2252
   12CHL1   C18  841   5.776   1.867   6.813 -0.5149  0.0171 -0.1016
   12CHL1  H18A  842   5.776   1.759   6.786 -1.5811 -0.0051 -0.0422
   12CHL1  H18B  843   5.718   1.873   6.907  1.4803 -0.2295  1.2066
   12CHL1  H18C  844   5.704   1.924   6.751  0.5151  2.5313  0.8926
   12CHL1   C12  845   6.029   1.850   6.904  0.8104 -0.0203  0.0197
   12CHL1  H12A  846   6.044   1.754   6.849 -0.5791 -0.7074  0.8110
   12CHL1  H12B  847   6.123   1.910   6.904  1.3282 -0.7900 -1.0640
   12CHL1   C11  848   5.982   1.840   7.051  0.0009 -0.6041  0.6709
   12CHL1  H11A  849   5.880   1.799   7.067 -0.8925  1.6545  1.1092
   12CHL1  H11B  850   6.055   1.786   7.115  0.9362  1.6013  1.5959
   12CHL1    C9  851   5.974   1.979   7.114  0.9096 -0.2986 -0.0236
   12CHL1    H9  852   6.076   2.020   7.102 -0.1466  3.6034  2.4380
   12CHL1   C10  853   5.951   1.980   7.269  0.7161  0.1922 -0.5617
   12CHL1   C19  854   5.818   1.895   7.300 -0.8164  0.6763  0.5183
   12CHL1  H19A  855   5.790   1.904   7.407  0.0847  0.5343  0.7786
   12CHL1  H19B  856   5.734   1.931   7.237 -1.3013 -2.2767 -0.6938
   12CHL1  H19C  857   5.857   1.793   7.279  0.1050  0.8948  1.1108
   12CHL1    C1  858   6.076   1.934   7.344  0.3834 -0.6628 -0.1476
   12CHL1   H1A  859   6.073   1.824   7.334 -0.2153 -0.5917 -0.8159
   12CHL1   H1B  860   6.159   1.987   7.293  1.7512 -0.7875  1.8341
   12CHL1    C2  861   6.076   1.965   7.491 -0.6305 -0.1344 -0.3897
   12CHL1   H2A  862   6.180   1.935   7.519 -1.0775 -0.8799  0.5314
   12CHL1   H2B  863   6.007   1.898   7.547 -1.2692  0.6883 -0.1629
   12CHL1   C20  864   5.918   1.861   6.562  0.1383 -0.3128 -0.5188
   12CHL1   H20  865   5.808   1.851   6.555  0.2264 -0.3580 -2.0826
   12CHL1   C21  866   5.979   1.725   6.600  0.7255  0.1556 -0.2936
   12CHL1  H21A  867   6.089   1.739   6.598  0.6330  1.0273  0.4678
   12CHL1  H21B  868   5.948   1.651   6.523 -1.3295  1.4853 -0.8032
   12CHL1  H21C  869   5.941   1.679   6.693  0.1079  0.3405 -0.4520
   12CHL1   C22  870   5.965   1.909   6.422 -0.0085 -0.0988  0.6057
   12CHL1  H22A  871   5.939   2.016   6.410 -0.2679 -0.1681  0.5475
   12CHL1  H22B  872   6.075   1.895   6.424  0.3294  0.6701 -3.5650
   12CHL1   C23  873   5.915   1.834   6.299  0.2203 -0.4358 -0.2335
   12CHL1  H23A  874   5.986   1.860   6.217 -1.3157  0.1777 -1.4226
   12CHL1  H23B  875   5.915   1.725   6.322  0.5830 -0.2648  0.6136
   12CHL1   C24  876   5.776   1.856   6.233  0.0128  0.4762  0.0710
   12CHL1  H24A  877   5.700   1.840   6.313  0.3217 -0.6455  0.1504
   12CHL1  H24B  878   5.764   1.959   6.194 -1.5415  0.5834  0.7594
   12CHL1   C25  879   5.746   1.741   6.132  0.1274 -0.0382 -0.1170
   12CHL1   H25  880   5.750   1.642   6.183 -0.2634  0.2075  0.4016
   12CHL1   C26  881   5.604   1.761   6.069 -0.5450  0.0462 -0.2697
   12CHL1  H26A  882   5.534   1.739   6.153 -1.8364  0.9537 -1.0803
   12CHL1  H26B  883   5.581   1.863   6.032  0.0649  0.8596  1.4581
   12CHL1  H26C  884   5.590   1.693   5.983  0.7177  0.2096 -0.6181
   12CHL1   C27  885   5.855   1.712   6.025  0.4935 -0.3841  0.0289
   12CHL1  H27A  886   5.825   1.621   5.968 -4.0121 -1.1756  3.0980
   12CHL1  H27B  887   5.862   1.799   5.956 -2.9846 -0.1241 -0.1646
   12CHL1  H27C  888   5.953   1.695   6.075  0.1172  0.2138  1.0066
   13CHL1    C3  889   1.687   2.168   7.311 -1.3000  0.9024 -0.1417
   13CHL1    H3  890   1.765   2.209   7.243 -2.3411 -1.6686 -3.1220
   13CHL1    O3  891   1.698   2.188   7.447  0.0709  0.4945  0.5105
   13CHL1   H3'  892   1.626   2.136   7.483 -0.2627  0.4854 -0.1572
   13CHL1    C4  893   1.547   2.214   7.259  0.6339 -0.5193  0.1792
   13CHL1   H4A  894   1.461   2.187   7.324 -0.1337  0.3324 -0.4679
   13CHL1   H4B  895   1.537   2.323   7.272  0.4499 -0.1368 -2.4781
   13CHL1    C5  896   1.540   2.175   7.110 -1.6756 -0.0529  0.0142
   13CHL1    C6  897   1.526   2.269   7.016 -1.4394 -0.3844 -0.6960
   13CHL1    H6  898   1.521   2.375   7.044  4.4684  0.0750 -0.0462
   13CHL1    C7  899   1.509   2.233   6.873  0.3958 -0.1278  0.0691
   13CHL1   H7A  900   1.409   2.275   6.845  0.1706 -1.3677 -1.0958
   13CHL1   H7B  901   1.581   2.272   6.798  0.8379  0.2176  0.6662
   13CHL1    C8  902   1.480   2.088   6.841 -0.5591 -0.2121  0.9166
   13CHL1    H8  903   1.378   2.061   6.876  0.3587 -2.3059  2.2172
   13CHL1   C14  904   1.503   2.053   6.692  0.4590 -0.2388 -0.8181
   13CHL1   H14  905   1.606   2.088   6.670  1.4050 -0.1004  3.1147
   13CHL1   C15  906   1.409   2.128   6.592 -0.7373 -0.0811 -0.3881
   13CHL1  H15A  907   1.305   2.125   6.629 -0.0027 -1.0643  1.7522
   13CHL1  H15B  908   1.433   2.237   6.595  0.7451 -0.3512 -1.3425
   13CHL1   C16  909   1.438   2.055   6.464  0.1410  0.3567 -0.0471
   13CHL1  H16A  910   1.342   2.016   6.423 -0.1109 -0.0420  0.8864
   13CHL1  H16B  911   1.495   2.108   6.384 -2.9698  2.5378 -1.0164
   13CHL1   C17  912   1.514   1.919   6.502 -0.4862  0.2822 -0.6650
   13CHL1   H17  913   1.623   1.925   6.484 -0.3268 -1.4043 -0.4506
   13CHL1   C13  914   1.498   1.903   6.653  0.8932 -0.0312  0.6098
   13CHL1   C18  915   1.346   1.853   6.673 -0.2189  0.3787  0.7827
   13CHL1  H18A  916   1.351   1.745   6.647 -0.1380  0.6388 -0.3768
   13CHL1  H18B  917   1.323   1.875   6.779  1.8625  1.5060  1.0709
   13CHL1  H18C  918   1.268   1.898   6.607  0.4336  1.3677  0.6618
   13CHL1   C12  919   1.601   1.828   6.736 -0.3319  0.2828 -0.1956
   13CHL1  H12A  920   1.598   1.719   6.718  0.6456 -0.3452  2.8989
   13CHL1  H12B  921   1.697   1.876   6.706 -1.5905  1.3804 -2.8538
   13CHL1   C11  922   1.567   1.850   6.885  0.0442  0.5316 -0.3447
   13CHL1  H11A  923   1.470   1.806   6.917 -1.1128  3.3366  0.3821
   13CHL1  H11B  924   1.642   1.785   6.934  1.5440  1.5789 -1.1737
   13CHL1    C9  925   1.576   1.999   6.918 -0.2426 -0.5173  0.0984
   13CHL1    H9  926   1.673   2.042   6.887 -0.1085 -1.5209 -0.8999
   13CHL1   C10  927   1.568   2.020   7.074 -0.3444 -1.1982 -0.6237
   13CHL1   C19  928   1.441   1.942   7.121  0.4125  0.3674  0.6256
   13CHL1  H19A  929   1.429   1.961   7.230  1.0609 -0.3289  0.8291
   13CHL1  H19B  930   1.352   1.969   7.061  0.8070  1.2375  0.4199
   13CHL1  H19C  931   1.467   1.835   7.106  0.8105  0.6683 -0.9759
   13CHL1    C1  932   1.691   1.969   7.150  0.2251 -0.9558  1.4190
   13CHL1   H1A  933   1.700   1.859   7.140  1.4723 -0.7466 -0.2940
   13CHL1   H1B  934   1.788   2.000   7.105 -0.9218  1.3440  0.3407
   13CHL1    C2  935   1.703   2.017   7.299 -0.6029 -0.2421 -0.2418
   13CHL1   H2A  936   1.803   1.990   7.338 -0.5995  0.1800  0.0444
   13CHL1   H2B  937   1.637   1.961   7.370 -1.2505  0.0844 -0.5782
   13CHL1   C20  938   1.480   1.801   6.414  0.1527 -0.0433 -0.0702
   13CHL1   H20  939   1.370   1.785   6.415  0.2199 -0.5133  1.3687
   13CHL1   C21  940   1.548   1.674   6.462 -0.7481  0.3115  0.2615
   13CHL1  H21A  941   1.563   1.598   6.382 -2.1543  0.0169  0.2497
   13CHL1  H21B  942   1.503   1.609   6.541  2.5971 -1.9140  0.5506
   13CHL1  H21C  943   1.652   1.700   6.490 -0.6297 -1.4049  1.6077
   13CHL1   C22  944   1.525   1.834   6.269 -0.7697  0.7686  0.0963
   13CHL1  H22A  945   1.517   1.943   6.249 -0.5151  1.1200  1.8093
   13CHL1  H22B  946   1.632   1.806   6.255 -0.5736  1.4336  0.1897
   13CHL1   C23  947   1.448   1.764   6.157  0.4069 -0.2020  0.1332
   13CHL1  H23A  948   1.390   1.683   6.206 -0.8883  0.1777 -0.7144
   13CHL1  H23B  949   1.383   1.839   6.107  1.6940  1.2523  0.5314
   13CHL1   C24  950   1.540   1.710   6.046 -0.1483  0.3596  0.4019
   13CHL1  H24A  951   1.628   1.778   6.046  1.0148 -1.0728 -0.5879
   13CHL1  H24B  952   1.567   1.607   6.076 -0.5826  0.6404  1.8319
   13CHL1   C25  953   1.475   1.706   5.905  0.0067  0.8590  0.6461
   13CHL1   H25  954   1.426   1.801   5.874 -1.6295 -0.2949 -0.5057
   13CHL1   C26  955   1.565   1.688   5.788  0.2713 -0.4446  0.0839
   13CHL1  H26A  956   1.595   1.582   5.775 -1.1288 -0.6106 -2.3916
   13CHL1  H26B  957   1.515   1.713   5.692  0.5813 -0.7346 -0.1563
   13CHL1  H26C  958   1.659   1.747   5.792  0.9584 -1.5479  0.7404
   13CHL1   C27  959   1.359   1.604   5.890  0.0889  0.5221 -0.8187
   13CHL1  H27A  960   1.394   1.507   5.931  2.3824  1.3650 -0.5975
   13CHL1  H27B  961   1.277   1.633   5.958 -0.6072  1.0075 -1.8402
   13CHL1  H27C  962   1.323   1.576   5.789  1.2401 -0.7724 -0.8891
   14CHL1    C3  963   6.545   5.879   7.609 -0.1898  0.1075  0.1350
   14CHL1    H3  964   6.638   5.937   7.589  1.1523 -1.5777  1.1118
   14CHL1    O3  965   6.537   5.895   7.748 -0.0249  0.9232  1.1858
   14CHL1   H3'  966   6.444   5.885   7.770  0.0914 -0.0224  1.2905
   14CHL1    C4  967   6.431   5.944   7.534  0.6728 -0.3420 -0.1111
   14CHL1   H4A  968   6.337   5.894   7.567 -0.4715  2.2880  0.9192
   14CHL1   H4B  969   6.426   6.050   7.568 -3.0539 -0.0927 -0.9869
   14CHL1    C5  970   6.449   5.937   7.386  0.2735  0.6772 -0.5723
   14CHL1    C6  971   6.455   6.041   7.309 -0.0838 -0.2266  0.4635
   14CHL1    H6  972   6.442   6.145   7.342 -2.3090 -0.8150  1.5901
   14CHL1    C7  973   6.483   6.045   7.162  0.0952 -0.5833  0.2297
   14CHL1   H7A  974   6.408   6.106   7.107  1.4402 -1.0895 -2.3340
   14CHL1   H7B  975   6.579   6.097   7.144  0.3867 -0.9110  0.8209
   14CHL1    C8  976   6.481   5.909   7.097 -0.1329 -0.1348 -0.2648
   14CHL1    H8  977   6.374   5.883   7.087  0.0186 -0.5785 -0.7775
   14CHL1   C14  978   6.550   5.910   6.965 -0.0678 -0.2090 -0.0051
   14CHL1   H14  979   6.654   5.945   6.982  0.0520  0.0735 -1.2272
   14CHL1   C15  980   6.505   6.025   6.863  0.0688  0.3473 -0.7886
   14CHL1  H15A  981   6.405   6.068   6.887 -0.0237 -1.1979  2.0164
   14CHL1  H15B  982   6.572   6.113   6.879  0.9921 -0.5399  0.4283
   14CHL1   C16  983   6.527   5.961   6.720  0.3358  0.1617 -0.3457
   14CHL1  H16A  984   6.437   5.929   6.663  0.1586  0.2608 -0.1237
   14CHL1  H16B  985   6.587   6.041   6.670 -0.3048  0.9747  0.1574
   14CHL1   C17  986   6.599   5.828   6.748  0.4628  1.1738  0.0611
   14CHL1   H17  987   6.708   5.849   6.752  0.4896  0.8863  1.2294
   14CHL1   C13  988   6.560   5.780   6.896  0.3364  0.3495 -0.1713
   14CHL1   C18  989   6.416   5.722   6.877 -0.1550  0.1665 -0.3931
   14CHL1  H18A  990   6.416   5.617   6.840 -1.2329  0.1954 -0.5221
   14CHL1  H18B  991   6.353   5.714   6.969 -0.7447 -2.2703 -0.9371
   14CHL1  H18C  992   6.356   5.787   6.810 -0.1292  0.1072 -0.4736
   14CHL1   C12  993   6.645   5.675   6.972  0.3213 -0.7428  0.5104
   14CHL1  H12A  994   6.643   5.575   6.923  1.5151  0.3837 -2.0158
   14CHL1  H12B  995   6.748   5.712   6.992 -0.4704  1.3608  0.8893
   14CHL1   C11  996   6.580   5.664   7.113 -0.7287  0.3840  0.5439
   14CHL1  H11A  997   6.489   5.600   7.104  0.1538 -1.2394  2.4325
   14CHL1  H11B  998   6.654   5.609   7.175 -0.6059 -0.9717 -0.7324
   14CHL1    C9  999   6.549   5.798   7.185  0.2789  0.5441 -0.6573
   14CHL1    H9 1000   6.650   5.841   7.199  0.7364 -0.7475  0.1909
   14CHL1   C10 1001   6.484   5.797   7.327 -0.2361  0.4666 -0.0495
   14CHL1   C19 1002   6.352   5.710   7.318  0.3780  0.5690 -0.0678
   14CHL1  H19A 1003   6.290   5.759   7.240 -0.1224  0.2547  0.1266
   14CHL1  H19B 1004   6.369   5.606   7.283 -1.4747  1.1168 -2.9478
   14CHL1  H19C 1005   6.298   5.717   7.415  0.3279  0.9512 -0.1233
   14CHL1    C1 1006   6.591   5.715   7.419  0.0833  0.1437 -0.4341
   14CHL1   H1A 1007   6.584   5.609   7.388 -0.7603 -0.8374  2.7924
   14CHL1   H1B 1008   6.687   5.770   7.408 -0.1432  0.4471 -0.9487
   14CHL1    C2 1009   6.562   5.731   7.570 -0.7476 -0.3730  0.4814
   14CHL1   H2A 1010   6.644   5.676   7.621  0.5442 -0.3050 -1.4135
   14CHL1   H2B 1011   6.465   5.678   7.584 -0.4673 -1.8616 -2.4486
   14CHL1   C20 1012   6.579   5.734   6.631 -0.6925  0.3103 -0.0508
   14CHL1   H20 1013   6.475   5.698   6.617  0.2560 -2.7118 -0.0181
   14CHL1   C21 1014   6.680   5.622   6.655 -0.2750  0.0826 -0.6208
   14CHL1  H21A 1015   6.777   5.656   6.696 -1.8853  1.5521  2.3274
   14CHL1  H21B 1016   6.696   5.566   6.561  0.7602  1.3857 -1.2433
   14CHL1  H21C 1017   6.635   5.542   6.719 -2.1014  1.2456 -0.3787
   14CHL1   C22 1018   6.611   5.813   6.493  0.0383  0.1414  0.3186
   14CHL1  H22A 1019   6.543   5.900   6.486  1.5580  1.3717  0.2910
   14CHL1  H22B 1020   6.715   5.852   6.489  0.4950 -1.0795 -0.4314
   14CHL1   C23 1021   6.581   5.732   6.369  0.3257  1.0205 -0.5964
   14CHL1  H23A 1022   6.612   5.627   6.384 -2.2375  0.2224 -0.3078
   14CHL1  H23B 1023   6.473   5.744   6.346 -0.0787 -1.2399 -0.1338
   14CHL1   C24 1024   6.664   5.763   6.243 -0.1566  0.0303 -0.4964
   14CHL1  H24A 1025   6.654   5.873   6.230 -0.1569  0.3061  1.5643
   14CHL1  H24B 1026   6.773   5.750   6.261 -0.4214  0.6820  1.8357
   14CHL1   C25 1027   6.617   5.678   6.127  0.3942 -0.2563 -0.3078
   14CHL1   H25 1028   6.517   5.648   6.165 -0.7523  2.6877 -0.7347
   14CHL1   C26 1029   6.602   5.762   6.002  0.6957  0.2456  0.0618
   14CHL1  H26A 1030   6.578   5.708   5.908  2.6160  1.9754 -1.5095
   14CHL1  H26B 1031   6.516   5.832   6.012  1.9818  1.5920  3.0292
   14CHL1  H26C 1032   6.686   5.831   5.981 -0.2978  1.2015 -0.9437
   14CHL1   C27 1033   6.709   5.556   6.109 -0.4645  0.8240  0.0209
   14CHL1  H27A 1034   6.739   5.510   6.205  0.2537  0.1547 -0.5000
   14CHL1  H27B 1035   6.644   5.482   6.058 -3.2428  3.2780 -0.2425
   14CHL1  H27C 1036   6.796   5.580   6.043 -0.1333 -2.2692 -0.8396
   15CHL1    C3 1037   5.639   5.114   7.369  0.9484  0.7020 -0.4121
   15CHL1    H3 1038   5.550   5.178   7.350 -0.0408 -0.1852  0.9996
   15CHL1    O3 1039   5.642   5.108   7.515  0.3171  0.3441 -0.1743
   15CHL1   H3' 1040   5.551   5.088   7.538  0.0786  1.2730 -0.2794
   15CHL1    C4 1041   5.611   4.971   7.315 -0.3665  0.1723  0.1571
   15CHL1   H4A 1042   5.674   4.906   7.380 -2.1237  1.6297  3.6154
   15CHL1   H4B 1043   5.514   4.939   7.358 -0.3467  2.4214  2.0767
   15CHL1    C5 1044   5.631   4.960   7.166 -0.5033  0.0488  0.2484
   15CHL1    C6 1045   5.535   4.907   7.098 -0.8644 -0.3506 -0.5905
   15CHL1    H6 1046   5.457   4.857   7.156 -1.3426  1.5838  0.4860
   15CHL1    C7 1047   5.536   4.892   6.947 -0.1492 -0.6932 -0.3556
   15CHL1   H7A 1048   5.513   4.784   6.932  0.9606 -0.5670 -4.0222
   15CHL1   H7B 1049   5.467   4.953   6.885  0.6267 -2.1554 -2.7759
   15CHL1    C8 1050   5.672   4.916   6.883  0.6770  0.3643  0.6132
   15CHL1    H8 1051   5.739   4.832   6.911  0.5526 -0.8895 -2.4717
   15CHL1   C14 1052   5.667   4.926   6.730 -0.0861  0.8857  0.4290
   15CHL1   H14 1053   5.612   5.021   6.711  0.7584  1.3171  0.0575
   15CHL1   C15 1054   5.592   4.816   6.649 -0.4162  0.7449  0.0132
   15CHL1  H15A 1055   5.599   4.716   6.697  0.2929  1.0338  0.5320
   15CHL1  H15B 1056   5.483   4.834   6.641 -0.9927 -0.6943  3.1618
   15CHL1   C16 1057   5.659   4.825   6.514  0.0957  0.4127  0.3256
   15CHL1  H16A 1058   5.717   4.730   6.503 -0.8321 -0.0262 -0.9954
   15CHL1  H16B 1059   5.596   4.843   6.425 -0.1580  0.7246  0.5700
   15CHL1   C17 1060   5.770   4.935   6.520  0.4394 -0.3621  0.4406
   15CHL1   H17 1061   5.716   5.030   6.498  0.9677 -0.1127  0.2074
   15CHL1   C13 1062   5.802   4.945   6.666  0.9010 -0.2644 -0.3509
   15CHL1   C18 1063   5.904   4.821   6.693 -0.4702  0.1942  0.5421
   15CHL1  H18A 1064   6.003   4.835   6.646 -0.8819 -0.2620 -0.4816
   15CHL1  H18B 1065   5.930   4.825   6.801  2.5391 -1.3078 -0.0080
   15CHL1  H18C 1066   5.860   4.722   6.667 -1.2257  0.3111  1.3447
   15CHL1   C12 1067   5.848   5.084   6.717  0.3349 -0.2786 -0.0963
   15CHL1  H12A 1068   5.944   5.121   6.676  2.4498 -1.8197  3.0836
   15CHL1  H12B 1069   5.768   5.153   6.682 -1.5625 -1.6050  1.4114
   15CHL1   C11 1070   5.862   5.093   6.870  0.4351  0.2289 -0.2496
   15CHL1  H11A 1071   5.959   5.047   6.898 -0.7113 -0.5273  2.8895
   15CHL1  H11B 1072   5.873   5.201   6.889 -2.0301  0.5200 -0.1633
   15CHL1    C9 1073   5.742   5.035   6.947 -0.5075 -0.3962  0.1819
   15CHL1    H9 1074   5.668   5.115   6.928 -0.1398 -0.6120 -2.6703
   15CHL1   C10 1075   5.760   5.026   7.103 -0.4727 -0.0537 -0.6520
   15CHL1   C19 1076   5.875   4.928   7.140  0.2082 -0.2034  0.1930
   15CHL1  H19A 1077   5.863   4.883   7.241  0.2217 -1.7691 -0.4744
   15CHL1  H19B 1078   5.883   4.842   7.070  0.9807 -0.6497  0.8229
   15CHL1  H19C 1079   5.969   4.986   7.147  0.3608 -0.4341  0.0918
   15CHL1    C1 1080   5.774   5.172   7.158 -0.6728 -0.2409 -0.2604
   15CHL1   H1A 1081   5.863   5.225   7.119 -1.0772  2.3564  2.0335
   15CHL1   H1B 1082   5.691   5.231   7.113 -1.9855 -2.0549 -0.3337
   15CHL1    C2 1083   5.767   5.178   7.308 -0.0162  0.0445 -0.7951
   15CHL1   H2A 1084   5.773   5.285   7.338  0.2567 -0.3914  0.8026
   15CHL1   H2B 1085   5.852   5.123   7.356 -0.5924  1.3898  1.9721
   15CHL1   C20 1086   5.876   4.910   6.419  0.1324 -0.0689  0.0083
   15CHL1   H20 1087   5.928   4.817   6.450  0.3014 -0.1204 -0.4099
   15CHL1   C21 1088   5.987   5.021   6.415 -0.4362 -0.0726 -0.4827
   15CHL1  H21A 1089   5.941   5.122   6.410 -1.8198 -0.3391  3.5293
   15CHL1  H21B 1090   6.063   4.999   6.337  0.1273 -1.0977  0.3437
   15CHL1  H21C 1091   6.041   5.027   6.512 -0.4932 -1.0190 -0.3847
   15CHL1   C22 1092   5.825   4.900   6.268 -0.0887  0.4423 -0.1245
   15CHL1  H22A 1093   5.917   4.909   6.207 -0.9329 -0.0376 -1.5188
   15CHL1  H22B 1094   5.773   4.805   6.243  0.6999  0.1399 -0.6879
   15CHL1   C23 1095   5.722   5.013   6.229  0.4248  0.0100 -0.4122
   15CHL1  H23A 1096   5.619   4.995   6.266  0.1505  1.1232 -0.6028
   15CHL1  H23B 1097   5.749   5.113   6.268 -0.2654 -0.3317  1.0312
   15CHL1   C24 1098   5.714   5.030   6.075  0.7114 -0.3339 -0.3309
   15CHL1  H24A 1099   5.626   5.095   6.056  0.8676  0.2085  0.7325
   15CHL1  H24B 1100   5.793   5.101   6.040  0.7369  0.8953  2.0104
   15CHL1   C25 1101   5.706   4.907   5.991 -0.3391  0.5076 -0.7923
   15CHL1   H25 1102   5.799   4.847   6.007 -1.1878 -0.5619  0.3632
   15CHL1   C26 1103   5.587   4.808   6.017  0.0346  0.2276 -0.0619
   15CHL1  H26A 1104   5.594   4.769   6.120 -1.8573 -1.9695 -0.6736
   15CHL1  H26B 1105   5.486   4.852   5.998  0.3264  1.3758  0.9036
   15CHL1  H26C 1106   5.596   4.717   5.954  0.4888  0.5971 -0.5429
   15CHL1   C27 1107   5.706   4.937   5.849  0.0925 -0.4060  0.3571
   15CHL1  H27A 1108   5.617   4.999   5.826  0.3793  0.0036  0.3476
   15CHL1  H27B 1109   5.791   4.998   5.813 -1.2287 -0.0968 -2.5550
   15CHL1  H27C 1110   5.695   4.841   5.793  0.7855 -0.8316  0.9328
   16CHL1    C3 1111   4.902   1.945   7.573 -0.5188 -0.2011  0.0327
   16CHL1    H3 1112   4.992   1.882   7.552  0.9069  1.9393 -0.6389
   16CHL1    O3 1113   4.903   1.955   7.715 -0.5031  0.1459  0.2279
   16CHL1   H3' 1114   4.868   2.037   7.752 -0.9110 -0.0022  0.1767
   16CHL1    C4 1115   4.922   2.075   7.505  0.6720  0.2344  0.3620
   16CHL1   H4A 1116   4.835   2.135   7.537 -0.3897  0.2147 -2.2054
   16CHL1   H4B 1117   5.018   2.119   7.540 -0.1422  0.2183  2.7957
   16CHL1    C5 1118   4.924   2.069   7.350 -0.0466  0.1291 -0.2606
   16CHL1    C6 1119   5.033   2.098   7.275  0.0604 -0.9060  0.4088
   16CHL1    H6 1120   5.118   2.137   7.333  1.3838 -0.5422 -1.6895
   16CHL1    C7 1121   5.041   2.079   7.123 -0.3464 -0.2577 -0.0576
   16CHL1   H7A 1122   5.076   2.175   7.080 -2.3033  0.4536 -0.1873
   16CHL1   H7B 1123   5.108   1.998   7.089  0.7000  0.5862 -0.0525
   16CHL1    C8 1124   4.896   2.058   7.058 -0.0333 -0.9301  0.4902
   16CHL1    H8 1125   4.852   2.160   7.063 -0.7173 -1.1523 -0.6685
   16CHL1   C14 1126   4.918   2.011   6.909 -0.8128 -0.4656  0.4611
   16CHL1   H14 1127   4.968   1.912   6.903  3.6398  1.6252 -0.3746
   16CHL1   C15 1128   5.004   2.099   6.820  0.2902  0.4551 -0.5345
   16CHL1  H15A 1129   4.961   2.199   6.839 -0.4141 -0.0436  0.6014
   16CHL1  H15B 1130   5.114   2.093   6.838  0.7461 -1.1336 -3.2356
   16CHL1   C16 1131   4.965   2.049   6.678 -0.1477 -0.7922 -0.2586
   16CHL1  H16A 1132   4.941   2.135   6.611  1.6723 -1.3349 -1.6713
   16CHL1  H16B 1133   5.054   1.994   6.643  0.9925  0.5470  0.4057
   16CHL1   C17 1134   4.843   1.959   6.701 -0.2562  0.0018  0.1158
   16CHL1   H17 1135   4.877   1.854   6.713 -1.4390 -0.5148 -0.7952
   16CHL1   C13 1136   4.784   1.990   6.838 -0.4161  0.0369  0.6063
   16CHL1   C18 1137   4.696   2.116   6.824  0.1692 -0.5030  0.3893
   16CHL1  H18A 1138   4.674   2.167   6.921  1.8596 -1.3480  1.2659
   16CHL1  H18B 1139   4.750   2.191   6.762 -0.4426 -1.0192 -0.7973
   16CHL1  H18C 1140   4.603   2.085   6.771  1.8053 -1.9979 -1.7665
   16CHL1   C12 1141   4.699   1.887   6.906 -0.5231  0.1854 -0.1401
   16CHL1  H12A 1142   4.594   1.901   6.872 -2.0291  1.4728  4.3439
   16CHL1  H12B 1143   4.725   1.780   6.887 -0.5864  0.2039 -0.3389
   16CHL1   C11 1144   4.685   1.926   7.056  0.6789  0.5009 -0.2473
   16CHL1  H11A 1145   4.615   2.012   7.050 -1.7192 -1.4099 -1.5020
   16CHL1  H11B 1146   4.638   1.846   7.116  1.4662 -0.7022 -1.1899
   16CHL1    C9 1147   4.813   1.955   7.133 -0.1609 -0.6722  0.3910
   16CHL1    H9 1148   4.876   1.863   7.132 -0.7286 -1.1752 -3.1054
   16CHL1   C10 1149   4.798   1.998   7.283  0.6142 -0.3726  0.6211
   16CHL1   C19 1150   4.682   2.090   7.297 -0.6675  0.0639 -0.2589
   16CHL1  H19A 1151   4.679   2.141   7.396 -1.8047  0.5236 -0.5212
   16CHL1  H19B 1152   4.678   2.170   7.220  1.7559  1.5602  1.0403
   16CHL1  H19C 1153   4.586   2.035   7.285  0.1124 -1.2563 -0.6711
   16CHL1    C1 1154   4.767   1.871   7.362  0.3445 -0.9232 -0.4398
   16CHL1   H1A 1155   4.670   1.834   7.321 -1.1232  0.8396  1.3038
   16CHL1   H1B 1156   4.840   1.789   7.345  1.7987  0.2657 -0.0916
   16CHL1    C2 1157   4.777   1.878   7.518 -0.5266 -0.3741 -0.1643
   16CHL1   H2A 1158   4.766   1.780   7.569  0.1827  0.4170  1.5747
   16CHL1   H2B 1159   4.686   1.927   7.559 -0.3761 -0.2899  0.0679
   16CHL1   C20 1160   4.764   1.954   6.565  0.2432 -0.2467 -0.9124
   16CHL1   H20 1161   4.711   2.051   6.555  1.2042  0.5112  0.8835
   16CHL1   C21 1162   4.656   1.848   6.568  0.4724 -0.0122  0.2474
   16CHL1  H21A 1163   4.595   1.843   6.476 -1.2193  1.2662  1.2410
   16CHL1  H21B 1164   4.588   1.856   6.656 -1.7706 -1.4762 -1.2544
   16CHL1  H21C 1165   4.721   1.758   6.574 -0.0208 -0.4416 -0.6732
   16CHL1   C22 1166   4.859   1.931   6.443  0.1851 -0.1076 -0.7676
   16CHL1  H22A 1167   4.916   2.026   6.435 -0.3968  0.1890 -1.5115
   16CHL1  H22B 1168   4.918   1.837   6.452  2.2214  1.0241 -1.5221
   16CHL1   C23 1169   4.786   1.925   6.307 -0.1668 -0.1680 -0.1394
   16CHL1  H23A 1170   4.733   1.828   6.300  0.7210 -0.5284 -3.5022
   16CHL1  H23B 1171   4.717   2.011   6.300  0.4073  0.4705  1.5486
   16CHL1   C24 1172   4.879   1.908   6.181 -0.6911 -0.0175 -0.1115
   16CHL1  H24A 1173   4.930   2.006   6.173 -1.6871  0.7013  1.6544
   16CHL1  H24B 1174   4.960   1.837   6.208 -1.2095 -0.2241  0.9515
   16CHL1   C25 1175   4.800   1.873   6.048  0.5168  0.2008 -0.7632
   16CHL1   H25 1176   4.879   1.890   5.971  1.6724  2.8793  0.8985
   16CHL1   C26 1177   4.743   1.724   6.046 -0.2336  0.3502  0.5050
   16CHL1  H26A 1178   4.832   1.657   6.051 -0.4603  0.0989  1.2841
   16CHL1  H26B 1179   4.676   1.691   6.128 -2.3763 -1.5979 -1.8502
   16CHL1  H26C 1180   4.694   1.698   5.950 -0.5514  1.3155  0.3924
   16CHL1   C27 1181   4.677   1.962   6.027  0.0935 -0.8573 -0.3822
   16CHL1  H27A 1182   4.609   1.966   6.115  1.1967  0.6883  0.4618
   16CHL1  H27B 1183   4.714   2.065   6.008 -1.8717  0.0730  0.5047
   16CHL1  H27C 1184   4.619   1.922   5.941  2.0785 -3.2676 -0.7037
   17CHL1    C3 1185   6.379   4.699   7.654  0.0391  0.1009 -0.2518
   17CHL1    H3 1186   6.309   4.783   7.670  2.2654  2.1814 -0.7501
   17CHL1    O3 1187   6.412   4.636   7.779 -0.0166  0.2447  0.5456
   17CHL1   H3' 1188   6.462   4.558   7.755  0.7073  1.0040 -0.5073
   17CHL1    C4 1189   6.315   4.599   7.546 -0.5791 -0.2028 -1.1506
   17CHL1   H4A 1190   6.381   4.510   7.537  0.9891  0.9904 -1.9702
   17CHL1   H4B 1191   6.214   4.566   7.579 -0.0472 -0.3164  0.4344
   17CHL1    C5 1192   6.313   4.677   7.410 -0.1128 -0.0056 -0.6589
   17CHL1    C6 1193   6.198   4.680   7.340  0.0731  0.4888  0.3378
   17CHL1    H6 1194   6.108   4.636   7.386 -0.5916  1.4667 -0.0132
   17CHL1    C7 1195   6.183   4.736   7.204 -0.0670 -0.0596  0.1681
   17CHL1   H7A 1196   6.133   4.664   7.137  0.2906 -0.0903 -0.0667
   17CHL1   H7B 1197   6.131   4.834   7.208 -0.9536 -0.5601  1.9794
   17CHL1    C8 1198   6.321   4.758   7.145  0.3984 -0.1219  0.0901
   17CHL1    H8 1199   6.364   4.660   7.114  0.4670 -0.0626 -0.0043
   17CHL1   C14 1200   6.318   4.845   7.017 -0.3178 -0.0817 -0.2301
   17CHL1   H14 1201   6.287   4.945   7.053  0.6172  0.0009  0.3808
   17CHL1   C15 1202   6.215   4.817   6.905  0.6865  0.6505 -0.0939
   17CHL1  H15A 1203   6.220   4.708   6.881  1.6857  0.1077  2.2786
   17CHL1  H15B 1204   6.113   4.853   6.929  0.6625 -0.8121  2.4654
   17CHL1   C16 1205   6.273   4.878   6.774  0.0680  0.2507 -0.2431
   17CHL1  H16A 1206   6.306   4.799   6.703 -1.6332 -1.3478  0.6618
   17CHL1  H16B 1207   6.192   4.933   6.722 -1.2523  2.1602  3.5006
   17CHL1   C17 1208   6.395   4.961   6.818  0.1527 -0.1524  0.2115
   17CHL1   H17 1209   6.351   5.057   6.852 -0.8132 -0.2047 -0.8242
   17CHL1   C13 1210   6.452   4.886   6.942  0.1349  0.5932 -0.4152
   17CHL1   C18 1211   6.515   4.757   6.904  0.1271  0.5789  0.3292
   17CHL1  H18A 1212   6.499   4.722   6.800  2.4470 -2.1156  0.7481
   17CHL1  H18B 1213   6.625   4.772   6.897  0.2903 -0.9265 -0.7314
   17CHL1  H18C 1214   6.511   4.683   6.987  1.7793  1.7916  1.5718
   17CHL1   C12 1215   6.530   4.965   7.052  0.3180  0.3375  0.1066
   17CHL1  H12A 1216   6.630   4.992   7.013  0.0958  1.2524  0.1644
   17CHL1  H12B 1217   6.471   5.057   7.070  0.4222  0.4237  0.0071
   17CHL1   C11 1218   6.549   4.877   7.178  0.5447  0.0539  0.2998
   17CHL1  H11A 1219   6.602   4.787   7.141  0.5303 -0.4111  1.3895
   17CHL1  H11B 1220   6.610   4.931   7.253 -0.5430  0.3487  0.9982
   17CHL1    C9 1221   6.417   4.830   7.238  1.0147 -0.4019 -0.3318
   17CHL1    H9 1222   6.363   4.920   7.275  2.1353 -0.7055  2.2497
   17CHL1   C10 1223   6.440   4.746   7.361  0.1768 -0.1846  0.6276
   17CHL1   C19 1224   6.534   4.628   7.329 -0.5352  0.4416 -0.1789
   17CHL1  H19A 1225   6.538   4.543   7.400 -0.9708  1.0178  0.5418
   17CHL1  H19B 1226   6.518   4.590   7.226  0.5302  0.6307 -0.4311
   17CHL1  H19C 1227   6.637   4.670   7.330 -0.3680  0.0721  1.7599
   17CHL1    C1 1228   6.492   4.823   7.471 -0.1594  0.2919  0.2190
   17CHL1   H1A 1229   6.594   4.860   7.446  0.0741  0.8953  1.8982
   17CHL1   H1B 1230   6.427   4.911   7.489 -3.0311 -1.0803 -2.4151
   17CHL1    C2 1231   6.510   4.759   7.610 -0.7354 -0.6708 -0.3653
   17CHL1   H2A 1232   6.551   4.818   7.695  0.2212  0.7471 -1.7594
   17CHL1   H2B 1233   6.581   4.675   7.603  0.7711  0.6233 -1.1593
   17CHL1   C20 1234   6.478   4.997   6.691 -0.4139 -0.8350 -0.2558
   17CHL1   H20 1235   6.532   4.910   6.648 -0.8252 -0.9790 -0.4916
   17CHL1   C21 1236   6.583   5.102   6.730 -0.0997  0.1529 -0.1722
   17CHL1  H21A 1237   6.523   5.185   6.773 -2.2775 -3.0585  3.6804
   17CHL1  H21B 1238   6.645   5.126   6.641  0.2541 -2.4578 -0.7080
   17CHL1  H21C 1239   6.654   5.064   6.808 -1.4589 -0.0008  1.0283
   17CHL1   C22 1240   6.386   5.038   6.585 -0.0262  0.7198  0.0945
   17CHL1  H22A 1241   6.323   4.951   6.555  2.0768 -1.1631  0.8395
   17CHL1  H22B 1242   6.318   5.119   6.619  0.8406  2.1859 -1.5116
   17CHL1   C23 1243   6.448   5.074   6.450  1.4951 -0.0088  0.3578
   17CHL1  H23A 1244   6.510   5.166   6.465  0.8571  0.1243  2.6374
   17CHL1  H23B 1245   6.500   4.989   6.402  0.4881  0.6089 -1.9249
   17CHL1   C24 1246   6.339   5.105   6.339 -0.5965  0.8801 -0.2378
   17CHL1  H24A 1247   6.273   5.015   6.334 -1.5543  1.5564 -0.1518
   17CHL1  H24B 1248   6.281   5.189   6.381 -0.2225  0.4342  1.2218
   17CHL1   C25 1249   6.384   5.148   6.201 -0.8145 -0.9399  0.3406
   17CHL1   H25 1250   6.406   5.052   6.149  1.4245  0.5282 -1.6068
   17CHL1   C26 1251   6.253   5.192   6.132 -0.3978  0.0066 -0.2417
   17CHL1  H26A 1252   6.188   5.104   6.111 -0.8576 -0.2025  1.8554
   17CHL1  H26B 1253   6.190   5.263   6.189 -0.9687 -0.4505 -0.2920
   17CHL1  H26C 1254   6.273   5.232   6.030 -2.2936  2.3481  0.2141
   17CHL1   C27 1255   6.486   5.265   6.210 -0.2778  0.2093  0.0329
   17CHL1  H27A 1256   6.585   5.235   6.251  1.2714  3.9981 -0.5970
   17CHL1  H27B 1257   6.493   5.321   6.115 -0.8983  1.7496  0.8481
   17CHL1  H27C 1258   6.437   5.340   6.276  0.2036  2.2336 -1.8031
   18CHL1    C3 1259   6.053   0.758   7.586 -0.2363 -0.5629  0.1089
   18CHL1    H3 1260   6.082   0.858   7.545  0.5523 -0.7480  0.2060
   18CHL1    O3 1261   5.992   0.776   7.717  0.5719 -0.6917  0.2371
   18CHL1   H3' 1262   5.971   0.685   7.740 -1.0917 -0.5441 -0.4731
   18CHL1    C4 1263   5.949   0.698   7.498 -0.3646  0.6165 -0.6388
   18CHL1   H4A 1264   5.927   0.592   7.527  0.6269  0.4163 -0.5781
   18CHL1   H4B 1265   5.851   0.748   7.511 -0.7317 -0.5592  1.7591
   18CHL1    C5 1266   5.991   0.687   7.352 -0.3480  0.1753  0.1228
   18CHL1    C6 1267   5.933   0.754   7.249  0.4872  0.4055  0.5643
   18CHL1    H6 1268   5.842   0.811   7.274 -0.5567 -1.3753  1.0533
   18CHL1    C7 1269   5.978   0.762   7.107  0.0446 -0.6681 -0.4314
   18CHL1   H7A 1270   5.892   0.761   7.036 -0.6769  1.0243  0.3676
   18CHL1   H7B 1271   6.022   0.862   7.086 -0.8157 -0.1971 -0.0601
   18CHL1    C8 1272   6.091   0.661   7.081 -0.2559 -0.0235  0.8481
   18CHL1    H8 1273   6.040   0.564   7.067 -0.0201 -0.1256  0.6847
   18CHL1   C14 1274   6.163   0.704   6.955  0.0187  0.2765 -0.1124
   18CHL1   H14 1275   6.212   0.801   6.981  2.9961 -1.3191  0.7005
   18CHL1   C15 1276   6.081   0.723   6.827 -0.1870  0.4672 -0.1362
   18CHL1  H15A 1277   6.010   0.637   6.829  0.8927 -0.4615  1.7513
   18CHL1  H15B 1278   6.029   0.821   6.829 -1.2444 -0.0828  0.1215
   18CHL1   C16 1279   6.186   0.702   6.716 -0.0984 -0.0844  0.0690
   18CHL1  H16A 1280   6.151   0.628   6.641 -1.8647  3.2161 -2.6545
   18CHL1  H16B 1281   6.193   0.808   6.682 -1.6967  0.0666  0.1098
   18CHL1   C17 1282   6.322   0.671   6.786  0.0307 -0.3696 -0.4087
   18CHL1   H17 1283   6.357   0.771   6.820 -1.9762  0.1564  0.2521
   18CHL1   C13 1284   6.275   0.609   6.916 -0.0398  0.2306  0.8632
   18CHL1   C18 1285   6.216   0.465   6.883 -0.4091  0.3717 -0.3136
   18CHL1  H18A 1286   6.288   0.386   6.853  1.1982  2.0516 -1.0074
   18CHL1  H18B 1287   6.164   0.419   6.970  0.7949 -0.0163  0.2266
   18CHL1  H18C 1288   6.137   0.463   6.806  0.9238 -1.7930 -1.7166
   18CHL1   C12 1289   6.381   0.603   7.022  0.1833 -1.1135  0.5131
   18CHL1  H12A 1290   6.456   0.522   7.010 -1.1198 -2.5337  1.4781
   18CHL1  H12B 1291   6.431   0.702   7.017 -2.3461  0.2012 -0.3823
   18CHL1   C11 1292   6.317   0.564   7.156  0.3810  0.3676 -0.8381
   18CHL1  H11A 1293   6.289   0.457   7.163  0.5048  0.4235  0.6891
   18CHL1  H11B 1294   6.398   0.587   7.228 -0.1109 -1.3853  0.3470
   18CHL1    C9 1295   6.191   0.641   7.202 -0.4417 -1.1159  0.0629
   18CHL1    H9 1296   6.230   0.745   7.209 -0.6666 -1.0159 -0.1383
   18CHL1   C10 1297   6.123   0.612   7.335 -0.7038  0.6507 -0.5648
   18CHL1   C19 1298   6.078   0.462   7.346 -0.1251 -0.1342 -0.3837
   18CHL1  H19A 1299   6.015   0.436   7.258  0.5155  3.0587 -1.9475
   18CHL1  H19B 1300   6.170   0.399   7.340  0.0215 -0.1819  1.8725
   18CHL1  H19C 1301   6.036   0.439   7.446  2.3614 -0.5871  0.6292
   18CHL1    C1 1302   6.230   0.647   7.445  0.9173  1.4081 -0.6023
   18CHL1   H1A 1303   6.304   0.565   7.461 -0.2769  0.0420 -1.8059
   18CHL1   H1B 1304   6.286   0.739   7.415 -0.3846  2.5162  0.2391
   18CHL1    C2 1305   6.175   0.668   7.584 -0.0648  0.3707  0.2529
   18CHL1   H2A 1306   6.244   0.711   7.659  1.5699  0.3156 -1.1564
   18CHL1   H2B 1307   6.140   0.571   7.624 -1.8834  0.4653 -0.9889
   18CHL1   C20 1308   6.428   0.618   6.695 -0.2605 -0.4294  0.2830
   18CHL1   H20 1309   6.422   0.509   6.676  3.2099 -0.4131 -1.8153
   18CHL1   C21 1310   6.565   0.646   6.752  0.2937 -0.3731 -0.4439
   18CHL1  H21A 1311   6.640   0.585   6.699  0.1872 -1.7790  0.9590
   18CHL1  H21B 1312   6.574   0.612   6.857 -1.4371 -1.5814 -0.6360
   18CHL1  H21C 1313   6.590   0.753   6.768 -2.4774  0.2085  0.7516
   18CHL1   C22 1314   6.414   0.674   6.556 -0.7070 -0.7236 -0.0103
   18CHL1  H22A 1315   6.321   0.643   6.504 -0.0744  0.2473 -1.7929
   18CHL1  H22B 1316   6.420   0.785   6.560 -0.2903 -0.7062 -0.8565
   18CHL1   C23 1317   6.523   0.629   6.450  0.6469 -0.7426  0.0418
   18CHL1  H23A 1318   6.621   0.680   6.465  0.3421 -0.4030  0.9531
   18CHL1  H23B 1319   6.538   0.520   6.463  1.0211 -0.8409 -1.1610
   18CHL1   C24 1320   6.484   0.666   6.305 -0.2857 -0.3504 -0.0261
   18CHL1  H24A 1321   6.378   0.633   6.292 -0.8299  0.9555  0.8679
   18CHL1  H24B 1322   6.505   0.774   6.289  2.5556 -0.4909  1.9303
   18CHL1   C25 1323   6.568   0.585   6.202  0.9026 -0.0714 -0.3082
   18CHL1   H25 1324   6.538   0.479   6.218 -0.9531  0.5931  1.0063
   18CHL1   C26 1325   6.528   0.617   6.059 -0.3923 -0.3575 -0.5625
   18CHL1  H26A 1326   6.426   0.585   6.027 -0.4371 -1.9127  0.9943
   18CHL1  H26B 1327   6.537   0.727   6.044  0.7304 -0.0702  1.7487
   18CHL1  H26C 1328   6.596   0.571   5.984 -2.2352 -2.6386 -0.9327
   18CHL1   C27 1329   6.722   0.598   6.230  0.1338 -0.2487  0.2789
   18CHL1  H27A 1330   6.753   0.704   6.215  2.1451 -0.5565  1.8371
   18CHL1  H27B 1331   6.760   0.576   6.332  0.9352  2.2226  0.5886
   18CHL1  H27C 1332   6.783   0.543   6.155 -0.8829  2.1437 -2.5147
   19CHL1    C3 1333   4.520   6.429   7.691 -0.3776 -0.1945 -0.0869
   19CHL1    H3 1334   4.618   6.479   7.677  0.0874 -1.7011 -3.2231
   19CHL1    O3 1335   4.483   6.406   7.821 -0.0948  0.3051 -0.3214
   19CHL1   H3' 1336   4.519   6.321   7.847 -1.1632  0.5520  2.2509
   19CHL1    C4 1337   4.403   6.504   7.624  0.4666 -0.4918 -0.4233
   19CHL1   H4A 1338   4.311   6.443   7.632  2.4495 -3.4930  2.6273
   19CHL1   H4B 1339   4.385   6.602   7.673 -1.6036 -0.7881 -0.5194
   19CHL1    C5 1340   4.445   6.524   7.477  0.8741  0.3039  0.5153
   19CHL1    C6 1341   4.452   6.647   7.425 -0.0225 -0.3301  0.5638
   19CHL1    H6 1342   4.426   6.726   7.497 -0.7879 -2.1848  2.4378
   19CHL1    C7 1343   4.470   6.670   7.276  0.1319 -0.0482 -0.3124
   19CHL1   H7A 1344   4.397   6.741   7.233  0.6533  1.1150  0.6331
   19CHL1   H7B 1345   4.570   6.715   7.259  0.4314 -0.0819  1.2131
   19CHL1    C8 1346   4.459   6.541   7.190 -0.4958  0.2622  0.3039
   19CHL1    H8 1347   4.351   6.518   7.180 -1.0225  2.0981  1.3359
   19CHL1   C14 1348   4.510   6.568   7.051 -0.0336  0.1849 -0.1194
   19CHL1   H14 1349   4.615   6.601   7.064  0.3406 -1.0894  0.2068
   19CHL1   C15 1350   4.437   6.671   6.968 -0.6629 -0.3776  0.3270
   19CHL1  H15A 1351   4.327   6.668   6.979 -0.4995  0.5187  2.8212
   19CHL1  H15B 1352   4.467   6.772   7.003  0.2805 -1.0560  1.5466
   19CHL1   C16 1353   4.484   6.648   6.825 -0.0655 -0.0151 -0.3969
   19CHL1  H16A 1354   4.392   6.636   6.763 -0.2701  1.9596 -0.5266
   19CHL1  H16B 1355   4.540   6.733   6.781  2.2057 -1.1090  0.2682
   19CHL1   C17 1356   4.561   6.508   6.823 -0.5962  0.5373 -0.3096
   19CHL1   H17 1357   4.666   6.543   6.820  0.3428 -2.0209  0.4846
   19CHL1   C13 1358   4.523   6.441   6.960 -0.6646  0.3343 -0.6222
   19CHL1   C18 1359   4.389   6.380   6.941 -0.1864 -0.4079  0.2312
   19CHL1  H18A 1360   4.390   6.286   6.882  0.6102 -0.2016 -0.0979
   19CHL1  H18B 1361   4.347   6.356   7.042  2.4343 -1.5138  1.1431
   19CHL1  H18C 1362   4.308   6.437   6.892  0.3550 -1.5457 -2.1307
   19CHL1   C12 1363   4.614   6.336   7.034 -0.2410 -0.2852 -0.7272
   19CHL1  H12A 1364   4.621   6.241   6.978 -2.2185 -0.3746 -0.8609
   19CHL1  H12B 1365   4.717   6.379   7.041  0.4236 -1.6448 -1.6906
   19CHL1   C11 1366   4.562   6.299   7.176  0.9513 -0.4595  0.4096
   19CHL1  H11A 1367   4.474   6.236   7.151  0.2451  0.5654  0.2780
   19CHL1  H11B 1368   4.634   6.232   7.229 -0.7511 -2.9149 -0.1952
   19CHL1    C9 1369   4.532   6.428   7.263 -0.0909  0.2743 -0.0897
   19CHL1    H9 1370   4.634   6.472   7.278  0.6401 -1.3609 -0.0968
   19CHL1   C10 1371   4.470   6.392   7.400 -0.1841  0.7895 -0.6629
   19CHL1   C19 1372   4.342   6.308   7.383 -0.0554  0.5782  0.3730
   19CHL1  H19A 1373   4.364   6.216   7.324  0.3249  0.4503  0.7071
   19CHL1  H19B 1374   4.314   6.280   7.487  0.6234 -1.5811  0.0175
   19CHL1  H19C 1375   4.275   6.374   7.323 -2.0130 -2.9499 -1.6254
   19CHL1    C1 1376   4.574   6.310   7.486  1.2287 -0.3449 -0.0639
   19CHL1   H1A 1377   4.565   6.207   7.444  1.8119  0.0072 -1.0816
   19CHL1   H1B 1378   4.672   6.359   7.470  0.2193  1.4714 -0.9848
   19CHL1    C2 1379   4.545   6.291   7.631 -0.1999  0.2393 -0.0893
   19CHL1   H2A 1380   4.617   6.224   7.683 -1.9319 -2.7818 -1.3022
   19CHL1   H2B 1381   4.450   6.233   7.633  0.6745 -1.3346 -1.8657
   19CHL1   C20 1382   4.535   6.425   6.696 -0.1301  0.3581 -0.4750
   19CHL1   H20 1383   4.426   6.407   6.684 -0.1883 -0.1202  0.6416
   19CHL1   C21 1384   4.620   6.304   6.703 -0.4978  0.4282 -0.7400
   19CHL1  H21A 1385   4.728   6.329   6.711 -0.4484 -0.1010  0.7380
   19CHL1  H21B 1386   4.612   6.243   6.611 -0.0465  1.3074 -1.3835
   19CHL1  H21C 1387   4.594   6.238   6.789 -1.1874  1.8429  0.1893
   19CHL1   C22 1388   4.562   6.514   6.571 -0.1430 -0.4226  0.1285
   19CHL1  H22A 1389   4.496   6.603   6.571  0.4890  0.0515  0.3701
   19CHL1  H22B 1390   4.669   6.544   6.566 -0.4418  0.5492 -0.4061
   19CHL1   C23 1391   4.535   6.433   6.438 -0.5302 -0.2684  0.3507
   19CHL1  H23A 1392   4.529   6.507   6.356 -0.4123 -1.5073 -0.8090
   19CHL1  H23B 1393   4.623   6.370   6.413  1.1457  1.7593  0.8498
   19CHL1   C24 1394   4.412   6.348   6.431  0.2423  0.2242 -0.7634
   19CHL1  H24A 1395   4.413   6.263   6.502 -0.7203 -0.7413 -1.8624
   19CHL1  H24B 1396   4.330   6.410   6.473 -0.4767 -0.0361 -1.7525
   19CHL1   C25 1397   4.374   6.288   6.290  0.0076  0.5969 -0.1835
   19CHL1   H25 1398   4.462   6.235   6.245 -0.4244 -0.0357 -0.3058
   19CHL1   C26 1399   4.269   6.184   6.313 -0.0527  0.6967 -0.5356
   19CHL1  H26A 1400   4.243   6.139   6.215 -0.2930 -2.8741  1.0066
   19CHL1  H26B 1401   4.316   6.097   6.364  1.9822  2.0093 -0.0658
   19CHL1  H26C 1402   4.192   6.237   6.372  1.4920  0.6974  1.6090
   19CHL1   C27 1403   4.324   6.397   6.192 -0.4634 -0.5501 -0.0463
   19CHL1  H27A 1404   4.409   6.469   6.198 -1.1158  0.0936  2.6945
   19CHL1  H27B 1405   4.314   6.358   6.088 -0.3002 -0.8777  0.0581
   19CHL1  H27C 1406   4.235   6.448   6.234 -0.8632  1.5019 -3.0779
   20CHL1    C3 1407   3.943   6.250   7.801  0.0085  0.0969  0.5131
   20CHL1    H3 1408   4.049   6.216   7.791 -0.2182 -0.1471 -1.4570
   20CHL1    O3 1409   3.908   6.238   7.933  0.4726  0.0911 -0.2972
   20CHL1   H3' 1410   3.813   6.226   7.926  0.5170  0.3676 -1.8732
   20CHL1    C4 1411   3.918   6.398   7.761 -0.4485  0.2469 -0.2954
   20CHL1   H4A 1412   3.811   6.414   7.783 -0.4430 -0.9810  0.7448
   20CHL1   H4B 1413   3.975   6.466   7.829 -1.8113  1.9667 -0.7992
   20CHL1    C5 1414   3.945   6.405   7.611 -0.1302 -0.3543 -0.4225
   20CHL1    C6 1415   4.034   6.500   7.569  0.9868 -0.0208 -0.0901
   20CHL1    H6 1416   4.083   6.570   7.639 -2.1106  1.4728  0.7585
   20CHL1    C7 1417   4.051   6.534   7.428  0.2751  0.4471  0.0855
   20CHL1   H7A 1418   4.040   6.644   7.417  0.8356  0.4456 -0.5432
   20CHL1   H7B 1419   4.155   6.510   7.396  1.2151 -0.4215  3.4462
   20CHL1    C8 1420   3.951   6.457   7.329 -0.2347  0.0641 -0.0969
   20CHL1    H8 1421   3.852   6.509   7.333 -0.1980  0.1558  3.4035
   20CHL1   C14 1422   3.995   6.461   7.186  0.0500  0.9973 -0.4960
   20CHL1   H14 1423   4.085   6.396   7.183 -0.4028  0.1752  1.6202
   20CHL1   C15 1424   4.049   6.588   7.120 -0.8240  0.0629  0.0452
   20CHL1  H15A 1425   3.992   6.675   7.158 -2.5753 -0.6917 -0.7082
   20CHL1  H15B 1426   4.158   6.604   7.129 -0.8772  0.6390 -0.3576
   20CHL1   C16 1427   4.029   6.569   6.972  0.4889  0.2873  0.4070
   20CHL1  H16A 1428   3.981   6.655   6.920 -0.6776  0.1723  1.2417
   20CHL1  H16B 1429   4.127   6.565   6.920  0.0929  0.9062 -0.4092
   20CHL1   C17 1430   3.973   6.424   6.957 -0.0800  0.3056  0.2553
   20CHL1   H17 1431   4.064   6.362   6.971 -1.8662 -3.1473 -2.1356
   20CHL1   C13 1432   3.892   6.399   7.084 -0.5343  0.1528  0.2665
   20CHL1   C18 1433   3.763   6.491   7.088 -0.0483 -0.0169  0.3299
   20CHL1  H18A 1434   3.683   6.445   7.027 -1.4441 -0.6834  2.5638
   20CHL1  H18B 1435   3.716   6.514   7.186 -2.2302  1.4734 -0.9928
   20CHL1  H18C 1436   3.785   6.589   7.040 -0.1703  0.1801  0.6723
   20CHL1   C12 1437   3.860   6.252   7.128 -0.2428  0.5407 -0.3337
   20CHL1  H12A 1438   3.781   6.217   7.058  0.3051 -0.1985 -0.5920
   20CHL1  H12B 1439   3.948   6.189   7.103  0.8203  2.5380 -1.9885
   20CHL1   C11 1440   3.818   6.243   7.274 -0.0943  0.1044  0.4387
   20CHL1  H11A 1441   3.713   6.281   7.272  0.5422  1.8939 -1.5489
   20CHL1  H11B 1442   3.814   6.135   7.301 -0.6125  0.2209  0.8664
   20CHL1    C9 1443   3.916   6.313   7.372  0.0554 -0.2893 -0.2866
   20CHL1    H9 1444   4.007   6.250   7.364 -0.0308 -0.2504 -1.7938
   20CHL1   C10 1445   3.867   6.309   7.523  0.4498 -0.5677  1.1094
   20CHL1   C19 1446   3.719   6.367   7.530 -0.0112  0.5179  0.6177
   20CHL1  H19A 1447   3.703   6.454   7.462 -1.2148 -0.0934  0.0880
   20CHL1  H19B 1448   3.650   6.290   7.490  0.4034  1.4064 -2.0105
   20CHL1  H19C 1449   3.679   6.381   7.633 -0.8718  0.7659  0.2612
   20CHL1    C1 1450   3.895   6.166   7.573 -1.1265 -0.2685 -0.1747
   20CHL1   H1A 1451   3.846   6.090   7.509 -0.0046 -0.2777 -1.0469
   20CHL1   H1B 1452   4.004   6.145   7.570 -0.3943  2.9836 -0.4489
   20CHL1    C2 1453   3.856   6.153   7.721  0.7009  0.2452 -0.0592
   20CHL1   H2A 1454   3.879   6.051   7.760  3.5452  1.2618  1.1844
   20CHL1   H2B 1455   3.745   6.162   7.722  0.5595 -1.1784  1.0912
   20CHL1   C20 1456   3.924   6.388   6.809  0.0738 -0.3417 -0.2025
   20CHL1   H20 1457   3.859   6.298   6.815 -2.5462  1.4869  0.7174
   20CHL1   C21 1458   4.046   6.372   6.722 -0.3240 -0.5198  0.1967
   20CHL1  H21A 1459   4.117   6.457   6.735 -1.1551  0.2167  0.0496
   20CHL1  H21B 1460   4.018   6.350   6.617 -2.1823 -0.3258  0.6239
   20CHL1  H21C 1461   4.097   6.279   6.756  1.2689 -0.7891 -2.6170
   20CHL1   C22 1462   3.833   6.488   6.738  0.2674  0.3044 -0.5617
   20CHL1  H22A 1463   3.782   6.560   6.806 -1.8587  1.1337 -2.9113
   20CHL1  H22B 1464   3.894   6.553   6.672 -2.2068  3.1816 -0.2486
   20CHL1   C23 1465   3.718   6.424   6.664 -0.0906 -0.3648 -0.1833
   20CHL1  H23A 1466   3.755   6.330   6.618  1.0360  0.9048 -1.9805
   20CHL1  H23B 1467   3.644   6.391   6.740  1.5733 -1.8547  0.8860
   20CHL1   C24 1468   3.645   6.511   6.567 -0.0676 -0.4985  0.1758
   20CHL1  H24A 1469   3.615   6.614   6.592 -0.0499 -0.4529  0.0125
   20CHL1  H24B 1470   3.728   6.538   6.497  0.4099  0.8311  1.2109
   20CHL1   C25 1471   3.535   6.450   6.486  0.1049 -0.5543 -0.4240
   20CHL1   H25 1472   3.551   6.340   6.492 -0.7870 -0.6360  0.7986
   20CHL1   C26 1473   3.398   6.474   6.533  0.3008 -0.2548 -0.0830
   20CHL1  H26A 1474   3.393   6.481   6.644  1.8782 -0.7155  0.0418
   20CHL1  H26B 1475   3.369   6.574   6.495  0.8851  0.7410  1.9370
   20CHL1  H26C 1476   3.325   6.396   6.502 -0.0351 -0.7740  1.8605
   20CHL1   C27 1477   3.535   6.503   6.346 -0.3182 -0.6334 -0.2329
   20CHL1  H27A 1478   3.545   6.613   6.344  0.6484 -0.6758  0.8525
   20CHL1  H27B 1479   3.621   6.454   6.295  0.2958 -1.5496  1.5784
   20CHL1  H27C 1480   3.449   6.471   6.285 -0.6066  0.6730 -0.5320
   21CHL1    C3 1481   6.196   1.398   7.580 -0.1576  0.2551 -0.5426
   21CHL1    H3 1482   6.291   1.352   7.545 -1.6793 -2.8307 -0.9125
   21CHL1    O3 1483   6.205   1.431   7.716 -0.7635 -0.1472 -0.2228
   21CHL1   H3' 1484   6.290   1.389   7.733 -1.1490 -0.3226  1.4005
   21CHL1    C4 1485   6.180   1.526   7.490 -0.2380 -0.5742 -0.0681
   21CHL1   H4A 1486   6.079   1.568   7.506 -0.0560  0.3250 -1.1216
   21CHL1   H4B 1487   6.254   1.606   7.511 -0.3775  0.2227 -2.3118
   21CHL1    C5 1488   6.181   1.486   7.346  0.7313 -0.1308 -0.0072
   21CHL1    C6 1489   6.278   1.525   7.265  0.6150 -0.4075 -1.2536
   21CHL1    H6 1490   6.348   1.591   7.317 -0.4131 -1.6589  1.9918
   21CHL1    C7 1491   6.296   1.480   7.127  1.1269  0.2823  0.8690
   21CHL1   H7A 1492   6.322   1.571   7.069  1.4808  0.3556  1.1397
   21CHL1   H7B 1493   6.375   1.402   7.117 -0.0841 -0.7042 -2.1567
   21CHL1    C8 1494   6.160   1.431   7.059 -0.5837  0.6097 -0.6905
   21CHL1    H8 1495   6.099   1.521   7.036 -3.1924  0.2216  3.5908
   21CHL1   C14 1496   6.189   1.359   6.932  0.5986  0.1888 -0.2141
   21CHL1   H14 1497   6.257   1.274   6.952  1.2170 -0.0786 -3.0322
   21CHL1   C15 1498   6.268   1.427   6.821  0.0931  0.2185  0.5153
   21CHL1  H15A 1499   6.244   1.535   6.811 -3.9466 -0.6186 -0.9176
   21CHL1  H15B 1500   6.378   1.421   6.836  0.3851  2.5034 -0.2387
   21CHL1   C16 1501   6.225   1.358   6.688  0.2971  0.3021 -0.6958
   21CHL1  H16A 1502   6.179   1.433   6.620 -0.8869 -0.4711 -0.7664
   21CHL1  H16B 1503   6.312   1.315   6.635  2.0312 -0.7186  2.6588
   21CHL1   C17 1504   6.124   1.242   6.729 -0.2868 -0.7053  0.4044
   21CHL1   H17 1505   6.191   1.159   6.760 -0.1136 -0.1979  1.4496
   21CHL1   C13 1506   6.070   1.291   6.862  0.2425  0.4790 -0.1227
   21CHL1   C18 1507   5.950   1.385   6.847  0.2016 -0.0415 -0.6548
   21CHL1  H18A 1508   5.960   1.458   6.764  2.5202  0.6828  0.1785
   21CHL1  H18B 1509   5.855   1.330   6.836 -0.8807  1.6829 -0.3026
   21CHL1  H18C 1510   5.946   1.451   6.936  0.9614  0.2576 -0.8330
   21CHL1   C12 1511   6.028   1.178   6.963 -0.2438 -0.4170 -0.0026
   21CHL1  H12A 1512   5.939   1.127   6.919  2.0101 -3.7716 -1.0731
   21CHL1  H12B 1513   6.114   1.109   6.976  0.1017 -0.2533 -1.2915
   21CHL1   C11 1514   5.998   1.235   7.103  0.3476 -0.4021  0.2374
   21CHL1  H11A 1515   5.907   1.296   7.083  1.2535  0.1854 -2.6485
   21CHL1  H11B 1516   5.974   1.149   7.169 -0.7331 -1.8269 -1.8684
   21CHL1    C9 1517   6.101   1.331   7.160 -0.2896 -0.4382 -0.3265
   21CHL1    H9 1518   6.183   1.259   7.183 -1.5744 -1.5863  0.8008
   21CHL1   C10 1519   6.073   1.390   7.303  0.3804 -0.3204  0.5263
   21CHL1   C19 1520   5.946   1.473   7.283  0.1058  0.0882  1.0135
   21CHL1  H19A 1521   5.960   1.564   7.219  2.3583 -2.5655 -2.7029
   21CHL1  H19B 1522   5.858   1.419   7.243  0.7830 -0.0683 -0.3177
   21CHL1  H19C 1523   5.911   1.510   7.382 -0.0448  1.4188  0.4951
   21CHL1    C1 1524   6.045   1.286   7.413 -0.0012  0.4134 -0.0304
   21CHL1   H1A 1525   5.949   1.233   7.397 -0.1730  0.8167 -0.3446
   21CHL1   H1B 1526   6.120   1.206   7.394 -0.2380  0.2526 -0.2866
   21CHL1    C2 1527   6.068   1.312   7.562  0.1089 -0.2176 -0.2022
   21CHL1   H2A 1528   6.090   1.216   7.615 -0.8911 -0.9786 -1.1330
   21CHL1   H2B 1529   5.978   1.353   7.614  1.9953  1.5628  1.9150
   21CHL1   C20 1530   6.025   1.190   6.627  0.3687 -0.9858  0.1665
   21CHL1   H20 1531   5.926   1.182   6.675  1.3581  1.1661  2.8518
   21CHL1   C21 1532   6.073   1.048   6.587 -0.5783  0.1007 -0.1841
   21CHL1  H21A 1533   6.055   0.994   6.683 -1.1789  3.4163  1.7133
   21CHL1  H21B 1534   6.175   1.036   6.545  0.0263  0.0916  1.2147
   21CHL1  H21C 1535   6.003   1.011   6.509  0.6876 -1.9201 -0.4259
   21CHL1   C22 1536   6.014   1.288   6.495 -0.0335 -0.2231  0.5480
   21CHL1  H22A 1537   5.979   1.389   6.524 -0.8750 -0.2358 -0.3615
   21CHL1  H22B 1538   6.114   1.288   6.447 -1.8827  0.9604 -3.7833
   21CHL1   C23 1539   5.902   1.237   6.390 -0.7928 -0.2505 -0.1483
   21CHL1  H23A 1540   5.937   1.154   6.326 -0.3023 -0.0820 -0.1077
   21CHL1  H23B 1541   5.822   1.194   6.454 -1.8152  0.8736 -0.6296
   21CHL1   C24 1542   5.842   1.342   6.294 -0.6081  0.9334 -0.0688
   21CHL1  H24A 1543   5.802   1.436   6.339 -1.1061  0.8649 -0.3682
   21CHL1  H24B 1544   5.935   1.369   6.240 -0.4631  0.3702 -0.1075
   21CHL1   C25 1545   5.736   1.270   6.206  0.3428 -0.9355 -0.1812
   21CHL1   H25 1546   5.782   1.173   6.180  0.1504 -1.2077  0.4949
   21CHL1   C26 1547   5.601   1.256   6.278  0.1766  0.6810 -0.4112
   21CHL1  H26A 1548   5.555   1.351   6.311  1.2422  0.6817  1.1302
   21CHL1  H26B 1549   5.535   1.192   6.215  0.7913 -1.6896  1.2206
   21CHL1  H26C 1550   5.619   1.189   6.365  3.8135  2.0298  0.0457
   21CHL1   C27 1551   5.717   1.347   6.071 -0.7238 -0.2374  0.9626
   21CHL1  H27A 1552   5.674   1.444   6.102  0.1313  0.0058  1.4196
   21CHL1  H27B 1553   5.814   1.362   6.018 -1.1727  2.1061  0.6920
   21CHL1  H27C 1554   5.639   1.290   6.016  1.3603 -2.5218  0.1327
   22CHL1    C3 1555   5.200   0.045   7.961  0.2355 -0.3069  0.4113
   22CHL1    H3 1556   5.105  -0.009   7.939 -1.3668  3.1822 -2.4090
   22CHL1    O3 1557   5.201   0.095   8.092 -0.6864  0.1734 -0.0176
   22CHL1   H3' 1558   5.191   0.013   8.141 -0.3852  1.3671  2.1274
   22CHL1    C4 1559   5.329  -0.042   7.947  0.0334 -0.4030 -0.4124
   22CHL1   H4A 1560   5.415   0.005   8.000 -0.4493  1.0672 -0.8907
   22CHL1   H4B 1561   5.307  -0.131   8.010 -0.7864 -0.1694 -0.3651
   22CHL1    C5 1562   5.354  -0.079   7.803  0.1524  0.2845  0.1007
   22CHL1    C6 1563   5.359  -0.206   7.765  0.0517  0.4982  0.5800
   22CHL1    H6 1564   5.333  -0.282   7.840 -3.0744 -0.5417 -1.3633
   22CHL1    C7 1565   5.393  -0.267   7.626 -0.2374 -0.0629 -0.6307
   22CHL1   H7A 1566   5.473  -0.343   7.633  0.8257  1.1159  4.8295
   22CHL1   H7B 1567   5.301  -0.317   7.590  0.1402 -1.4333  0.2554
   22CHL1    C8 1568   5.445  -0.154   7.527 -0.3318 -0.8110 -0.1173
   22CHL1    H8 1569   5.550  -0.122   7.547 -0.7076 -0.4039  1.3659
   22CHL1   C14 1570   5.436  -0.197   7.384  0.7566  0.2849 -0.7035
   22CHL1   H14 1571   5.330  -0.223   7.360  1.2958 -1.2331 -1.6089
   22CHL1   C15 1572   5.503  -0.331   7.350 -0.5766 -0.4752  0.0500
   22CHL1  H15A 1573   5.610  -0.334   7.380 -0.7579  0.1824  0.7910
   22CHL1  H15B 1574   5.460  -0.429   7.380 -2.3484  0.4814  0.8262
   22CHL1   C16 1575   5.498  -0.326   7.195 -0.0381  0.9876 -0.1912
   22CHL1  H16A 1576   5.596  -0.338   7.143 -0.0062  1.1062 -0.1588
   22CHL1  H16B 1577   5.426  -0.401   7.156 -0.5999  1.5308 -0.2014
   22CHL1   C17 1578   5.442  -0.185   7.157  0.7799 -0.1063 -0.3811
   22CHL1   H17 1579   5.332  -0.193   7.164  0.8291 -0.0121  0.8216
   22CHL1   C13 1580   5.477  -0.096   7.279  0.2860 -0.5239 -0.6933
   22CHL1   C18 1581   5.623  -0.054   7.281 -0.2363  0.6902  0.4025
   22CHL1  H18A 1582   5.684  -0.146   7.268 -1.5180 -0.3203  1.2959
   22CHL1  H18B 1583   5.652   0.020   7.203 -2.6878 -0.0317 -1.3208
   22CHL1  H18C 1584   5.641  -0.013   7.382  0.0196 -0.4380  0.8367
   22CHL1   C12 1585   5.394   0.034   7.294  0.0789 -0.1114  0.3405
   22CHL1  H12A 1586   5.436   0.115   7.230  0.6928 -1.2025 -0.6703
   22CHL1  H12B 1587   5.293   0.020   7.252  0.3251  0.8997 -0.6580
   22CHL1   C11 1588   5.393   0.086   7.437 -0.7203  0.1172 -0.5646
   22CHL1  H11A 1589   5.495   0.124   7.459  0.1256 -1.0733 -2.2484
   22CHL1  H11B 1590   5.317   0.167   7.441  0.0014  0.8816 -1.9977
   22CHL1    C9 1591   5.366  -0.022   7.548  0.2728  0.2312 -0.5721
   22CHL1    H9 1592   5.266  -0.062   7.525  0.0264  1.0634 -0.9840
   22CHL1   C10 1593   5.368   0.031   7.696  0.0502  0.5273 -0.6410
   22CHL1   C19 1594   5.494   0.119   7.726  0.6068 -0.1069 -0.3709
   22CHL1  H19A 1595   5.508   0.200   7.652 -1.3769  1.3784  0.7688
   22CHL1  H19B 1596   5.494   0.151   7.833  0.4871  0.5923 -0.5747
   22CHL1  H19C 1597   5.578   0.049   7.707  1.0641  0.9743 -2.5949
   22CHL1    C1 1598   5.245   0.124   7.715 -0.0556 -0.1754 -0.2072
   22CHL1   H1A 1599   5.263   0.215   7.653 -2.5031 -0.1440 -1.0142
   22CHL1   H1B 1600   5.166   0.064   7.665  0.6301 -0.9336 -0.3973
   22CHL1    C2 1601   5.209   0.166   7.861  0.0097  0.5824 -0.4305
   22CHL1   H2A 1602   5.121   0.233   7.870  1.1410  1.9013  1.3301
   22CHL1   H2B 1603   5.297   0.220   7.901 -0.3492  1.7616 -1.1771
   22CHL1   C20 1604   5.479  -0.141   7.014 -0.9514  0.1630 -0.3394
   22CHL1   H20 1605   5.586  -0.113   7.004 -1.2761  1.6196  0.1042
   22CHL1   C21 1606   5.394  -0.015   6.978  0.0384 -0.3980  0.6821
   22CHL1  H21A 1607   5.387   0.004   6.869  2.0802 -0.2261  0.5594
   22CHL1  H21B 1608   5.435   0.075   7.029 -2.9009 -0.0399  2.6792
   22CHL1  H21C 1609   5.290  -0.031   7.016 -0.5429  0.5953 -0.4248
   22CHL1   C22 1610   5.447  -0.251   6.913 -0.0652 -0.3812 -0.2495
   22CHL1  H22A 1611   5.509  -0.339   6.940  1.4372  0.3316 -1.2461
   22CHL1  H22B 1612   5.337  -0.267   6.921 -0.3595  0.7618 -1.6233
   22CHL1   C23 1613   5.476  -0.221   6.761  0.4603  0.0192  0.1393
   22CHL1  H23A 1614   5.453  -0.318   6.711 -0.5116 -1.0164  2.4290
   22CHL1  H23B 1615   5.402  -0.156   6.710  1.3049  0.8704 -0.0209
   22CHL1   C24 1616   5.619  -0.166   6.736 -0.3646  0.1833 -0.0425
   22CHL1  H24A 1617   5.625  -0.056   6.751 -0.9465  0.1931  0.1593
   22CHL1  H24B 1618   5.691  -0.215   6.805 -0.9564 -0.3915  0.1770
   22CHL1   C25 1619   5.666  -0.186   6.590 -0.4530  0.8975 -1.0623
   22CHL1   H25 1620   5.590  -0.139   6.524 -0.6775  0.3422 -1.2066
   22CHL1   C26 1621   5.796  -0.109   6.572 -0.0574  0.4216 -0.0024
   22CHL1  H26A 1622   5.866  -0.140   6.652  1.2237 -0.8163 -1.5377
   22CHL1  H26B 1623   5.838  -0.131   6.472 -1.3001  0.0189 -0.4538
   22CHL1  H26C 1624   5.776   0.000   6.567 -0.9764  0.2030 -2.2602
   22CHL1   C27 1625   5.685  -0.336   6.551  0.2256 -0.4479  0.5610
   22CHL1  H27A 1626   5.584  -0.381   6.555  0.4101 -1.1593 -1.5105
   22CHL1  H27B 1627   5.718  -0.342   6.445 -1.5113  0.1288 -0.0460
   22CHL1  H27C 1628   5.756  -0.388   6.619  0.0887 -0.8550  0.3940
   23CHL1    C3 1629   3.725   3.186   7.335  0.5708 -0.3258 -0.3918
   23CHL1    H3 1630   3.697   3.275   7.276  2.3505 -0.8546 -2.1599
   23CHL1    O3 1631   3.740   3.220   7.472 -0.0939  0.4252  0.0383
   23CHL1   H3' 1632   3.782   3.307   7.468  1.0569 -0.1120  0.2978
   23CHL1    C4 1633   3.630   3.063   7.319 -0.0460  0.2030 -0.2653
   23CHL1   H4A 1634   3.680   2.970   7.353  1.8606  0.7678 -1.4052
   23CHL1   H4B 1635   3.538   3.072   7.382  1.2724  0.5218  1.7132
   23CHL1    C5 1636   3.606   3.050   7.170 -0.3087  0.2447 -0.0765
   23CHL1    C6 1637   3.489   3.052   7.105 -0.2533  0.7085 -0.5039
   23CHL1    H6 1638   3.394   3.055   7.161  0.0871 -0.2670  0.1316
   23CHL1    C7 1639   3.474   3.028   6.956 -0.2483  0.0278 -0.5037
   23CHL1   H7A 1640   3.387   2.967   6.925  0.2509 -0.3693 -1.1455
   23CHL1   H7B 1641   3.452   3.123   6.903 -0.5919  0.0671 -0.2900
   23CHL1    C8 1642   3.603   2.980   6.881 -0.2172  0.6864  0.6600
   23CHL1    H8 1643   3.617   2.871   6.898  2.2238  0.6853 -0.7853
   23CHL1   C14 1644   3.587   3.005   6.732  0.4880 -0.0451  0.0713
   23CHL1   H14 1645   3.567   3.114   6.725 -5.1709 -0.8619 -2.7270
   23CHL1   C15 1646   3.467   2.947   6.663 -0.6486  0.2166 -0.9560
   23CHL1  H15A 1647   3.447   2.843   6.694 -1.5555  0.9184  0.9818
   23CHL1  H15B 1648   3.375   3.005   6.684  2.8128  5.5955  1.8172
   23CHL1   C16 1649   3.512   2.936   6.518  0.9021 -0.1168  0.4667
   23CHL1  H16A 1650   3.502   2.832   6.479  1.7354  0.0125 -0.1158
   23CHL1  H16B 1651   3.445   2.993   6.450 -0.5171 -0.2911  1.6749
   23CHL1   C17 1652   3.654   2.988   6.498 -0.1332 -0.5276  0.0966
   23CHL1   H17 1653   3.645   3.094   6.468 -4.5353 -0.8434 -0.4385
   23CHL1   C13 1654   3.701   2.969   6.646  0.7487  0.5976  0.4398
   23CHL1   C18 1655   3.736   2.821   6.666 -0.9147 -0.0112 -0.6550
   23CHL1  H18A 1656   3.756   2.799   6.773  3.2625  0.0284 -1.2409
   23CHL1  H18B 1657   3.659   2.757   6.620  1.3707 -2.9957 -0.6271
   23CHL1  H18C 1658   3.830   2.795   6.613 -0.1914  0.3758  0.3958
   23CHL1   C12 1659   3.818   3.070   6.684  0.4942 -0.3995  0.1034
   23CHL1  H12A 1660   3.915   3.059   6.630  1.2139 -3.0488  1.7587
   23CHL1  H12B 1661   3.774   3.172   6.675 -0.9087 -1.1070 -1.3869
   23CHL1   C11 1662   3.845   3.060   6.834  0.3766 -0.3103 -0.2117
   23CHL1  H11A 1663   3.910   2.971   6.843 -0.3033 -0.7708  0.1966
   23CHL1  H11B 1664   3.906   3.148   6.861  2.1633 -1.0642 -1.6222
   23CHL1    C9 1665   3.718   3.060   6.931 -0.3120  0.5527 -0.5805
   23CHL1    H9 1666   3.690   3.167   6.915  1.9068  1.3610  0.5509
   23CHL1   C10 1667   3.745   3.031   7.084  0.7307 -1.3205 -0.0833
   23CHL1   C19 1668   3.791   2.886   7.100 -0.2026 -0.4349 -0.1785
   23CHL1  H19A 1669   3.816   2.862   7.205  1.1358 -0.4101 -0.4672
   23CHL1  H19B 1670   3.722   2.811   7.055 -1.6504 -0.1272  1.4225
   23CHL1  H19C 1671   3.892   2.883   7.053  0.9465  0.2423  2.1157
   23CHL1    C1 1672   3.861   3.123   7.136 -0.7345 -0.0908 -0.3930
   23CHL1   H1A 1673   3.961   3.091   7.101  0.3566  1.1550  1.4535
   23CHL1   H1B 1674   3.851   3.229   7.104  3.0812  1.2613  2.1976
   23CHL1    C2 1675   3.860   3.143   7.289 -0.7011  0.2512 -0.1917
   23CHL1   H2A 1676   3.945   3.210   7.316  0.0687 -1.0021  0.5637
   23CHL1   H2B 1677   3.870   3.043   7.336 -2.2330  0.6972  1.1858
   23CHL1   C20 1678   3.722   2.914   6.380 -0.0579 -0.1967 -0.3425
   23CHL1   H20 1679   3.735   2.806   6.400  1.1030 -0.1522 -0.7667
   23CHL1   C21 1680   3.857   2.983   6.366 -0.7761 -0.3009 -0.3019
   23CHL1  H21A 1681   3.911   2.975   6.463  0.5699  0.7100 -0.9314
   23CHL1  H21B 1682   3.847   3.092   6.343 -2.1652 -0.1447  0.8842
   23CHL1  H21C 1683   3.927   2.937   6.292 -0.2081 -2.3034  1.4034
   23CHL1   C22 1684   3.641   2.919   6.247 -0.7718 -0.1400 -0.5125
   23CHL1  H22A 1685   3.536   2.885   6.258 -1.6130  2.6326  1.0545
   23CHL1  H22B 1686   3.625   3.028   6.233 -0.5922  0.3341  2.4433
   23CHL1   C23 1687   3.703   2.874   6.113  0.2317  0.0840  0.5215
   23CHL1  H23A 1688   3.786   2.944   6.090 -0.8600  1.1233 -0.3661
   23CHL1  H23B 1689   3.749   2.776   6.138 -0.9523 -0.6608 -0.1542
   23CHL1   C24 1690   3.605   2.850   5.996 -0.6386 -0.6369 -0.0827
   23CHL1  H24A 1691   3.530   2.779   6.037 -0.3475  0.3371  2.3013
   23CHL1  H24B 1692   3.546   2.940   5.969  1.3573  0.2415 -1.8039
   23CHL1   C25 1693   3.673   2.785   5.875 -0.3283  0.1596 -0.1744
   23CHL1   H25 1694   3.736   2.699   5.904  1.0369 -0.2237 -3.8399
   23CHL1   C26 1695   3.568   2.731   5.780 -0.0149  0.1456  0.5352
   23CHL1  H26A 1696   3.491   2.809   5.764  1.5632  1.4353 -1.2720
   23CHL1  H26B 1697   3.613   2.700   5.683 -0.7036  1.8785 -0.3702
   23CHL1  H26C 1698   3.516   2.640   5.818  0.5082 -0.6052 -0.5099
   23CHL1   C27 1699   3.767   2.885   5.806  0.2741 -0.5265  0.4686
   23CHL1  H27A 1700   3.739   2.992   5.818 -0.0332 -0.7220  1.6456
   23CHL1  H27B 1701   3.869   2.872   5.848  1.4273 -1.1409 -2.2783
   23CHL1  H27C 1702   3.784   2.872   5.697  3.0341 -0.5241  0.8270
   24CHL1    C3 1703   4.930   4.707   7.683 -0.5660  0.4399 -0.4595
   24CHL1    H3 1704   4.995   4.631   7.636  1.3768  1.4841  0.4226
   24CHL1    O3 1705   4.948   4.694   7.820 -0.5699 -0.2265 -0.4997
   24CHL1   H3' 1706   4.892   4.761   7.860 -0.9693  0.4845 -2.1515
   24CHL1    C4 1707   4.979   4.850   7.646 -0.0315 -1.0375 -0.3938
   24CHL1   H4A 1708   4.913   4.919   7.704 -1.1499 -1.4533 -1.1307
   24CHL1   H4B 1709   5.084   4.862   7.678 -0.1172 -4.7179  1.7427
   24CHL1    C5 1710   4.958   4.864   7.495 -0.6318 -0.0116 -0.3508
   24CHL1    C6 1711   5.065   4.890   7.419 -0.8294 -0.5977 -0.9844
   24CHL1    H6 1712   5.160   4.911   7.471 -1.6579 -1.3589  0.9113
   24CHL1    C7 1713   5.050   4.908   7.271 -0.6075 -0.1453 -0.4755
   24CHL1   H7A 1714   5.110   4.997   7.242 -1.2614  1.5051  2.8562
   24CHL1   H7B 1715   5.089   4.815   7.222 -0.5897 -0.0027 -0.7332
   24CHL1    C8 1716   4.904   4.929   7.221  0.4841 -0.8708 -0.5343
   24CHL1    H8 1717   4.896   5.037   7.244  1.7347 -0.1844 -2.9570
   24CHL1   C14 1718   4.896   4.904   7.074  0.8438  0.3418 -0.0433
   24CHL1   H14 1719   4.938   4.801   7.061 -0.4936 -0.3925  1.1323
   24CHL1   C15 1720   4.986   4.989   6.993  0.2034  0.8463  0.4453
   24CHL1  H15A 1721   4.974   5.095   7.025 -0.4712  0.2713  2.2502
   24CHL1  H15B 1722   5.093   4.964   6.980  0.1302  1.1622 -0.9834
   24CHL1   C16 1723   4.920   4.986   6.855 -0.4221  0.0957 -0.6590
   24CHL1  H16A 1724   4.891   5.088   6.823 -0.0689 -0.1957 -1.9399
   24CHL1  H16B 1725   4.988   4.945   6.778  0.9285 -0.2416  0.6493
   24CHL1   C17 1726   4.784   4.906   6.864 -0.5260 -0.6292  0.6397
   24CHL1   H17 1727   4.805   4.801   6.836 -0.2260  0.1834 -2.6480
   24CHL1   C13 1728   4.757   4.921   7.017  0.8418  0.3121  0.4208
   24CHL1   C18 1729   4.694   5.056   7.052  0.2083 -0.1787 -0.3244
   24CHL1  H18A 1730   4.693   5.065   7.163  0.1627 -0.2735 -0.3173
   24CHL1  H18B 1731   4.755   5.142   7.018 -1.9239  1.2498 -0.7492
   24CHL1  H18C 1732   4.593   5.066   7.007  0.2266 -1.3280 -0.6318
   24CHL1   C12 1733   4.673   4.814   7.078  0.0588 -1.1083  0.2555
   24CHL1  H12A 1734   4.572   4.819   7.031  1.0703 -0.8344 -2.0361
   24CHL1  H12B 1735   4.718   4.717   7.047  2.3521 -0.0470  0.0957
   24CHL1   C11 1736   4.670   4.824   7.232  0.2182  0.4714  0.8090
   24CHL1  H11A 1737   4.602   4.901   7.274 -0.1169  2.5478 -3.0732
   24CHL1  H11B 1738   4.632   4.729   7.274  1.2691 -1.4745 -2.2899
   24CHL1    C9 1739   4.811   4.837   7.288  0.2885  0.1068 -0.7746
   24CHL1    H9 1740   4.853   4.736   7.270  0.8188  0.2545 -0.4172
   24CHL1   C10 1741   4.814   4.846   7.441  0.1338 -0.3360 -0.0927
   24CHL1   C19 1742   4.734   4.973   7.492  0.2578 -0.3603 -0.2486
   24CHL1  H19A 1743   4.783   5.063   7.450 -0.9451 -0.0307 -0.9851
   24CHL1  H19B 1744   4.628   4.965   7.459  0.1592  0.4843 -0.1670
   24CHL1  H19C 1745   4.729   4.973   7.603  0.4510  0.3066 -0.2382
   24CHL1    C1 1746   4.768   4.710   7.497  0.1286  0.3838 -0.1509
   24CHL1   H1A 1747   4.660   4.693   7.477  0.1860 -0.9785  0.6017
   24CHL1   H1B 1748   4.822   4.628   7.445 -1.4815  0.3582 -1.9090
   24CHL1    C2 1749   4.784   4.691   7.651  0.1608 -0.5770 -0.8651
   24CHL1   H2A 1750   4.757   4.585   7.673  1.6236 -0.8185 -0.1016
   24CHL1   H2B 1751   4.719   4.764   7.703 -0.1657 -2.1213  1.0136
   24CHL1   C20 1752   4.683   4.965   6.762 -0.3098 -0.2254 -0.1924
   24CHL1   H20 1753   4.637   5.062   6.792 -2.0059 -1.2855  0.8192
   24CHL1   C21 1754   4.568   4.868   6.757 -0.4455 -0.5519  0.2258
   24CHL1  H21A 1755   4.490   4.906   6.688 -2.1047 -0.7223  1.9005
   24CHL1  H21B 1756   4.511   4.862   6.853 -0.1608 -0.2175  0.4212
   24CHL1  H21C 1757   4.604   4.765   6.736  3.4758  0.7196 -0.0339
   24CHL1   C22 1758   4.747   4.977   6.620  0.5249 -0.8591 -0.0730
   24CHL1  H22A 1759   4.821   5.060   6.626 -0.1784 -0.2338  0.0980
   24CHL1  H22B 1760   4.798   4.884   6.587  0.1874 -0.9805 -0.2630
   24CHL1   C23 1761   4.651   5.020   6.504 -0.0591 -0.0325 -0.0969
   24CHL1  H23A 1762   4.589   4.929   6.489 -1.0091  0.0774  2.6659
   24CHL1  H23B 1763   4.592   5.111   6.530  0.3747  0.1983  0.0806
   24CHL1   C24 1764   4.727   5.051   6.379  0.3118  0.5725 -0.5297
   24CHL1  H24A 1765   4.795   5.134   6.408 -2.0157  1.7058  2.0716
   24CHL1  H24B 1766   4.799   4.968   6.359  3.3669  2.5571  1.4295
   24CHL1   C25 1767   4.640   5.110   6.265  0.7972 -0.1147 -0.0953
   24CHL1   H25 1768   4.576   5.185   6.317  0.2953 -0.3490 -0.3650
   24CHL1   C26 1769   4.723   5.184   6.156  0.1266  0.2830 -0.7655
   24CHL1  H26A 1770   4.789   5.256   6.208  1.3737 -1.2564 -0.1728
   24CHL1  H26B 1771   4.780   5.103   6.106 -2.0198 -0.7267 -1.7076
   24CHL1  H26C 1772   4.657   5.235   6.082  0.5522  0.2081 -1.2007
   24CHL1   C27 1773   4.532   5.009   6.206 -0.2981  0.2681 -0.4244
   24CHL1  H27A 1774   4.503   5.048   6.107 -3.0778 -0.4976  0.0016
   24CHL1  H27B 1775   4.566   4.905   6.185  0.2130  0.4868 -0.6760
   24CHL1  H27C 1776   4.445   4.987   6.273  0.0299 -1.7602 -0.6034
   25CHL1    C3 1777   2.093   2.308   7.447  0.3427  0.3271 -0.5722
   25CHL1    H3 1778   2.051   2.391   7.386  0.9941  0.4260 -0.9059
   25CHL1    O3 1779   2.009   2.307   7.564  0.2139 -0.5084  0.1051
   25CHL1   H3' 1780   1.943   2.241   7.538  0.9661 -1.7391  1.2205
   25CHL1    C4 1781   2.088   2.174   7.371  0.0993  0.1005 -0.3694
   25CHL1   H4A 1782   2.106   2.098   7.450 -1.7891 -0.3037 -0.2779
   25CHL1   H4B 1783   1.986   2.158   7.328 -0.4898  3.1766 -0.3902
   25CHL1    C5 1784   2.192   2.170   7.260  0.5540 -0.0878  0.0664
   25CHL1    C6 1785   2.151   2.151   7.127  0.5115  0.0033 -0.7730
   25CHL1    H6 1786   2.049   2.114   7.109  0.2330  0.1854  0.3595
   25CHL1    C7 1787   2.229   2.169   7.000 -0.8415  0.3696 -0.0190
   25CHL1   H7A 1788   2.209   2.088   6.926 -0.6063 -0.1183  0.4472
   25CHL1   H7B 1789   2.208   2.265   6.948 -0.0384  0.0314 -0.9987
   25CHL1    C8 1790   2.381   2.170   7.031 -0.4167  0.4351  0.4207
   25CHL1    H8 1791   2.406   2.062   7.037 -0.2191  0.4237 -0.5037
   25CHL1   C14 1792   2.451   2.223   6.910 -0.1062 -0.7542 -0.0543
   25CHL1   H14 1793   2.419   2.329   6.917 -0.5241 -0.9382  1.1095
   25CHL1   C15 1794   2.422   2.173   6.773 -0.5545 -0.0720 -0.2566
   25CHL1  H15A 1795   2.430   2.062   6.776  0.0600 -0.0549 -0.9381
   25CHL1  H15B 1796   2.329   2.223   6.740 -0.1165  0.1173 -1.2200
   25CHL1   C16 1797   2.537   2.222   6.681  0.0648 -0.4166 -0.4084
   25CHL1  H16A 1798   2.589   2.138   6.630  1.4445 -0.2723  0.7027
   25CHL1  H16B 1799   2.500   2.296   6.608  0.1787 -1.6051 -1.7081
   25CHL1   C17 1800   2.636   2.290   6.775  1.2503 -0.4377 -0.1723
   25CHL1   H17 1801   2.595   2.394   6.779  1.1839 -0.3327 -2.3790
   25CHL1   C13 1802   2.604   2.225   6.915 -0.1850 -0.5046 -0.1554
   25CHL1   C18 1803   2.665   2.081   6.921  0.1188 -0.2943  0.5747
   25CHL1  H18A 1804   2.610   2.035   7.006 -1.3191  1.3849  0.6185
   25CHL1  H18B 1805   2.652   2.021   6.828 -0.0779 -0.6601  0.8351
   25CHL1  H18C 1806   2.773   2.090   6.945  0.4824 -1.7894 -0.3638
   25CHL1   C12 1807   2.648   2.306   7.043  0.3946  0.1039 -0.1761
   25CHL1  H12A 1808   2.759   2.311   7.048  0.3637  3.0350 -0.5656
   25CHL1  H12B 1809   2.617   2.409   7.017 -0.2560 -0.3849 -1.4121
   25CHL1   C11 1810   2.574   2.255   7.166 -0.0177  0.4222 -0.0973
   25CHL1  H11A 1811   2.607   2.152   7.193 -1.0939  0.2358  0.5645
   25CHL1  H11B 1812   2.610   2.315   7.252 -1.2751 -0.7694  1.3289
   25CHL1    C9 1813   2.418   2.242   7.155  0.7977 -0.6326  0.3545
   25CHL1    H9 1814   2.391   2.346   7.128 -1.0235 -1.2346 -0.3004
   25CHL1   C10 1815   2.337   2.213   7.285 -0.6552  0.2718 -0.0408
   25CHL1   C19 1816   2.410   2.105   7.375  0.5340 -0.1355  0.0179
   25CHL1  H19A 1817   2.503   2.156   7.408  0.1436 -0.8031  2.2923
   25CHL1  H19B 1818   2.346   2.077   7.461 -2.5640 -0.2038 -2.1433
   25CHL1  H19C 1819   2.439   2.016   7.316  0.5126  1.2138 -2.1400
   25CHL1    C1 1820   2.329   2.351   7.364 -0.5198  0.1245 -0.3249
   25CHL1   H1A 1821   2.432   2.381   7.393  0.5670 -2.6478 -0.9830
   25CHL1   H1B 1822   2.298   2.425   7.287  2.0747  2.1377  0.4177
   25CHL1    C2 1823   2.235   2.337   7.485 -0.0534  0.4123 -0.6338
   25CHL1   H2A 1824   2.236   2.437   7.533  0.4905  0.6699 -1.1779
   25CHL1   H2B 1825   2.279   2.263   7.556  0.6537 -0.2745 -1.7715
   25CHL1   C20 1826   2.772   2.302   6.708  0.0297  0.7248  0.3953
   25CHL1   H20 1827   2.806   2.197   6.694  0.7217  0.9781  0.1544
   25CHL1   C21 1828   2.877   2.365   6.791  0.1027 -0.3579 -0.3846
   25CHL1  H21A 1829   2.835   2.452   6.845 -3.8934 -1.9452 -0.6153
   25CHL1  H21B 1830   2.961   2.384   6.721  0.0391 -1.1351 -0.6883
   25CHL1  H21C 1831   2.899   2.281   6.860 -1.2638  0.2944  0.9026
   25CHL1   C22 1832   2.770   2.376   6.572 -0.8504  0.7716  0.4049
   25CHL1  H22A 1833   2.878   2.386   6.548 -0.7458  1.0960  0.9891
   25CHL1  H22B 1834   2.729   2.308   6.495  0.3231 -0.6585  0.9958
   25CHL1   C23 1835   2.703   2.515   6.571  0.0290  0.8618  0.1945
   25CHL1  H23A 1836   2.601   2.512   6.614 -0.0902  0.0768 -0.1309
   25CHL1  H23B 1837   2.760   2.584   6.637  1.6849  0.0261 -0.3223
   25CHL1   C24 1838   2.687   2.570   6.425 -0.5279 -0.7372 -0.2265
   25CHL1  H24A 1839   2.794   2.584   6.399 -0.8848  0.1899 -1.2759
   25CHL1  H24B 1840   2.650   2.494   6.353  1.3651  0.3064 -2.4349
   25CHL1   C25 1841   2.597   2.697   6.400 -0.5277 -0.6268 -0.4317
   25CHL1   H25 1842   2.496   2.677   6.441 -1.2276  2.4618 -0.4332
   25CHL1   C26 1843   2.641   2.821   6.473  0.1277  0.4015  0.0467
   25CHL1  H26A 1844   2.583   2.914   6.455 -0.1584  0.4752  1.2164
   25CHL1  H26B 1845   2.641   2.802   6.583 -0.7797  0.4853  0.0650
   25CHL1  H26C 1846   2.742   2.847   6.434  0.1274  0.4378  0.0696
   25CHL1   C27 1847   2.589   2.740   6.249 -0.0541 -0.2145 -1.2085
   25CHL1  H27A 1848   2.677   2.789   6.203 -1.0163  0.3094 -2.5386
   25CHL1  H27B 1849   2.553   2.655   6.187  1.0038 -1.2993 -0.3846
   25CHL1  H27C 1850   2.520   2.827   6.246  0.1238 -0.1032 -2.0386
   26CHL1    C3 1851   5.438   0.506   7.719  0.1047 -0.4905 -0.9807
   26CHL1    H3 1852   5.423   0.398   7.737  0.3782 -0.4466 -0.4679
   26CHL1    O3 1853   5.439   0.566   7.849  0.0396  0.6266  0.1874
   26CHL1   H3' 1854   5.483   0.501   7.904  1.0412  0.7268 -0.4646
   26CHL1    C4 1855   5.579   0.522   7.672 -0.5776  0.1335 -0.0046
   26CHL1   H4A 1856   5.596   0.631   7.664  0.7786 -0.2017 -2.8605
   26CHL1   H4B 1857   5.649   0.482   7.749 -0.2920  1.9636  0.7205
   26CHL1    C5 1858   5.597   0.464   7.533 -0.1127 -0.1973 -0.3567
   26CHL1    C6 1859   5.695   0.385   7.507 -0.5662  0.3520 -0.2314
   26CHL1    H6 1860   5.767   0.359   7.587  2.1455  0.8621 -2.3484
   26CHL1    C7 1861   5.737   0.332   7.369  0.1914  1.0612  0.0886
   26CHL1   H7A 1862   5.848   0.329   7.365  0.2842 -0.4120  2.2377
   26CHL1   H7B 1863   5.692   0.231   7.358 -0.6443  1.1787  2.0745
   26CHL1    C8 1864   5.665   0.415   7.255 -0.0398 -0.4473  0.9213
   26CHL1    H8 1865   5.717   0.512   7.244  0.0716 -0.6249 -0.2200
   26CHL1   C14 1866   5.671   0.349   7.124 -0.5869 -0.2281  0.9512
   26CHL1   H14 1867   5.608   0.262   7.151 -0.6791 -0.3470  0.3557
   26CHL1   C15 1868   5.794   0.278   7.070  0.2195 -0.2522 -1.0497
   26CHL1  H15A 1869   5.864   0.364   7.062 -1.2346  1.1358  0.3614
   26CHL1  H15B 1870   5.827   0.191   7.131 -2.5334 -0.0926  0.8366
   26CHL1   C16 1871   5.759   0.244   6.925  0.2796 -0.7068 -0.0626
   26CHL1  H16A 1872   5.842   0.283   6.861 -0.7645 -1.1982 -1.7644
   26CHL1  H16B 1873   5.745   0.136   6.909  0.0020 -0.6703 -0.0688
   26CHL1   C17 1874   5.633   0.326   6.883  0.8648 -0.1467  0.1523
   26CHL1   H17 1875   5.555   0.249   6.867  0.5633  0.7467 -4.1077
   26CHL1   C13 1876   5.609   0.423   7.006  0.6188 -0.1197  0.4382
   26CHL1   C18 1877   5.686   0.556   6.983  0.3499  0.4423 -0.0272
   26CHL1  H18A 1878   5.788   0.530   6.950  0.3469 -0.3883  0.5757
   26CHL1  H18B 1879   5.634   0.608   6.900  1.3190  0.4077 -0.6681
   26CHL1  H18C 1880   5.693   0.619   7.075 -0.6059 -0.0214  0.3754
   26CHL1   C12 1881   5.457   0.436   7.039  0.1250 -0.5549  0.1749
   26CHL1  H12A 1882   5.412   0.493   6.956  0.0624  0.0086  0.5873
   26CHL1  H12B 1883   5.412   0.334   7.047 -1.6993  0.1182 -0.9575
   26CHL1   C11 1884   5.432   0.508   7.178  0.6326  0.3894 -0.2328
   26CHL1  H11A 1885   5.457   0.615   7.159 -0.7851  0.5827 -1.1145
   26CHL1  H11B 1886   5.326   0.499   7.211  1.0563  0.9024  1.3819
   26CHL1    C9 1887   5.516   0.443   7.292  0.0245  0.4186  0.1816
   26CHL1    H9 1888   5.466   0.345   7.309 -0.8277  0.8606  0.2549
   26CHL1   C10 1889   5.500   0.515   7.425 -0.2185 -0.8102 -1.2093
   26CHL1   C19 1890   5.534   0.663   7.406  0.4401  0.7284 -0.6671
   26CHL1  H19A 1891   5.463   0.722   7.344  1.3212  0.5924 -1.8361
   26CHL1  H19B 1892   5.553   0.712   7.504 -0.0959 -0.4831  0.0685
   26CHL1  H19C 1893   5.632   0.678   7.355  1.7239  1.3003  1.7926
   26CHL1    C1 1894   5.358   0.494   7.479  0.3619  0.4356 -0.7574
   26CHL1   H1A 1895   5.280   0.533   7.410 -3.1927 -1.3640  1.9479
   26CHL1   H1B 1896   5.321   0.390   7.478 -1.9520  1.1861 -0.3855
   26CHL1    C2 1897   5.332   0.563   7.618  0.0610 -0.0673  0.1961
   26CHL1   H2A 1898   5.231   0.527   7.647  0.4670 -2.5040 -1.1820
   26CHL1   H2B 1899   5.355   0.672   7.620  1.1491 -0.2225 -1.4334
   26CHL1   C20 1900   5.636   0.384   6.739 -0.5731  0.3958 -0.7235
   26CHL1   H20 1901   5.722   0.454   6.732  1.0627 -1.4396 -0.0266
   26CHL1   C21 1902   5.494   0.436   6.704 -0.7001  1.1348  0.1348
   26CHL1  H21A 1903   5.492   0.474   6.599 -1.8218 -1.2913 -0.8025
   26CHL1  H21B 1904   5.477   0.522   6.772 -0.9282  0.4385  0.9717
   26CHL1  H21C 1905   5.408   0.366   6.711  0.6858 -0.9726 -2.1617
   26CHL1   C22 1906   5.688   0.284   6.634  0.2964  0.4897  0.0712
   26CHL1  H22A 1907   5.788   0.243   6.657 -0.1226 -1.0337 -0.7343
   26CHL1  H22B 1908   5.619   0.198   6.631  1.0426 -0.2049  1.9283
   26CHL1   C23 1909   5.691   0.345   6.491 -0.1268 -0.4377  0.4415
   26CHL1  H23A 1910   5.587   0.366   6.458  0.2186 -0.3096 -0.5954
   26CHL1  H23B 1911   5.768   0.425   6.489 -0.0055 -0.5565 -1.0161
   26CHL1   C24 1912   5.745   0.243   6.390 -0.1429  0.2344 -0.4098
   26CHL1  H24A 1913   5.852   0.233   6.419 -0.7438 -0.8664  1.6700
   26CHL1  H24B 1914   5.698   0.142   6.393 -2.9519  1.4581 -0.5949
   26CHL1   C25 1915   5.738   0.281   6.238 -0.0664 -0.5197 -0.4530
   26CHL1   H25 1916   5.631   0.300   6.214  0.7764  1.9555 -2.7466
   26CHL1   C26 1917   5.832   0.397   6.204  0.2564  1.0711 -0.6176
   26CHL1  H26A 1918   5.833   0.434   6.099 -1.4146 -1.0466 -1.4553
   26CHL1  H26B 1919   5.808   0.485   6.268 -0.2075  0.9983 -0.6865
   26CHL1  H26C 1920   5.936   0.384   6.240 -0.0873  1.6033  0.6259
   26CHL1   C27 1921   5.771   0.160   6.145  0.2727  0.5566  0.0369
   26CHL1  H27A 1922   5.876   0.127   6.158  0.1959  0.1366 -0.3725
   26CHL1  H27B 1923   5.709   0.073   6.174 -1.2526  1.8269  0.7310
   26CHL1  H27C 1924   5.758   0.190   6.039  2.6351  0.5577 -0.3148
   27CHL1    C3 1925   5.225   4.483   7.476  0.5186  0.2862  0.1956
   27CHL1    H3 1926   5.166   4.573   7.503  0.5523  0.4526 -0.2675
   27CHL1    O3 1927   5.260   4.421   7.598 -0.1138 -0.4941  0.4329
   27CHL1   H3' 1928   5.355   4.408   7.594  0.1444  1.4533 -0.5606
   27CHL1    C4 1929   5.139   4.386   7.394 -0.1057  0.0514 -0.9933
   27CHL1   H4A 1930   5.186   4.286   7.390 -0.6308 -0.1931 -1.1247
   27CHL1   H4B 1931   5.046   4.364   7.450  0.3067  0.0817 -0.2887
   27CHL1    C5 1932   5.115   4.429   7.247  0.5256 -0.4364 -0.6633
   27CHL1    C6 1933   4.990   4.437   7.196  0.9529 -0.3795 -0.4631
   27CHL1    H6 1934   4.903   4.405   7.255  0.4006  1.5789 -0.1519
   27CHL1    C7 1935   4.964   4.482   7.060 -0.7804  0.1251  0.3046
   27CHL1   H7A 1936   4.884   4.431   7.002 -1.5145  2.0295 -0.4321
   27CHL1   H7B 1937   4.941   4.590   7.073  0.4773  0.3780  0.6047
   27CHL1    C8 1938   5.090   4.473   6.969 -1.2041  0.1156  0.5937
   27CHL1    H8 1939   5.115   4.367   6.947  1.4109  0.9260 -0.8058
   27CHL1   C14 1940   5.064   4.553   6.836 -0.1828 -0.1189 -0.2655
   27CHL1   H14 1941   5.052   4.658   6.868 -2.2265  0.0800 -1.5567
   27CHL1   C15 1942   4.939   4.531   6.751 -0.1626 -0.2877  0.4980
   27CHL1  H15A 1943   4.923   4.421   6.743 -0.1856 -0.1898 -1.0634
   27CHL1  H15B 1944   4.850   4.564   6.809  0.0758  2.3938 -0.5293
   27CHL1   C16 1945   4.966   4.606   6.621 -0.2359 -0.4407  0.1402
   27CHL1  H16A 1946   4.956   4.547   6.527  0.8016  0.5503 -0.6289
   27CHL1  H16B 1947   4.899   4.695   6.616 -0.7373 -0.8388 -0.3586
   27CHL1   C17 1948   5.111   4.655   6.617  0.1206  0.9682  0.0683
   27CHL1   H17 1949   5.110   4.756   6.664  0.5518  0.6161  0.8624
   27CHL1   C13 1950   5.173   4.567   6.729  0.3845  0.0756  0.0411
   27CHL1   C18 1951   5.205   4.431   6.673 -0.3293 -0.2596 -0.5801
   27CHL1  H18A 1952   5.304   4.418   6.623 -0.9677 -2.3434 -1.4394
   27CHL1  H18B 1953   5.212   4.367   6.763  0.9149  0.6940  0.0233
   27CHL1  H18C 1954   5.127   4.379   6.612  0.6880 -1.7053 -0.7064
   27CHL1   C12 1955   5.290   4.627   6.807 -0.2371  0.2700  0.1497
   27CHL1  H12A 1956   5.384   4.628   6.748 -0.7795  0.1676 -0.7402
   27CHL1  H12B 1957   5.261   4.733   6.823 -1.7908  0.2631 -2.1129
   27CHL1   C11 1958   5.329   4.543   6.939 -0.2828 -0.7930  0.1632
   27CHL1  H11A 1959   5.354   4.441   6.903 -0.9888 -0.4590 -1.3562
   27CHL1  H11B 1960   5.422   4.587   6.982  1.3450 -3.1043 -0.7750
   27CHL1    C9 1961   5.210   4.533   7.033 -0.1435  1.1595  0.1416
   27CHL1    H9 1962   5.181   4.638   7.054 -0.3271  1.0754  0.3108
   27CHL1   C10 1963   5.245   4.475   7.176 -0.4336 -0.7205  0.5022
   27CHL1   C19 1964   5.328   4.347   7.153 -0.9236 -0.7602 -0.4507
   27CHL1  H19A 1965   5.346   4.286   7.243  1.1978  0.1491 -0.1932
   27CHL1  H19B 1966   5.270   4.294   7.074 -0.0748  1.0821 -2.4414
   27CHL1  H19C 1967   5.427   4.372   7.109  0.1217 -0.7865  1.7567
   27CHL1    C1 1968   5.331   4.581   7.261  0.3886 -0.0876  0.3040
   27CHL1   H1A 1969   5.432   4.592   7.217  1.8569  0.1824  3.4730
   27CHL1   H1B 1970   5.275   4.676   7.271  2.2418  0.8604  2.9997
   27CHL1    C2 1971   5.355   4.519   7.406 -0.0598  0.4904 -0.1166
   27CHL1   H2A 1972   5.409   4.601   7.458  0.3485 -0.3257  0.7851
   27CHL1   H2B 1973   5.421   4.430   7.394  0.4893  1.0808 -1.7567
   27CHL1   C20 1974   5.169   4.655   6.479 -0.1016  0.5812  0.2812
   27CHL1   H20 1975   5.186   4.550   6.446  0.9808  1.5441 -2.6464
   27CHL1   C21 1976   5.318   4.709   6.484  0.3503 -0.0497 -0.1635
   27CHL1  H21A 1977   5.362   4.709   6.382 -2.7267  1.0278 -1.5996
   27CHL1  H21B 1978   5.385   4.644   6.545 -0.1903 -0.8040 -0.3546
   27CHL1  H21C 1979   5.311   4.811   6.526  1.1752 -0.1139  0.1606
   27CHL1   C22 1980   5.085   4.732   6.371 -0.2655  0.1662 -0.4156
   27CHL1  H22A 1981   4.989   4.677   6.366 -0.1156 -0.2098  0.6912
   27CHL1  H22B 1982   5.066   4.832   6.415 -1.3827 -0.6738  1.0717
   27CHL1   C23 1983   5.152   4.740   6.231 -0.5106 -0.0730 -0.3352
   27CHL1  H23A 1984   5.233   4.815   6.243 -1.1306  0.5515  0.0530
   27CHL1  H23B 1985   5.183   4.637   6.207 -0.0223 -0.0446  0.1517
   27CHL1   C24 1986   5.059   4.806   6.129  0.3548 -0.3669  0.1519
   27CHL1  H24A 1987   4.959   4.762   6.147  0.7544 -0.7699  1.5148
   27CHL1  H24B 1988   5.052   4.909   6.169  2.2042 -0.5529  1.0773
   27CHL1   C25 1989   5.105   4.798   5.980 -0.4973 -0.8219 -0.1215
   27CHL1   H25 1990   5.205   4.844   5.967 -0.0391 -1.9504 -0.6674
   27CHL1   C26 1991   5.100   4.661   5.934  0.0161  1.3012  0.0350
   27CHL1  H26A 1992   5.120   4.666   5.825  0.4999  1.3901  0.1247
   27CHL1  H26B 1993   5.177   4.593   5.977 -1.5047 -0.6126 -0.0887
   27CHL1  H26C 1994   5.003   4.607   5.942  1.6563 -2.3843 -2.1229
   27CHL1   C27 1995   5.010   4.882   5.899 -0.3331 -0.3083 -0.4862
   27CHL1  H27A 1996   5.037   4.902   5.793  0.3792  0.8151 -0.1192
   27CHL1  H27B 1997   4.902   4.855   5.899 -0.0205 -1.6668 -1.9676
   27CHL1  H27C 1998   4.998   4.983   5.944 -1.1691 -0.5135 -0.2315
   28CHL1    C3 1999   4.173   5.880   7.691 -0.1113  0.1116  0.5143
   28CHL1    H3 2000   4.097   5.961   7.690 -2.2361 -1.7705 -0.8285
   28CHL1    O3 2001   4.208   5.852   7.829  0.0251 -0.3216 -0.1263
   28CHL1   H3' 2002   4.261   5.773   7.814 -0.2753 -1.0702  2.2477
   28CHL1    C4 2003   4.117   5.749   7.627  0.0675 -0.0173  0.3634
   28CHL1   H4A 2004   4.195   5.671   7.640  2.2978  2.3769  2.5990
   28CHL1   H4B 2005   4.032   5.714   7.689 -0.1502  1.2457  0.8186
   28CHL1    C5 2006   4.090   5.758   7.482  0.0326 -0.6425  0.6547
   28CHL1    C6 2007   3.965   5.735   7.442  0.5300 -1.1756  1.3855
   28CHL1    H6 2008   3.893   5.706   7.520 -0.4332 -0.5859  0.7401
   28CHL1    C7 2009   3.937   5.734   7.290  0.0943  0.2944 -0.3817
   28CHL1   H7A 2010   3.879   5.645   7.257  0.7421  0.1099 -1.0288
   28CHL1   H7B 2011   3.864   5.816   7.273 -0.2095  0.2436  0.5939
   28CHL1    C8 2012   4.057   5.758   7.205 -0.2627 -0.0750  0.9139
   28CHL1    H8 2013   4.094   5.655   7.186 -1.0951 -0.6266  2.2089
   28CHL1   C14 2014   4.021   5.827   7.071 -0.5648 -0.1447 -0.3580
   28CHL1   H14 2015   3.980   5.928   7.092 -0.0994 -0.1974  0.8636
   28CHL1   C15 2016   3.901   5.769   7.000  0.4023 -0.1649 -0.6987
   28CHL1  H15A 2017   3.917   5.660   7.016 -1.4621 -0.1947  1.4036
   28CHL1  H15B 2018   3.802   5.798   7.043  0.5745  0.5928 -0.8016
   28CHL1   C16 2019   3.913   5.812   6.856 -0.8479  0.0208  0.6084
   28CHL1  H16A 2020   3.908   5.732   6.779  0.2109  1.8520 -1.4589
   28CHL1  H16B 2021   3.834   5.884   6.826  1.8032  2.8435 -0.0508
   28CHL1   C17 2022   4.045   5.886   6.834  0.4102 -0.4013  0.0069
   28CHL1   H17 2023   4.028   5.995   6.845  2.5538 -0.0659  0.5034
   28CHL1   C13 2024   4.128   5.835   6.961  0.3331 -0.5266  0.5455
   28CHL1   C18 2025   4.179   5.690   6.931 -0.0921 -0.4002 -0.0472
   28CHL1  H18A 2026   4.094   5.626   6.899 -0.7822  0.7163 -0.5046
   28CHL1  H18B 2027   4.260   5.686   6.856  0.6396 -1.5009  0.7818
   28CHL1  H18C 2028   4.223   5.635   7.017  0.4103 -0.0979 -0.1083
   28CHL1   C12 2029   4.239   5.926   7.019 -0.3340  0.9816 -0.3538
   28CHL1  H12A 2030   4.331   5.925   6.957  0.2256  2.2673  0.4210
   28CHL1  H12B 2031   4.201   6.030   7.027  1.8180  1.7164  1.0360
   28CHL1   C11 2032   4.287   5.869   7.155 -1.2409 -0.5426  0.4414
   28CHL1  H11A 2033   4.345   5.776   7.141  0.9519  0.3581  2.7711
   28CHL1  H11B 2034   4.352   5.949   7.197 -0.0643 -2.5402  2.6216
   28CHL1    C9 2035   4.172   5.842   7.258  0.3866  1.0689 -0.5036
   28CHL1    H9 2036   4.121   5.941   7.269  0.4147  0.8787  1.9099
   28CHL1   C10 2037   4.216   5.798   7.399 -0.2536  0.6942 -0.5580
   28CHL1   C19 2038   4.306   5.678   7.387 -0.3022  0.6629  0.0365
   28CHL1  H19A 2039   4.337   5.648   7.490 -1.3427  0.6086  0.3462
   28CHL1  H19B 2040   4.254   5.594   7.338  1.3941 -0.2836 -0.2252
   28CHL1  H19C 2041   4.398   5.698   7.327 -0.1920 -1.0428 -0.4017
   28CHL1    C1 2042   4.291   5.925   7.464 -0.0487 -0.3222  0.1601
   28CHL1   H1A 2043   4.389   5.931   7.413  1.4933 -3.0126  2.4956
   28CHL1   H1B 2044   4.230   6.016   7.446 -1.2757 -0.9800  0.8127
   28CHL1    C2 2045   4.308   5.911   7.615  0.3029 -0.5918 -0.6566
   28CHL1   H2A 2046   4.346   6.006   7.659  1.7984 -2.2931  2.0717
   28CHL1   H2B 2047   4.386   5.833   7.631  1.0991  0.0200 -1.4378
   28CHL1   C20 2048   4.105   5.866   6.693 -0.6677 -0.5216 -0.1676
   28CHL1   H20 2049   4.143   5.762   6.687  0.0061 -0.2281 -1.2588
   28CHL1   C21 2050   4.234   5.949   6.682 -0.1360  0.3579  0.2632
   28CHL1  H21A 2051   4.285   5.934   6.584  1.1064 -0.4294  1.0107
   28CHL1  H21B 2052   4.313   5.909   6.749  1.4231  0.2923 -1.5205
   28CHL1  H21C 2053   4.212   6.057   6.699 -1.4262  0.1338  0.1265
   28CHL1   C22 2054   3.999   5.888   6.577  0.1522  0.3171 -0.3021
   28CHL1  H22A 2055   3.907   5.831   6.601  1.7953 -3.6502 -2.6554
   28CHL1  H22B 2056   3.976   5.997   6.578  0.1827  0.3251  0.3741
   28CHL1   C23 2057   4.047   5.841   6.443 -0.6488  0.5383  0.5713
   28CHL1  H23A 2058   4.138   5.899   6.416  0.0655 -0.4349  0.8198
   28CHL1  H23B 2059   4.080   5.736   6.462  0.6237  1.0806  1.4980
   28CHL1   C24 2060   3.956   5.859   6.324  0.6135  0.6995  0.6131
   28CHL1  H24A 2061   3.855   5.824   6.352  0.3195  0.5656 -0.5350
   28CHL1  H24B 2062   3.959   5.969   6.309  1.6073  0.4973 -0.9630
   28CHL1   C25 2063   4.000   5.793   6.190 -0.7166 -0.0696 -0.4140
   28CHL1   H25 2064   4.030   5.688   6.207  2.6032  0.9767  0.9766
   28CHL1   C26 2065   3.883   5.804   6.086  0.9768 -0.7010 -0.4285
   28CHL1  H26A 2066   3.807   5.727   6.111  0.5254 -1.2523 -3.1930
   28CHL1  H26B 2067   3.844   5.908   6.082 -0.0839 -1.1267 -1.5461
   28CHL1  H26C 2068   3.918   5.776   5.984 -1.9412 -1.5179 -1.2903
   28CHL1   C27 2069   4.129   5.859   6.133  0.4270 -0.2435 -0.5039
   28CHL1  H27A 2070   4.209   5.837   6.206  2.2829  6.2132 -0.0271
   28CHL1  H27B 2071   4.153   5.815   6.033  2.1541 -2.5521  0.8393
   28CHL1  H27C 2072   4.113   5.969   6.126 -1.0833 -0.2564  1.8316
   29CHL1    C3 2073   2.760   3.009   4.487 -0.6926  0.5833  0.4064
   29CHL1    H3 2074   2.650   3.019   4.494 -0.9533 -2.1146  1.5442
   29CHL1    O3 2075   2.794   3.016   4.345 -0.0217  0.3818  0.8212
   29CHL1   H3' 2076   2.889   3.001   4.341 -0.4040 -2.1170 -1.0619
   29CHL1    C4 2077   2.838   3.119   4.546 -0.2339  0.1827 -1.2043
   29CHL1   H4A 2078   2.945   3.107   4.518  0.2942  2.5801 -0.4317
   29CHL1   H4B 2079   2.807   3.215   4.499 -1.2781 -0.7504 -2.4998
   29CHL1    C5 2080   2.822   3.126   4.696  0.8017 -0.5116  0.3920
   29CHL1    C6 2081   2.780   3.243   4.757  0.0161  0.0491  0.3187
   29CHL1    H6 2082   2.765   3.335   4.699 -2.2067 -0.0773  0.6302
   29CHL1    C7 2083   2.765   3.265   4.905  0.7551 -0.0972  0.2322
   29CHL1   H7A 2084   2.824   3.352   4.942  0.2843 -0.0811  0.9626
   29CHL1   H7B 2085   2.658   3.279   4.931 -0.0486 -4.5216 -0.0647
   29CHL1    C8 2086   2.803   3.148   4.989 -0.3749 -0.0988  0.3693
   29CHL1    H8 2087   2.913   3.152   5.001 -0.3143 -0.1743 -0.1636
   29CHL1   C14 2088   2.744   3.159   5.133 -0.5348 -0.1214 -0.4538
   29CHL1   H14 2089   2.634   3.144   5.127 -0.7498  0.5085  1.4911
   29CHL1   C15 2090   2.767   3.294   5.210  0.9310 -0.4386  0.1481
   29CHL1  H15A 2091   2.872   3.329   5.220  0.9643  0.4642 -2.5695
   29CHL1  H15B 2092   2.699   3.369   5.164 -1.0226 -1.7233  0.8400
   29CHL1   C16 2093   2.727   3.257   5.356  0.0357  0.8305 -0.2783
   29CHL1  H16A 2094   2.806   3.299   5.422  1.4632 -2.6023  0.4027
   29CHL1  H16B 2095   2.636   3.314   5.386  0.8783  1.2297  1.6250
   29CHL1   C17 2096   2.714   3.102   5.367  0.1522  1.0318 -0.2225
   29CHL1   H17 2097   2.608   3.076   5.346 -0.2676  3.6888 -2.0380
   29CHL1   C13 2098   2.783   3.044   5.235  0.4146  0.1952 -0.1932
   29CHL1   C18 2099   2.938   3.037   5.256 -0.3852 -0.4554 -0.2126
   29CHL1  H18A 2100   2.974   2.961   5.329 -0.4941 -1.6338 -1.3440
   29CHL1  H18B 2101   2.995   3.013   5.163  0.5569  1.1671 -0.0991
   29CHL1  H18C 2102   2.978   3.136   5.285 -0.5180 -0.2983 -0.5589
   29CHL1   C12 2103   2.736   2.914   5.170  0.3782  0.0431 -0.0402
   29CHL1  H12A 2104   2.757   2.824   5.232  1.2435  0.4989  0.3457
   29CHL1  H12B 2105   2.625   2.907   5.166  0.2615 -0.9885  2.5566
   29CHL1   C11 2106   2.789   2.889   5.028 -0.2668 -0.5916 -0.1476
   29CHL1  H11A 2107   2.893   2.855   5.044 -0.0561  1.1439  2.8256
   29CHL1  H11B 2108   2.746   2.797   4.981 -1.2154  0.2057 -0.8979
   29CHL1    C9 2109   2.770   3.013   4.926 -0.5382 -0.1827 -0.1028
   29CHL1    H9 2110   2.660   3.021   4.910 -0.8572 -0.9273  1.4461
   29CHL1   C10 2111   2.829   2.993   4.784 -0.0344 -1.2893  0.9642
   29CHL1   C19 2112   2.978   2.959   4.797 -0.1417 -0.0459  0.2345
   29CHL1  H19A 2113   3.039   3.035   4.851  4.3795 -2.6411 -0.6645
   29CHL1  H19B 2114   2.996   2.858   4.840  1.1455 -0.3157 -0.8498
   29CHL1  H19C 2115   3.033   2.957   4.700 -1.0307  1.3362 -0.3374
   29CHL1    C1 2116   2.750   2.876   4.702  0.0827  0.1527 -0.4462
   29CHL1   H1A 2117   2.783   2.780   4.747 -1.7453 -0.4088 -0.2210
   29CHL1   H1B 2118   2.639   2.878   4.712 -0.0930 -2.3129 -1.1868
   29CHL1    C2 2119   2.789   2.870   4.557 -1.1017  0.5339  0.2110
   29CHL1   H2A 2120   2.733   2.792   4.502  1.8318 -0.1830 -2.0492
   29CHL1   H2B 2121   2.898   2.859   4.537 -0.9519 -0.2308  1.3930
   29CHL1   C20 2122   2.753   3.052   5.510  0.1818  0.6574  0.3833
   29CHL1   H20 2123   2.858   3.083   5.525  0.0500  1.7656 -0.8104
   29CHL1   C21 2124   2.725   2.899   5.502  0.8772 -0.3465  0.0385
   29CHL1  H21A 2125   2.820   2.853   5.467  1.0908  0.0400  0.1049
   29CHL1  H21B 2126   2.633   2.885   5.441 -1.0504  1.2974  2.4029
   29CHL1  H21C 2127   2.689   2.872   5.604 -1.8350 -0.3913 -0.8407
   29CHL1   C22 2128   2.677   3.123   5.623  0.8225  0.1489  0.8936
   29CHL1  H22A 2129   2.706   3.230   5.620  1.1558  0.0383 -0.2188
   29CHL1  H22B 2130   2.570   3.100   5.607  1.0929 -2.1384  1.9465
   29CHL1   C23 2131   2.724   3.083   5.766 -1.0194 -0.1372  0.0793
   29CHL1  H23A 2132   2.728   2.972   5.774  0.5831 -0.1303 -0.1779
   29CHL1  H23B 2133   2.833   3.108   5.770 -1.2607  0.9389  0.0840
   29CHL1   C24 2134   2.670   3.161   5.880 -0.1350 -0.2718 -0.3074
   29CHL1  H24A 2135   2.738   3.168   5.968  0.5106  1.2954 -0.8817
   29CHL1  H24B 2136   2.632   3.263   5.859 -0.6210 -0.3063  0.3688
   29CHL1   C25 2137   2.539   3.089   5.922  0.0504 -0.2740 -0.2303
   29CHL1   H25 2138   2.492   3.047   5.830  0.3544 -0.2942 -0.3763
   29CHL1   C26 2139   2.573   2.976   6.016  0.0067 -0.5749  0.1159
   29CHL1  H26A 2140   2.614   2.890   5.958 -1.4364 -0.1214 -1.6784
   29CHL1  H26B 2141   2.636   3.009   6.101  0.1319  1.9262 -0.8706
   29CHL1  H26C 2142   2.475   2.935   6.049  0.0178 -2.1375 -1.5795
   29CHL1   C27 2143   2.426   3.171   5.993 -0.5279 -0.3097  0.4601
   29CHL1  H27A 2144   2.335   3.108   5.999 -1.0125  0.4390  0.9641
   29CHL1  H27B 2145   2.465   3.194   6.094 -1.8198  0.3645  0.8242
   29CHL1  H27C 2146   2.399   3.272   5.957 -0.7311 -0.8632 -1.0305
   30CHL1    C3 2147   0.073   5.368   4.444 -0.2240  1.1383 -0.6818
   30CHL1    H3 2148   0.022   5.278   4.485  2.6790 -1.0389 -1.5167
   30CHL1    O3 2149   0.028   5.379   4.310  0.1756 -0.7711 -0.4243
   30CHL1   H3' 2150   0.055   5.297   4.269  1.6398 -1.7201  2.1517
   30CHL1    C4 2151   0.026   5.486   4.527  0.6023 -0.1191 -0.6560
   30CHL1   H4A 2152   0.073   5.572   4.475  0.1465 -0.1479 -1.1176
   30CHL1   H4B 2153  -0.083   5.494   4.511  0.2926 -1.6647  0.4410
   30CHL1    C5 2154   0.068   5.488   4.671  0.1830  0.1508 -1.0883
   30CHL1    C6 2155  -0.018   5.508   4.773 -0.5954  0.0852 -0.4618
   30CHL1    H6 2156  -0.126   5.511   4.752 -0.4883 -2.5904 -1.8480
   30CHL1    C7 2157   0.036   5.520   4.917  0.7849  0.0848 -0.6770
   30CHL1   H7A 2158  -0.017   5.602   4.971  0.6251 -1.3872  1.5137
   30CHL1   H7B 2159   0.007   5.427   4.971  0.8359  0.2745 -0.3186
   30CHL1    C8 2160   0.189   5.528   4.931 -0.5707  0.6996 -0.9232
   30CHL1    H8 2161   0.224   5.633   4.914  2.4191 -0.1680 -0.6744
   30CHL1   C14 2162   0.238   5.491   5.069  0.4257 -0.1520 -0.2384
   30CHL1   H14 2163   0.201   5.387   5.077 -0.4689  0.2424  1.0477
   30CHL1   C15 2164   0.163   5.568   5.190 -0.4303  0.8414  0.0737
   30CHL1  H15A 2165   0.151   5.677   5.173  1.8445  1.1181 -0.0555
   30CHL1  H15B 2166   0.068   5.515   5.210  1.8406 -3.1005  1.6058
   30CHL1   C16 2167   0.257   5.539   5.309 -0.4245  1.2529  0.4924
   30CHL1  H16A 2168   0.299   5.638   5.339  2.6143 -0.2829  1.6691
   30CHL1  H16B 2169   0.210   5.506   5.404 -2.6775  0.7565 -0.7267
   30CHL1   C17 2170   0.382   5.464   5.252  1.0540 -0.0629 -0.1996
   30CHL1   H17 2171   0.372   5.354   5.259  0.7917  0.0027  0.5557
   30CHL1   C13 2172   0.381   5.488   5.101  0.5696 -0.3851 -0.2032
   30CHL1   C18 2173   0.438   5.629   5.084  0.4750  0.3476  0.6513
   30CHL1  H18A 2174   0.382   5.704   5.144 -0.9573  1.4943 -1.9522
   30CHL1  H18B 2175   0.547   5.634   5.104  0.8659  0.4927 -1.3472
   30CHL1  H18C 2176   0.424   5.671   4.982  0.6218 -0.1303  0.4354
   30CHL1   C12 2177   0.451   5.384   5.011 -0.0848  0.0417  0.9988
   30CHL1  H12A 2178   0.561   5.370   5.021 -0.1675 -0.6903  0.9185
   30CHL1  H12B 2179   0.406   5.284   5.024 -1.0641 -0.3765 -3.7560
   30CHL1   C11 2180   0.419   5.424   4.867 -0.1458  0.3172 -0.0436
   30CHL1  H11A 2181   0.477   5.516   4.843  1.6963 -0.3185  1.7306
   30CHL1  H11B 2182   0.470   5.349   4.804 -0.3903  1.1385 -1.2768
   30CHL1    C9 2183   0.266   5.436   4.835  0.3570  0.9165  0.0254
   30CHL1    H9 2184   0.221   5.334   4.845  0.7948  0.7537  0.3609
   30CHL1   C10 2185   0.227   5.474   4.691  0.7498  0.5566  0.9838
   30CHL1   C19 2186   0.306   5.599   4.639  0.5406  0.3766  0.5173
   30CHL1  H19A 2187   0.414   5.576   4.638  0.2658 -0.9921  0.7307
   30CHL1  H19B 2188   0.279   5.622   4.534 -2.6192 -0.2050  1.0926
   30CHL1  H19C 2189   0.284   5.687   4.703 -0.1578 -1.0181  2.3029
   30CHL1    C1 2190   0.262   5.349   4.600  0.3899 -0.1132 -0.2595
   30CHL1   H1A 2191   0.370   5.331   4.614  0.6545  0.9972 -0.7856
   30CHL1   H1B 2192   0.214   5.259   4.643  1.2107 -0.7053 -0.5644
   30CHL1    C2 2193   0.224   5.349   4.450  0.1422 -0.7091 -0.5256
   30CHL1   H2A 2194   0.247   5.248   4.413 -2.1911 -0.9138 -1.5743
   30CHL1   H2B 2195   0.285   5.431   4.404 -0.0373  0.9255  1.9265
   30CHL1   C20 2196   0.509   5.490   5.333  0.0473  0.3665 -0.0501
   30CHL1   H20 2197   0.539   5.596   5.318 -1.5962  0.8058 -0.4572
   30CHL1   C21 2198   0.625   5.396   5.286  0.2487 -0.6093  0.5222
   30CHL1  H21A 2199   0.593   5.290   5.274 -1.6127 -0.2610  1.9841
   30CHL1  H21B 2200   0.716   5.395   5.349  1.2851  1.2851 -0.8344
   30CHL1  H21C 2201   0.657   5.428   5.184 -1.0728 -0.4120  0.1483
   30CHL1   C22 2202   0.481   5.460   5.481 -0.1363  0.4489  1.1908
   30CHL1  H22A 2203   0.387   5.510   5.512 -1.3395 -2.0691  1.9197
   30CHL1  H22B 2204   0.465   5.351   5.496 -0.7570  0.5016  0.9644
   30CHL1   C23 2205   0.579   5.513   5.591  0.0822 -0.2505  0.4307
   30CHL1  H23A 2206   0.681   5.479   5.563  0.6389  1.4650  0.2437
   30CHL1  H23B 2207   0.592   5.623   5.595 -2.8604  0.2802 -1.5693
   30CHL1   C24 2208   0.541   5.456   5.728  0.5531  0.4422  0.7416
   30CHL1  H24A 2209   0.433   5.461   5.753  0.3969 -0.4443  0.2748
   30CHL1  H24B 2210   0.578   5.351   5.735 -1.1329 -0.2064  0.2365
   30CHL1   C25 2211   0.619   5.523   5.847  0.5365  0.6550  0.0937
   30CHL1   H25 2212   0.592   5.462   5.936 -4.3814  1.2251 -0.7296
   30CHL1   C26 2213   0.772   5.516   5.825 -0.8095 -0.1139 -0.2514
   30CHL1  H26A 2214   0.803   5.410   5.815 -0.1101  0.1459 -0.9565
   30CHL1  H26B 2215   0.796   5.593   5.749 -2.7550  0.8571  0.0529
   30CHL1  H26C 2216   0.825   5.559   5.912 -1.2370  2.1203 -1.0082
   30CHL1   C27 2217   0.569   5.666   5.894 -0.9420  0.1959 -0.1169
   30CHL1  H27A 2218   0.626   5.708   5.980 -2.2954  1.7481  0.0703
   30CHL1  H27B 2219   0.591   5.734   5.809 -1.2412  0.2912 -0.1177
   30CHL1  H27C 2220   0.459   5.667   5.906 -1.0614  1.1325 -1.1810
   31CHL1    C3 2221   0.692   4.022   4.102  0.4593  0.0891  0.6056
   31CHL1    H3 2222   0.706   4.124   4.143  1.0212 -0.0089  0.6626
   31CHL1    O3 2223   0.672   4.030   3.961  1.0471 -0.0663 -0.3013
   31CHL1   H3' 2224   0.714   3.954   3.921  1.6940  0.7920 -1.3019
   31CHL1    C4 2225   0.817   3.951   4.108 -0.6585  0.0140  0.1904
   31CHL1   H4A 2226   0.804   3.867   4.036 -0.9155  0.8281 -0.7425
   31CHL1   H4B 2227   0.899   4.017   4.073 -0.5649 -0.7147 -1.0089
   31CHL1    C5 2228   0.855   3.896   4.245 -0.0463 -0.3296  0.2051
   31CHL1    C6 2229   0.974   3.920   4.300  0.1658  0.2231 -0.0710
   31CHL1    H6 2230   1.042   3.993   4.253  1.0352 -0.0449  0.7427
   31CHL1    C7 2231   1.007   3.885   4.438  0.2760 -0.0905  0.2177
   31CHL1   H7A 2232   1.107   3.837   4.444  0.1454 -0.2927  0.8293
   31CHL1   H7B 2233   0.995   3.971   4.508  1.1985 -0.1963  0.5329
   31CHL1    C8 2234   0.926   3.768   4.501 -0.2240  0.3360  0.2708
   31CHL1    H8 2235   0.960   3.680   4.442  1.9944  0.4074  1.3767
   31CHL1   C14 2236   0.959   3.747   4.644 -0.4232  0.3468 -0.4481
   31CHL1   H14 2237   0.934   3.836   4.706 -2.2474 -1.6885  1.9426
   31CHL1   C15 2238   1.104   3.724   4.690 -0.4958 -0.1192 -0.5209
   31CHL1  H15A 2239   1.148   3.641   4.630 -1.6492  0.1006 -1.7023
   31CHL1  H15B 2240   1.164   3.816   4.682 -1.7161  0.6726 -0.7993
   31CHL1   C16 2241   1.090   3.656   4.831 -0.2227  0.4373 -0.0229
   31CHL1  H16A 2242   1.149   3.562   4.836 -1.3700 -0.3574 -0.8471
   31CHL1  H16B 2243   1.123   3.719   4.917  1.0384  1.1766 -1.0075
   31CHL1   C17 2244   0.936   3.628   4.856 -0.2243 -0.4531 -0.3412
   31CHL1   H17 2245   0.893   3.708   4.919  0.4850 -1.4622  1.5140
   31CHL1   C13 2246   0.873   3.634   4.713 -0.5452 -0.1673 -0.4763
   31CHL1   C18 2247   0.897   3.501   4.649 -0.2826  0.2616 -0.2868
   31CHL1  H18A 2248   0.835   3.423   4.700  0.8301  1.0404  2.4697
   31CHL1  H18B 2249   0.852   3.488   4.549 -2.7170 -0.2940  0.7973
   31CHL1  H18C 2250   0.996   3.451   4.640 -1.8609 -3.2526 -0.0847
   31CHL1   C12 2251   0.721   3.674   4.695 -0.6728 -0.0762 -0.0912
   31CHL1  H12A 2252   0.658   3.592   4.735  0.1969 -1.1653 -0.9105
   31CHL1  H12B 2253   0.710   3.775   4.740  0.3077  0.2868 -0.6463
   31CHL1   C11 2254   0.690   3.692   4.541  0.4596  0.0178 -0.3049
   31CHL1  H11A 2255   0.702   3.590   4.497  0.5334 -0.4795  0.8118
   31CHL1  H11B 2256   0.586   3.729   4.526  0.6833 -0.0456 -2.2884
   31CHL1    C9 2257   0.779   3.793   4.471  0.2367  0.3697 -0.3586
   31CHL1    H9 2258   0.758   3.891   4.519 -0.4937 -0.4464  1.0518
   31CHL1   C10 2259   0.745   3.820   4.320  0.1050 -0.4694 -0.9396
   31CHL1   C19 2260   0.728   3.690   4.243  0.0019  0.5158  0.1060
   31CHL1  H19A 2261   0.707   3.712   4.137  1.5676  1.9920  0.0541
   31CHL1  H19B 2262   0.817   3.624   4.248 -0.5626 -0.2235  0.6152
   31CHL1  H19C 2263   0.649   3.633   4.296  0.2096 -1.3266 -1.4672
   31CHL1    C1 2264   0.614   3.901   4.314 -0.2110 -0.4981  0.1277
   31CHL1   H1A 2265   0.536   3.832   4.352  0.2994 -0.9554  0.3539
   31CHL1   H1B 2266   0.618   3.987   4.384  0.8800 -1.2660  1.0307
   31CHL1    C2 2267   0.577   3.946   4.169 -0.5925  0.0145 -0.3950
   31CHL1   H2A 2268   0.486   4.009   4.169 -0.7649 -0.2341 -1.3378
   31CHL1   H2B 2269   0.560   3.860   4.101 -0.3533 -0.6432  0.3560
   31CHL1   C20 2270   0.912   3.497   4.941 -0.5902  0.0968 -0.3025
   31CHL1   H20 2271   0.951   3.409   4.884  0.6938  0.4612 -0.0230
   31CHL1   C21 2272   0.762   3.483   4.970 -0.4990  0.3117  0.4895
   31CHL1  H21A 2273   0.750   3.386   5.023  2.8601 -0.0557  0.7977
   31CHL1  H21B 2274   0.692   3.473   4.885 -0.1827 -0.5732  0.3254
   31CHL1  H21C 2275   0.726   3.566   5.036 -0.4331  0.0216  0.8929
   31CHL1   C22 2276   0.988   3.506   5.076 -0.1424  0.3859 -0.0492
   31CHL1  H22A 2277   1.092   3.536   5.051  0.5271 -1.2721  0.5981
   31CHL1  H22B 2278   0.938   3.585   5.137 -1.1953 -0.5519  0.3415
   31CHL1   C23 2279   0.987   3.377   5.165 -0.8309  0.5704 -0.0247
   31CHL1  H23A 2280   0.887   3.332   5.181 -0.1378 -0.8908  0.3981
   31CHL1  H23B 2281   1.047   3.297   5.115 -1.1296  1.0264 -1.1254
   31CHL1   C24 2282   1.039   3.386   5.310 -0.0606 -0.1959  0.6296
   31CHL1  H24A 2283   1.145   3.419   5.308 -0.2613  0.5325  1.3271
   31CHL1  H24B 2284   0.983   3.463   5.367  0.8915  1.0644 -0.0875
   31CHL1   C25 2285   1.039   3.258   5.393 -0.4593 -0.1706 -0.2487
   31CHL1   H25 2286   1.074   3.174   5.328 -1.2868  0.9057 -2.1781
   31CHL1   C26 2287   1.123   3.278   5.525 -0.1737 -0.1414  0.4778
   31CHL1  H26A 2288   1.127   3.187   5.589 -0.5825 -1.3360 -1.1365
   31CHL1  H26B 2289   1.226   3.300   5.491 -0.8037  0.4532 -1.1403
   31CHL1  H26C 2290   1.092   3.362   5.591  2.7088  1.4199 -0.0005
   31CHL1   C27 2291   0.889   3.236   5.434 -0.4056  0.5622  0.2261
   31CHL1  H27A 2292   0.884   3.133   5.477 -2.0498  0.9945  1.1346
   31CHL1  H27B 2293   0.854   3.297   5.519 -3.2238  0.5867 -0.8573
   31CHL1  H27C 2294   0.813   3.234   5.353  0.7257 -1.9303 -0.9005
   32CHL1    C3 2295   5.224   2.909   4.117  0.2918 -0.5086 -0.3566
   32CHL1    H3 2296   5.153   2.828   4.143  0.5924  0.4477  4.4418
   32CHL1    O3 2297   5.235   2.933   3.975 -0.4508  0.4833 -0.4905
   32CHL1   H3' 2298   5.329   2.944   3.962  0.1446  0.3254  2.8821
   32CHL1    C4 2299   5.160   3.023   4.192  0.6160  0.3611 -0.3268
   32CHL1   H4A 2300   5.215   3.114   4.160  1.0748  0.1591 -0.1138
   32CHL1   H4B 2301   5.055   3.035   4.158  0.3578  1.1311  0.6766
   32CHL1    C5 2302   5.168   3.018   4.342  1.1738  0.8293  0.3243
   32CHL1    C6 2303   5.056   3.021   4.418  0.4112 -0.1110 -0.5868
   32CHL1    H6 2304   4.953   3.037   4.383 -0.8645 -0.2437  2.7463
   32CHL1    C7 2305   5.068   3.008   4.569 -0.4997 -0.2307 -0.9956
   32CHL1   H7A 2306   5.001   3.083   4.617  0.9244  1.0056 -0.8705
   32CHL1   H7B 2307   5.036   2.909   4.609 -2.8360  1.4676  1.7464
   32CHL1    C8 2308   5.213   3.040   4.623  0.0452 -0.6792  0.0553
   32CHL1    H8 2309   5.240   3.142   4.587 -0.8890 -0.6544 -0.5970
   32CHL1   C14 2310   5.220   3.022   4.770  0.4048 -0.7370 -0.4336
   32CHL1   H14 2311   5.202   2.915   4.792  0.2143 -0.3030  1.8792
   32CHL1   C15 2312   5.115   3.110   4.856  0.7414  0.7329  1.1807
   32CHL1  H15A 2313   5.113   3.211   4.810 -0.0634 -0.0745 -0.6689
   32CHL1  H15B 2314   5.016   3.063   4.839  0.4055  1.8559 -0.1548
   32CHL1   C16 2315   5.168   3.110   4.998  0.1909 -0.1507 -1.2151
   32CHL1  H16A 2316   5.180   3.216   5.030  0.5522 -0.4250 -0.4249
   32CHL1  H16B 2317   5.106   3.052   5.069 -2.2042  3.3358 -0.1841
   32CHL1   C17 2318   5.313   3.043   4.993 -0.2594  0.4881 -0.2625
   32CHL1   H17 2319   5.311   2.932   4.996  0.9928  0.4591  0.2759
   32CHL1   C13 2320   5.351   3.061   4.846  0.3665  0.1377 -0.2010
   32CHL1   C18 2321   5.394   3.206   4.815  0.2953  0.8777  1.4944
   32CHL1  H18A 2322   5.385   3.234   4.708 -1.4415 -0.2055  1.3158
   32CHL1  H18B 2323   5.335   3.286   4.863 -1.4811  0.1989  0.5344
   32CHL1  H18C 2324   5.501   3.215   4.845  0.5632 -0.1893  0.9128
   32CHL1   C12 2325   5.454   2.965   4.783 -0.2010 -0.2942  0.7770
   32CHL1  H12A 2326   5.555   2.975   4.829  0.8112 -0.6821 -1.2329
   32CHL1  H12B 2327   5.426   2.865   4.822 -0.6483  0.4654  2.4835
   32CHL1   C11 2328   5.454   2.973   4.627 -0.3029 -0.1278  0.0283
   32CHL1  H11A 2329   5.487   3.077   4.602 -1.4626  0.4428  0.7902
   32CHL1  H11B 2330   5.524   2.902   4.578 -1.8036  0.3496 -3.0695
   32CHL1    C9 2331   5.316   2.954   4.553  0.8529 -0.2235  0.8126
   32CHL1    H9 2332   5.290   2.849   4.577 -0.0786 -0.1673  0.1118
   32CHL1   C10 2333   5.307   2.983   4.394  0.2457 -0.1410  0.4492
   32CHL1   C19 2334   5.399   3.107   4.369  0.2194  0.6541  0.3755
   32CHL1  H19A 2335   5.380   3.153   4.270 -0.7327 -0.5608 -0.0436
   32CHL1  H19B 2336   5.377   3.186   4.445 -0.2542 -0.0562  0.9990
   32CHL1  H19C 2337   5.506   3.082   4.385  0.0621  1.3462  3.0689
   32CHL1    C1 2338   5.362   2.858   4.327  0.0835  0.2502 -0.1198
   32CHL1   H1A 2339   5.468   2.842   4.357 -0.3614  0.5689  1.7516
   32CHL1   H1B 2340   5.293   2.774   4.350  0.0650  0.5732  1.0581
   32CHL1    C2 2341   5.359   2.870   4.168 -0.4438 -0.6867 -0.7034
   32CHL1   H2A 2342   5.407   2.777   4.130  3.3354  0.3042  1.1890
   32CHL1   H2B 2343   5.429   2.951   4.139 -1.7919 -0.3533 -3.4279
   32CHL1   C20 2344   5.419   3.085   5.098 -0.1609  0.7629  0.0025
   32CHL1   H20 2345   5.483   3.170   5.065  0.6021 -0.0590 -0.7013
   32CHL1   C21 2346   5.529   2.973   5.117 -0.0048 -0.8612 -0.9268
   32CHL1  H21A 2347   5.606   3.010   5.187 -0.3742  1.7841 -1.8088
   32CHL1  H21B 2348   5.584   2.956   5.022 -1.1997  1.3558 -2.1057
   32CHL1  H21C 2349   5.476   2.878   5.141 -1.5551  0.1896  0.0467
   32CHL1   C22 2350   5.368   3.135   5.233  0.5269 -0.0592  0.0567
   32CHL1  H22A 2351   5.458   3.173   5.287  0.1316 -0.7048  1.2157
   32CHL1  H22B 2352   5.291   3.216   5.228 -1.7472 -1.7917  3.0002
   32CHL1   C23 2353   5.308   3.036   5.340  0.3098 -0.6256  0.0862
   32CHL1  H23A 2354   5.230   2.977   5.285  0.3266  0.1537 -0.8108
   32CHL1  H23B 2355   5.389   2.966   5.369  0.7743 -0.0910  0.0830
   32CHL1   C24 2356   5.250   3.098   5.464 -0.3594 -0.5264 -0.6536
   32CHL1  H24A 2357   5.165   3.153   5.418  0.7707 -0.5516 -2.9331
   32CHL1  H24B 2358   5.215   3.018   5.532  1.8646 -1.3578 -0.4039
   32CHL1   C25 2359   5.340   3.204   5.542 -0.2043 -0.8587  0.6648
   32CHL1   H25 2360   5.351   3.288   5.470  1.6070 -1.8903 -0.3422
   32CHL1   C26 2361   5.267   3.253   5.665  0.3443 -0.1254 -0.3566
   32CHL1  H26A 2362   5.317   3.337   5.717  0.3328 -0.7054  0.6280
   32CHL1  H26B 2363   5.163   3.288   5.644  0.0210 -0.0206  1.2399
   32CHL1  H26C 2364   5.259   3.171   5.740 -1.2747  0.3157 -0.0058
   32CHL1   C27 2365   5.481   3.150   5.579  0.5335 -0.2896  1.0088
   32CHL1  H27A 2366   5.524   3.211   5.661 -0.0955 -0.7950  1.7221
   32CHL1  H27B 2367   5.468   3.052   5.629  0.9455  0.3031  2.3291
   32CHL1  H27C 2368   5.547   3.131   5.492  0.1330 -1.0424  0.8580
   33CHL1    C3 2369   4.276   4.387   4.267  0.5058 -0.2056  0.1884
   33CHL1    H3 2370   4.177   4.372   4.314  0.2069  0.8150 -0.1056
   33CHL1    O3 2371   4.260   4.396   4.128  0.5865  0.4104 -0.8640
   33CHL1   H3' 2372   4.216   4.480   4.114 -0.3696  0.4977  2.0512
   33CHL1    C4 2373   4.332   4.515   4.331  0.5410  0.0007  0.1474
   33CHL1   H4A 2374   4.438   4.522   4.299  0.9542  0.6276  1.5574
   33CHL1   H4B 2375   4.280   4.605   4.292 -0.4903 -0.5973  0.1150
   33CHL1    C5 2376   4.340   4.517   4.483  0.1660 -0.0040 -0.2507
   33CHL1    C6 2377   4.279   4.610   4.561 -0.4817  0.3121  0.5274
   33CHL1    H6 2378   4.222   4.692   4.515 -1.6946  0.2953  1.9207
   33CHL1    C7 2379   4.287   4.622   4.709 -0.0218 -0.1546  0.1286
   33CHL1   H7A 2380   4.302   4.722   4.753  0.6746  0.6254 -1.7899
   33CHL1   H7B 2381   4.193   4.584   4.756 -0.5810  0.9987 -0.0351
   33CHL1    C8 2382   4.394   4.529   4.762  0.0074 -0.1198 -0.1860
   33CHL1    H8 2383   4.496   4.571   4.750 -0.1742  0.3599 -0.0867
   33CHL1   C14 2384   4.364   4.511   4.909 -0.0780 -0.9779 -1.1448
   33CHL1   H14 2385   4.266   4.460   4.915 -0.1591 -0.6648  3.6739
   33CHL1   C15 2386   4.356   4.645   4.990  0.2124  0.7554  0.2672
   33CHL1  H15A 2387   4.433   4.708   4.940 -0.9966  1.3649 -0.8783
   33CHL1  H15B 2388   4.251   4.680   4.989 -1.0840 -2.4723  3.1645
   33CHL1   C16 2389   4.395   4.608   5.135  0.3877 -0.2616 -0.2878
   33CHL1  H16A 2390   4.470   4.673   5.184  3.7150 -3.1127 -1.2360
   33CHL1  H16B 2391   4.306   4.618   5.200 -1.3148  1.6186 -2.6995
   33CHL1   C17 2392   4.430   4.457   5.131 -0.2159  0.1669 -0.1406
   33CHL1   H17 2393   4.336   4.400   5.146 -0.2613  0.6286  1.5165
   33CHL1   C13 2394   4.475   4.432   4.981 -0.1495 -1.0982 -0.0123
   33CHL1   C18 2395   4.627   4.484   4.956  0.1221 -0.0172 -0.4313
   33CHL1  H18A 2396   4.656   4.466   4.850  1.0822 -2.6656  0.2118
   33CHL1  H18B 2397   4.634   4.591   4.984 -1.1438  0.4750 -1.8760
   33CHL1  H18C 2398   4.691   4.418   5.018  0.1786 -0.4929 -0.9884
   33CHL1   C12 2399   4.456   4.293   4.924  0.4430  0.2982  0.3271
   33CHL1  H12A 2400   4.527   4.219   4.967 -0.6164 -0.3434  1.0191
   33CHL1  H12B 2401   4.354   4.250   4.933  0.1428  0.8298 -0.4755
   33CHL1   C11 2402   4.478   4.295   4.773  0.3003  0.3321 -0.3150
   33CHL1  H11A 2403   4.586   4.315   4.755  0.5671 -0.5646  0.1783
   33CHL1  H11B 2404   4.458   4.193   4.733 -1.0899  0.5860 -0.3020
   33CHL1    C9 2405   4.389   4.387   4.697 -0.2436  0.0601  0.2394
   33CHL1    H9 2406   4.286   4.347   4.707 -1.9490  3.2651 -2.2911
   33CHL1   C10 2407   4.413   4.398   4.541  0.3204 -0.0889  0.3336
   33CHL1   C19 2408   4.562   4.409   4.524  0.3841 -0.1214  0.4658
   33CHL1  H19A 2409   4.599   4.427   4.420 -1.5527 -0.4296 -0.3224
   33CHL1  H19B 2410   4.618   4.482   4.586 -0.0609 -0.6690  1.5343
   33CHL1  H19C 2411   4.593   4.303   4.536  2.0591  0.3628  0.6018
   33CHL1    C1 2412   4.362   4.270   4.474  0.0983  0.0936  0.3312
   33CHL1   H1A 2413   4.417   4.185   4.519 -0.7952 -0.7453 -0.1455
   33CHL1   H1B 2414   4.257   4.249   4.504  0.2742 -1.2878  0.0376
   33CHL1    C2 2415   4.372   4.274   4.312  0.3978  0.2687  0.2288
   33CHL1   H2A 2416   4.325   4.183   4.268 -2.2872  1.7055 -0.0349
   33CHL1   H2B 2417   4.478   4.284   4.279  0.8654 -0.0284  1.5896
   33CHL1   C20 2418   4.532   4.417   5.243  0.0539 -1.0252  0.0397
   33CHL1   H20 2419   4.619   4.484   5.225  0.7794 -2.2407 -1.2248
   33CHL1   C21 2420   4.586   4.269   5.231 -0.2449  0.0217  0.5337
   33CHL1  H21A 2421   4.492   4.212   5.218 -0.5372 -0.1723  2.9708
   33CHL1  H21B 2422   4.644   4.236   5.320  3.2301  0.2975 -1.4169
   33CHL1  H21C 2423   4.652   4.257   5.143 -1.0203  0.9576 -0.2025
   33CHL1   C22 2424   4.473   4.445   5.382 -0.0632  0.4654 -0.3542
   33CHL1  H22A 2425   4.377   4.502   5.381 -1.7885 -2.2765 -0.6589
   33CHL1  H22B 2426   4.436   4.350   5.426  0.0912 -0.0675 -1.3445
   33CHL1   C23 2427   4.589   4.501   5.469 -0.0838  0.2760  0.1657
   33CHL1  H23A 2428   4.679   4.438   5.450  0.3497  0.5142  1.3591
   33CHL1  H23B 2429   4.618   4.600   5.429  2.2892 -0.9809 -1.5399
   33CHL1   C24 2430   4.560   4.518   5.618  0.0774  0.5993  0.2211
   33CHL1  H24A 2431   4.467   4.578   5.628  0.5821  1.3254  0.6441
   33CHL1  H24B 2432   4.542   4.426   5.678 -1.4331  1.1970  0.7215
   33CHL1   C25 2433   4.678   4.603   5.675 -0.0151  0.0645  0.7965
   33CHL1   H25 2434   4.698   4.694   5.616  0.4807  0.6834  1.8909
   33CHL1   C26 2435   4.630   4.649   5.813 -0.2042  0.0404  0.0017
   33CHL1  H26A 2436   4.695   4.725   5.863 -2.4801  1.4192  1.0250
   33CHL1  H26B 2437   4.532   4.697   5.796  0.5297  1.4466 -0.4420
   33CHL1  H26C 2438   4.629   4.556   5.874  0.7945 -1.5439 -2.2597
   33CHL1   C27 2439   4.805   4.523   5.697  0.3073 -0.6078  0.0255
   33CHL1  H27A 2440   4.786   4.422   5.739  1.1336 -0.9762 -0.4653
   33CHL1  H27B 2441   4.857   4.527   5.599  0.7242  0.5377  0.2706
   33CHL1  H27C 2442   4.879   4.568   5.768 -0.3975  1.6982 -0.6075
   34CHL1    C3 2443   0.261   2.336   3.829 -0.3000  0.4236  0.3330
   34CHL1    H3 2444   0.152   2.325   3.846 -0.1201 -2.0779  0.1658
   34CHL1    O3 2445   0.308   2.286   3.703  0.0436  0.0708 -0.5367
   34CHL1   H3' 2446   0.287   2.194   3.721 -0.6240  0.6997  2.4137
   34CHL1    C4 2447   0.315   2.486   3.843 -0.0602  0.7714  0.5579
   34CHL1   H4A 2448   0.421   2.483   3.810  0.2388  1.3403  1.4368
   34CHL1   H4B 2449   0.257   2.544   3.768  0.1191 -0.9140 -0.9453
   34CHL1    C5 2450   0.305   2.536   3.986  0.0401 -0.1780  0.1918
   34CHL1    C6 2451   0.256   2.656   4.010 -0.3446  0.1294 -0.2506
   34CHL1    H6 2452   0.218   2.712   3.924 -0.5481  0.1859 -0.1235
   34CHL1    C7 2453   0.267   2.724   4.148  0.5421 -0.0847 -0.2215
   34CHL1   H7A 2454   0.310   2.826   4.135  0.0153  0.0221 -1.2753
   34CHL1   H7B 2455   0.163   2.740   4.186 -0.4840 -4.0579 -0.9310
   34CHL1    C8 2456   0.347   2.646   4.256  0.1860 -0.4222  0.7037
   34CHL1    H8 2457   0.450   2.672   4.223  0.3401 -0.5355  1.0838
   34CHL1   C14 2458   0.303   2.692   4.397 -0.2240 -0.3917  0.0580
   34CHL1   H14 2459   0.201   2.650   4.406 -0.4026  0.0502  0.1300
   34CHL1   C15 2460   0.292   2.844   4.424  0.7433 -0.1378  0.4725
   34CHL1  H15A 2461   0.363   2.910   4.369 -0.3997  1.1886  0.5278
   34CHL1  H15B 2462   0.192   2.887   4.405  0.8225 -0.0844  0.1795
   34CHL1   C16 2463   0.305   2.849   4.570  0.0877 -0.4705  0.0708
   34CHL1  H16A 2464   0.395   2.910   4.594  1.2588 -1.9292 -0.4395
   34CHL1  H16B 2465   0.226   2.911   4.618 -0.6181 -1.8363  0.7312
   34CHL1   C17 2466   0.325   2.700   4.622 -0.1933 -0.1306  1.1394
   34CHL1   H17 2467   0.222   2.658   4.631 -0.7297  0.9608  0.2964
   34CHL1   C13 2468   0.391   2.633   4.502 -0.0729 -0.6718 -0.2724
   34CHL1   C18 2469   0.540   2.680   4.497 -0.0171 -0.1234  0.1448
   34CHL1  H18A 2470   0.560   2.787   4.520  3.6784 -0.3655 -1.3151
   34CHL1  H18B 2471   0.600   2.614   4.562 -2.6733  0.2656  3.2361
   34CHL1  H18C 2472   0.568   2.672   4.390 -1.1703  1.5244 -0.3215
   34CHL1   C12 2473   0.374   2.482   4.493 -0.0315  0.5808 -0.0483
   34CHL1  H12A 2474   0.445   2.433   4.563 -0.5711  2.5211  1.9663
   34CHL1  H12B 2475   0.271   2.449   4.517  0.6318 -0.6024  1.2738
   34CHL1   C11 2476   0.409   2.427   4.354 -0.3787 -0.1284 -0.4130
   34CHL1  H11A 2477   0.518   2.446   4.350 -0.1224 -1.5884 -1.0342
   34CHL1  H11B 2478   0.392   2.317   4.349  0.5913 -0.2323 -3.1128
   34CHL1    C9 2479   0.328   2.495   4.240 -0.0520  0.4870  0.5545
   34CHL1    H9 2480   0.219   2.482   4.252 -0.3249 -2.6368 -3.2400
   34CHL1   C10 2481   0.368   2.448   4.093 -0.2009 -0.0276  0.1151
   34CHL1   C19 2482   0.520   2.454   4.081 -0.1705  0.0590 -0.1455
   34CHL1  H19A 2483   0.568   2.402   4.167 -0.1970  1.8914  1.0318
   34CHL1  H19B 2484   0.551   2.429   3.977 -0.5478 -1.9304  0.1715
   34CHL1  H19C 2485   0.551   2.559   4.095 -1.2140  0.4837 -0.8971
   34CHL1    C1 2486   0.312   2.306   4.074 -0.1544  0.0491 -1.0031
   34CHL1   H1A 2487   0.362   2.241   4.148 -1.6145 -0.3189 -0.3250
   34CHL1   H1B 2488   0.202   2.307   4.087 -0.1091  0.6282 -0.6339
   34CHL1    C2 2489   0.327   2.250   3.938  0.1947  0.4879  0.9280
   34CHL1   H2A 2490   0.287   2.146   3.931 -0.4316  0.7225  0.9762
   34CHL1   H2B 2491   0.437   2.248   3.926  0.4921  1.1426  3.0407
   34CHL1   C20 2492   0.390   2.685   4.760 -0.1613 -0.4829 -0.4785
   34CHL1   H20 2493   0.498   2.712   4.757  0.3728 -2.2681  1.0247
   34CHL1   C21 2494   0.367   2.540   4.814  0.1011  0.3303  0.3225
   34CHL1  H21A 2495   0.431   2.473   4.753 -0.1213  1.4640 -1.2212
   34CHL1  H21B 2496   0.265   2.508   4.783  0.6794 -0.8311 -0.4791
   34CHL1  H21C 2497   0.380   2.523   4.923  1.1588 -0.8013  0.0457
   34CHL1   C22 2498   0.331   2.777   4.869  0.4909  0.4217  0.3568
   34CHL1  H22A 2499   0.268   2.857   4.825  2.6041  0.5721 -2.6519
   34CHL1  H22B 2500   0.259   2.715   4.927 -0.5037  1.0302 -0.1974
   34CHL1   C23 2501   0.437   2.835   4.961  0.4866 -0.3221 -0.2799
   34CHL1  H23A 2502   0.512   2.757   4.989  0.0558 -0.9124 -0.7514
   34CHL1  H23B 2503   0.490   2.922   4.917 -0.2491  2.6177  4.0501
   34CHL1   C24 2504   0.390   2.904   5.091 -0.3014  0.3297 -0.3085
   34CHL1  H24A 2505   0.335   3.001   5.087  0.8845  1.0032 -3.7123
   34CHL1  H24B 2506   0.327   2.832   5.147  1.7532 -0.6112  0.8832
   34CHL1   C25 2507   0.518   2.936   5.181  0.4797 -0.4533 -0.2957
   34CHL1   H25 2508   0.599   2.866   5.150  1.1136  0.4359 -0.6974
   34CHL1   C26 2509   0.585   3.066   5.149  0.2139 -0.1229 -0.8432
   34CHL1  H26A 2510   0.520   3.155   5.167  2.2867  1.2585  0.1466
   34CHL1  H26B 2511   0.677   3.089   5.206 -0.6870 -1.3662  1.2081
   34CHL1  H26C 2512   0.616   3.071   5.042  1.1960 -0.4543 -0.5822
   34CHL1   C27 2513   0.478   2.925   5.333  0.0972  1.2044 -0.0477
   34CHL1  H27A 2514   0.379   2.971   5.355 -0.9139 -0.5171 -0.8064
   34CHL1  H27B 2515   0.465   2.816   5.351 -0.2854  1.4402  1.2321
   34CHL1  H27C 2516   0.560   2.953   5.403 -0.5471  2.2784  0.3105
   35CHL1    C3 2517   1.935   0.308   4.421  0.3324 -0.2314  0.0433
   35CHL1    H3 2518   1.951   0.417   4.402  0.9450 -0.5010 -1.1128
   35CHL1    O3 2519   1.953   0.241   4.301  0.1038 -0.3518  0.8988
   35CHL1   H3' 2520   1.926   0.149   4.307 -0.3686 -0.1940  1.2566
   35CHL1    C4 2521   2.040   0.266   4.525  0.5673  0.0040 -0.3321
   35CHL1   H4A 2522   2.031   0.156   4.523 -0.5712  0.0508 -3.8602
   35CHL1   H4B 2523   2.136   0.298   4.477 -0.2138 -1.3671 -2.9988
   35CHL1    C5 2524   2.011   0.316   4.661  1.2957 -0.4831  0.0998
   35CHL1    C6 2525   2.096   0.372   4.735 -0.7320 -0.0834 -0.3617
   35CHL1    H6 2526   2.197   0.383   4.691 -1.2927  2.0856 -1.2274
   35CHL1    C7 2527   2.091   0.410   4.879  0.1523  0.0448 -0.0334
   35CHL1   H7A 2528   2.163   0.359   4.947  2.2055  2.9559  0.1611
   35CHL1   H7B 2529   2.099   0.521   4.884 -0.1352  0.0264  1.6537
   35CHL1    C8 2530   1.951   0.372   4.939 -0.5352  0.0127 -0.9555
   35CHL1    H8 2531   1.961   0.267   4.975 -0.3517  0.1642 -0.5607
   35CHL1   C14 2532   1.915   0.457   5.065 -0.1233 -0.0447  1.0713
   35CHL1   H14 2533   1.889   0.555   5.019 -2.3119 -1.6533 -1.4167
   35CHL1   C15 2534   2.027   0.476   5.164 -0.1464 -0.0465 -1.1582
   35CHL1  H15A 2535   2.077   0.377   5.175 -0.0250 -0.1438 -2.4402
   35CHL1  H15B 2536   2.110   0.547   5.143 -0.3892  0.5711 -0.1176
   35CHL1   C16 2537   1.947   0.528   5.284 -0.2156  0.2202 -0.3179
   35CHL1  H16A 2538   1.974   0.460   5.367  3.8813  1.8887 -0.0292
   35CHL1  H16B 2539   1.978   0.633   5.305  0.4240 -0.1873  0.8573
   35CHL1   C17 2540   1.797   0.525   5.245  0.7142 -0.4342 -0.0165
   35CHL1   H17 2541   1.782   0.627   5.204 -0.1850  0.9356  3.3680
   35CHL1   C13 2542   1.784   0.416   5.131  0.1074 -0.1933 -0.6657
   35CHL1   C18 2543   1.797   0.270   5.191 -0.6222 -0.7084  0.1188
   35CHL1  H18A 2544   1.877   0.272   5.268 -0.2989  0.4345 -0.2308
   35CHL1  H18B 2545   1.703   0.245   5.244 -0.2789 -1.7953  0.2570
   35CHL1  H18C 2546   1.809   0.190   5.114 -0.2996 -0.3019 -0.2622
   35CHL1   C12 2547   1.672   0.427   5.033 -0.0339 -0.7143 -0.2926
   35CHL1  H12A 2548   1.579   0.388   5.080  0.3981  0.3989  1.5787
   35CHL1  H12B 2549   1.643   0.531   5.006 -0.7168 -0.9293 -0.4166
   35CHL1   C11 2550   1.704   0.350   4.903 -0.1356 -0.6958 -0.4688
   35CHL1  H11A 2551   1.715   0.242   4.924 -0.6284 -0.7259 -0.3440
   35CHL1  H11B 2552   1.627   0.365   4.824  0.2622  1.7849 -0.4835
   35CHL1    C9 2553   1.839   0.377   4.838 -0.7767  0.3430  0.2020
   35CHL1    H9 2554   1.841   0.486   4.814  0.8942  0.2590 -0.1715
   35CHL1   C10 2555   1.867   0.295   4.709  0.3993 -0.5626 -0.1736
   35CHL1   C19 2556   1.857   0.151   4.737  0.1866  0.7067 -0.0299
   35CHL1  H19A 2557   1.921   0.118   4.822  0.0769  2.5312  0.8129
   35CHL1  H19B 2558   1.753   0.120   4.762 -0.2773  0.3327 -2.2511
   35CHL1  H19C 2559   1.882   0.083   4.653 -1.8149 -0.6496  0.3968
   35CHL1    C1 2560   1.766   0.339   4.604 -0.0698 -0.4566  0.0731
   35CHL1   H1A 2561   1.664   0.302   4.629 -0.4035  0.8487  0.7295
   35CHL1   H1B 2562   1.764   0.448   4.585  1.5133 -0.3105  0.5989
   35CHL1    C2 2563   1.787   0.285   4.465 -0.4929  0.0356  0.1200
   35CHL1   H2A 2564   1.722   0.326   4.385  1.6987  0.5392 -1.4939
   35CHL1   H2B 2565   1.777   0.174   4.466 -0.8270  0.0337 -1.5408
   35CHL1   C20 2566   1.706   0.510   5.366 -0.0309  0.1497  0.4329
   35CHL1   H20 2567   1.736   0.415   5.413 -1.3598 -1.8440 -2.4309
   35CHL1   C21 2568   1.553   0.496   5.327 -1.4276 -0.2390 -0.4244
   35CHL1  H21A 2569   1.476   0.521   5.403  0.3253 -0.0494  1.3755
   35CHL1  H21B 2570   1.541   0.389   5.299 -0.7485 -0.9869  1.8662
   35CHL1  H21C 2571   1.518   0.563   5.246 -1.7556  1.1159  0.8038
   35CHL1   C22 2572   1.737   0.620   5.469  0.6245 -0.0129  1.0461
   35CHL1  H22A 2573   1.846   0.611   5.487  0.9615  0.8535 -0.3961
   35CHL1  H22B 2574   1.730   0.720   5.420  1.9361  0.7765  2.4181
   35CHL1   C23 2575   1.672   0.596   5.601 -0.1693 -0.3370  0.8711
   35CHL1  H23A 2576   1.564   0.579   5.583 -0.2898 -0.0555  1.3133
   35CHL1  H23B 2577   1.708   0.497   5.637 -0.0109 -0.2646  0.9135
   35CHL1   C24 2578   1.702   0.702   5.707  0.4154  0.2850 -0.3285
   35CHL1  H24A 2579   1.806   0.714   5.742 -0.2475  1.6928  1.2860
   35CHL1  H24B 2580   1.669   0.802   5.672  2.7952  0.5308 -2.1377
   35CHL1   C25 2581   1.614   0.678   5.835  0.3925 -0.3375 -0.2460
   35CHL1   H25 2582   1.623   0.572   5.867  2.6099  0.0718  0.6854
   35CHL1   C26 2583   1.667   0.764   5.955  0.5524 -0.0898 -0.0462
   35CHL1  H26A 2584   1.613   0.735   6.047  0.6435  0.7482  0.2803
   35CHL1  H26B 2585   1.776   0.754   5.976  0.9171  2.3075 -0.4279
   35CHL1  H26C 2586   1.657   0.872   5.930  1.0252  0.1990  0.9437
   35CHL1   C27 2587   1.468   0.717   5.814 -0.2554 -0.0051 -0.3193
   35CHL1  H27A 2588   1.413   0.695   5.908 -0.5798  1.3281 -0.1655
   35CHL1  H27B 2589   1.465   0.828   5.801  2.5274 -0.1341 -3.0794
   35CHL1  H27C 2590   1.420   0.665   5.728  0.0787  0.9937 -1.1274
   36CHL1    C3 2591   6.566   2.408   3.877  1.0012 -0.6241 -0.1258
   36CHL1    H3 2592   6.541   2.300   3.863  2.7163 -0.9973 -0.6239
   36CHL1    O3 2593   6.527   2.485   3.756  0.1102  0.6008 -0.2569
   36CHL1   H3' 2594   6.451   2.436   3.724  1.0197 -1.0234 -0.0770
   36CHL1    C4 2595   6.479   2.476   3.984  0.4619  0.2977  0.0315
   36CHL1   H4A 2596   6.496   2.586   3.981  0.4954  0.4552  2.7747
   36CHL1   H4B 2597   6.373   2.454   3.960 -0.3888  3.2943  0.5689
   36CHL1    C5 2598   6.517   2.410   4.120  0.6533 -0.2967  0.2090
   36CHL1    C6 2599   6.422   2.343   4.185  0.8121 -0.1492 -0.4384
   36CHL1    H6 2600   6.321   2.352   4.143  1.0563 -2.4601 -1.6675
   36CHL1    C7 2601   6.452   2.270   4.317  0.1310 -0.7137 -0.1376
   36CHL1   H7A 2602   6.366   2.271   4.388 -0.7075 -1.0584 -1.1266
   36CHL1   H7B 2603   6.468   2.160   4.306  1.8377 -0.4539 -0.4177
   36CHL1    C8 2604   6.589   2.335   4.374 -0.2897  0.2436 -0.3460
   36CHL1    H8 2605   6.577   2.444   4.393  0.9884  0.2149  0.8474
   36CHL1   C14 2606   6.618   2.250   4.506  0.2616  0.2645  0.7863
   36CHL1   H14 2607   6.623   2.144   4.472  1.7930  0.4992  0.1954
   36CHL1   C15 2608   6.510   2.252   4.623 -0.3856 -0.3095  0.2911
   36CHL1  H15A 2609   6.483   2.360   4.623  1.8072  0.3079  1.6690
   36CHL1  H15B 2610   6.420   2.190   4.602 -0.8378  0.4200  0.0277
   36CHL1   C16 2611   6.592   2.206   4.742 -0.1840  0.3969 -0.2365
   36CHL1  H16A 2612   6.570   2.278   4.824  0.4623  0.6491 -0.2769
   36CHL1  H16B 2613   6.561   2.103   4.771  1.0284  0.1571  0.3236
   36CHL1   C17 2614   6.745   2.192   4.693  0.2171  0.1185  0.5545
   36CHL1   H17 2615   6.746   2.085   4.664  2.8242 -0.2227  1.6174
   36CHL1   C13 2616   6.756   2.279   4.570  0.6765 -0.5511 -0.1226
   36CHL1   C18 2617   6.764   2.429   4.609  0.1990  0.0943 -0.1378
   36CHL1  H18A 2618   6.687   2.463   4.682  0.7746  2.9065 -0.7000
   36CHL1  H18B 2619   6.862   2.452   4.654 -0.2234 -0.6396  1.2094
   36CHL1  H18C 2620   6.749   2.485   4.514  2.2428 -1.4376 -1.4642
   36CHL1   C12 2621   6.869   2.252   4.463  0.6940  0.1989 -0.4105
   36CHL1  H12A 2622   6.969   2.281   4.503  0.3277 -1.6619  2.0572
   36CHL1  H12B 2623   6.861   2.142   4.464 -1.4758  0.1964  3.8311
   36CHL1   C11 2624   6.845   2.317   4.332 -0.2238  0.7265  0.3420
   36CHL1  H11A 2625   6.859   2.422   4.364  2.2325  0.6163 -0.2085
   36CHL1  H11B 2626   6.916   2.293   4.250 -0.8382 -0.2431  0.0723
   36CHL1    C9 2627   6.695   2.308   4.269 -0.6151  0.1037 -0.0225
   36CHL1    H9 2628   6.686   2.203   4.234 -0.1663 -0.7257  2.1932
   36CHL1   C10 2629   6.670   2.405   4.151 -0.0950 -0.1048  0.7806
   36CHL1   C19 2630   6.717   2.550   4.187 -0.1583 -0.7570 -0.0963
   36CHL1  H19A 2631   6.674   2.587   4.282 -1.1586  1.0557 -1.2043
   36CHL1  H19B 2632   6.825   2.540   4.212 -0.2662  1.0611  1.2970
   36CHL1  H19C 2633   6.705   2.616   4.099 -0.4408  2.7626  2.3817
   36CHL1    C1 2634   6.755   2.349   4.027  0.7581 -0.0990 -0.3451
   36CHL1   H1A 2635   6.864   2.370   4.034  0.9509 -0.8972 -0.8619
   36CHL1   H1B 2636   6.734   2.240   4.033  0.7536 -0.1500 -1.1889
   36CHL1    C2 2637   6.717   2.412   3.890 -0.1870  0.0230  0.5461
   36CHL1   H2A 2638   6.750   2.335   3.817 -1.9254 -1.0213  0.7955
   36CHL1   H2B 2639   6.764   2.512   3.876  0.9198 -0.4251  0.9776
   36CHL1   C20 2640   6.844   2.213   4.812 -0.5892  0.0255  0.4044
   36CHL1   H20 2641   6.821   2.313   4.856 -0.3597 -0.0142  0.6196
   36CHL1   C21 2642   6.990   2.205   4.759 -0.1339  0.1335  0.1918
   36CHL1  H21A 2643   7.006   2.309   4.721  1.2097 -0.6671 -1.6237
   36CHL1  H21B 2644   6.994   2.118   4.691  0.9642 -0.8749  1.5021
   36CHL1  H21C 2645   7.058   2.185   4.844  1.5584 -2.0694 -1.5396
   36CHL1   C22 2646   6.816   2.111   4.928  0.2125  0.0037  0.0108
   36CHL1  H22A 2647   6.707   2.092   4.939 -0.0339  0.6774 -1.0886
   36CHL1  H22B 2648   6.858   2.016   4.888 -0.8136 -0.5683  0.2633
   36CHL1   C23 2649   6.879   2.143   5.067 -0.4989  0.0100 -0.1997
   36CHL1  H23A 2650   6.989   2.149   5.051 -0.2115 -0.5631  1.3648
   36CHL1  H23B 2651   6.837   2.236   5.112  1.7397  0.0647  1.9967
   36CHL1   C24 2652   6.843   2.038   5.175  0.0148 -0.3274 -0.1222
   36CHL1  H24A 2653   6.734   2.018   5.191  0.5138 -1.2221  2.7222
   36CHL1  H24B 2654   6.887   1.943   5.136  0.5751 -0.2528  0.3191
   36CHL1   C25 2655   6.904   2.074   5.311  0.1391 -0.5756  0.4553
   36CHL1   H25 2656   7.008   2.112   5.294 -0.6985  1.5332 -0.3636
   36CHL1   C26 2657   6.837   2.186   5.383  0.1421  0.2877  0.2532
   36CHL1  H26A 2658   6.859   2.280   5.327 -0.4973  1.1395  1.3727
   36CHL1  H26B 2659   6.726   2.173   5.386  0.1677 -0.4685 -1.2190
   36CHL1  H26C 2660   6.867   2.197   5.489 -0.7939 -2.1849  0.8460
   36CHL1   C27 2661   6.888   1.946   5.397 -0.6242  0.5543 -0.7362
   36CHL1  H27A 2662   6.951   1.858   5.373  1.8640  1.2163  2.6013
   36CHL1  H27B 2663   6.928   1.966   5.498  1.7557 -1.3269 -1.2211
   36CHL1  H27C 2664   6.781   1.917   5.411  0.1535 -1.9023  0.5814
   37CHL1    C3 2665   1.670   4.134   4.144 -0.2501 -0.0037  0.8235
   37CHL1    H3 2666   1.624   4.038   4.115 -0.0544 -0.1816  1.1013
   37CHL1    O3 2667   1.735   4.187   4.025 -0.5265  0.2722  0.3155
   37CHL1   H3' 2668   1.775   4.268   4.057 -4.4763  1.7829  2.1192
   37CHL1    C4 2669   1.564   4.238   4.186  0.0314  0.0498  0.6731
   37CHL1   H4A 2670   1.594   4.345   4.189 -1.0231  0.3515  1.1102
   37CHL1   H4B 2671   1.488   4.246   4.106  0.5258 -0.3912  0.1516
   37CHL1    C5 2672   1.507   4.203   4.325  0.3010 -0.4158  0.1032
   37CHL1    C6 2673   1.372   4.198   4.334 -0.7247 -0.1103  0.1877
   37CHL1    H6 2674   1.309   4.214   4.245 -0.3260  2.5368  0.3031
   37CHL1    C7 2675   1.302   4.160   4.458  0.1817  0.1775 -0.4190
   37CHL1   H7A 2676   1.217   4.231   4.470  0.5040  0.5595 -0.3692
   37CHL1   H7B 2677   1.244   4.067   4.441  1.3195 -0.5706 -0.2547
   37CHL1    C8 2678   1.388   4.159   4.590  0.1157  0.2225  0.4097
   37CHL1    H8 2679   1.397   4.266   4.618 -0.7672 -0.2961  2.9866
   37CHL1   C14 2680   1.336   4.082   4.705  0.2822  0.4492 -0.0053
   37CHL1   H14 2681   1.332   3.974   4.677  1.1458  0.3609  0.1687
   37CHL1   C15 2682   1.189   4.113   4.739 -0.3799  0.0465  0.5282
   37CHL1  H15A 2683   1.183   4.224   4.740 -0.4944  0.1640 -2.7754
   37CHL1  H15B 2684   1.113   4.084   4.664  1.6043  1.6243 -2.2791
   37CHL1   C16 2685   1.173   4.049   4.876 -0.6488 -0.4439  0.1731
   37CHL1  H16A 2686   1.131   4.125   4.944  0.7209  0.7649 -0.2618
   37CHL1  H16B 2687   1.109   3.958   4.873 -1.9590  0.3788  1.7223
   37CHL1   C17 2688   1.315   4.002   4.929 -0.7892  0.2885 -0.2452
   37CHL1   H17 2689   1.320   3.895   4.902  0.5843  0.1626  0.4194
   37CHL1   C13 2690   1.417   4.075   4.835  0.1009  0.0888 -0.0190
   37CHL1   C18 2691   1.433   4.219   4.884  0.0671 -0.6495 -0.0765
   37CHL1  H18A 2692   1.466   4.288   4.803  2.1021 -0.3422  0.9304
   37CHL1  H18B 2693   1.343   4.261   4.933  1.6076 -0.6841  3.0978
   37CHL1  H18C 2694   1.508   4.228   4.967 -1.2074 -0.1697  1.0614
   37CHL1   C12 2695   1.547   4.011   4.799 -0.4235  0.6569 -0.2422
   37CHL1  H12A 2696   1.615   4.017   4.887 -0.0061  1.3870 -0.6014
   37CHL1  H12B 2697   1.524   3.906   4.770  0.7917  0.3299 -0.0866
   37CHL1   C11 2698   1.612   4.076   4.678 -0.1702  0.8281  0.9217
   37CHL1  H11A 2699   1.660   4.168   4.718  0.9128 -0.5319  2.9558
   37CHL1  H11B 2700   1.695   4.011   4.644 -1.3323 -0.1086 -0.2192
   37CHL1    C9 2701   1.527   4.100   4.557  0.7287 -0.2471  0.3375
   37CHL1    H9 2702   1.498   3.999   4.521 -1.7645  0.7802 -0.7827
   37CHL1   C10 2703   1.601   4.168   4.436  0.3688 -0.0555  0.0463
   37CHL1   C19 2704   1.654   4.306   4.475  0.4281 -0.1616  0.1300
   37CHL1  H19A 2705   1.564   4.364   4.505 -0.7817 -0.9082 -1.8593
   37CHL1  H19B 2706   1.730   4.307   4.556  0.4690 -0.7403  0.1021
   37CHL1  H19C 2707   1.708   4.346   4.386  1.9935 -1.5564  0.4071
   37CHL1    C1 2708   1.711   4.074   4.387 -0.5265 -0.6468  0.1050
   37CHL1   H1A 2709   1.791   4.072   4.464  0.5897  2.5199 -0.8424
   37CHL1   H1B 2710   1.670   3.971   4.391 -0.5802 -0.6069  2.8380
   37CHL1    C2 2711   1.774   4.105   4.252  0.1511  0.0169 -0.6971
   37CHL1   H2A 2712   1.839   4.020   4.221 -0.7422 -0.9226 -0.0743
   37CHL1   H2B 2713   1.842   4.192   4.263 -0.9407  0.7160  0.9493
   37CHL1   C20 2714   1.337   4.006   5.082 -0.2292 -0.2516 -0.2622
   37CHL1   H20 2715   1.342   4.111   5.118 -1.3443 -0.3233  0.1413
   37CHL1   C21 2716   1.470   3.947   5.116 -0.3296 -0.1554  0.3377
   37CHL1  H21A 2717   1.547   4.021   5.086  2.1432 -1.8464  2.0370
   37CHL1  H21B 2718   1.478   3.858   5.049  2.3732  0.3841 -0.1578
   37CHL1  H21C 2719   1.491   3.926   5.223 -0.5536 -2.8113 -0.0561
   37CHL1   C22 2720   1.225   3.945   5.167  0.3603  0.0648  0.0792
   37CHL1  H22A 2721   1.125   3.975   5.127  0.3653  1.0661  0.7758
   37CHL1  H22B 2722   1.225   3.835   5.150 -0.3248 -0.0127  0.5332
   37CHL1   C23 2723   1.227   3.962   5.321  0.1351  0.0729 -0.3321
   37CHL1  H23A 2724   1.136   3.912   5.361 -0.9148  1.3264 -1.0679
   37CHL1  H23B 2725   1.326   3.932   5.363 -0.0353  1.7967  1.4551
   37CHL1   C24 2726   1.230   4.112   5.363 -0.4720 -0.0552  0.1091
   37CHL1  H24A 2727   1.333   4.148   5.342 -0.7980  0.5159 -0.5847
   37CHL1  H24B 2728   1.164   4.159   5.286 -0.6025 -0.0587  0.2200
   37CHL1   C25 2729   1.203   4.167   5.501 -0.3389  0.0754 -0.1423
   37CHL1   H25 2730   1.275   4.112   5.565  1.9446  0.7424 -2.0120
   37CHL1   C26 2731   1.249   4.311   5.518 -0.1425  0.5916  0.4657
   37CHL1  H26A 2732   1.360   4.312   5.526  0.0139  0.1511 -1.2794
   37CHL1  H26B 2733   1.213   4.380   5.439  1.7242  1.2042  0.1054
   37CHL1  H26C 2734   1.194   4.340   5.610 -1.3461 -1.0623  0.3140
   37CHL1   C27 2735   1.056   4.145   5.542 -0.7160 -0.4251 -0.1718
   37CHL1  H27A 2736   1.054   4.142   5.653 -2.4172 -2.3488 -0.1991
   37CHL1  H27B 2737   0.984   4.219   5.503 -0.2761  0.8904  1.3829
   37CHL1  H27C 2738   1.027   4.040   5.519 -0.5184 -0.0470 -2.2748
   38CHL1    C3 2739   5.387   4.217   4.122 -1.0758 -0.1419  0.0336
   38CHL1    H3 2740   5.469   4.291   4.131 -1.6400  0.4051  0.8075
   38CHL1    O3 2741   5.341   4.225   3.986 -0.5945  0.5397  0.2646
   38CHL1   H3' 2742   5.414   4.206   3.927 -0.4201 -0.7346  0.8635
   38CHL1    C4 2743   5.443   4.083   4.157 -0.0977 -0.5965 -0.0622
   38CHL1   H4A 2744   5.359   4.015   4.132 -0.6614 -0.2838  0.9445
   38CHL1   H4B 2745   5.525   4.067   4.084  1.0367 -2.1959  1.4874
   38CHL1    C5 2746   5.469   4.067   4.307 -0.1093  0.6773 -0.1387
   38CHL1    C6 2747   5.582   4.006   4.353 -0.4188  0.0132 -0.1759
   38CHL1    H6 2748   5.652   3.963   4.281 -1.5287 -0.4614 -0.9970
   38CHL1    C7 2749   5.624   3.982   4.493  0.0257  0.3659  0.7397
   38CHL1   H7A 2750   5.658   3.876   4.498  2.3658  0.9367 -1.0003
   38CHL1   H7B 2751   5.712   4.041   4.526  0.0619 -0.4423  2.1677
   38CHL1    C8 2752   5.516   4.011   4.606  0.6001 -0.2996  0.0940
   38CHL1    H8 2753   5.452   3.920   4.613  1.1672 -0.6807  0.4108
   38CHL1   C14 2754   5.584   4.037   4.735 -0.0923  0.1580  0.7093
   38CHL1   H14 2755   5.645   4.129   4.720  0.9440 -0.7732 -1.1536
   38CHL1   C15 2756   5.679   3.923   4.783 -0.4936  0.6452  0.4856
   38CHL1  H15A 2757   5.620   3.830   4.789 -0.5480  0.7436  1.9650
   38CHL1  H15B 2758   5.774   3.922   4.725 -0.2826 -0.7453  0.8301
   38CHL1   C16 2759   5.701   3.963   4.933  0.0379  0.4916  0.8301
   38CHL1  H16A 2760   5.686   3.873   4.996  2.0203 -1.0216 -0.7060
   38CHL1  H16B 2761   5.806   4.000   4.942  0.5757 -0.7204 -0.2024
   38CHL1   C17 2762   5.599   4.082   4.965 -0.1865 -0.0658 -0.0456
   38CHL1   H17 2763   5.660   4.173   4.944 -1.0346  0.1547 -1.7458
   38CHL1   C13 2764   5.491   4.063   4.854  0.1420 -0.4893  0.4542
   38CHL1   C18 2765   5.392   3.953   4.900  0.5800 -0.0458  0.2963
   38CHL1  H18A 2766   5.331   3.919   4.813  0.7132  1.2803 -0.3393
   38CHL1  H18B 2767   5.445   3.869   4.949  1.5162  0.3071 -0.0791
   38CHL1  H18C 2768   5.325   4.007   4.970 -0.4497 -0.4121 -0.3728
   38CHL1   C12 2769   5.404   4.180   4.808 -0.6134 -0.2407 -0.5295
   38CHL1  H12A 2770   5.334   4.206   4.891  1.0397  1.3705  0.4329
   38CHL1  H12B 2771   5.472   4.266   4.794  0.0278 -0.0556  2.7809
   38CHL1   C11 2772   5.331   4.164   4.675  0.1097  0.0696  0.8933
   38CHL1  H11A 2773   5.265   4.078   4.700  0.5641 -0.2966  0.8445
   38CHL1  H11B 2774   5.267   4.251   4.648  1.1792  1.1627  1.7865
   38CHL1    C9 2775   5.430   4.126   4.564  0.1982  0.0238 -0.7481
   38CHL1    H9 2776   5.499   4.213   4.557  0.1388  0.1548  0.1359
   38CHL1   C10 2777   5.368   4.117   4.414  0.6610  0.0450 -0.9125
   38CHL1   C19 2778   5.257   4.009   4.416 -0.0102  0.5740 -0.3419
   38CHL1  H19A 2779   5.303   3.917   4.458  1.4298  2.1943  1.8538
   38CHL1  H19B 2780   5.168   4.034   4.478  1.4436 -0.1223  2.1713
   38CHL1  H19C 2781   5.208   3.991   4.318 -1.7183 -1.9674  0.8526
   38CHL1    C1 2782   5.314   4.255   4.370  0.4589 -0.6968 -0.4888
   38CHL1   H1A 2783   5.227   4.281   4.434  2.9729  1.6457  2.2861
   38CHL1   H1B 2784   5.400   4.325   4.372 -0.9991  1.1973 -0.4611
   38CHL1    C2 2785   5.271   4.261   4.220  0.9920  0.4319 -0.0198
   38CHL1   H2A 2786   5.250   4.367   4.193 -0.7145  0.5004  1.3627
   38CHL1   H2B 2787   5.185   4.196   4.192  1.0000  0.6244 -0.4967
   38CHL1   C20 2788   5.556   4.093   5.113 -0.4676 -0.1301  0.3417
   38CHL1   H20 2789   5.488   4.009   5.139 -0.5393 -0.4364 -0.7890
   38CHL1   C21 2790   5.481   4.225   5.136 -0.7997  0.0677  1.0160
   38CHL1  H21A 2791   5.488   4.245   5.244  2.6354 -0.5713  1.0314
   38CHL1  H21B 2792   5.375   4.212   5.104 -0.4179 -0.4457 -0.1210
   38CHL1  H21C 2793   5.522   4.299   5.064 -0.4094  0.7267  1.9133
   38CHL1   C22 2794   5.675   4.081   5.215 -0.2473  0.2081  0.7461
   38CHL1  H22A 2795   5.751   4.013   5.170  1.2826  2.2318  0.0910
   38CHL1  H22B 2796   5.730   4.177   5.231  2.8044 -1.6530  2.5674
   38CHL1   C23 2797   5.626   4.027   5.355  0.0308 -0.7504 -0.2500
   38CHL1  H23A 2798   5.530   4.081   5.373  0.4868  0.2208 -0.6892
   38CHL1  H23B 2799   5.597   3.920   5.347  0.4709 -1.0140  1.2751
   38CHL1   C24 2800   5.722   4.036   5.483  1.0130 -0.0333 -0.3751
   38CHL1  H24A 2801   5.662   4.006   5.572  0.7870  1.0102 -0.1608
   38CHL1  H24B 2802   5.808   3.965   5.478  1.8885  1.0174 -0.4588
   38CHL1   C25 2803   5.773   4.174   5.507 -0.4190  0.2265  0.1913
   38CHL1   H25 2804   5.820   4.217   5.416 -0.4113 -0.7504 -0.2813
   38CHL1   C26 2805   5.657   4.265   5.549  0.4387 -0.2221  0.0575
   38CHL1  H26A 2806   5.609   4.230   5.643 -1.6051 -0.9889 -1.2152
   38CHL1  H26B 2807   5.682   4.371   5.568  0.9770  0.1227 -2.3332
   38CHL1  H26C 2808   5.584   4.266   5.466 -0.6312 -3.0734  0.8507
   38CHL1   C27 2809   5.878   4.172   5.622 -0.3628 -0.0353  0.7492
   38CHL1  H27A 2810   5.836   4.109   5.703 -1.5007 -1.2559 -0.7288
   38CHL1  H27B 2811   5.964   4.112   5.586 -1.0898 -1.1685  0.8751
   38CHL1  H27C 2812   5.919   4.269   5.659  0.5459 -0.3890  0.6867
   39CHL1    C3 2813   6.294   5.734   4.223  0.0467 -0.4601  0.1301
   39CHL1    H3 2814   6.211   5.807   4.218 -0.4456 -1.0735 -1.0835
   39CHL1    O3 2815   6.315   5.680   4.092  0.2483 -0.0450  0.5519
   39CHL1   H3' 2816   6.397   5.722   4.067 -0.4494  1.2570  0.3589
   39CHL1    C4 2817   6.429   5.792   4.261 -0.1679 -0.7318 -0.0333
   39CHL1   H4A 2818   6.513   5.721   4.248  1.7204  1.6456 -1.8962
   39CHL1   H4B 2819   6.465   5.870   4.190 -1.2076 -0.3982 -0.2138
   39CHL1    C5 2820   6.440   5.847   4.402  0.1646 -0.4029  0.2600
   39CHL1    C6 2821   6.486   5.966   4.438 -0.8235 -0.1085 -0.7255
   39CHL1    H6 2822   6.515   6.034   4.357  1.6371  1.9171  1.6573
   39CHL1    C7 2823   6.500   6.016   4.578 -0.0294 -0.5280 -0.6691
   39CHL1   H7A 2824   6.600   6.061   4.599  0.4360 -0.9951 -1.7879
   39CHL1   H7B 2825   6.417   6.088   4.588  0.0135 -0.2804 -1.9253
   39CHL1    C8 2826   6.485   5.909   4.692 -0.2251  0.0804  0.2108
   39CHL1    H8 2827   6.582   5.855   4.686  0.2296  1.0057 -0.9956
   39CHL1   C14 2828   6.455   5.963   4.829 -0.0090  1.2395  0.6263
   39CHL1   H14 2829   6.355   6.011   4.823 -0.3122  0.6640  0.9917
   39CHL1   C15 2830   6.549   6.070   4.874 -0.3262 -0.1962 -0.3000
   39CHL1  H15A 2831   6.652   6.044   4.841  0.2513  1.4715  0.1052
   39CHL1  H15B 2832   6.516   6.163   4.823  0.2116 -0.3932 -1.0274
   39CHL1   C16 2833   6.536   6.066   5.029 -0.4980  0.5343 -0.0124
   39CHL1  H16A 2834   6.632   6.038   5.078 -0.4613 -0.5883 -0.7074
   39CHL1  H16B 2835   6.497   6.166   5.057 -0.9510  0.7812 -1.4533
   39CHL1   C17 2836   6.431   5.948   5.066 -0.3077 -0.4213  0.5458
   39CHL1   H17 2837   6.329   5.990   5.057 -0.9687 -1.8009  1.2903
   39CHL1   C13 2838   6.438   5.855   4.938 -0.1344 -0.6080 -0.0436
   39CHL1   C18 2839   6.574   5.779   4.949  0.6152 -0.5145 -0.1822
   39CHL1  H18A 2840   6.564   5.707   5.033 -0.0732 -0.2989 -0.0776
   39CHL1  H18B 2841   6.597   5.715   4.861  3.2740 -1.0775  0.8145
   39CHL1  H18C 2842   6.666   5.840   4.966  0.7243 -0.8647  0.4979
   39CHL1   C12 2843   6.316   5.778   4.900  0.2820  0.7556  0.3077
   39CHL1  H12A 2844   6.290   5.688   4.960  2.8879 -0.7564 -0.6918
   39CHL1  H12B 2845   6.223   5.839   4.886  0.8879  1.4496 -0.8502
   39CHL1   C11 2846   6.341   5.707   4.757 -0.1237 -0.2521  0.1946
   39CHL1  H11A 2847   6.428   5.642   4.778 -0.7232 -0.7170  1.3421
   39CHL1  H11B 2848   6.257   5.642   4.723  0.5918 -1.6697  1.0614
   39CHL1    C9 2849   6.372   5.812   4.647  0.3599  0.8752  0.4393
   39CHL1    H9 2850   6.286   5.880   4.630 -0.4752 -0.2475  0.1196
   39CHL1   C10 2851   6.393   5.742   4.503 -0.6713 -0.1525 -0.0019
   39CHL1   C19 2852   6.501   5.633   4.516 -0.2586 -0.4761  0.2659
   39CHL1  H19A 2853   6.523   5.602   4.411 -0.3381  1.5731 -0.3948
   39CHL1  H19B 2854   6.591   5.679   4.561  0.3982 -0.3503 -1.1267
   39CHL1  H19C 2855   6.461   5.547   4.574 -1.5354  1.1030  1.8570
   39CHL1    C1 2856   6.254   5.682   4.459  0.3314 -0.4985 -0.2481
   39CHL1   H1A 2857   6.232   5.605   4.536  1.8346 -1.0172 -0.3160
   39CHL1   H1B 2858   6.181   5.764   4.474  1.9141  0.6954  1.2894
   39CHL1    C2 2859   6.257   5.621   4.322  0.2120  0.0404  0.4799
   39CHL1   H2A 2860   6.154   5.590   4.293 -0.1876  0.2058  1.6870
   39CHL1   H2B 2861   6.330   5.537   4.325  1.4091  1.0192 -0.1650
   39CHL1   C20 2862   6.454   5.878   5.197  0.8492 -0.0860 -0.0009
   39CHL1   H20 2863   6.556   5.833   5.198  0.9683  0.1744 -0.3704
   39CHL1   C21 2864   6.343   5.772   5.221  0.1431  0.0811  0.0807
   39CHL1  H21A 2865   6.247   5.828   5.225 -0.2944 -0.4045 -2.2573
   39CHL1  H21B 2866   6.361   5.717   5.317  1.0871  1.7897  0.9300
   39CHL1  H21C 2867   6.343   5.698   5.138 -1.5502  0.4504 -0.2902
   39CHL1   C22 2868   6.445   5.987   5.312  0.0601  0.7595 -0.3684
   39CHL1  H22A 2869   6.528   6.060   5.302 -0.2329  1.0669 -0.5732
   39CHL1  H22B 2870   6.344   6.034   5.306  0.4578  1.6170 -0.4635
   39CHL1   C23 2871   6.447   5.922   5.452  0.2148  0.0204  0.1691
   39CHL1  H23A 2872   6.366   5.845   5.457  0.2982 -0.0074  2.4036
   39CHL1  H23B 2873   6.547   5.873   5.464  0.2406  0.3920  1.6596
   39CHL1   C24 2874   6.412   6.027   5.569 -0.7473 -0.0094  0.1984
   39CHL1  H24A 2875   6.487   6.109   5.563 -1.1204  0.3116 -0.2077
   39CHL1  H24B 2876   6.319   6.080   5.538  0.1582  1.7882  0.3993
   39CHL1   C25 2877   6.404   5.966   5.713 -0.5315 -0.1203  0.7023
   39CHL1   H25 2878   6.490   5.899   5.735 -0.3615  0.1620  0.9025
   39CHL1   C26 2879   6.414   6.090   5.808  0.4278  0.4932 -0.1399
   39CHL1  H26A 2880   6.417   6.052   5.912  1.4534  1.8383  0.3417
   39CHL1  H26B 2881   6.500   6.159   5.796  0.1435  0.7256 -0.9227
   39CHL1  H26C 2882   6.330   6.159   5.785 -0.2208  0.1732  1.1452
   39CHL1   C27 2883   6.272   5.885   5.730 -0.4249 -0.4331 -0.3430
   39CHL1  H27A 2884   6.264   5.849   5.834  1.0084 -0.7049 -0.2996
   39CHL1  H27B 2885   6.185   5.942   5.692  0.2635  1.0720  0.2505
   39CHL1  H27C 2886   6.267   5.795   5.664 -2.8582 -0.8679  0.3496
   40CHL1    C3 2887   0.535   1.795   3.876 -0.0373  0.2912 -0.1399
   40CHL1    H3 2888   0.619   1.728   3.903 -0.4352  0.1010  0.6821
   40CHL1    O3 2889   0.543   1.834   3.741  0.7866 -0.0352  0.0571
   40CHL1   H3' 2890   0.615   1.897   3.735  0.7484  0.2351  1.8738
   40CHL1    C4 2891   0.405   1.715   3.906 -0.4964  0.2751 -0.1297
   40CHL1   H4A 2892   0.321   1.776   3.865  0.1850  0.7585 -0.8246
   40CHL1   H4B 2893   0.411   1.619   3.852  2.7733  0.3587 -0.0919
   40CHL1    C5 2894   0.394   1.689   4.056 -0.6150 -0.5723  0.3213
   40CHL1    C6 2895   0.381   1.566   4.110  0.0079 -0.6903 -0.2077
   40CHL1    H6 2896   0.358   1.478   4.047 -1.3607 -0.0701 -0.6130
   40CHL1    C7 2897   0.353   1.536   4.253  0.4492 -0.2414  0.7031
   40CHL1   H7A 2898   0.265   1.468   4.252  0.0210  0.2225 -2.3789
   40CHL1   H7B 2899   0.441   1.491   4.302  0.8343 -0.6174 -0.3108
   40CHL1    C8 2900   0.313   1.661   4.334 -0.1692 -0.0055  0.2714
   40CHL1    H8 2901   0.209   1.690   4.311  0.7863  1.3015 -2.8578
   40CHL1   C14 2902   0.313   1.624   4.482 -0.0534  0.0695  0.2555
   40CHL1   H14 2903   0.420   1.600   4.502 -0.2113 -1.2444 -0.3735
   40CHL1   C15 2904   0.234   1.508   4.531 -0.0289  0.2921  0.2596
   40CHL1  H15A 2905   0.127   1.505   4.500  0.4484  0.9073 -1.5474
   40CHL1  H15B 2906   0.290   1.418   4.500  3.7032  1.7632  2.1240
   40CHL1   C16 2907   0.243   1.522   4.686  0.3475  0.1663  0.2383
   40CHL1  H16A 2908   0.143   1.493   4.724 -0.2245  1.4618 -0.2251
   40CHL1  H16B 2909   0.317   1.443   4.714  0.6855  0.7183  0.9464
   40CHL1   C17 2910   0.295   1.664   4.709  0.1971  0.0015  0.5048
   40CHL1   H17 2911   0.404   1.654   4.725  0.4927  2.5820  0.6056
   40CHL1   C13 2912   0.277   1.737   4.573 -0.4617 -0.2911 -0.1296
   40CHL1   C18 2913   0.131   1.776   4.562  0.5428 -0.0592  0.1038
   40CHL1  H18A 2914   0.057   1.695   4.580 -1.0027  1.0226 -1.1330
   40CHL1  H18B 2915   0.106   1.852   4.639  0.6953  0.1537 -0.0541
   40CHL1  H18C 2916   0.103   1.813   4.461 -1.5089 -0.5208  0.4589
   40CHL1   C12 2917   0.359   1.863   4.539 -0.0676  0.2961 -0.6510
   40CHL1  H12A 2918   0.312   1.947   4.595 -1.4274 -0.2769 -0.9112
   40CHL1  H12B 2919   0.465   1.851   4.573 -0.4933 -0.0671  0.6135
   40CHL1   C11 2920   0.366   1.896   4.388  0.1696 -0.5906 -0.1145
   40CHL1  H11A 2921   0.262   1.932   4.368  0.7187  0.6123 -0.9080
   40CHL1  H11B 2922   0.442   1.974   4.369  1.4959 -1.9977 -0.8099
   40CHL1    C9 2923   0.402   1.779   4.298 -0.3417  0.4422 -0.4315
   40CHL1    H9 2924   0.506   1.744   4.315  1.3276  3.8544 -2.5646
   40CHL1   C10 2925   0.397   1.816   4.147  0.2568  0.0713  0.3077
   40CHL1   C19 2926   0.257   1.885   4.119 -0.1405 -0.0021  0.1346
   40CHL1  H19A 2927   0.238   1.907   4.012 -0.0920 -1.6941 -0.2556
   40CHL1  H19B 2928   0.168   1.826   4.151 -1.5678  2.2305  0.5149
   40CHL1  H19C 2929   0.259   1.987   4.164 -0.2310  1.1813 -2.3955
   40CHL1    C1 2930   0.518   1.920   4.107 -0.3193  0.6813  0.5236
   40CHL1   H1A 2931   0.491   2.012   4.163 -0.1587 -0.7368  3.0858
   40CHL1   H1B 2932   0.605   1.879   4.163  0.3999 -0.6557 -1.4750
   40CHL1    C2 2933   0.537   1.928   3.956 -0.0984 -0.4837 -0.5809
   40CHL1   H2A 2934   0.641   1.964   3.935  0.3962 -1.4657  0.1282
   40CHL1   H2B 2935   0.468   2.006   3.916 -0.2195  0.1798  0.8749
   40CHL1   C20 2936   0.251   1.730   4.843 -0.1785  0.4791 -0.3945
   40CHL1   H20 2937   0.140   1.729   4.844 -0.1784  0.5563  0.0856
   40CHL1   C21 2938   0.307   1.867   4.865  0.5991 -0.2229  1.2902
   40CHL1  H21A 2939   0.286   1.907   4.966 -4.0511  1.1191  0.0237
   40CHL1  H21B 2940   0.262   1.941   4.795  0.1986 -0.6930  1.0473
   40CHL1  H21C 2941   0.417   1.868   4.845  0.4036 -0.1573  0.0973
   40CHL1   C22 2942   0.277   1.641   4.965  0.3725 -0.2733 -0.5076
   40CHL1  H22A 2943   0.219   1.690   5.046 -1.7145  0.3425 -2.2657
   40CHL1  H22B 2944   0.226   1.543   4.948  0.3309 -0.5187  0.9007
   40CHL1   C23 2945   0.418   1.624   5.006  0.5499  0.8078 -0.4212
   40CHL1  H23A 2946   0.469   1.547   4.944  0.8609 -0.0744  0.8994
   40CHL1  H23B 2947   0.473   1.720   4.995  0.8368  0.5484 -1.3718
   40CHL1   C24 2948   0.423   1.580   5.158  0.0360 -0.4497  0.3922
   40CHL1  H24A 2949   0.373   1.658   5.219  0.4742 -0.6246  0.9871
   40CHL1  H24B 2950   0.379   1.482   5.182 -2.5804  0.3398 -0.8379
   40CHL1   C25 2951   0.566   1.589   5.221 -0.1817 -0.2457  0.3300
   40CHL1   H25 2952   0.615   1.688   5.208  0.2901 -0.6300 -1.0069
   40CHL1   C26 2953   0.566   1.559   5.373 -0.4911  0.1263  0.1253
   40CHL1  H26A 2954   0.664   1.526   5.415 -0.6690  1.1300  1.4013
   40CHL1  H26B 2955   0.550   1.651   5.433 -1.5214  0.9601 -1.3756
   40CHL1  H26C 2956   0.486   1.486   5.396  1.2320 -1.7953  0.2911
   40CHL1   C27 2957   0.668   1.501   5.147 -0.0190  0.1627 -0.3970
   40CHL1  H27A 2958   0.774   1.513   5.176 -0.0310  0.4745 -0.4792
   40CHL1  H27B 2959   0.636   1.395   5.156 -0.9304  0.2535 -2.0635
   40CHL1  H27C 2960   0.664   1.514   5.037  4.0380 -3.1577 -1.1550
   41CHL1    C3 2961   6.546   4.930   4.252 -0.1843  0.2043 -0.6829
   41CHL1    H3 2962   6.639   4.903   4.196  0.3648 -1.2408  0.8323
   41CHL1    O3 2963   6.439   4.928   4.159 -0.1610  0.2830  0.2592
   41CHL1   H3' 2964   6.443   4.845   4.110 -0.8043  0.6337 -0.4066
   41CHL1    C4 2965   6.515   4.818   4.355  0.4280  0.1422  0.5911
   41CHL1   H4A 2966   6.416   4.841   4.400  0.7217 -0.5424  1.6352
   41CHL1   H4B 2967   6.497   4.724   4.299 -2.1362  1.5936 -1.2085
   41CHL1    C5 2968   6.619   4.801   4.465 -0.4085  0.3283  0.5944
   41CHL1    C6 2969   6.690   4.688   4.471  0.0020 -0.3245  0.2587
   41CHL1    H6 2970   6.667   4.607   4.400 -1.2438  0.1425  0.1025
   41CHL1    C7 2971   6.797   4.677   4.577 -0.1574  0.3131  0.7301
   41CHL1   H7A 2972   6.775   4.580   4.626 -4.3373  0.2375 -0.8373
   41CHL1   H7B 2973   6.896   4.673   4.528  0.0249 -0.1206  1.1298
   41CHL1    C8 2974   6.796   4.781   4.688 -0.8902 -0.5462  0.9321
   41CHL1    H8 2975   6.708   4.766   4.755 -1.4052  1.8395  0.8817
   41CHL1   C14 2976   6.924   4.780   4.776 -0.0333 -0.1436  0.0107
   41CHL1   H14 2977   7.006   4.809   4.707 -0.4800  0.7452 -0.1718
   41CHL1   C15 2978   6.961   4.644   4.835  0.2090  0.4627 -0.2377
   41CHL1  H15A 2979   6.867   4.614   4.887 -0.1234  0.0722 -1.0481
   41CHL1  H15B 2980   7.006   4.567   4.769 -0.1085  0.4002 -0.3845
   41CHL1   C16 2981   7.060   4.689   4.949 -0.1048  0.3018 -0.1051
   41CHL1  H16A 2982   7.010   4.638   5.034 -1.8420  2.9947  0.6197
   41CHL1  H16B 2983   7.161   4.653   4.919 -0.2962  1.1812 -1.9706
   41CHL1   C17 2984   7.065   4.845   4.957  0.2042  0.5641  0.0931
   41CHL1   H17 2985   7.134   4.870   4.874  0.3347 -0.4244 -0.1135
   41CHL1   C13 2986   6.929   4.886   4.888 -0.1985 -0.7665 -0.0790
   41CHL1   C18 2987   6.809   4.878   4.990  0.0743  0.0463  0.9627
   41CHL1  H18A 2988   6.830   4.787   5.051 -1.4644 -1.9178 -1.2080
   41CHL1  H18B 2989   6.801   4.967   5.055 -1.9975 -0.0228  0.8926
   41CHL1  H18C 2990   6.716   4.861   4.930  0.2222 -1.3248  1.0889
   41CHL1   C12 2991   6.938   5.026   4.816 -0.0178  0.3336 -0.2987
   41CHL1  H12A 2992   6.934   5.103   4.896  3.3821  1.4948 -1.0794
   41CHL1  H12B 2993   7.021   5.035   4.743  0.7976  2.6165  0.8152
   41CHL1   C11 2994   6.812   5.045   4.727 -0.1597  0.7685  0.2702
   41CHL1  H11A 2995   6.723   5.059   4.792 -0.0564  1.7887  0.2105
   41CHL1  H11B 2996   6.813   5.136   4.663  0.8176  2.0127  1.9552
   41CHL1    C9 2997   6.788   4.922   4.629 -0.7538  0.3062 -0.3105
   41CHL1    H9 2998   6.875   4.934   4.562 -1.4046  1.1495 -1.0142
   41CHL1   C10 2999   6.658   4.938   4.536  0.3024  0.4321  0.0611
   41CHL1   C19 3000   6.543   4.960   4.630 -0.1241 -0.6443 -0.1787
   41CHL1  H19A 3001   6.548   5.062   4.672 -1.2598  0.5591 -2.7317
   41CHL1  H19B 3002   6.446   4.961   4.575 -0.6172 -1.1322  0.6506
   41CHL1  H19C 3003   6.525   4.883   4.708  0.3772  1.7773  2.4700
   41CHL1    C1 3004   6.675   5.053   4.430  0.5524 -0.2709  0.9586
   41CHL1   H1A 3005   6.698   5.154   4.469 -1.3243  0.5640  0.0180
   41CHL1   H1B 3006   6.756   5.017   4.363  1.9062 -1.1213  2.9557
   41CHL1    C2 3007   6.561   5.061   4.334 -0.2691  0.2795  0.5718
   41CHL1   H2A 3008   6.595   5.140   4.263  2.1811 -1.9515 -0.9269
   41CHL1   H2B 3009   6.462   5.082   4.380 -1.9352 -0.9544 -2.1431
   41CHL1   C20 3010   7.096   4.901   5.095 -0.0963  0.5385  0.0283
   41CHL1   H20 3011   7.002   4.882   5.151  0.0695 -0.8267 -0.1341
   41CHL1   C21 3012   7.129   5.055   5.101  0.0395  0.0556  0.9714
   41CHL1  H21A 3013   7.090   5.079   5.202  0.4355  2.4863  0.6228
   41CHL1  H21B 3014   7.082   5.116   5.022 -2.0085  0.6450  2.5620
   41CHL1  H21C 3015   7.240   5.064   5.097  0.1242 -0.4239  1.8843
   41CHL1   C22 3016   7.201   4.816   5.167 -0.1664  0.5642 -0.3609
   41CHL1  H22A 3017   7.178   4.707   5.164  0.1033  0.5176 -2.2926
   41CHL1  H22B 3018   7.295   4.821   5.107  1.8970 -0.3084  2.5726
   41CHL1   C23 3019   7.248   4.865   5.310  0.1090 -0.2161  0.3801
   41CHL1  H23A 3020   7.336   4.799   5.328 -0.8092 -1.5640  0.1444
   41CHL1  H23B 3021   7.282   4.970   5.318 -1.8605  0.3575  1.8471
   41CHL1   C24 3022   7.141   4.831   5.411 -0.5420  0.2069 -0.5170
   41CHL1  H24A 3023   7.035   4.848   5.382 -0.5781  1.6446  0.3688
   41CHL1  H24B 3024   7.155   4.724   5.439  2.5728  0.6380 -0.0891
   41CHL1   C25 3025   7.153   4.905   5.546  0.0029  0.0188  0.2600
   41CHL1   H25 3026   7.099   4.845   5.622 -1.5495 -1.5028 -1.9161
   41CHL1   C26 3027   7.300   4.915   5.605 -0.9417  0.3650  0.4259
   41CHL1  H26A 3028   7.382   4.939   5.534 -0.3356 -3.8673 -0.5644
   41CHL1  H26B 3029   7.308   4.984   5.692 -1.0003 -0.7812  1.3591
   41CHL1  H26C 3030   7.332   4.818   5.647  0.6309  0.5823 -0.1740
   41CHL1   C27 3031   7.089   5.041   5.538  0.5677 -0.8371  1.3635
   41CHL1  H27A 3032   6.988   5.019   5.499  1.0342  0.6689 -0.9084
   41CHL1  H27B 3033   7.083   5.105   5.629 -0.5246  0.1423  0.6391
   41CHL1  H27C 3034   7.139   5.108   5.465  1.7630 -4.6635 -1.6064
   42CHL1    C3 3035   3.452   4.677   4.432 -0.2696  0.1591 -0.0856
   42CHL1    H3 3036   3.562   4.674   4.424 -0.3545  1.5341 -2.4092
   42CHL1    O3 3037   3.396   4.704   4.307  0.3706  0.1621 -0.0927
   42CHL1   H3' 3038   3.301   4.704   4.321  0.5764 -0.7957  1.6714
   42CHL1    C4 3039   3.390   4.540   4.472 -0.0237  0.1404  0.5377
   42CHL1   H4A 3040   3.280   4.542   4.460  0.0202  0.0312  0.0846
   42CHL1   H4B 3041   3.438   4.462   4.409  1.7433  0.0200  1.9441
   42CHL1    C5 3042   3.427   4.521   4.625 -0.3629 -0.1383  0.0173
   42CHL1    C6 3043   3.475   4.398   4.658  0.5019 -0.8397  0.2335
   42CHL1    H6 3044   3.488   4.318   4.584  0.8222 -2.7188  2.2511
   42CHL1    C7 3045   3.507   4.364   4.800  0.2873  0.1415 -0.5346
   42CHL1   H7A 3046   3.483   4.256   4.808 -1.0197  0.4141 -0.5796
   42CHL1   H7B 3047   3.615   4.378   4.822  0.3790 -0.3085 -0.6930
   42CHL1    C8 3048   3.439   4.455   4.904  0.3385  0.7467 -0.5124
   42CHL1    H8 3049   3.333   4.422   4.900  0.8791 -1.5282  1.5387
   42CHL1   C14 3050   3.494   4.428   5.045 -0.3795  0.8177 -0.4359
   42CHL1   H14 3051   3.599   4.466   5.048 -0.2096  0.6390 -2.6497
   42CHL1   C15 3052   3.508   4.281   5.101  0.7575 -0.2573 -0.2388
   42CHL1  H15A 3053   3.431   4.212   5.061 -0.3724  0.2802  0.9270
   42CHL1  H15B 3054   3.599   4.236   5.057 -0.2798 -2.1283 -0.5573
   42CHL1   C16 3055   3.498   4.277   5.256 -0.2572 -0.2518  0.3092
   42CHL1  H16A 3056   3.406   4.220   5.278  0.3203 -2.4208 -2.3912
   42CHL1  H16B 3057   3.589   4.239   5.309  0.6380  1.9242  0.4434
   42CHL1   C17 3058   3.466   4.432   5.290 -0.4732  0.2010  0.3556
   42CHL1   H17 3059   3.560   4.484   5.316 -0.9591  0.8877  0.7753
   42CHL1   C13 3060   3.420   4.500   5.154  0.7238 -0.3197 -0.1109
   42CHL1   C18 3061   3.264   4.467   5.147  0.4896  0.2256  0.4345
   42CHL1  H18A 3062   3.242   4.362   5.176  1.3156 -0.9828 -2.8836
   42CHL1  H18B 3063   3.202   4.538   5.206 -1.4752 -0.6744 -0.4770
   42CHL1  H18C 3064   3.222   4.474   5.045  1.7209 -1.5737 -0.2405
   42CHL1   C12 3065   3.441   4.651   5.129  0.3250 -0.1902 -0.6988
   42CHL1  H12A 3066   3.370   4.699   5.200  0.9763 -1.9845  1.2792
   42CHL1  H12B 3067   3.545   4.682   5.152  0.5793  1.1902 -3.3195
   42CHL1   C11 3068   3.404   4.696   4.987  0.1197 -0.1780  0.8588
   42CHL1  H11A 3069   3.293   4.708   4.982  0.1793  0.2738  0.5982
   42CHL1  H11B 3070   3.435   4.801   4.970 -0.5378 -0.2437 -0.9361
   42CHL1    C9 3071   3.454   4.602   4.870  0.0808  0.0426  1.1788
   42CHL1    H9 3072   3.565   4.604   4.865  0.0699 -0.0978  0.8362
   42CHL1   C10 3073   3.395   4.628   4.733 -0.0152 -0.0838 -0.7576
   42CHL1   C19 3074   3.243   4.628   4.735 -0.5547  0.5390 -0.7595
   42CHL1  H19A 3075   3.188   4.533   4.754 -1.1736  1.0794  0.2227
   42CHL1  H19B 3076   3.199   4.702   4.805  1.7432 -0.2404  1.6678
   42CHL1  H19C 3077   3.194   4.659   4.640 -3.0711  0.8330  0.5447
   42CHL1    C1 3078   3.455   4.763   4.671 -0.2318 -0.5670  0.4296
   42CHL1   H1A 3079   3.434   4.856   4.729 -0.2625  0.0441 -0.5332
   42CHL1   H1B 3080   3.566   4.758   4.671 -0.0776  1.3190 -1.2774
   42CHL1    C2 3081   3.407   4.789   4.527  0.5265  0.7072  0.3387
   42CHL1   H2A 3082   3.457   4.879   4.486  0.5301  0.7144  0.3587
   42CHL1   H2B 3083   3.296   4.797   4.527  0.5374  1.1373 -1.3463
   42CHL1   C20 3084   3.386   4.455   5.415  0.2969 -0.8960 -0.9114
   42CHL1   H20 3085   3.277   4.431   5.411  0.1733 -1.8813  3.3219
   42CHL1   C21 3086   3.395   4.603   5.464  0.0784  1.0659  0.3420
   42CHL1  H21A 3087   3.493   4.651   5.441 -0.0782  0.9639 -0.5712
   42CHL1  H21B 3088   3.390   4.607   5.575 -1.5574 -3.7676  0.6874
   42CHL1  H21C 3089   3.320   4.666   5.412  0.1629  0.8789 -0.0102
   42CHL1   C22 3090   3.437   4.365   5.529 -0.0724  0.2975 -0.1405
   42CHL1  H22A 3091   3.470   4.267   5.489  1.2246  1.3413 -1.7611
   42CHL1  H22B 3092   3.518   4.426   5.574 -3.4424  3.6195  1.9497
   42CHL1   C23 3093   3.326   4.351   5.639  0.0322 -0.3043  0.4704
   42CHL1  H23A 3094   3.304   4.449   5.687  0.2643  0.4497 -0.8800
   42CHL1  H23B 3095   3.232   4.307   5.600  2.1462 -3.8189 -1.1612
   42CHL1   C24 3096   3.371   4.247   5.739  0.0458  0.8239 -0.1533
   42CHL1  H24A 3097   3.384   4.144   5.701  0.8551  0.8409  0.0533
   42CHL1  H24B 3098   3.471   4.270   5.782  0.6730 -0.2406 -0.9815
   42CHL1   C25 3099   3.279   4.246   5.861  0.5328  0.6644 -0.6695
   42CHL1   H25 3100   3.283   4.349   5.903 -0.7241  1.5960 -2.7206
   42CHL1   C26 3101   3.132   4.222   5.834 -0.6301 -0.2119 -0.6619
   42CHL1  H26A 3102   3.115   4.132   5.771 -1.0397 -0.8310  0.3031
   42CHL1  H26B 3103   3.089   4.194   5.933 -1.2427  0.2550 -0.7937
   42CHL1  H26C 3104   3.073   4.309   5.799 -2.0861 -0.0844  1.8953
   42CHL1   C27 3105   3.312   4.151   5.982 -0.5860 -0.2007  0.0628
   42CHL1  H27A 3106   3.249   4.169   6.072 -0.4718  1.2157 -0.1124
   42CHL1  H27B 3107   3.315   4.042   5.960  0.7470  0.0869 -1.3499
   42CHL1  H27C 3108   3.418   4.171   6.010 -0.2601 -1.1162 -0.4685
   43CHL1    C3 3109   3.882   5.174   4.267  0.5396 -0.1745 -0.0726
   43CHL1    H3 3110   3.809   5.254   4.293 -0.0973 -1.0088  0.8121
   43CHL1    O3 3111   3.866   5.151   4.129 -0.2108  0.0320  0.0796
   43CHL1   H3' 3112   3.909   5.070   4.102  0.8983 -0.2053  2.3370
   43CHL1    C4 3113   4.030   5.218   4.281 -0.0490  0.4383 -0.0849
   43CHL1   H4A 3114   4.097   5.156   4.218 -1.1492 -1.5888  0.6800
   43CHL1   H4B 3115   4.018   5.323   4.245 -1.0993  0.5669  0.5948
   43CHL1    C5 3116   4.081   5.217   4.422  0.4879 -0.4511 -0.1627
   43CHL1    C6 3117   4.147   5.324   4.473 -0.6091  0.1532 -0.4430
   43CHL1    H6 3118   4.170   5.407   4.405  2.7307 -0.6302 -0.4396
   43CHL1    C7 3119   4.204   5.334   4.610  0.2619  0.4905 -0.5430
   43CHL1   H7A 3120   4.309   5.372   4.611  0.2335  0.5692  0.5057
   43CHL1   H7B 3121   4.145   5.402   4.676  3.5157  2.5823  0.4794
   43CHL1    C8 3122   4.210   5.200   4.687  0.3979  0.7286  0.2257
   43CHL1    H8 3123   4.301   5.147   4.653  0.4664  0.5247  0.7080
   43CHL1   C14 3124   4.224   5.224   4.835 -0.3862  0.0008 -0.2723
   43CHL1   H14 3125   4.125   5.270   4.854 -0.4134  0.5237 -1.6034
   43CHL1   C15 3126   4.327   5.330   4.888  0.1827  0.5261 -0.2440
   43CHL1  H15A 3127   4.420   5.326   4.827  0.6396 -0.8267  0.4996
   43CHL1  H15B 3128   4.296   5.436   4.879 -0.4905  0.3749  0.2284
   43CHL1   C16 3129   4.363   5.277   5.028  0.0021  0.1594 -0.3303
   43CHL1  H16A 3130   4.466   5.237   5.016 -0.6369 -1.9967  0.8479
   43CHL1  H16B 3131   4.389   5.363   5.094  1.3705  1.0790 -1.9955
   43CHL1   C17 3132   4.265   5.161   5.060  0.3629 -0.0594  0.1415
   43CHL1   H17 3133   4.169   5.209   5.088  1.7230  2.6226  0.5326
   43CHL1   C13 3134   4.232   5.097   4.917 -0.5990 -0.0081 -0.0760
   43CHL1   C18 3135   4.349   5.019   4.874 -0.0807 -0.3670  0.3723
   43CHL1  H18A 3136   4.318   4.951   4.792  0.7005 -3.6246  2.5456
   43CHL1  H18B 3137   4.426   5.088   4.833  1.0370 -0.0117  2.8788
   43CHL1  H18C 3138   4.398   4.960   4.955  0.0120  0.9151  1.2746
   43CHL1   C12 3139   4.100   5.022   4.893 -0.0052  0.4614 -0.0634
   43CHL1  H12A 3140   4.090   4.932   4.957 -1.4586  0.8789  0.3382
   43CHL1  H12B 3141   4.011   5.086   4.914 -2.6701 -2.6271 -1.1332
   43CHL1   C11 3142   4.065   4.993   4.751 -0.2263  0.7488  1.1551
   43CHL1  H11A 3143   4.141   4.920   4.714 -0.4285  0.7204  0.7922
   43CHL1  H11B 3144   3.963   4.951   4.744 -0.5095  1.5067  0.5867
   43CHL1    C9 3145   4.078   5.114   4.661  0.0646 -0.6535 -0.1496
   43CHL1    H9 3146   3.999   5.181   4.700  0.1168 -1.2421  1.0178
   43CHL1   C10 3147   4.058   5.090   4.509 -0.5430 -1.0286  0.1795
   43CHL1   C19 3148   4.146   4.974   4.448  0.6378 -0.5621 -0.1835
   43CHL1  H19A 3149   4.112   4.883   4.502 -3.0346  0.2547 -0.8639
   43CHL1  H19B 3150   4.141   4.958   4.338  2.3121 -0.9332 -0.2372
   43CHL1  H19C 3151   4.250   4.990   4.483  1.3236  0.5116 -2.5407
   43CHL1    C1 3152   3.906   5.056   4.491 -0.0618  0.4507  0.0797
   43CHL1   H1A 3153   3.894   4.955   4.538  1.0720 -0.9716 -2.4741
   43CHL1   H1B 3154   3.851   5.137   4.543  0.6581  0.9686  0.0497
   43CHL1    C2 3155   3.856   5.043   4.349 -0.6052  0.3471 -0.2311
   43CHL1   H2A 3156   3.749   5.014   4.343 -1.1147  2.0406 -0.0594
   43CHL1   H2B 3157   3.912   4.961   4.300 -1.1338 -1.0768  1.4629
   43CHL1   C20 3158   4.305   5.079   5.182  0.6048  1.4693  0.7549
   43CHL1   H20 3159   4.396   5.025   5.151  0.9681  2.5296 -0.0783
   43CHL1   C21 3160   4.195   4.975   5.214  0.1170  0.0145 -0.9793
   43CHL1  H21A 3161   4.227   4.918   5.303  1.5209  0.5658 -1.1046
   43CHL1  H21B 3162   4.187   4.898   5.135 -1.4399 -1.5198  0.5864
   43CHL1  H21C 3163   4.093   5.021   5.219  0.5204  0.8699 -0.3611
   43CHL1   C22 3164   4.345   5.166   5.302 -1.3318 -0.0511  0.1437
   43CHL1  H22A 3165   4.431   5.232   5.276 -0.2948 -1.0978  0.8659
   43CHL1  H22B 3166   4.260   5.223   5.346 -1.4632  0.0007 -0.1721
   43CHL1   C23 3167   4.396   5.092   5.430 -0.2024  0.1631  1.1161
   43CHL1  H23A 3168   4.317   5.035   5.483  1.0998 -0.1334  2.8266
   43CHL1  H23B 3169   4.465   5.013   5.395 -1.3715 -0.6582  0.5738
   43CHL1   C24 3170   4.465   5.190   5.521 -0.0541  0.6102 -0.4885
   43CHL1  H24A 3171   4.538   5.252   5.464  0.9254 -0.1666 -0.1246
   43CHL1  H24B 3172   4.381   5.252   5.559 -0.0357  1.0099 -1.0840
   43CHL1   C25 3173   4.536   5.134   5.650 -0.0985  0.6204  0.0158
   43CHL1   H25 3174   4.610   5.065   5.603 -1.5379 -0.7940 -0.2616
   43CHL1   C26 3175   4.589   5.247   5.732 -0.2592 -0.3776  0.0156
   43CHL1  H26A 3176   4.659   5.208   5.810  0.3158 -2.8543 -1.6138
   43CHL1  H26B 3177   4.652   5.322   5.680 -1.7930  0.6984 -0.3626
   43CHL1  H26C 3178   4.509   5.310   5.775 -1.2337 -1.0861 -0.7101
   43CHL1   C27 3179   4.437   5.056   5.737  0.3572 -0.1918  0.2503
   43CHL1  H27A 3180   4.400   4.966   5.682 -0.1920  1.0230 -1.4637
   43CHL1  H27B 3181   4.476   5.022   5.835 -0.4772 -1.7081  0.0837
   43CHL1  H27C 3182   4.361   5.131   5.762  0.6314  0.2378 -0.1799
   44CHL1    C3 3183   2.050   5.123   4.253  0.1570  0.0283  0.2791
   44CHL1    H3 3184   2.082   5.211   4.195 -0.2183  0.0071  0.0340
   44CHL1    O3 3185   1.976   5.037   4.163 -0.2130  0.0710  0.3193
   44CHL1   H3' 3186   1.924   4.979   4.219  0.9396 -0.5627  0.7651
   44CHL1    C4 3187   2.178   5.047   4.311  0.0899  0.4218 -0.1651
   44CHL1   H4A 3188   2.144   4.945   4.337 -3.2410  1.5258  0.2970
   44CHL1   H4B 3189   2.246   5.035   4.224 -0.3635  0.4759 -0.5283
   44CHL1    C5 3190   2.256   5.111   4.424  0.1749 -0.3144 -0.3536
   44CHL1    C6 3191   2.386   5.148   4.421 -0.4450 -0.0714 -1.0457
   44CHL1    H6 3192   2.454   5.127   4.336 -0.0677 -1.8570 -0.3452
   44CHL1    C7 3193   2.448   5.194   4.550 -0.5210 -0.2416  0.7837
   44CHL1   H7A 3194   2.549   5.147   4.553 -0.4433 -0.1345 -0.0304
   44CHL1   H7B 3195   2.472   5.302   4.544  1.4015 -0.7085 -2.0985
   44CHL1    C8 3196   2.364   5.168   4.686 -0.8577 -0.1323  0.0468
   44CHL1    H8 3197   2.379   5.061   4.713 -0.8373  0.2124  1.4823
   44CHL1   C14 3198   2.427   5.261   4.788 -0.1545  0.4219  0.1330
   44CHL1   H14 3199   2.416   5.366   4.754 -1.9057  0.0496 -0.6048
   44CHL1   C15 3200   2.578   5.264   4.811 -0.3537 -0.7197 -0.8336
   44CHL1  H15A 3201   2.618   5.160   4.814 -1.8337 -1.3233  1.5378
   44CHL1  H15B 3202   2.636   5.326   4.740 -0.2751  4.3814  3.1335
   44CHL1   C16 3203   2.590   5.314   4.953 -0.7068 -0.3163 -0.0798
   44CHL1  H16A 3204   2.637   5.237   5.019 -0.3598 -1.1448 -1.2415
   44CHL1  H16B 3205   2.668   5.392   4.959  0.2061 -0.9637 -2.3104
   44CHL1   C17 3206   2.455   5.354   5.006  0.0397 -0.7720  0.7131
   44CHL1   H17 3207   2.444   5.460   4.976 -1.7124 -1.4525 -1.2374
   44CHL1   C13 3208   2.360   5.266   4.924  0.2674  0.1665 -0.2091
   44CHL1   C18 3209   2.356   5.126   4.991 -0.0193  0.5473 -0.7797
   44CHL1  H18A 3210   2.463   5.103   5.010  0.3727 -0.0288 -3.3358
   44CHL1  H18B 3211   2.300   5.144   5.085 -0.5268  1.5493 -1.2647
   44CHL1  H18C 3212   2.314   5.050   4.921  0.4506  1.8756 -2.5816
   44CHL1   C12 3213   2.225   5.324   4.909 -0.3424 -0.1246  0.0930
   44CHL1  H12A 3214   2.170   5.310   5.005 -1.0911  0.6934 -0.1996
   44CHL1  H12B 3215   2.220   5.429   4.874  0.3572 -0.0217  0.2778
   44CHL1   C11 3216   2.148   5.234   4.801  0.2595  0.4635  0.8040
   44CHL1  H11A 3217   2.129   5.139   4.855 -1.2551  0.9371  1.1814
   44CHL1  H11B 3218   2.044   5.266   4.777  0.1929 -1.0337 -1.2016
   44CHL1    C9 3219   2.227   5.215   4.669  0.0124 -0.5351 -0.4141
   44CHL1    H9 3220   2.244   5.315   4.624  2.3639 -0.8299 -0.3016
   44CHL1   C10 3221   2.166   5.133   4.547  0.9900  0.3411 -0.1627
   44CHL1   C19 3222   2.120   4.999   4.604  0.0425  1.0458 -0.2102
   44CHL1  H19A 3223   2.064   5.004   4.700  0.6118  0.1809  0.1797
   44CHL1  H19B 3224   2.053   4.938   4.540 -0.9377  0.2901  1.4690
   44CHL1  H19C 3225   2.203   4.927   4.619  0.6691  1.5308 -1.2043
   44CHL1    C1 3226   2.045   5.214   4.486 -1.0681  0.0100 -0.0562
   44CHL1   H1A 3227   1.976   5.237   4.570  0.7836  0.8597  1.2884
   44CHL1   H1B 3228   2.083   5.315   4.460  0.4260 -0.4095  0.4196
   44CHL1    C2 3229   1.962   5.152   4.374  0.5065 -0.9116 -0.0188
   44CHL1   H2A 3230   1.878   5.216   4.339  0.2119 -2.3031 -2.0327
   44CHL1   H2B 3231   1.921   5.056   4.412  0.5539  0.0777  2.7691
   44CHL1   C20 3232   2.441   5.355   5.160  0.7003 -0.0168 -0.1902
   44CHL1   H20 3233   2.445   5.249   5.194  0.3843 -0.7629 -2.3062
   44CHL1   C21 3234   2.314   5.427   5.203 -0.2303  0.0350 -0.4429
   44CHL1  H21A 3235   2.297   5.521   5.147  1.8780 -0.8290 -2.7381
   44CHL1  H21B 3236   2.315   5.461   5.309 -2.0369 -0.7482 -0.1382
   44CHL1  H21C 3237   2.230   5.355   5.198  0.9245 -1.3884 -0.0295
   44CHL1   C22 3238   2.564   5.409   5.225  0.4258 -0.1779 -0.4072
   44CHL1  H22A 3239   2.658   5.365   5.184  1.0606  2.3226 -1.8566
   44CHL1  H22B 3240   2.582   5.517   5.204 -0.1648 -0.1696 -0.8961
   44CHL1   C23 3241   2.556   5.400   5.387  0.6258 -0.1101 -0.3066
   44CHL1  H23A 3242   2.479   5.470   5.424 -0.0445  0.3199 -2.3868
   44CHL1  H23B 3243   2.536   5.292   5.405  2.3278 -0.4775 -0.3994
   44CHL1   C24 3244   2.687   5.449   5.459  0.4331  0.1776 -0.2182
   44CHL1  H24A 3245   2.758   5.369   5.431  0.9813 -1.1467  4.2116
   44CHL1  H24B 3246   2.716   5.546   5.412  1.4492  0.6458  1.2962
   44CHL1   C25 3247   2.700   5.458   5.610  0.3065  0.3560 -0.1024
   44CHL1   H25 3248   2.786   5.522   5.640 -0.4813  1.3443  0.0944
   44CHL1   C26 3249   2.585   5.522   5.688  0.8266  0.4796 -0.3112
   44CHL1  H26A 3250   2.496   5.455   5.692  0.0955  1.4664  0.8766
   44CHL1  H26B 3251   2.612   5.553   5.791  1.7449 -0.8460 -0.1310
   44CHL1  H26C 3252   2.539   5.609   5.636 -2.0222 -1.0849 -0.6226
   44CHL1   C27 3253   2.729   5.326   5.677  0.0086  0.5624  0.7546
   44CHL1  H27A 3254   2.650   5.252   5.651 -2.5628  3.0904  0.7983
   44CHL1  H27B 3255   2.827   5.289   5.639 -1.4428 -0.9996 -1.7533
   44CHL1  H27C 3256   2.727   5.340   5.787  2.8082 -0.4967  1.0174
   45CHL1    C3 3257   2.462   6.547   4.225 -0.5603  1.0848 -0.1572
   45CHL1    H3 3258   2.546   6.497   4.278 -2.4508 -0.5965  1.3938
   45CHL1    O3 3259   2.494   6.538   4.088 -0.3154  0.4474  1.3400
   45CHL1   H3' 3260   2.579   6.581   4.083 -0.2096  0.2837 -3.9435
   45CHL1    C4 3261   2.335   6.465   4.266 -0.1299  0.0281 -0.9760
   45CHL1   H4A 3262   2.243   6.494   4.211 -0.3886 -1.9457 -1.6422
   45CHL1   H4B 3263   2.350   6.359   4.237  0.2795 -0.2894  0.3471
   45CHL1    C5 3264   2.317   6.479   4.419  0.7280  0.0058 -0.0529
   45CHL1    C6 3265   2.318   6.377   4.507 -0.3427 -0.3289 -0.0518
   45CHL1    H6 3266   2.334   6.276   4.468  0.6288 -0.1440 -0.1464
   45CHL1    C7 3267   2.276   6.387   4.651  0.1682 -0.1761 -0.1036
   45CHL1   H7A 3268   2.210   6.298   4.660  1.0090 -1.2356 -3.1024
   45CHL1   H7B 3269   2.366   6.399   4.716 -0.4852  3.4210  0.3707
   45CHL1    C8 3270   2.203   6.522   4.679  0.2214 -0.0685 -0.3299
   45CHL1    H8 3271   2.102   6.521   4.634 -0.9862  0.0238  2.1966
   45CHL1   C14 3272   2.208   6.547   4.830  0.5382  0.2981 -0.7096
   45CHL1   H14 3273   2.317   6.560   4.848  0.0302  1.0069  2.3537
   45CHL1   C15 3274   2.171   6.427   4.936 -0.1140 -0.2532  0.0689
   45CHL1  H15A 3275   2.076   6.384   4.897 -0.3909  0.3570  0.0517
   45CHL1  H15B 3276   2.246   6.346   4.944  1.7259  1.3030 -0.4462
   45CHL1   C16 3277   2.140   6.505   5.066 -0.3253  0.4218 -0.2645
   45CHL1  H16A 3278   2.036   6.485   5.100  0.0045  0.6915  0.9266
   45CHL1  H16B 3279   2.211   6.477   5.147 -0.4580  2.3736  0.5750
   45CHL1   C17 3280   2.165   6.651   5.037  0.3143 -0.0977 -1.1381
   45CHL1   H17 3281   2.269   6.682   5.061  0.3821 -0.1934 -1.3086
   45CHL1   C13 3282   2.144   6.670   4.888  0.2257 -0.0460 -0.0176
   45CHL1   C18 3283   1.991   6.678   4.853 -0.2806 -0.4606 -0.7764
   45CHL1  H18A 3284   1.988   6.671   4.742 -0.7587  2.2704 -1.0069
   45CHL1  H18B 3285   1.941   6.587   4.892  1.8227 -0.4584  2.3160
   45CHL1  H18C 3286   1.950   6.777   4.881  3.1768  1.2813 -1.3727
   45CHL1   C12 3287   2.216   6.785   4.826 -0.7400  0.5506  0.7938
   45CHL1  H12A 3288   2.165   6.884   4.827  0.8766  1.5798 -2.6403
   45CHL1  H12B 3289   2.318   6.790   4.869  1.2445 -2.0270 -3.0201
   45CHL1   C11 3290   2.217   6.776   4.670 -0.4467  0.5125  0.0092
   45CHL1  H11A 3291   2.115   6.781   4.626 -0.6153  1.6749  0.5009
   45CHL1  H11B 3292   2.280   6.862   4.640  1.8803 -1.2440 -0.4553
   45CHL1    C9 3293   2.279   6.638   4.613 -0.6704 -0.4713  1.0114
   45CHL1    H9 3294   2.384   6.639   4.647  0.5519 -2.1871 -2.2495
   45CHL1   C10 3295   2.291   6.625   4.455 -0.5629 -0.0471 -0.4750
   45CHL1   C19 3296   2.150   6.661   4.393 -0.1460  0.0929 -0.5115
   45CHL1  H19A 3297   2.067   6.599   4.432 -0.7021  1.5779  0.7561
   45CHL1  H19B 3298   2.125   6.762   4.432 -2.8497 -1.1578  1.2746
   45CHL1  H19C 3299   2.151   6.673   4.282 -0.2017 -1.2161 -0.6685
   45CHL1    C1 3300   2.407   6.715   4.401  0.1661  0.3230 -1.2131
   45CHL1   H1A 3301   2.363   6.816   4.413 -0.2032  0.0918 -0.5769
   45CHL1   H1B 3302   2.497   6.707   4.465 -1.2477  1.1678  0.9921
   45CHL1    C2 3303   2.452   6.690   4.259  0.5970 -0.6984  0.2851
   45CHL1   H2A 3304   2.541   6.750   4.230 -1.6269  3.0967  0.7027
   45CHL1   H2B 3305   2.372   6.737   4.198  0.0507 -1.3069  0.5220
   45CHL1   C20 3306   2.082   6.756   5.129  0.1841 -0.0395 -0.2538
   45CHL1   H20 3307   1.973   6.752   5.111  0.2317 -1.6536 -0.3329
   45CHL1   C21 3308   2.126   6.901   5.095 -0.0578 -0.2737 -0.1590
   45CHL1  H21A 3309   2.116   6.974   5.178 -1.7734  1.7029 -1.9856
   45CHL1  H21B 3310   2.063   6.945   5.015  0.2352  0.6887  0.1303
   45CHL1  H21C 3311   2.232   6.899   5.061 -1.1494 -0.0183 -4.0941
   45CHL1   C22 3312   2.085   6.717   5.279  0.0076 -0.1231  0.2128
   45CHL1  H22A 3313   2.059   6.609   5.279  0.1880 -0.1799 -0.8374
   45CHL1  H22B 3314   2.189   6.728   5.318  0.4312 -0.0431 -0.9113
   45CHL1   C23 3315   1.984   6.790   5.373  0.2925 -0.5182  0.1353
   45CHL1  H23A 3316   2.009   6.898   5.365 -1.2250 -0.1575  0.0789
   45CHL1  H23B 3317   1.879   6.784   5.340  0.3681 -1.1022 -0.0022
   45CHL1   C24 3318   1.991   6.729   5.515 -0.0762 -0.1761  1.1319
   45CHL1  H24A 3319   1.955   6.624   5.523  1.1355 -0.8090 -0.9232
   45CHL1  H24B 3320   2.099   6.730   5.544  0.4515  0.2570 -0.7409
   45CHL1   C25 3321   1.907   6.803   5.613 -0.5378 -0.4274 -0.8622
   45CHL1   H25 3322   1.800   6.799   5.583 -0.1018  1.5712 -2.9413
   45CHL1   C26 3323   1.920   6.744   5.757 -0.4918 -0.1555  0.0584
   45CHL1  H26A 3324   1.833   6.757   5.823 -0.5531  0.4193 -0.1325
   45CHL1  H26B 3325   1.943   6.636   5.741  0.5020  0.3391 -2.2330
   45CHL1  H26C 3326   2.014   6.785   5.799 -0.6375 -0.1964  0.4275
   45CHL1   C27 3327   1.929   6.956   5.607 -0.3009 -0.0714 -0.0371
   45CHL1  H27A 3328   2.036   6.984   5.621 -1.0139  1.6837  2.5943
   45CHL1  H27B 3329   1.886   6.997   5.513  0.3330  0.4486 -0.1058
   45CHL1  H27C 3330   1.891   7.009   5.697 -1.0040 -1.1761  0.3339
   46CHL1    C3 3331   5.453   0.599   4.367 -0.1452 -0.0192  0.2924
   46CHL1    H3 3332   5.404   0.698   4.381  0.0509 -0.1337  2.0163
   46CHL1    O3 3333   5.489   0.586   4.233  0.0826  0.3786 -0.3416
   46CHL1   H3' 3334   5.409   0.603   4.183  0.0288 -1.1184 -0.8467
   46CHL1    C4 3335   5.573   0.599   4.460 -0.2298 -0.2682  0.4677
   46CHL1   H4A 3336   5.621   0.499   4.451 -1.9589 -1.0707 -0.3420
   46CHL1   H4B 3337   5.642   0.678   4.423 -1.0758  0.1003 -0.3741
   46CHL1    C5 3338   5.532   0.606   4.605  0.2268 -0.5838 -0.5410
   46CHL1    C6 3339   5.579   0.704   4.683 -0.1129 -0.0943  0.4105
   46CHL1    H6 3340   5.659   0.769   4.645 -1.4111  1.2816 -0.0667
   46CHL1    C7 3341   5.546   0.720   4.830 -0.0809 -0.5775  0.3684
   46CHL1   H7A 3342   5.640   0.732   4.888  0.9806 -1.3162 -1.1376
   46CHL1   H7B 3343   5.479   0.809   4.833  0.9658  0.2323  0.1479
   46CHL1    C8 3344   5.478   0.595   4.894 -0.6592 -0.0325  0.7755
   46CHL1    H8 3345   5.555   0.515   4.901  0.1544  0.7137  0.5254
   46CHL1   C14 3346   5.414   0.645   5.028  0.3613  0.6453  0.4784
   46CHL1   H14 3347   5.338   0.717   4.992 -1.2717 -0.6104  1.3143
   46CHL1   C15 3348   5.509   0.723   5.130 -0.0308 -0.6925  0.5330
   46CHL1  H15A 3349   5.611   0.679   5.133 -0.3160 -1.3391  0.9305
   46CHL1  H15B 3350   5.523   0.828   5.096  1.3779 -0.6219  1.2697
   46CHL1   C16 3351   5.429   0.711   5.255  0.9565  0.2303  0.5922
   46CHL1  H16A 3352   5.480   0.697   5.353 -0.7935  2.1952  1.8798
   46CHL1  H16B 3353   5.390   0.814   5.273 -1.2872 -0.5837  0.6942
   46CHL1   C17 3354   5.313   0.602   5.237 -0.5945 -0.4086 -0.5197
   46CHL1   H17 3355   5.219   0.657   5.214 -0.4765 -0.0640 -0.2004
   46CHL1   C13 3356   5.351   0.529   5.111 -0.1426 -0.0965  0.3907
   46CHL1   C18 3357   5.460   0.426   5.152 -0.1166  0.1577  0.0045
   46CHL1  H18A 3358   5.545   0.462   5.214  2.2550 -1.7705 -1.9090
   46CHL1  H18B 3359   5.418   0.334   5.200  1.0275  0.7124  2.2158
   46CHL1  H18C 3360   5.506   0.377   5.064  1.0531 -1.0091  1.2201
   46CHL1   C12 3361   5.236   0.473   5.020 -0.2001  0.2156  0.1372
   46CHL1  H12A 3362   5.192   0.384   5.070 -1.0602  1.8179  2.4197
   46CHL1  H12B 3363   5.158   0.552   5.023  0.9824  1.4592 -0.8081
   46CHL1   C11 3364   5.282   0.434   4.876  0.2114  0.0150  0.4844
   46CHL1  H11A 3365   5.342   0.340   4.882  0.6289  0.2685  0.3585
   46CHL1  H11B 3366   5.190   0.423   4.815  1.2756 -0.3573 -1.1028
   46CHL1    C9 3367   5.367   0.541   4.806  0.0161 -0.5729 -0.9972
   46CHL1    H9 3368   5.298   0.627   4.788 -0.8603 -0.6543  1.5778
   46CHL1   C10 3369   5.428   0.505   4.661  0.0964  0.4801 -0.1476
   46CHL1   C19 3370   5.498   0.370   4.673  0.1682 -0.4369 -0.0503
   46CHL1  H19A 3371   5.528   0.333   4.573  3.7504  0.2542  0.6075
   46CHL1  H19B 3372   5.585   0.377   4.742  0.9320 -1.1835 -0.9118
   46CHL1  H19C 3373   5.425   0.294   4.707  0.6544 -0.7181  0.3773
   46CHL1    C1 3374   5.311   0.498   4.554 -0.0621 -0.1774  0.6824
   46CHL1   H1A 3375   5.238   0.426   4.596 -1.1129 -0.2121 -1.1162
   46CHL1   H1B 3376   5.264   0.598   4.565 -1.6023 -0.6130 -1.4302
   46CHL1    C2 3377   5.350   0.483   4.407 -1.2020 -0.0465 -0.0675
   46CHL1   H2A 3378   5.256   0.481   4.348 -2.6615  0.0651  2.1201
   46CHL1   H2B 3379   5.398   0.383   4.407 -0.7524  0.1646  0.3874
   46CHL1   C20 3380   5.269   0.523   5.366 -0.2308 -0.3276  0.5648
   46CHL1   H20 3381   5.355   0.468   5.409  0.1935 -0.4349 -0.3826
   46CHL1   C21 3382   5.161   0.416   5.328 -0.7035  0.2704 -0.0728
   46CHL1  H21A 3383   5.133   0.358   5.419 -1.1088  0.0047 -0.3643
   46CHL1  H21B 3384   5.213   0.339   5.268 -1.2356 -1.3109  1.4301
   46CHL1  H21C 3385   5.068   0.450   5.277 -1.6646 -1.5278  0.3786
   46CHL1   C22 3386   5.220   0.618   5.479  0.0428  0.0844 -0.8853
   46CHL1  H22A 3387   5.286   0.704   5.501  1.5700 -1.1869 -0.3032
   46CHL1  H22B 3388   5.124   0.654   5.435 -1.4809 -0.5892  1.6988
   46CHL1   C23 3389   5.197   0.549   5.615 -0.6687 -0.3269 -0.0941
   46CHL1  H23A 3390   5.149   0.450   5.599 -0.1500 -0.4787 -0.7521
   46CHL1  H23B 3391   5.299   0.527   5.655 -1.1331  1.6166  2.3757
   46CHL1   C24 3392   5.127   0.634   5.720 -0.1130  0.3629  0.1672
   46CHL1  H24A 3393   5.181   0.731   5.722  0.5940 -0.0239  0.8699
   46CHL1  H24B 3394   5.022   0.652   5.691 -0.3328 -1.4018 -0.2619
   46CHL1   C25 3395   5.125   0.562   5.856  0.0893  0.1949  0.0438
   46CHL1   H25 3396   5.229   0.539   5.889  0.7629  1.5295 -1.0432
   46CHL1   C26 3397   5.078   0.660   5.964  0.3628  0.0759 -0.1458
   46CHL1  H26A 3398   4.979   0.694   5.929  0.0000 -1.3262 -0.5468
   46CHL1  H26B 3399   5.072   0.612   6.064 -0.0752 -0.8330 -0.6012
   46CHL1  H26C 3400   5.127   0.759   5.977 -2.3374  1.5820 -0.8854
   46CHL1   C27 3401   5.031   0.438   5.849 -0.7176  0.1385 -0.4291
   46CHL1  H27A 3402   4.933   0.473   5.812 -0.5887 -1.3172 -2.2919
   46CHL1  H27B 3403   5.074   0.365   5.777  0.1883  0.8085 -0.5897
   46CHL1  H27C 3404   5.022   0.396   5.952  0.7330  1.0363  0.0946
   47CHL1    C3 3405   3.506   1.558   4.498  0.7747  0.2869  0.0010
   47CHL1    H3 3406   3.596   1.623   4.498 -0.6954  2.6161  3.0368
   47CHL1    O3 3407   3.475   1.524   4.359  0.2659  0.2888  0.2205
   47CHL1   H3' 3408   3.395   1.469   4.358  0.6299 -0.3623 -2.6602
   47CHL1    C4 3409   3.536   1.425   4.575 -0.2849 -0.0052 -0.1846
   47CHL1   H4A 3410   3.448   1.358   4.565  0.5812 -1.3569  0.9389
   47CHL1   H4B 3411   3.625   1.379   4.526 -0.6491  0.0526 -0.9127
   47CHL1    C5 3412   3.544   1.460   4.728  0.5201 -0.0450  0.4401
   47CHL1    C6 3413   3.654   1.402   4.788 -0.7390  0.7652 -0.2333
   47CHL1    H6 3414   3.724   1.345   4.727 -0.3069  1.3435 -0.2852
   47CHL1    C7 3415   3.680   1.415   4.941 -0.7385 -0.1275  0.3828
   47CHL1   H7A 3416   3.698   1.312   4.979 -1.1201 -1.2422 -2.2502
   47CHL1   H7B 3417   3.770   1.478   4.957  0.5518 -1.1301 -2.2965
   47CHL1    C8 3418   3.562   1.474   5.018  0.2532  0.0330 -0.2842
   47CHL1    H8 3419   3.489   1.392   5.037 -0.2690  1.2188  3.9492
   47CHL1   C14 3420   3.602   1.525   5.157 -0.6748  0.1308 -0.0068
   47CHL1   H14 3421   3.677   1.603   5.133 -0.9253 -0.2525 -2.2839
   47CHL1   C15 3422   3.678   1.431   5.255 -1.0627  0.0044 -0.8577
   47CHL1  H15A 3423   3.622   1.335   5.264 -0.3390 -0.3183  0.4648
   47CHL1  H15B 3424   3.776   1.405   5.209 -0.8149  1.4752 -1.2342
   47CHL1   C16 3425   3.678   1.509   5.380  0.3531  0.4727 -0.2980
   47CHL1  H16A 3426   3.654   1.440   5.463 -1.7152 -0.7699 -1.8297
   47CHL1  H16B 3427   3.773   1.558   5.410  0.3466 -0.2600  0.9600
   47CHL1   C17 3428   3.575   1.630   5.367  0.7372 -0.6006 -0.5579
   47CHL1   H17 3429   3.640   1.718   5.347  0.2753  0.0180  0.5477
   47CHL1   C13 3430   3.493   1.591   5.239 -0.3031 -0.5287  0.5638
   47CHL1   C18 3431   3.387   1.492   5.270 -0.0026  0.0102  0.4985
   47CHL1  H18A 3432   3.422   1.419   5.347 -1.8908 -0.5840  0.8440
   47CHL1  H18B 3433   3.288   1.526   5.306  0.1666  2.2518 -0.9321
   47CHL1  H18C 3434   3.367   1.438   5.175  1.0714 -1.0691  0.8529
   47CHL1   C12 3435   3.448   1.717   5.157  0.4294 -0.7425 -0.2918
   47CHL1  H12A 3436   3.368   1.772   5.211  0.4232 -0.9182 -0.1214
   47CHL1  H12B 3437   3.538   1.782   5.147 -0.3509  0.5782  0.9096
   47CHL1   C11 3438   3.388   1.676   5.022 -0.3187 -0.4363 -0.6458
   47CHL1  H11A 3439   3.294   1.617   5.033  0.4711 -1.4347  1.1369
   47CHL1  H11B 3440   3.363   1.766   4.962 -2.0995  0.8041  1.7687
   47CHL1    C9 3441   3.495   1.587   4.942  0.3162  0.3334  0.0336
   47CHL1    H9 3442   3.583   1.652   4.922 -0.9445  1.8559 -0.8347
   47CHL1   C10 3443   3.436   1.540   4.799  0.2133 -0.6731 -1.1608
   47CHL1   C19 3444   3.306   1.446   4.813 -0.8016  0.3054  0.3403
   47CHL1  H19A 3445   3.223   1.481   4.878 -2.3975 -0.7632 -1.0640
   47CHL1  H19B 3446   3.264   1.425   4.712  0.4311 -1.3412  0.1302
   47CHL1  H19C 3447   3.346   1.351   4.852 -0.5339  0.3314  0.1280
   47CHL1    C1 3448   3.407   1.659   4.709 -1.0641  0.0412  0.3802
   47CHL1   H1A 3449   3.312   1.703   4.748 -0.6256  0.6385  0.8023
   47CHL1   H1B 3450   3.492   1.731   4.714 -0.4762 -0.6913  1.4495
   47CHL1    C2 3451   3.379   1.627   4.562 -0.3924  0.0949  0.3374
   47CHL1   H2A 3452   3.364   1.719   4.502  0.3387 -1.6474 -2.7481
   47CHL1   H2B 3453   3.287   1.571   4.532  0.7388 -1.4855 -0.3252
   47CHL1   C20 3454   3.493   1.664   5.494  0.5147  0.4635  0.1397
   47CHL1   H20 3455   3.434   1.572   5.516  1.1742  0.9927  5.2125
   47CHL1   C21 3456   3.402   1.791   5.489 -0.3377  0.6550  0.4071
   47CHL1  H21A 3457   3.301   1.752   5.463 -0.4056  1.7520 -1.0408
   47CHL1  H21B 3458   3.427   1.848   5.397  0.5489 -1.9478 -1.1013
   47CHL1  H21C 3459   3.415   1.857   5.577  0.0045  1.6503 -0.3800
   47CHL1   C22 3460   3.589   1.672   5.617  0.2885  0.1225  0.0863
   47CHL1  H22A 3461   3.669   1.596   5.610 -1.0413 -1.2438 -1.0167
   47CHL1  H22B 3462   3.625   1.777   5.624  1.1311 -0.1542 -0.0014
   47CHL1   C23 3463   3.520   1.645   5.761  0.1957 -0.2503  0.6064
   47CHL1  H23A 3464   3.462   1.735   5.790 -2.2525 -1.8012  0.8065
   47CHL1  H23B 3465   3.442   1.567   5.744  0.3928 -0.4140  0.4467
   47CHL1   C24 3466   3.605   1.599   5.872 -0.4132 -0.3274  1.0962
   47CHL1  H24A 3467   3.676   1.681   5.893  0.6508 -0.8237 -0.3899
   47CHL1  H24B 3468   3.538   1.583   5.960 -4.1719  3.1725 -0.7444
   47CHL1   C25 3469   3.704   1.479   5.854 -0.3444  0.1790  0.1167
   47CHL1   H25 3470   3.779   1.508   5.778 -1.5569 -0.0063 -1.1823
   47CHL1   C26 3471   3.781   1.443   5.988 -0.5888 -0.4207 -0.8506
   47CHL1  H26A 3472   3.718   1.438   6.078  0.9072  1.0679  0.3362
   47CHL1  H26B 3473   3.830   1.343   5.982  1.7814  0.5894  0.3968
   47CHL1  H26C 3474   3.862   1.516   6.008  1.1525 -1.5837 -3.0689
   47CHL1   C27 3475   3.635   1.358   5.800  0.0684  0.0887 -0.0417
   47CHL1  H27A 3476   3.584   1.369   5.701 -1.0476  0.4215  0.5565
   47CHL1  H27B 3477   3.717   1.288   5.772  1.1779  1.2422  0.2215
   47CHL1  H27C 3478   3.569   1.297   5.865  1.1804 -0.6700  0.4067
   48CHL1    C3 3479   2.542   4.609   4.316 -0.3519 -0.3086  0.2305
   48CHL1    H3 3480   2.629   4.664   4.274 -0.6549 -0.3807 -0.5062
   48CHL1    O3 3481   2.490   4.558   4.191  0.6452  0.8085  0.2895
   48CHL1   H3' 3482   2.423   4.622   4.166 -0.9170 -0.8354  0.0662
   48CHL1    C4 3483   2.590   4.489   4.398 -0.1227 -0.3081 -0.1808
   48CHL1   H4A 3484   2.504   4.426   4.431  0.0658 -1.1059 -1.1501
   48CHL1   H4B 3485   2.659   4.424   4.340 -0.8383 -1.1189 -0.1516
   48CHL1    C5 3486   2.646   4.551   4.526 -0.4575  0.7939 -0.2191
   48CHL1    C6 3487   2.771   4.523   4.558 -0.5147  0.8384 -0.1004
   48CHL1    H6 3488   2.833   4.467   4.486  0.2286  1.6654 -0.1293
   48CHL1    C7 3489   2.838   4.563   4.691  0.1565  0.3695  1.1897
   48CHL1   H7A 3490   2.903   4.480   4.726  1.8182 -0.2110 -2.7013
   48CHL1   H7B 3491   2.915   4.636   4.660  0.9054 -0.5531  0.8247
   48CHL1    C8 3492   2.737   4.616   4.794 -0.3239  0.8516 -0.1687
   48CHL1    H8 3493   2.684   4.527   4.835  1.4322 -0.4944 -0.7012
   48CHL1   C14 3494   2.809   4.688   4.907 -0.2879 -0.3277  0.4803
   48CHL1   H14 3495   2.852   4.777   4.855 -0.6397 -0.4518 -0.0283
   48CHL1   C15 3496   2.926   4.621   4.974  0.0250 -0.6278 -0.1428
   48CHL1  H15A 3497   2.918   4.511   4.988 -0.1117 -0.7542 -1.1244
   48CHL1  H15B 3498   3.019   4.620   4.913  0.2820  1.3764  0.1400
   48CHL1   C16 3499   2.942   4.697   5.113  0.4575 -0.0417  0.1792
   48CHL1  H16A 3500   2.916   4.621   5.190  0.2197 -0.9128 -0.7280
   48CHL1  H16B 3501   3.042   4.746   5.115 -0.3377  1.6641  3.0349
   48CHL1   C17 3502   2.829   4.801   5.109 -0.0372 -0.1607 -0.6942
   48CHL1   H17 3503   2.872   4.887   5.052  0.3851 -0.8942 -1.5036
   48CHL1   C13 3504   2.720   4.744   5.022  0.1947  0.1750 -0.1105
   48CHL1   C18 3505   2.640   4.631   5.103 -0.7621 -0.4481  0.2355
   48CHL1  H18A 3506   2.705   4.557   5.155  1.1606 -0.0563 -1.5026
   48CHL1  H18B 3507   2.572   4.682   5.175 -1.5312 -1.8113  0.5170
   48CHL1  H18C 3508   2.583   4.568   5.032 -0.9509 -0.4409  0.3788
   48CHL1   C12 3509   2.617   4.840   4.953  0.0117  0.2848 -1.1335
   48CHL1  H12A 3510   2.555   4.870   5.040 -0.1368 -2.6631 -0.1467
   48CHL1  H12B 3511   2.668   4.933   4.920 -0.8010  1.4814  0.7913
   48CHL1   C11 3512   2.545   4.787   4.832 -0.2769 -0.2969  0.4818
   48CHL1  H11A 3513   2.476   4.714   4.879 -2.2167  0.9116 -0.3473
   48CHL1  H11B 3514   2.486   4.868   4.785  0.0335 -0.8845 -0.9984
   48CHL1    C9 3515   2.634   4.709   4.726  0.2864 -0.7102 -0.1710
   48CHL1    H9 3516   2.702   4.788   4.688  1.0495 -1.5943 -0.6881
   48CHL1   C10 3517   2.550   4.637   4.611 -0.4395 -0.9515  0.2419
   48CHL1   C19 3518   2.448   4.546   4.670  0.6909  0.4302  0.1484
   48CHL1  H19A 3519   2.374   4.604   4.730 -0.8466 -0.7757 -0.5015
   48CHL1  H19B 3520   2.399   4.495   4.584  0.7596  2.6363 -1.2942
   48CHL1  H19C 3521   2.489   4.469   4.738 -2.9305 -1.1294  0.8083
   48CHL1    C1 3522   2.483   4.746   4.513 -0.0445 -0.1555 -0.3981
   48CHL1   H1A 3523   2.401   4.797   4.568  1.0802 -0.9403  2.1612
   48CHL1   H1B 3524   2.560   4.825   4.501 -1.0919  1.1082  0.7646
   48CHL1    C2 3525   2.440   4.695   4.381  0.6442  0.0462 -0.6762
   48CHL1   H2A 3526   2.415   4.782   4.318  2.1025 -1.3865 -3.4060
   48CHL1   H2B 3527   2.349   4.631   4.394  0.2635  0.3328 -1.8142
   48CHL1   C20 3528   2.797   4.851   5.249  0.1698 -0.1177 -0.7893
   48CHL1   H20 3529   2.769   4.765   5.313  1.3806  0.3128  0.3641
   48CHL1   C21 3530   2.676   4.942   5.258 -0.6204  1.5030  0.9046
   48CHL1  H21A 3531   2.684   5.010   5.170 -0.5237 -0.1811 -0.4399
   48CHL1  H21B 3532   2.672   5.002   5.352  1.8501  0.3088  1.8704
   48CHL1  H21C 3533   2.584   4.883   5.240  0.5276  0.7467 -3.9816
   48CHL1   C22 3534   2.920   4.899   5.328 -0.3567 -0.7478 -0.1410
   48CHL1  H22A 3535   3.010   4.836   5.318  1.4814  1.5637  0.9722
   48CHL1  H22B 3536   2.949   4.995   5.281 -1.8014  1.0220  2.3517
   48CHL1   C23 3537   2.897   4.925   5.478 -0.0230 -0.3524 -0.7246
   48CHL1  H23A 3538   2.846   5.021   5.501  0.5472 -0.3347  0.5732
   48CHL1  H23B 3539   2.837   4.842   5.520 -2.0696  0.7749 -1.2728
   48CHL1   C24 3540   3.026   4.927   5.557 -0.6987  1.0031  0.4391
   48CHL1  H24A 3541   3.107   4.856   5.527 -1.0162  1.2454 -1.1082
   48CHL1  H24B 3542   3.073   5.025   5.531 -1.2852  1.2090  0.1276
   48CHL1   C25 3543   3.026   4.912   5.709 -0.2797 -0.2264  1.3000
   48CHL1   H25 3544   2.964   4.825   5.738  0.1307 -0.8308  0.4077
   48CHL1   C26 3545   3.170   4.893   5.752 -0.3529  0.6725  0.1510
   48CHL1  H26A 3546   3.217   4.808   5.698 -0.8705  0.9064 -0.6807
   48CHL1  H26B 3547   3.223   4.979   5.705  0.5859 -1.6003 -3.4032
   48CHL1  H26C 3548   3.187   4.902   5.861  0.1023  0.4197  0.1053
   48CHL1   C27 3549   2.966   5.038   5.774  0.1836 -0.3445  0.3494
   48CHL1  H27A 3550   3.038   5.120   5.750  1.2727 -1.3557  0.0526
   48CHL1  H27B 3551   2.862   5.065   5.749  0.7794 -0.2654 -2.3106
   48CHL1  H27C 3552   2.966   5.021   5.884 -1.9179  1.0977  0.6279
   49CHL1    C3 3553   1.273   0.917   4.341 -0.6190 -0.2727  0.0326
   49CHL1    H3 3554   1.371   0.880   4.379  1.4635  3.2389 -1.4107
   49CHL1    O3 3555   1.259   0.866   4.209 -0.4294  0.0718  0.5144
   49CHL1   H3' 3556   1.182   0.906   4.167 -0.0223 -1.4127 -1.8082
   49CHL1    C4 3557   1.152   0.861   4.421 -0.6366 -0.4154  0.3179
   49CHL1   H4A 3558   1.066   0.893   4.359 -1.4820  0.3970  1.8444
   49CHL1   H4B 3559   1.177   0.754   4.432 -0.1847 -0.5351 -1.6224
   49CHL1    C5 3560   1.140   0.924   4.559 -0.0103  0.2527  0.2855
   49CHL1    C6 3561   1.130   0.842   4.662  0.6695  0.8055  0.2215
   49CHL1    H6 3562   1.136   0.733   4.643 -0.2441  0.8891 -0.6668
   49CHL1    C7 3563   1.115   0.884   4.804  0.5119 -0.2083  0.2086
   49CHL1   H7A 3564   1.037   0.829   4.860  0.7242 -0.8096 -0.0724
   49CHL1   H7B 3565   1.207   0.867   4.863  1.0006  0.1775 -0.4291
   49CHL1    C8 3566   1.087   1.040   4.817 -0.0628  0.6963 -0.6346
   49CHL1    H8 3567   0.980   1.050   4.789  0.2137 -0.1884 -2.1234
   49CHL1   C14 3568   1.109   1.086   4.958  0.8170  0.1191 -0.1895
   49CHL1   H14 3569   1.217   1.065   4.972  0.6370 -1.4561 -0.9365
   49CHL1   C15 3570   1.038   1.014   5.082 -0.2606 -0.0614 -0.0169
   49CHL1  H15A 3571   0.929   1.009   5.059 -0.1578 -0.5819 -0.4165
   49CHL1  H15B 3572   1.084   0.913   5.096  3.0346  1.1062 -1.4494
   49CHL1   C16 3573   1.056   1.114   5.193 -0.5799  0.4057 -0.3386
   49CHL1  H16A 3574   0.958   1.157   5.224 -0.8712  1.4012 -2.4529
   49CHL1  H16B 3575   1.104   1.068   5.282 -2.0104  1.9938  1.3212
   49CHL1   C17 3576   1.125   1.240   5.132 -0.1256 -0.0121 -0.2333
   49CHL1   H17 3577   1.235   1.231   5.146 -0.2496 -0.2203  0.6741
   49CHL1   C13 3578   1.099   1.240   4.979  0.4036  0.3856 -0.7813
   49CHL1   C18 3579   0.954   1.290   4.955 -0.3157  0.3385  0.0056
   49CHL1  H18A 3580   0.919   1.268   4.852  0.9351  1.4563 -0.6782
   49CHL1  H18B 3581   0.889   1.226   5.020 -0.3165 -1.2943 -1.5392
   49CHL1  H18C 3582   0.940   1.399   4.971 -0.6360  0.3530 -0.3637
   49CHL1   C12 3583   1.187   1.314   4.885  0.3483 -0.0741  0.2734
   49CHL1  H12A 3584   1.164   1.423   4.883 -0.2254 -0.1892  0.4089
   49CHL1  H12B 3585   1.292   1.299   4.920  0.3924 -2.1355 -0.6068
   49CHL1   C11 3586   1.167   1.272   4.731 -0.1409 -0.4122  0.2918
   49CHL1  H11A 3587   1.069   1.317   4.704  1.0304  1.3409 -1.2160
   49CHL1  H11B 3588   1.247   1.320   4.672  0.8353 -2.3086  0.0015
   49CHL1    C9 3589   1.177   1.115   4.714 -0.1840 -0.2762  0.2514
   49CHL1    H9 3590   1.278   1.075   4.738 -0.0398 -1.9512 -2.6151
   49CHL1   C10 3591   1.156   1.068   4.571 -0.1380 -0.3249  0.4337
   49CHL1   C19 3592   1.028   1.135   4.520  0.0419  0.5214  0.5499
   49CHL1  H19A 3593   0.998   1.095   4.421  1.5641 -2.1966  1.0951
   49CHL1  H19B 3594   0.935   1.128   4.580 -1.9972  1.5593 -2.2503
   49CHL1  H19C 3595   1.068   1.238   4.507  1.3334  0.1812  1.6466
   49CHL1    C1 3596   1.285   1.110   4.495  0.6947 -0.3106 -0.2197
   49CHL1   H1A 3597   1.314   1.217   4.493  0.5631 -0.2826 -0.9344
   49CHL1   H1B 3598   1.368   1.059   4.548  0.2698  0.2958  1.0799
   49CHL1    C2 3599   1.283   1.068   4.350 -0.1708  0.5311  0.0598
   49CHL1   H2A 3600   1.382   1.094   4.306  1.1366 -0.6360  2.1147
   49CHL1   H2B 3601   1.204   1.113   4.287 -1.3104 -1.7508 -0.2642
   49CHL1   C20 3602   1.078   1.363   5.201 -0.0433 -0.8123 -1.0496
   49CHL1   H20 3603   0.968   1.378   5.201  0.0343  0.2116  1.2445
   49CHL1   C21 3604   1.138   1.491   5.135 -0.5154  0.1293 -0.5800
   49CHL1  H21A 3605   1.080   1.510   5.042 -0.8016 -1.9406 -0.8658
   49CHL1  H21B 3606   1.248   1.488   5.118 -0.5004 -0.1419 -0.4331
   49CHL1  H21C 3607   1.135   1.580   5.202  2.8740 -2.5344  3.6307
   49CHL1   C22 3608   1.111   1.367   5.358  0.6265  1.0619 -0.6499
   49CHL1  H22A 3609   1.069   1.277   5.409  1.8697  0.6894 -0.2452
   49CHL1  H22B 3610   1.222   1.372   5.364  0.6606  0.7271 -0.9487
   49CHL1   C23 3611   1.023   1.468   5.431 -0.5262 -0.1232 -0.5411
   49CHL1  H23A 3612   1.038   1.572   5.393 -0.5999  0.1966  0.2753
   49CHL1  H23B 3613   0.916   1.446   5.414 -0.4560  0.6863 -2.2530
   49CHL1   C24 3614   1.055   1.490   5.583  0.5421 -0.4933 -0.1645
   49CHL1  H24A 3615   1.029   1.390   5.624  2.0656 -1.1097 -0.6554
   49CHL1  H24B 3616   1.164   1.509   5.580  0.5385 -0.5060 -0.3993
   49CHL1   C25 3617   0.970   1.600   5.660  0.0576 -0.4313 -0.3109
   49CHL1   H25 3618   0.880   1.613   5.597  0.5979  0.2005 -0.9774
   49CHL1   C26 3619   0.924   1.554   5.799 -0.1416 -0.8152  0.1125
   49CHL1  H26A 3620   0.854   1.468   5.794 -1.3409 -0.1156  2.9631
   49CHL1  H26B 3621   1.017   1.519   5.850 -1.5635 -2.0528  1.9756
   49CHL1  H26C 3622   0.875   1.642   5.846  0.9881 -0.2600  0.2866
   49CHL1   C27 3623   1.047   1.731   5.652  0.5795 -0.1003 -0.6970
   49CHL1  H27A 3624   1.030   1.765   5.548  0.0874 -0.9094 -0.8875
   49CHL1  H27B 3625   1.000   1.803   5.723  0.8465  0.5119 -1.1298
   49CHL1  H27C 3626   1.151   1.743   5.690  0.4246  3.2117 -1.0197
   50CHL1    C3 3627   5.576   1.180   4.104 -0.6784 -0.0851  0.2661
   50CHL1    H3 3628   5.627   1.086   4.135  1.6066  1.2800  0.8365
   50CHL1    O3 3629   5.586   1.178   3.965 -0.0899 -0.4056 -0.1967
   50CHL1   H3' 3630   5.583   1.272   3.944  3.9701  0.3293  1.6333
   50CHL1    C4 3631   5.424   1.174   4.149  1.1829 -0.2166  0.5905
   50CHL1   H4A 3632   5.389   1.276   4.122 -0.3449 -1.1773 -1.2991
   50CHL1   H4B 3633   5.366   1.096   4.094  1.6189 -0.1063 -0.0462
   50CHL1    C5 3634   5.422   1.155   4.301 -0.5782 -0.1889  0.7135
   50CHL1    C6 3635   5.354   1.056   4.354  0.1000  0.7215  0.9472
   50CHL1    H6 3636   5.303   0.979   4.294  2.0272 -0.1413  0.3421
   50CHL1    C7 3637   5.325   1.041   4.494 -0.0098  0.7657 -0.8022
   50CHL1   H7A 3638   5.216   1.021   4.502 -0.0605 -0.9439 -4.2325
   50CHL1   H7B 3639   5.387   0.958   4.534  1.0312  2.2616  0.8875
   50CHL1    C8 3640   5.371   1.153   4.587 -0.5075 -0.6103  0.1227
   50CHL1    H8 3641   5.298   1.236   4.596  1.0056  0.9109 -1.0678
   50CHL1   C14 3642   5.389   1.109   4.731  0.3847  0.9815  0.6286
   50CHL1   H14 3643   5.477   1.042   4.734  0.1973  0.7193  0.4324
   50CHL1   C15 3644   5.286   1.023   4.807  0.1106 -0.0647  0.0355
   50CHL1  H15A 3645   5.184   1.065   4.797 -0.3587 -1.4095 -1.0872
   50CHL1  H15B 3646   5.283   0.921   4.764  0.2694  1.3597 -3.6375
   50CHL1   C16 3647   5.335   1.029   4.956 -0.5438 -0.0329 -0.4609
   50CHL1  H16A 3648   5.249   1.050   5.022 -0.7531 -3.0181  0.3183
   50CHL1  H16B 3649   5.382   0.931   4.980  1.8929  1.5177  1.7128
   50CHL1   C17 3650   5.445   1.133   4.959 -0.3544  0.2962  0.1993
   50CHL1   H17 3651   5.539   1.074   4.953 -1.4513 -2.5624  4.9481
   50CHL1   C13 3652   5.437   1.209   4.832 -0.2320  0.4739  0.6249
   50CHL1   C18 3653   5.334   1.320   4.849 -0.3766  0.8178  0.0813
   50CHL1  H18A 3654   5.378   1.399   4.914 -1.8397  1.1415  0.7260
   50CHL1  H18B 3655   5.314   1.374   4.755  1.5599  2.0901  0.3500
   50CHL1  H18C 3656   5.242   1.279   4.898  0.8286 -1.7166  0.3865
   50CHL1   C12 3657   5.572   1.268   4.773  0.2689 -0.1840  0.1989
   50CHL1  H12A 3658   5.622   1.348   4.831 -0.3515  0.1114  0.3304
   50CHL1  H12B 3659   5.651   1.190   4.772  0.4147 -0.0864 -2.1226
   50CHL1   C11 3660   5.559   1.320   4.634  0.2460  0.0587  0.9305
   50CHL1  H11A 3661   5.485   1.402   4.620 -2.9199 -2.5626  1.0285
   50CHL1  H11B 3662   5.654   1.349   4.585 -0.6603 -2.1874 -2.5889
   50CHL1    C9 3663   5.510   1.208   4.533  0.0406 -0.1145 -0.6220
   50CHL1    H9 3664   5.588   1.129   4.528 -0.7453 -0.9630  0.1618
   50CHL1   C10 3665   5.495   1.257   4.384  0.3645 -0.0049  0.3100
   50CHL1   C19 3666   5.423   1.391   4.376 -0.1056 -0.2336  0.1659
   50CHL1  H19A 3667   5.389   1.431   4.279 -2.9418 -1.4046  0.5552
   50CHL1  H19B 3668   5.322   1.378   4.421 -0.6507 -1.3834 -1.2923
   50CHL1  H19C 3669   5.477   1.474   4.426 -3.1245  2.0752 -0.1415
   50CHL1    C1 3670   5.639   1.275   4.328  0.3946  0.0521 -0.2438
   50CHL1   H1A 3671   5.682   1.363   4.381 -1.3347 -0.2318  1.7572
   50CHL1   H1B 3672   5.700   1.189   4.364 -0.1992  0.8267  2.8822
   50CHL1    C2 3673   5.657   1.285   4.168  0.0036 -0.2631  0.0243
   50CHL1   H2A 3674   5.766   1.297   4.153 -0.3719  3.1965 -0.8340
   50CHL1   H2B 3675   5.616   1.387   4.151  1.5929  0.7053  1.6593
   50CHL1   C20 3676   5.466   1.206   5.100  0.2032  0.3568 -0.2035
   50CHL1   H20 3677   5.380   1.274   5.121 -1.0898 -0.6915 -1.8306
   50CHL1   C21 3678   5.600   1.289   5.096  0.2613 -1.1980  0.3410
   50CHL1  H21A 3679   5.678   1.235   5.040  1.7854  1.4329 -0.2183
   50CHL1  H21B 3680   5.644   1.300   5.198  0.4102 -0.0984  0.1688
   50CHL1  H21C 3681   5.590   1.390   5.052  0.6347 -1.3833 -0.1663
   50CHL1   C22 3682   5.486   1.099   5.211 -0.4883  0.4490  0.4886
   50CHL1  H22A 3683   5.392   1.040   5.217 -0.1647 -0.1582 -0.2901
   50CHL1  H22B 3684   5.569   1.026   5.199 -2.4195 -1.9839  1.0113
   50CHL1   C23 3685   5.503   1.168   5.353 -0.1910 -0.1284 -0.0230
   50CHL1  H23A 3686   5.592   1.232   5.372 -0.3777 -0.2939  1.5869
   50CHL1  H23B 3687   5.420   1.234   5.383 -0.7946 -0.8616 -0.0595
   50CHL1   C24 3688   5.496   1.054   5.465 -0.4028 -1.2009 -0.0789
   50CHL1  H24A 3689   5.396   1.008   5.455 -0.4143 -1.1098 -0.4106
   50CHL1  H24B 3690   5.582   0.985   5.448 -0.8411 -1.2866 -2.1873
   50CHL1   C25 3691   5.515   1.112   5.606  0.2686  0.6136 -0.3071
   50CHL1   H25 3692   5.613   1.164   5.613  0.9606 -0.4394 -1.8546
   50CHL1   C26 3693   5.411   1.218   5.646  0.0400 -0.2303  0.0204
   50CHL1  H26A 3694   5.410   1.311   5.585  2.1549 -0.9806 -1.2855
   50CHL1  H26B 3695   5.310   1.171   5.649 -0.7944  1.3035 -2.1016
   50CHL1  H26C 3696   5.421   1.254   5.750 -1.1348 -0.6998  0.3156
   50CHL1   C27 3697   5.508   0.997   5.703  0.5329  0.6899  0.1953
   50CHL1  H27A 3698   5.417   0.934   5.691  0.5171  0.7326  0.0818
   50CHL1  H27B 3699   5.597   0.930   5.700 -0.3242 -0.5784  1.7597
   50CHL1  H27C 3700   5.496   1.027   5.809 -2.4233  0.9790 -0.1333
   51CHL1    C3 3701   2.807   6.592   4.361  0.4704 -0.0009  0.0106
   51CHL1    H3 3702   2.705   6.630   4.340  0.2458 -0.1178  0.8730
   51CHL1    O3 3703   2.872   6.593   4.239 -0.0047 -0.5460  0.5617
   51CHL1   H3' 3704   2.830   6.660   4.185  2.4421 -0.5134 -1.4527
   51CHL1    C4 3705   2.876   6.677   4.466  0.8773 -0.1747  0.4723
   51CHL1   H4A 3706   2.982   6.644   4.460  0.3697 -1.6208 -2.5037
   51CHL1   H4B 3707   2.872   6.782   4.432  0.1362  0.1450  1.5022
   51CHL1    C5 3708   2.827   6.660   4.606  0.6065  0.1497  0.8629
   51CHL1    C6 3709   2.787   6.763   4.678 -0.3337  0.1034 -0.1193
   51CHL1    H6 3710   2.784   6.860   4.625  1.3312  0.4145  0.2971
   51CHL1    C7 3711   2.744   6.755   4.823 -1.1636  0.9555  0.2612
   51CHL1   H7A 3712   2.797   6.840   4.870 -2.0499  1.1898  0.8595
   51CHL1   H7B 3713   2.635   6.766   4.841 -1.0476  3.3869 -0.2343
   51CHL1    C8 3714   2.797   6.623   4.891  0.0711  0.0776  0.0125
   51CHL1    H8 3715   2.908   6.620   4.894  0.1036  0.9876  0.0508
   51CHL1   C14 3716   2.726   6.620   5.023  0.1878  0.1721 -0.4060
   51CHL1   H14 3717   2.618   6.607   5.001 -0.7564  1.3638  2.9457
   51CHL1   C15 3718   2.735   6.734   5.117  0.0393 -0.5668 -0.1223
   51CHL1  H15A 3719   2.835   6.777   5.139 -1.0777  3.6833 -2.1507
   51CHL1  H15B 3720   2.672   6.821   5.086  0.9553 -0.6539 -2.4735
   51CHL1   C16 3721   2.677   6.676   5.245 -0.0817 -0.0431  0.5914
   51CHL1  H16A 3722   2.742   6.700   5.332 -0.3605  1.7457  0.3299
   51CHL1  H16B 3723   2.570   6.704   5.261 -0.6727 -1.4499 -0.6739
   51CHL1   C17 3724   2.672   6.517   5.231  0.4167 -0.0632  0.2911
   51CHL1   H17 3725   2.571   6.486   5.196  1.3946 -0.5384 -2.4106
   51CHL1   C13 3726   2.753   6.490   5.102 -0.4202 -0.0691  0.2959
   51CHL1   C18 3727   2.902   6.483   5.137 -0.3107 -0.0403 -0.4457
   51CHL1  H18A 3728   2.925   6.577   5.193  0.8073 -0.5402 -0.0454
   51CHL1  H18B 3729   2.931   6.392   5.194 -0.5267 -1.0209 -1.8651
   51CHL1  H18C 3730   2.972   6.487   5.051  2.0805 -1.7195  1.3128
   51CHL1   C12 3731   2.710   6.371   5.016  0.5226 -0.5056 -0.7304
   51CHL1  H12A 3732   2.724   6.272   5.065 -2.5372  0.3680  2.3211
   51CHL1  H12B 3733   2.599   6.371   5.006  0.4575  0.2008 -0.0988
   51CHL1   C11 3734   2.773   6.372   4.879 -0.2337  0.3786  0.7274
   51CHL1  H11A 3735   2.881   6.350   4.896 -0.2676  0.4328  1.0267
   51CHL1  H11B 3736   2.743   6.290   4.811  0.2490  1.2705 -0.5844
   51CHL1    C9 3737   2.749   6.511   4.804 -0.2619 -0.2804 -0.6626
   51CHL1    H9 3738   2.643   6.540   4.785  0.1318  2.3984  0.7556
   51CHL1   C10 3739   2.813   6.518   4.655 -0.4222  0.2024 -0.5328
   51CHL1   C19 3740   2.958   6.449   4.669 -0.1196  0.5419 -0.0007
   51CHL1  H19A 3741   2.944   6.344   4.701  5.3129 -0.0853  1.3463
   51CHL1  H19B 3742   3.011   6.455   4.572 -1.3411  1.1220 -0.6570
   51CHL1  H19C 3743   3.014   6.506   4.747 -0.0367  0.1555  0.2253
   51CHL1    C1 3744   2.732   6.447   4.556 -0.3466  0.1006 -0.1020
   51CHL1   H1A 3745   2.746   6.342   4.592  1.3029  0.9280  1.8922
   51CHL1   H1B 3746   2.625   6.474   4.547  0.1238  2.0897 -0.0856
   51CHL1    C2 3747   2.791   6.449   4.409 -0.3674 -0.7673  0.2596
   51CHL1   H2A 3748   2.722   6.398   4.339 -0.3689  1.4553 -1.4799
   51CHL1   H2B 3749   2.885   6.391   4.410 -0.6014 -1.1674  1.7579
   51CHL1   C20 3750   2.713   6.447   5.361 -0.3307  0.6438  0.0755
   51CHL1   H20 3751   2.822   6.462   5.374  0.3108 -3.4318  0.6249
   51CHL1   C21 3752   2.680   6.296   5.354 -0.3282  0.5420 -0.0809
   51CHL1  H21A 3753   2.765   6.242   5.307 -0.1682  0.3529  0.4173
   51CHL1  H21B 3754   2.590   6.286   5.291 -1.3597  1.3397  1.2143
   51CHL1  H21C 3755   2.665   6.260   5.458  0.6633  0.4426  0.0469
   51CHL1   C22 3756   2.634   6.503   5.485 -0.1201  0.1327 -0.0042
   51CHL1  H22A 3757   2.647   6.435   5.572  2.2403  0.0565 -0.3475
   51CHL1  H22B 3758   2.672   6.603   5.514  1.7293 -0.6550  0.4701
   51CHL1   C23 3759   2.482   6.518   5.461  0.4049 -0.0418 -0.3651
   51CHL1  H23A 3760   2.454   6.594   5.386  2.4879  0.4897 -0.6549
   51CHL1  H23B 3761   2.446   6.418   5.429 -0.5021  0.1987 -0.1407
   51CHL1   C24 3762   2.401   6.553   5.591  0.5128  0.5284  0.4187
   51CHL1  H24A 3763   2.294   6.552   5.561 -0.0063 -1.7275  2.1738
   51CHL1  H24B 3764   2.408   6.477   5.671 -0.7886  1.6321  1.6380
   51CHL1   C25 3765   2.425   6.694   5.651 -0.6530  0.0538 -0.4839
   51CHL1   H25 3766   2.535   6.699   5.664 -0.6913  0.8276 -0.4179
   51CHL1   C26 3767   2.391   6.812   5.559 -0.1092  0.3380  0.2169
   51CHL1  H26A 3768   2.420   6.912   5.598 -0.3943 -0.4287  2.5412
   51CHL1  H26B 3769   2.433   6.809   5.456  0.2093  1.3465  0.3073
   51CHL1  H26C 3770   2.282   6.811   5.538  0.3126 -0.1357 -2.2600
   51CHL1   C27 3771   2.363   6.703   5.790 -0.3126  0.1349  0.3503
   51CHL1  H27A 3772   2.396   6.622   5.857 -1.0507  0.9014  1.6948
   51CHL1  H27B 3773   2.392   6.803   5.830  0.6765  0.4491 -1.0744
   51CHL1  H27C 3774   2.252   6.710   5.793 -0.4978 -1.9677  3.8035
   52CHL1    C3 3775   6.455   0.700   4.631  0.5556 -0.3171  0.5375
   52CHL1    H3 3776   6.538   0.773   4.639 -1.6081  2.3610  0.1106
   52CHL1    O3 3777   6.411   0.692   4.496 -0.6101  0.3579  0.1420
   52CHL1   H3' 3778   6.342   0.626   4.504  0.5246 -0.6620  2.4645
   52CHL1    C4 3779   6.511   0.564   4.670 -0.0851  0.7874 -0.2335
   52CHL1   H4A 3780   6.444   0.479   4.642 -1.9943  1.8317  0.9516
   52CHL1   H4B 3781   6.606   0.549   4.614 -0.9652  0.5149 -1.7024
   52CHL1    C5 3782   6.537   0.546   4.817 -0.0922  0.2105 -0.4014
   52CHL1    C6 3783   6.659   0.516   4.870 -0.2634 -0.3953  0.0988
   52CHL1    H6 3784   6.738   0.507   4.794 -1.2239  1.5536 -1.2315
   52CHL1    C7 3785   6.682   0.492   5.016 -0.2455  0.0935 -0.2746
   52CHL1   H7A 3786   6.739   0.397   5.020 -2.0368 -1.0739 -0.8441
   52CHL1   H7B 3787   6.739   0.578   5.056 -1.5613  1.8465 -1.9782
   52CHL1    C8 3788   6.553   0.490   5.099  0.0332 -0.4771 -0.7933
   52CHL1    H8 3789   6.497   0.396   5.079 -2.2537  0.6418 -0.0430
   52CHL1   C14 3790   6.576   0.509   5.251  0.6537  0.1372  0.4116
   52CHL1   H14 3791   6.630   0.606   5.262 -0.9737  0.7679  4.4629
   52CHL1   C15 3792   6.680   0.418   5.325  0.0734  0.1506 -0.5099
   52CHL1  H15A 3793   6.681   0.314   5.287  0.6973 -0.4681  1.1054
   52CHL1  H15B 3794   6.785   0.450   5.313 -0.4102  2.2427  0.3514
   52CHL1   C16 3795   6.650   0.440   5.474  0.3516  0.2782 -0.0630
   52CHL1  H16A 3796   6.642   0.340   5.523  0.8962  0.6774  0.8665
   52CHL1  H16B 3797   6.734   0.498   5.520 -1.0960  2.3416  0.1132
   52CHL1   C17 3798   6.525   0.531   5.475  0.4609  0.4487  0.0858
   52CHL1   H17 3799   6.559   0.636   5.464 -0.2975  0.4249 -3.4152
   52CHL1   C13 3800   6.458   0.511   5.340 -0.2213  0.1646 -0.0104
   52CHL1   C18 3801   6.384   0.380   5.337 -0.4594  0.7108  0.0680
   52CHL1  H18A 3802   6.333   0.348   5.244 -1.0856 -4.4575  1.8574
   52CHL1  H18B 3803   6.455   0.296   5.348  0.5563  1.4193 -0.9194
   52CHL1  H18C 3804   6.317   0.376   5.426 -2.2356 -0.0572 -1.2463
   52CHL1   C12 3805   6.363   0.623   5.299 -0.8762 -0.0264  0.6350
   52CHL1  H12A 3806   6.263   0.617   5.346 -0.2653 -0.4510  1.9432
   52CHL1  H12B 3807   6.410   0.721   5.325 -1.6227 -0.1515  2.6555
   52CHL1   C11 3808   6.332   0.619   5.147  0.1098 -0.2639 -0.8814
   52CHL1  H11A 3809   6.267   0.529   5.138 -0.4917  0.1208 -0.3743
   52CHL1  H11B 3810   6.274   0.709   5.120 -2.1127 -1.0616  0.9357
   52CHL1    C9 3811   6.452   0.603   5.053  0.6383  0.3524 -0.5022
   52CHL1    H9 3812   6.512   0.696   5.053 -0.7609  1.2898 -1.1742
   52CHL1   C10 3813   6.415   0.591   4.899  0.8735  0.3454 -0.7105
   52CHL1   C19 3814   6.302   0.485   4.885  0.3849  0.0360 -0.0850
   52CHL1  H19A 3815   6.319   0.396   4.949  1.7665  0.2943 -0.0653
   52CHL1  H19B 3816   6.204   0.531   4.907 -1.0592 -3.0037  0.3718
   52CHL1  H19C 3817   6.288   0.461   4.777 -1.7112  0.6062  0.0198
   52CHL1    C1 3818   6.366   0.727   4.857 -0.8625  0.5256  0.3157
   52CHL1   H1A 3819   6.281   0.759   4.920 -0.8392 -0.2927  0.7781
   52CHL1   H1B 3820   6.447   0.799   4.881 -0.8080  0.5693  0.0012
   52CHL1    C2 3821   6.335   0.745   4.709  0.6600  0.3270 -0.4281
   52CHL1   H2A 3822   6.302   0.850   4.690 -1.1326  0.1325  1.2542
   52CHL1   H2B 3823   6.246   0.680   4.697 -0.8303  1.5166  2.8756
   52CHL1   C20 3824   6.434   0.535   5.600  0.3620 -0.1463 -0.8085
   52CHL1   H20 3825   6.329   0.553   5.567 -0.4232 -3.3074 -0.3684
   52CHL1   C21 3826   6.477   0.667   5.675  0.7321  0.1869  0.0682
   52CHL1  H21A 3827   6.409   0.681   5.762 -2.2326 -1.8835 -1.7401
   52CHL1  H21B 3828   6.460   0.760   5.617 -0.8894  0.1973  0.5185
   52CHL1  H21C 3829   6.580   0.640   5.707  1.1497 -1.5869 -2.4904
   52CHL1   C22 3830   6.444   0.408   5.685 -0.7726 -0.0964 -0.2007
   52CHL1  H22A 3831   6.429   0.323   5.615 -3.0983  1.8972 -2.3470
   52CHL1  H22B 3832   6.548   0.412   5.724  0.2500  0.8184 -2.7780
   52CHL1   C23 3833   6.331   0.409   5.796 -0.0916  0.2534  0.2175
   52CHL1  H23A 3834   6.354   0.334   5.875  0.2394  0.5831  0.4377
   52CHL1  H23B 3835   6.334   0.512   5.838  2.0164  0.6744 -0.8841
   52CHL1   C24 3836   6.193   0.385   5.741  0.4114 -1.1347  0.3088
   52CHL1  H24A 3837   6.167   0.439   5.647  1.8970  1.7828  1.4404
   52CHL1  H24B 3838   6.185   0.286   5.691 -2.0130 -1.8393  1.8877
   52CHL1   C25 3839   6.068   0.393   5.830 -0.2317  0.4389  0.4229
   52CHL1   H25 3840   5.986   0.368   5.759 -1.5062  0.1637  1.9460
   52CHL1   C26 3841   6.068   0.295   5.951  0.7271 -0.1354 -0.2390
   52CHL1  H26A 3842   5.969   0.289   6.003  0.7790  0.9890  0.0328
   52CHL1  H26B 3843   6.093   0.193   5.916 -0.5489 -0.5641  0.0188
   52CHL1  H26C 3844   6.137   0.324   6.033  1.0910  1.9555 -1.2225
   52CHL1   C27 3845   6.053   0.540   5.888  0.3059 -0.3413  0.0105
   52CHL1  H27A 3846   6.117   0.558   5.977  1.4049  0.6942 -0.9638
   52CHL1  H27B 3847   6.080   0.613   5.809 -1.8502  0.0077 -0.4673
   52CHL1  H27C 3848   5.949   0.578   5.902  1.2860  2.3898  0.4367
   53CHL1    C3 3849   6.174   6.797   4.175 -0.1293 -0.3047  0.3994
   53CHL1    H3 3850   6.258   6.732   4.207 -1.8962 -2.5717  0.6980
   53CHL1    O3 3851   6.178   6.790   4.037  0.0539 -0.2197 -0.6387
   53CHL1   H3' 3852   6.267   6.813   4.009  0.3162  0.4346  0.6633
   53CHL1    C4 3853   6.045   6.737   4.229  0.0926  0.0493  0.3755
   53CHL1   H4A 3854   5.950   6.786   4.196 -0.2430  1.2901  2.9775
   53CHL1   H4B 3855   6.040   6.640   4.175  1.9597  1.8575 -3.4388
   53CHL1    C5 3856   6.046   6.733   4.381 -0.1678 -0.5020  0.0783
   53CHL1    C6 3857   6.027   6.615   4.450 -0.4103 -0.4609 -0.4996
   53CHL1    H6 3858   6.015   6.522   4.394 -1.8618 -0.3047 -0.5034
   53CHL1    C7 3859   6.019   6.611   4.602 -1.1352  0.1806  0.3264
   53CHL1   H7A 3860   5.936   6.548   4.641 -2.2459  0.9793 -0.6964
   53CHL1   H7B 3861   6.116   6.569   4.635 -1.3054  0.1945  0.8614
   53CHL1    C8 3862   6.002   6.749   4.665 -0.3667 -0.5272  0.2623
   53CHL1    H8 3863   5.899   6.784   4.644  0.5082  0.8061 -2.1383
   53CHL1   C14 3864   6.025   6.731   4.818 -0.2499 -0.1782  0.3052
   53CHL1   H14 3865   6.127   6.689   4.836 -0.3535  0.5692  3.0702
   53CHL1   C15 3866   5.944   6.627   4.895 -0.2570  0.8764 -0.1778
   53CHL1  H15A 3867   5.836   6.652   4.895 -0.3535  0.4715 -0.1392
   53CHL1  H15B 3868   5.981   6.528   4.860  3.3771  1.5442  1.2198
   53CHL1   C16 3869   5.980   6.652   5.041 -0.1219  0.3289 -0.0365
   53CHL1  H16A 3870   5.889   6.676   5.100 -0.4247  0.7151 -0.6443
   53CHL1  H16B 3871   6.025   6.559   5.082  1.2245  1.0219  0.1043
   53CHL1   C17 3872   6.063   6.783   5.039 -0.3661 -0.0818 -0.3063
   53CHL1   H17 3873   6.169   6.750   5.051 -0.8421 -1.1340  1.3495
   53CHL1   C13 3874   6.031   6.851   4.904  0.3841  0.1231 -0.0302
   53CHL1   C18 3875   5.887   6.914   4.898  0.4859  0.2382 -0.7557
   53CHL1  H18A 3876   5.854   6.941   4.796 -0.4398  2.3975  0.0585
   53CHL1  H18B 3877   5.804   6.851   4.939  0.0206  0.7655 -0.8848
   53CHL1  H18C 3878   5.893   7.007   4.958 -2.2402 -0.8679  1.4925
   53CHL1   C12 3879   6.135   6.949   4.836  0.7925  0.2486  1.0266
   53CHL1  H12A 3880   6.124   7.047   4.886  1.5442  0.9751 -0.1655
   53CHL1  H12B 3881   6.238   6.910   4.853  0.2910 -2.3718 -1.2129
   53CHL1   C11 3882   6.108   6.977   4.685 -1.0792 -0.1680 -0.2385
   53CHL1  H11A 3883   6.017   7.040   4.674  0.2235  1.6288 -1.5412
   53CHL1  H11B 3884   6.193   7.040   4.650 -0.4360 -1.7613 -1.6440
   53CHL1    C9 3885   6.102   6.848   4.602  0.4421  0.9167  0.1430
   53CHL1    H9 3886   6.197   6.790   4.605  1.1957  2.1133  2.4381
   53CHL1   C10 3887   6.076   6.868   4.446  0.4054  0.0624 -0.6627
   53CHL1   C19 3888   5.956   6.959   4.427  0.4038  0.3611  0.8227
   53CHL1  H19A 3889   5.861   6.921   4.469  1.2489 -1.8783  0.8170
   53CHL1  H19B 3890   5.975   7.062   4.466 -0.4743  0.5567  0.7453
   53CHL1  H19C 3891   5.943   6.982   4.319 -0.7270  0.3046  0.9384
   53CHL1    C1 3892   6.203   6.931   4.386  0.7538 -0.1506  0.2798
   53CHL1   H1A 3893   6.221   7.029   4.436 -1.8254  1.1778 -1.1627
   53CHL1   H1B 3894   6.295   6.872   4.405 -0.8032 -2.6077  0.6186
   53CHL1    C2 3895   6.196   6.942   4.229 -0.4326 -0.1780  0.1555
   53CHL1   H2A 3896   6.292   6.981   4.190 -0.7735  2.6058  1.8299
   53CHL1   H2B 3897   6.120   7.016   4.197 -0.0095 -0.0626 -0.6187
   53CHL1   C20 3898   6.036   6.863   5.169  0.0615 -0.1607 -0.3801
   53CHL1   H20 3899   5.933   6.905   5.170  0.3575  0.5916  0.5434
   53CHL1   C21 3900   6.135   6.986   5.179  0.0309  0.0400 -0.3895
   53CHL1  H21A 3901   6.237   6.943   5.173 -0.9022 -2.2007 -1.6290
   53CHL1  H21B 3902   6.150   7.044   5.272  0.3369  0.0250 -0.4295
   53CHL1  H21C 3903   6.125   7.061   5.098  0.2378 -0.1387 -0.5820
   53CHL1   C22 3904   6.046   6.787   5.305 -0.1618 -0.0450  1.0485
   53CHL1  H22A 3905   5.987   6.693   5.295  1.1199 -0.7336 -0.5743
   53CHL1  H22B 3906   6.152   6.763   5.327  0.0524  0.0086  0.1247
   53CHL1   C23 3907   5.988   6.861   5.428  0.1333  0.0596  0.0670
   53CHL1  H23A 3908   6.044   6.957   5.435 -0.5554  0.5157 -0.5286
   53CHL1  H23B 3909   5.879   6.869   5.409 -0.0178 -0.5915  0.6326
   53CHL1   C24 3910   5.992   6.780   5.558  0.7936  0.3959  0.0260
   53CHL1  H24A 3911   5.936   6.687   5.535 -0.0339  1.0289 -0.5739
   53CHL1  H24B 3912   6.097   6.745   5.571  0.6904 -0.2107 -0.6777
   53CHL1   C25 3913   5.947   6.856   5.687  0.4781 -0.3001 -0.6282
   53CHL1   H25 3914   6.007   6.949   5.699  1.4508 -1.0970  1.2211
   53CHL1   C26 3915   5.811   6.909   5.669  0.1676  0.0225 -0.7829
   53CHL1  H26A 3916   5.770   6.962   5.757  0.3249 -0.7527 -0.2340
   53CHL1  H26B 3917   5.802   6.971   5.577 -2.0112 -0.5811 -1.0366
   53CHL1  H26C 3918   5.739   6.826   5.648  0.9749 -0.1857 -3.0575
   53CHL1   C27 3919   5.949   6.783   5.817 -0.1997 -0.2973  0.1840
   53CHL1  H27A 3920   5.898   6.685   5.809 -1.2895  0.1487  1.4261
   53CHL1  H27B 3921   6.047   6.774   5.869 -1.9263 -1.2294  3.5306
   53CHL1  H27C 3922   5.897   6.846   5.892 -0.5617 -1.6013  1.0362
   54CHL1    C3 3923   2.368   5.709   4.348 -0.1619  0.4287  0.0535
   54CHL1    H3 3924   2.277   5.772   4.336 -1.3076 -0.6597  2.4404
   54CHL1    O3 3925   2.431   5.646   4.237  0.1143 -0.0622 -0.7384
   54CHL1   H3' 3926   2.393   5.558   4.232  0.3803 -0.2089 -0.1809
   54CHL1    C4 3927   2.472   5.801   4.412  0.7006  1.1986 -0.3734
   54CHL1   H4A 3928   2.562   5.736   4.411 -0.5284 -0.5716 -0.3129
   54CHL1   H4B 3929   2.492   5.888   4.346 -0.9573  2.1788  0.3659
   54CHL1    C5 3930   2.429   5.847   4.551  0.2280  0.7916 -0.0986
   54CHL1    C6 3931   2.432   5.979   4.581 -0.1951 -0.1504  0.5327
   54CHL1    H6 3932   2.474   6.054   4.512  1.9521 -0.9851  0.8382
   54CHL1    C7 3933   2.397   6.042   4.713  0.3274 -0.1259 -0.4011
   54CHL1   H7A 3934   2.469   6.115   4.756 -0.8743  0.1741  1.1618
   54CHL1   H7B 3935   2.299   6.093   4.713  1.7086  2.6979 -1.2707
   54CHL1    C8 3936   2.403   5.926   4.820  0.3328  0.0940 -0.1116
   54CHL1    H8 3937   2.510   5.902   4.835  0.2471  0.8823  2.1622
   54CHL1   C14 3938   2.358   5.986   4.951 -0.1541 -0.4514 -0.0050
   54CHL1   H14 3939   2.254   6.018   4.930 -0.2618 -0.1515  0.9462
   54CHL1   C15 3940   2.432   6.109   5.005  0.1033 -0.5565 -0.0345
   54CHL1  H15A 3941   2.542   6.108   4.995  0.1285  0.7085  0.0286
   54CHL1  H15B 3942   2.396   6.206   4.964 -0.0692 -0.9191 -0.7578
   54CHL1   C16 3943   2.405   6.095   5.156 -0.0789 -0.2973  0.0997
   54CHL1  H16A 3944   2.505   6.072   5.199  0.1521 -1.9164 -1.2081
   54CHL1  H16B 3945   2.355   6.185   5.198 -0.4519  1.0570 -2.9592
   54CHL1   C17 3946   2.322   5.963   5.184 -0.4459  0.1612 -0.3893
   54CHL1   H17 3947   2.218   5.999   5.171 -1.3662 -1.8341  0.9768
   54CHL1   C13 3948   2.352   5.877   5.056 -0.4428  0.2659 -0.6613
   54CHL1   C18 3949   2.497   5.812   5.084 -0.0348 -0.4022  0.1864
   54CHL1  H18A 3950   2.565   5.890   5.123 -1.0587 -0.8701  3.1578
   54CHL1  H18B 3951   2.490   5.719   5.144 -1.4621 -0.8557 -0.6342
   54CHL1  H18C 3952   2.545   5.784   4.987  1.4635  1.0165  0.4744
   54CHL1   C12 3953   2.244   5.774   5.021 -0.2593 -0.7521  0.3416
   54CHL1  H12A 3954   2.237   5.696   5.100 -0.1657 -0.4893  0.6085
   54CHL1  H12B 3955   2.147   5.824   5.003 -0.2807 -1.2729 -1.1784
   54CHL1   C11 3956   2.285   5.704   4.883 -0.0275 -1.2536  0.2232
   54CHL1  H11A 3957   2.371   5.637   4.907  0.0342 -1.2197  0.0976
   54CHL1  H11B 3958   2.201   5.643   4.844  0.8535  0.3041 -4.8124
   54CHL1    C9 3959   2.329   5.809   4.772  0.1864  0.7785 -0.0440
   54CHL1    H9 3960   2.230   5.847   4.738  0.8976  2.2148 -0.5844
   54CHL1   C10 3961   2.387   5.743   4.649 -0.1407 -0.0220 -0.0067
   54CHL1   C19 3962   2.515   5.662   4.688  0.2169  0.9560  0.0171
   54CHL1  H19A 3963   2.512   5.578   4.761  1.9133  0.8480  0.0039
   54CHL1  H19B 3964   2.544   5.619   4.590  1.9685 -0.4350  1.0911
   54CHL1  H19C 3965   2.603   5.725   4.711  1.5954  0.1714 -2.7451
   54CHL1    C1 3966   2.282   5.650   4.585  0.1782 -0.9140 -0.6628
   54CHL1   H1A 3967   2.280   5.554   4.641 -1.1966  0.0306  0.9784
   54CHL1   H1B 3968   2.186   5.705   4.583  1.1539  1.0930  1.8772
   54CHL1    C2 3969   2.325   5.596   4.443 -0.0122 -0.0028  0.3745
   54CHL1   H2A 3970   2.244   5.531   4.403  0.1389 -1.9237  2.9598
   54CHL1   H2B 3971   2.407   5.528   4.473  0.5313  1.3706  2.1887
   54CHL1   C20 3972   2.349   5.896   5.320  0.8113 -0.4422  0.2925
   54CHL1   H20 3973   2.453   5.858   5.315  1.4438  1.1868  0.2317
   54CHL1   C21 3974   2.247   5.788   5.338  0.4910  0.5045  0.0276
   54CHL1  H21A 3975   2.293   5.687   5.329 -1.4118 -0.5811  1.6550
   54CHL1  H21B 3976   2.163   5.802   5.268 -1.2394 -2.7958  1.2049
   54CHL1  H21C 3977   2.205   5.789   5.441  1.8604  2.1825  0.6227
   54CHL1   C22 3978   2.355   5.994   5.443  0.1251  0.5855 -0.9762
   54CHL1  H22A 3979   2.358   5.929   5.533  0.0290  2.1407  0.1979
   54CHL1  H22B 3980   2.445   6.059   5.438  1.3128 -1.0290 -0.9604
   54CHL1   C23 3981   2.226   6.072   5.458  0.0240 -0.0568 -0.5804
   54CHL1  H23A 3982   2.217   6.137   5.368 -0.3979  1.4568  0.5043
   54CHL1  H23B 3983   2.136   6.008   5.471 -0.4298  0.3292 -1.6868
   54CHL1   C24 3984   2.224   6.172   5.572  0.5096 -0.4265 -0.0408
   54CHL1  H24A 3985   2.244   6.123   5.669  2.4545 -1.3067 -0.8319
   54CHL1  H24B 3986   2.297   6.256   5.559 -1.1360  0.8569 -1.4439
   54CHL1   C25 3987   2.085   6.243   5.581 -0.7919  0.1489  0.4872
   54CHL1   H25 3988   2.006   6.175   5.620 -0.7855 -0.3732 -0.3930
   54CHL1   C26 3989   2.080   6.358   5.697  0.6784  0.2265  0.7911
   54CHL1  H26A 3990   1.982   6.363   5.749  1.7874 -1.3770  3.2065
   54CHL1  H26B 3991   2.167   6.349   5.765  2.4084 -3.4550 -1.5948
   54CHL1  H26C 3992   2.107   6.450   5.641 -0.6760 -0.6945 -1.5613
   54CHL1   C27 3993   2.032   6.303   5.449 -0.3316 -0.1410  0.0110
   54CHL1  H27A 3994   2.004   6.228   5.371  0.8688 -0.1091 -0.4805
   54CHL1  H27B 3995   1.939   6.361   5.462 -1.5247 -2.1418  0.8839
   54CHL1  H27C 3996   2.110   6.364   5.398  1.2279 -0.2547  2.1531
   55CHL1    C3 3997   4.473   0.732   4.317 -0.9823  0.0183  0.2413
   55CHL1    H3 3998   4.551   0.655   4.334  0.8891  1.4745 -1.1154
   55CHL1    O3 3999   4.448   0.745   4.174 -0.2043 -0.4560 -0.5270
   55CHL1   H3' 4000   4.407   0.830   4.156 -1.9716 -1.1490  0.0744
   55CHL1    C4 4001   4.336   0.709   4.392  0.5134  0.1930 -0.2734
   55CHL1   H4A 4002   4.257   0.781   4.365 -1.2424 -0.3215  2.9682
   55CHL1   H4B 4003   4.294   0.609   4.365  1.6621  0.0351 -1.6003
   55CHL1    C5 4004   4.344   0.716   4.548  0.3993  0.0177 -0.3582
   55CHL1    C6 4005   4.302   0.619   4.628  0.2006  0.0242  0.0938
   55CHL1    H6 4006   4.263   0.533   4.572 -0.4730  0.6641 -0.4480
   55CHL1    C7 4007   4.302   0.607   4.781 -0.3676 -0.1677 -0.3553
   55CHL1   H7A 4008   4.210   0.559   4.822 -0.7791  0.2476 -0.7663
   55CHL1   H7B 4009   4.373   0.528   4.812  0.0806 -0.0407 -1.0429
   55CHL1    C8 4010   4.339   0.741   4.844  0.6058 -0.2618 -0.6419
   55CHL1    H8 4011   4.253   0.811   4.845  0.4412 -0.3600  2.3234
   55CHL1   C14 4012   4.383   0.715   4.980 -0.1291  0.4351  0.5986
   55CHL1   H14 4013   4.481   0.662   4.982  0.2447  1.1337  1.3402
   55CHL1   C15 4014   4.298   0.615   5.074 -0.1244 -0.0050 -0.0857
   55CHL1  H15A 4015   4.189   0.616   5.053 -0.4214 -0.7713  1.2790
   55CHL1  H15B 4016   4.331   0.510   5.057  0.3932  0.3566 -1.4182
   55CHL1   C16 4017   4.346   0.657   5.210  0.2058 -0.0086 -0.3365
   55CHL1  H16A 4018   4.256   0.694   5.262 -0.2604 -0.3550 -0.8785
   55CHL1  H16B 4019   4.395   0.577   5.268  0.2297  1.1725  1.3469
   55CHL1   C17 4020   4.438   0.779   5.195 -0.4242  0.1063  0.4142
   55CHL1   H17 4021   4.542   0.740   5.193 -0.2461  0.4083  2.1368
   55CHL1   C13 4022   4.410   0.842   5.059 -0.7084  0.2783  0.3390
   55CHL1   C18 4023   4.275   0.923   5.071  0.1003 -0.3217 -0.4236
   55CHL1  H18A 4024   4.191   0.854   5.096 -0.4972  0.2745 -0.7852
   55CHL1  H18B 4025   4.290   0.997   5.152  1.3111  1.5038 -2.2412
   55CHL1  H18C 4026   4.263   0.970   4.972 -0.3053  0.8301  0.1623
   55CHL1   C12 4027   4.522   0.921   4.984  0.3886 -0.2817  0.4125
   55CHL1  H12A 4028   4.547   1.013   5.042 -0.2270 -1.1847  2.2029
   55CHL1  H12B 4029   4.612   0.856   4.988 -0.8786 -2.2670 -1.5069
   55CHL1   C11 4030   4.493   0.946   4.837  0.2329 -0.1526 -0.6996
   55CHL1  H11A 4031   4.414   1.024   4.838  0.8026  0.4436  0.7837
   55CHL1  H11B 4032   4.582   0.982   4.781 -0.8259 -0.0006 -2.3673
   55CHL1    C9 4033   4.447   0.818   4.764  0.4223 -0.1345 -0.3470
   55CHL1    H9 4034   4.539   0.757   4.769 -1.1380 -2.7147 -1.3814
   55CHL1   C10 4035   4.413   0.838   4.612 -0.2912 -0.0149  0.0182
   55CHL1   C19 4036   4.309   0.952   4.589  0.3157  0.3274  0.2347
   55CHL1  H19A 4037   4.353   1.055   4.595  0.6137  0.2797 -0.9586
   55CHL1  H19B 4038   4.246   0.941   4.499 -1.2259  0.2858  1.2764
   55CHL1  H19C 4039   4.229   0.945   4.666 -0.6006 -1.3585 -0.8271
   55CHL1    C1 4040   4.550   0.866   4.529 -0.8692 -0.4543  0.8604
   55CHL1   H1A 4041   4.598   0.959   4.566 -0.5079 -1.3941  2.9028
   55CHL1   H1B 4042   4.615   0.777   4.547 -0.8210 -0.7614 -0.7186
   55CHL1    C2 4043   4.532   0.867   4.374 -0.0709  0.5113 -0.7941
   55CHL1   H2A 4044   4.633   0.891   4.336 -0.4888  2.1981 -0.8830
   55CHL1   H2B 4045   4.459   0.948   4.353  0.5555  1.6296  1.1132
   55CHL1   C20 4046   4.443   0.873   5.315  0.7224 -0.1495 -0.0143
   55CHL1   H20 4047   4.342   0.915   5.335  0.4658 -0.5868 -0.3691
   55CHL1   C21 4048   4.540   0.988   5.293  0.0551  0.1400 -0.3902
   55CHL1  H21A 4049   4.628   0.932   5.255 -0.8400 -1.4994 -0.1568
   55CHL1  H21B 4050   4.564   1.034   5.391  0.9594  0.0783 -0.5707
   55CHL1  H21C 4051   4.510   1.075   5.232  2.5554  1.5323  0.2223
   55CHL1   C22 4052   4.488   0.798   5.446 -0.4955 -0.0776 -0.2243
   55CHL1  H22A 4053   4.452   0.693   5.449  2.4813 -1.1552  1.4990
   55CHL1  H22B 4054   4.597   0.780   5.444 -0.2715  0.6690  2.2011
   55CHL1   C23 4055   4.458   0.867   5.577  0.5486 -0.2848 -0.0945
   55CHL1  H23A 4056   4.504   0.968   5.588 -1.7535  0.5943  2.8720
   55CHL1  H23B 4057   4.348   0.871   5.591  0.4544 -1.2684 -0.4983
   55CHL1   C24 4058   4.506   0.785   5.705 -0.8392 -0.2948 -0.0469
   55CHL1  H24A 4059   4.477   0.678   5.701 -0.5980 -0.3860  0.5810
   55CHL1  H24B 4060   4.617   0.780   5.699 -0.8189 -1.2372  0.9053
   55CHL1   C25 4061   4.488   0.837   5.851 -0.5813  0.0734  0.9757
   55CHL1   H25 4062   4.533   0.938   5.862  4.0230 -1.6270  0.0271
   55CHL1   C26 4063   4.344   0.839   5.876 -0.7484  0.4648 -0.6639
   55CHL1  H26A 4064   4.304   0.918   5.809  2.0885 -0.0528 -3.1771
   55CHL1  H26B 4065   4.294   0.742   5.856 -0.1637  0.2671 -1.2090
   55CHL1  H26C 4066   4.326   0.882   5.977 -0.9332 -0.5167 -0.2677
   55CHL1   C27 4067   4.546   0.740   5.947 -0.8891 -0.0316  0.1754
   55CHL1  H27A 4068   4.533   0.770   6.053 -0.0304 -1.0676  0.5981
   55CHL1  H27B 4069   4.516   0.634   5.931 -0.1102 -0.2035 -0.2073
   55CHL1  H27C 4070   4.657   0.749   5.936 -0.9988  2.6341  0.6640
   56CHL1    C3 4071   0.608   0.170   4.229 -0.0732  0.0096  0.5700
   56CHL1    H3 4072   0.504   0.134   4.247 -0.0070 -0.1412  0.6569
   56CHL1    O3 4073   0.628   0.190   4.089  0.2877  0.3089 -0.5750
   56CHL1   H3' 4074   0.654   0.282   4.090 -0.2211  0.4641  0.5414
   56CHL1    C4 4075   0.637   0.300   4.303 -0.3998  0.3865  0.9333
   56CHL1   H4A 4076   0.740   0.336   4.284 -0.2299 -0.3674  0.3716
   56CHL1   H4B 4077   0.569   0.376   4.259  0.2671 -0.0634 -0.9584
   56CHL1    C5 4078   0.629   0.292   4.455 -0.0070  0.2803 -0.2451
   56CHL1    C6 4079   0.551   0.375   4.517 -0.0308 -0.2532 -0.1741
   56CHL1    H6 4080   0.506   0.458   4.462  0.4089  1.7629  2.3361
   56CHL1    C7 4081   0.538   0.385   4.666  0.6397 -0.2379  0.6420
   56CHL1   H7A 4082   0.546   0.494   4.689  1.0788  0.0590 -0.8200
   56CHL1   H7B 4083   0.436   0.358   4.701  0.7346 -0.5307  0.6958
   56CHL1    C8 4084   0.633   0.293   4.743 -1.0077 -0.4932 -0.1041
   56CHL1    H8 4085   0.727   0.346   4.768 -1.5727 -0.7212  2.8178
   56CHL1   C14 4086   0.581   0.243   4.878  0.2920 -0.7026 -0.4083
   56CHL1   H14 4087   0.500   0.173   4.846  0.2268 -0.0827 -1.6267
   56CHL1   C15 4088   0.509   0.346   4.966  0.5246  0.0107 -0.0682
   56CHL1  H15A 4089   0.575   0.434   4.978  0.4785  0.2446 -1.3945
   56CHL1  H15B 4090   0.410   0.381   4.930  0.6190 -0.8336 -1.2066
   56CHL1   C16 4091   0.497   0.280   5.101 -0.1144  0.1026  0.0569
   56CHL1  H16A 4092   0.543   0.350   5.174  1.9647  0.3202 -1.3804
   56CHL1  H16B 4093   0.389   0.260   5.116 -0.4398 -0.2301 -2.3463
   56CHL1   C17 4094   0.582   0.140   5.092  0.0997 -0.2741 -0.3399
   56CHL1   H17 4095   0.512   0.057   5.068  3.3410 -2.7281 -2.0714
   56CHL1   C13 4096   0.670   0.157   4.966  0.0768 -0.0197 -0.3938
   56CHL1   C18 4097   0.802   0.235   5.013 -0.1165 -0.8414 -0.1212
   56CHL1  H18A 4098   0.767   0.305   5.091  0.6152 -1.8767  1.1706
   56CHL1  H18B 4099   0.880   0.168   5.055  0.8050  0.0334 -0.3964
   56CHL1  H18C 4100   0.855   0.286   4.930 -1.2778  1.5798  0.5454
   56CHL1   C12 4101   0.706   0.030   4.890  0.3335 -0.3920 -0.0577
   56CHL1  H12A 4102   0.779  -0.032   4.947  2.6197  0.9177 -1.4275
   56CHL1  H12B 4103   0.614  -0.032   4.887 -1.9760  2.7094  1.5457
   56CHL1   C11 4104   0.752   0.057   4.747 -1.0910  0.1206  0.0787
   56CHL1  H11A 4105   0.857   0.089   4.765 -1.6401  2.1237 -0.0422
   56CHL1  H11B 4106   0.757  -0.036   4.687  0.8728  0.2411 -0.0227
   56CHL1    C9 4107   0.664   0.161   4.663 -0.8309  0.1423 -0.0151
   56CHL1    H9 4108   0.565   0.113   4.653 -0.6366 -0.2232 -0.1981
   56CHL1   C10 4109   0.709   0.176   4.519 -0.0700 -0.0826 -0.2188
   56CHL1   C19 4110   0.861   0.194   4.514  0.8082  0.3158 -0.7243
   56CHL1  H19A 4111   0.892   0.281   4.576  0.1741 -1.0126  1.5965
   56CHL1  H19B 4112   0.930   0.111   4.541 -0.5146 -0.5305  0.1620
   56CHL1  H19C 4113   0.886   0.227   4.411 -1.7681  0.1786 -1.4534
   56CHL1    C1 4114   0.675   0.049   4.433 -0.4072  0.2029 -0.0311
   56CHL1   H1A 4115   0.740  -0.032   4.471 -0.7540  0.6643  1.6294
   56CHL1   H1B 4116   0.567   0.022   4.446 -0.7895  0.7828 -1.7480
   56CHL1    C2 4117   0.697   0.057   4.284  0.4076  0.3917 -0.5688
   56CHL1   H2A 4118   0.672  -0.045   4.248  3.0637 -0.5231 -0.0271
   56CHL1   H2B 4119   0.799   0.080   4.247 -0.6113 -0.3885 -4.2751
   56CHL1   C20 4120   0.639   0.102   5.227  0.0099  0.0349  0.6713
   56CHL1   H20 4121   0.717   0.177   5.250  0.6565 -0.2909 -0.4034
   56CHL1   C21 4122   0.710  -0.037   5.210  0.2881 -0.2619  0.4687
   56CHL1  H21A 4123   0.726  -0.088   5.308 -0.7000  0.0966  0.8271
   56CHL1  H21B 4124   0.815  -0.016   5.178  0.2115 -0.3454  0.1583
   56CHL1  H21C 4125   0.662  -0.106   5.137  0.4045  0.9549 -0.7867
   56CHL1   C22 4126   0.528   0.101   5.336  0.1600  0.2074 -1.1313
   56CHL1  H22A 4127   0.483   0.202   5.347 -0.2708 -0.1510  0.7812
   56CHL1  H22B 4128   0.451   0.024   5.314  0.1452 -0.0303 -0.2938
   56CHL1   C23 4129   0.588   0.091   5.481  0.1311  0.1483 -0.0745
   56CHL1  H23A 4130   0.649  -0.002   5.483 -1.1029 -0.7374 -1.7166
   56CHL1  H23B 4131   0.660   0.175   5.491 -0.5399  0.7065  0.1165
   56CHL1   C24 4132   0.478   0.092   5.591 -0.3926 -0.2204 -0.2013
   56CHL1  H24A 4133   0.442   0.197   5.593  2.0595  0.6745  0.5260
   56CHL1  H24B 4134   0.403   0.020   5.551 -0.9329  0.9232 -1.3285
   56CHL1   C25 4135   0.533   0.042   5.725  0.3874  0.0152 -0.3282
   56CHL1   H25 4136   0.592  -0.052   5.718  2.0169  0.7791  1.8122
   56CHL1   C26 4137   0.631   0.140   5.785 -0.5435  0.0001  0.2248
   56CHL1  H26A 4138   0.647   0.118   5.893 -2.3839  0.0131  0.5277
   56CHL1  H26B 4139   0.729   0.143   5.733 -0.8965  1.4611 -0.4222
   56CHL1  H26C 4140   0.581   0.238   5.768 -0.7964 -0.3845 -1.3548
   56CHL1   C27 4141   0.414   0.024   5.825  0.0771 -0.0896 -0.8367
   56CHL1  H27A 4142   0.362  -0.072   5.803  2.1857 -2.0059  1.7280
   56CHL1  H27B 4143   0.461   0.017   5.926 -4.2033 -1.1105  1.3275
   56CHL1  H27C 4144   0.353   0.117   5.825  0.7469  0.3533 -1.2811
   57SAPC     N 4145   2.911   3.892   8.332 -0.4546 -0.1471 -0.3216
   57SAPC   C12 4146   3.042   3.950   8.381  0.4694  0.1344 -0.1511
   57SAPC  H12A 4147   3.097   3.873   8.434 -1.6643 -1.8854 -0.7217
   57SAPC  H12B 4148   3.017   4.021   8.459 -0.1128  0.8127 -0.9467
   57SAPC   C13 4149   2.824   4.000   8.287 -0.3126 -0.6470 -0.2550
   57SAPC  H13A 4150   2.731   3.962   8.247  0.3133 -0.7951 -1.6455
   57SAPC  H13B 4151   2.791   4.065   8.367  0.5890  0.6503 -0.8860
   57SAPC  H13C 4152   2.868   4.058   8.206 -1.3805 -1.4693 -1.4610
   57SAPC   C14 4153   2.948   3.802   8.218  0.5884 -0.2481  0.6770
   57SAPC  H14A 4154   2.864   3.766   8.160  0.0152  0.7542  0.8646
   57SAPC  H14B 4155   3.015   3.856   8.153  1.7454 -1.7970  0.5229
   57SAPC  H14C 4156   3.003   3.718   8.258  0.6579 -0.2080  0.6653
   57SAPC   C15 4157   2.832   3.818   8.435  0.2753 -0.3794  0.3034
   57SAPC  H15A 4158   2.893   3.735   8.466  1.2940  0.2047 -0.0565
   57SAPC  H15B 4159   2.816   3.880   8.522  0.2265  0.0706 -0.0171
   57SAPC  H15C 4160   2.732   3.786   8.409 -0.7786  2.3287  0.6858
   57SAPC   C11 4161   3.139   4.024   8.284  0.4481  0.0097 -0.0247
   57SAPC  H11A 4162   3.183   3.954   8.210  3.4390  2.1377 -0.3995
   57SAPC  H11B 4163   3.225   4.049   8.349 -0.1777 -1.9520  1.6613
   57SAPC     P 4164   3.094   4.287   8.264 -0.2361 -0.3006 -0.1302
   57SAPC   O13 4165   3.003   4.300   8.376  0.1743 -0.4825  0.0468
   57SAPC   O14 4166   3.238   4.322   8.294  0.2330  0.6308 -0.2323
   57SAPC   O12 4167   3.083   4.137   8.216 -0.0781 -0.0646  0.2207
   57SAPC   O11 4168   3.037   4.370   8.142  0.5106  0.0418  0.5977
   57SAPC    C1 4169   2.889   4.396   8.141 -0.0346  0.1820  1.3456
   57SAPC    HA 4170   2.829   4.322   8.199 -0.7365  0.0988  0.5424
   57SAPC    HB 4171   2.863   4.490   8.193 -0.5200  0.0945  1.2704
   57SAPC    C2 4172   2.823   4.417   7.998  0.1782 -0.7425 -0.4558
   57SAPC    HS 4173   2.715   4.427   8.019  0.2155 -1.0211 -0.1131
   57SAPC   O21 4174   2.858   4.300   7.925  0.4206  0.2407  0.5865
   57SAPC   C21 4175   2.765   4.272   7.831 -0.6545  0.2490 -0.5633
   57SAPC   O22 4176   2.661   4.330   7.820  0.1409 -0.0995 -0.2954
   57SAPC   C22 4177   2.800   4.155   7.745 -0.6294  0.1955 -0.0909
   57SAPC   H2R 4178   2.902   4.171   7.704 -0.8731 -2.9812 -2.3355
   57SAPC   H2S 4179   2.790   4.058   7.798  1.3682 -1.4077 -2.4443
   57SAPC    C3 4180   2.874   4.555   7.933 -0.1616  0.5099 -0.6378
   57SAPC    HX 4181   2.869   4.634   8.010 -0.6601  0.9988 -1.1675
   57SAPC    HY 4182   2.805   4.596   7.857 -0.2623  2.8254  0.6288
   57SAPC   O31 4183   3.016   4.544   7.891  0.2626  0.5733 -0.0760
   57SAPC   C31 4184   3.037   4.508   7.768  0.0921 -0.1813  0.0234
   57SAPC   O32 4185   2.958   4.507   7.676  0.8709  0.2417 -0.4818
   57SAPC   C32 4186   3.188   4.496   7.745 -0.6641  0.2399 -0.2592
   57SAPC   H2X 4187   3.235   4.403   7.782  1.5407  0.3481 -2.5286
   57SAPC   H2Y 4188   3.240   4.582   7.793 -0.1757  0.7296 -1.6097
   57SAPC   C23 4189   2.709   4.141   7.625  0.2151 -0.1005 -0.1081
   57SAPC   H3R 4190   2.725   4.228   7.557 -2.6575  1.0268  0.5208
   57SAPC   H3S 4191   2.604   4.143   7.661  0.4414 -1.4188  0.6719
   57SAPC   C24 4192   2.715   4.006   7.552 -0.3675 -0.7100  0.7591
   57SAPC   H4R 4193   2.648   3.935   7.605 -0.7445  0.2939  1.6638
   57SAPC   H4S 4194   2.817   3.963   7.546  0.5545  1.4825 -0.8938
   57SAPC   C25 4195   2.657   4.026   7.412 -0.5564 -0.0648 -0.6814
   57SAPC   H5R 4196   2.548   4.035   7.409 -0.5174  1.2609  0.5368
   57SAPC   C26 4197   2.733   4.055   7.306 -0.2823  0.3172  0.4796
   57SAPC   H6R 4198   2.680   4.060   7.210  0.2475  1.6719  0.2440
   57SAPC   C27 4199   2.879   4.060   7.302 -0.6058 -0.0724 -0.2384
   57SAPC   H7R 4200   2.912   3.991   7.222  1.0298  0.4175 -0.0235
   57SAPC   H7S 4201   2.926   4.016   7.393 -1.0575 -0.5932 -0.2476
   57SAPC   C28 4202   2.928   4.198   7.302  0.4256  0.6401 -0.3488
   57SAPC   H8R 4203   2.851   4.269   7.338  0.0805 -1.2260  2.9997
   57SAPC   C29 4204   3.046   4.236   7.251 -0.2121  0.5997  0.1129
   57SAPC   H9R 4205   3.066   4.344   7.239 -0.2997  0.4730 -1.3501
   57SAPC  C210 4206   3.145   4.132   7.193  0.7482  0.3104  0.3168
   57SAPC  H10R 4207   3.172   4.061   7.274  1.0105 -0.2989 -0.3002
   57SAPC  H10S 4208   3.236   4.195   7.182  1.4202 -0.6320  0.3886
   57SAPC  C211 4209   3.110   4.067   7.056 -0.4666 -0.1237 -0.7960
   57SAPC  H11R 4210   3.004   4.083   7.030 -0.3208  0.0158 -1.3349
   57SAPC  C212 4211   3.194   4.035   6.954 -0.2060 -0.2372  0.2726
   57SAPC  H12R 4212   3.150   3.988   6.865  1.5856  0.4299 -1.0307
   57SAPC  C213 4213   3.343   4.022   6.957 -0.1627 -0.1882  0.1500
   57SAPC  H13R 4214   3.373   4.035   7.063 -0.0208  5.1370 -0.2544
   57SAPC  H13S 4215   3.376   4.117   6.910 -2.6858  1.3650  1.2520
   57SAPC  C214 4216   3.398   3.893   6.902 -0.6129  0.2706  0.3614
   57SAPC  H14R 4217   3.375   3.805   6.964 -0.1828  0.2847  0.5500
   57SAPC  C215 4218   3.477   3.877   6.794 -0.6211  0.0992 -0.1901
   57SAPC  H15R 4219   3.522   3.781   6.762 -1.1694  0.1633 -1.1891
   57SAPC  C216 4220   3.505   3.991   6.703 -0.0342 -0.2505 -0.2012
   57SAPC  H16R 4221   3.573   4.064   6.751  0.1616  1.3758 -2.7726
   57SAPC  H16S 4222   3.410   4.045   6.686  0.1781 -0.1286 -1.0354
   57SAPC  C217 4223   3.570   3.965   6.566  0.2964  0.1826  0.1363
   57SAPC  H17R 4224   3.673   3.923   6.570  0.2760  0.0947 -0.2335
   57SAPC  H17S 4225   3.582   4.063   6.514  0.3932 -0.6831 -1.5664
   57SAPC  C218 4226   3.479   3.885   6.468 -0.5652  0.0011  0.5680
   57SAPC  H18R 4227   3.377   3.929   6.462 -0.1619  1.1365  1.5405
   57SAPC  H18S 4228   3.466   3.788   6.520 -3.5575  0.1684  0.2968
   57SAPC  C219 4229   3.546   3.871   6.329  0.2475 -0.2150  0.0613
   57SAPC  H19R 4230   3.630   3.798   6.340  0.3512 -0.3265 -1.2034
   57SAPC  H19S 4231   3.585   3.970   6.298  0.2085 -0.0701  0.4832
   57SAPC  C220 4232   3.455   3.826   6.210  0.0664  0.4548 -0.0088
   57SAPC  H20R 4233   3.373   3.902   6.205 -0.9937 -0.4021  2.5465
   57SAPC  H20S 4234   3.395   3.737   6.239  0.4577  0.8579  2.2517
   57SAPC  H20T 4235   3.518   3.805   6.122  0.6189  2.8499 -0.2442
   57SAPC   C33 4236   3.236   4.508   7.596  0.1821 -0.1760  0.2505
   57SAPC   H3X 4237   3.202   4.608   7.561 -2.5620 -1.5745 -1.4200
   57SAPC   H3Y 4238   3.192   4.435   7.525 -3.5654  0.8413  1.2861
   57SAPC   C34 4239   3.384   4.481   7.583 -0.3584  0.1570  0.2482
   57SAPC   H4X 4240   3.398   4.371   7.578 -0.7175  0.1031  0.4320
   57SAPC   H4Y 4241   3.426   4.511   7.682 -0.5208 -0.6377  0.5653
   57SAPC   C35 4242   3.462   4.533   7.456 -0.1095  0.0137 -0.3950
   57SAPC   H5X 4243   3.566   4.493   7.462 -0.1411  0.1387  1.7298
   57SAPC   H5Y 4244   3.456   4.644   7.463  1.0883  0.1252 -0.9616
   57SAPC   C36 4245   3.396   4.489   7.323  0.0938 -0.3352  0.1932
   57SAPC   H6X 4246   3.299   4.541   7.307 -0.7069 -2.2598 -1.7262
   57SAPC   H6Y 4247   3.373   4.381   7.325  1.3137 -0.5924  1.1656
   57SAPC   C37 4248   3.474   4.522   7.193 -0.2004  1.0091  0.2292
   57SAPC   H7X 4249   3.466   4.435   7.125 -1.5228  2.8686 -2.1906
   57SAPC   H7Y 4250   3.582   4.519   7.217 -0.2324  1.2248  0.4110
   57SAPC   C38 4251   3.427   4.648   7.122  0.5483  0.3230 -0.0271
   57SAPC   H8X 4252   3.444   4.722   7.203  0.8435 -1.3213  1.4801
   57SAPC   H8Y 4253   3.317   4.654   7.113  0.6393  1.5238 -0.4294
   57SAPC   C39 4254   3.507   4.666   6.990 -0.0628  0.0689 -0.2267
   57SAPC   H9X 4255   3.615   4.647   7.007  0.2127  1.4213 -0.3417
   57SAPC   H9Y 4256   3.502   4.774   6.963  4.8804  0.2553 -1.3070
   57SAPC  C310 4257   3.446   4.593   6.872 -0.4429 -0.1699  0.2015
   57SAPC  H10X 4258   3.497   4.630   6.781 -0.7975  1.9687  0.8062
   57SAPC  H10Y 4259   3.337   4.616   6.862 -0.7308 -1.1154  1.0311
   57SAPC  C311 4260   3.456   4.440   6.874  0.2646 -0.2201 -0.6475
   57SAPC  H11X 4261   3.365   4.395   6.919 -0.6766  1.9350 -0.2561
   57SAPC  H11Y 4262   3.546   4.405   6.929  0.2218  2.5924  1.4493
   57SAPC  C312 4263   3.477   4.384   6.737 -0.0604  0.1260  0.1323
   57SAPC  H12X 4264   3.486   4.273   6.735 -0.6959  0.0748 -1.1719
   57SAPC  H12Y 4265   3.565   4.427   6.685  0.4312 -2.2329 -1.1381
   57SAPC  C313 4266   3.356   4.404   6.643  0.6015  0.0690  0.7779
   57SAPC  H13X 4267   3.336   4.512   6.628 -1.7539 -0.3350  0.5960
   57SAPC  H13Y 4268   3.276   4.353   6.701 -0.0080 -0.0394 -0.1293
   57SAPC  C314 4269   3.374   4.337   6.505  0.3489 -0.2495  0.2830
   57SAPC  H14X 4270   3.276   4.340   6.453  0.0691  1.4929  0.8518
   57SAPC  H14Y 4271   3.402   4.230   6.510  0.3995 -0.2647 -0.3086
   57SAPC  C315 4272   3.482   4.409   6.417 -0.4824 -0.1708  0.2639
   57SAPC  H15X 4273   3.581   4.375   6.454 -0.5165 -1.0370 -0.3954
   57SAPC  H15Y 4274   3.475   4.520   6.414 -0.3398 -0.1765 -1.1684
   57SAPC  C316 4275   3.481   4.350   6.278  0.5180  0.3720  0.1641
   57SAPC  H16X 4276   3.382   4.331   6.231  0.9040  1.7799 -1.3416
   57SAPC  H16Y 4277   3.517   4.245   6.282  0.2978  0.3261  1.0778
   57SAPC  C317 4278   3.581   4.429   6.190  0.0070  0.2834 -0.1255
   57SAPC  H17X 4279   3.644   4.480   6.265  2.9531 -1.5936 -1.1381
   57SAPC  H17Y 4280   3.524   4.505   6.132  0.3293 -0.5980 -1.6513
   57SAPC  C318 4281   3.674   4.342   6.103  0.0253 -0.6248 -0.2891
   57SAPC  H18X 4282   3.629   4.313   6.006  1.4732 -2.9093 -0.3269
   57SAPC  H18Y 4283   3.730   4.262   6.155  2.2331  1.9580  1.6005
   57SAPC  H18Z 4284   3.757   4.405   6.064  1.1623 -1.5701  0.5451
   58SAPC     N 4285   6.267   1.642   8.238 -0.0632 -0.0654 -0.0382
   58SAPC   C12 4286   6.345   1.571   8.121  0.5483 -0.5083 -0.3765
   58SAPC  H12A 4287   6.275   1.563   8.039 -2.6948  2.2825  1.8472
   58SAPC  H12B 4288   6.366   1.468   8.145  1.3285 -0.1983  0.3344
   58SAPC   C13 4289   6.357   1.660   8.357  0.0439 -0.0784 -0.1283
   58SAPC  H13A 4290   6.359   1.561   8.400  0.3396  0.2023  0.5198
   58SAPC  H13B 4291   6.459   1.675   8.326 -0.4122  0.4413 -1.4307
   58SAPC  H13C 4292   6.322   1.729   8.433  2.2721  0.1330  0.7946
   58SAPC   C14 4293   6.212   1.776   8.195 -0.7055 -0.1063 -0.4653
   58SAPC  H14A 4294   6.139   1.766   8.115  0.8313 -0.9725 -1.8285
   58SAPC  H14B 4295   6.159   1.821   8.277  0.9726 -0.5820  0.9392
   58SAPC  H14C 4296   6.284   1.849   8.159  0.2134  0.5502  2.4273
   58SAPC   C15 4297   6.155   1.551   8.268 -0.5275 -0.2092 -0.6237
   58SAPC  H15A 4298   6.100   1.514   8.183  0.4310 -0.5041 -1.1380
   58SAPC  H15B 4299   6.192   1.466   8.322 -1.1219  0.0649  0.2376
   58SAPC  H15C 4300   6.077   1.603   8.322  1.2564  2.2883 -0.2482
   58SAPC   C11 4301   6.485   1.628   8.088  0.3337  0.2396 -0.3187
   58SAPC  H11A 4302   6.508   1.563   8.001  3.3100  1.3340 -0.4416
   58SAPC  H11B 4303   6.556   1.604   8.170 -0.3959 -0.0066  0.2563
   58SAPC     P 4304   6.438   1.798   7.900  0.1489 -0.2028 -0.1978
   58SAPC   O13 4305   6.297   1.768   7.883  0.1052 -0.0835 -0.6183
   58SAPC   O14 4306   6.487   1.927   7.857  0.3667  0.0701  0.3557
   58SAPC   O12 4307   6.487   1.765   8.043 -0.8641  0.3028  0.1108
   58SAPC   O11 4308   6.502   1.685   7.805 -0.8112  0.6463  0.2600
   58SAPC    C1 4309   6.634   1.668   7.766 -0.4251 -0.0945  0.5351
   58SAPC    HA 4310   6.700   1.748   7.807  2.4751 -0.6916 -2.4877
   58SAPC    HB 4311   6.675   1.570   7.796  0.1924 -0.0365 -0.0932
   58SAPC    C2 4312   6.640   1.686   7.610  0.4652 -0.9171 -0.2382
   58SAPC    HS 4313   6.747   1.690   7.582  0.3385  0.4933 -0.6114
   58SAPC   O21 4314   6.575   1.810   7.564  0.1628 -0.1078 -0.4069
   58SAPC   C21 4315   6.651   1.913   7.579  0.2314  0.5671 -0.2904
   58SAPC   O22 4316   6.767   1.917   7.620 -0.2961  0.1596 -0.3608
   58SAPC   C22 4317   6.574   2.031   7.519  0.6513 -0.4904  0.5506
   58SAPC   H2R 4318   6.466   2.013   7.535  0.4556  1.3534  1.5508
   58SAPC   H2S 4319   6.611   2.113   7.585  0.1422  0.9080 -0.8347
   58SAPC    C3 4320   6.592   1.563   7.536  0.0991  0.1810 -0.6243
   58SAPC    HX 4321   6.484   1.558   7.562  0.2672 -3.9851 -0.0994
   58SAPC    HY 4322   6.641   1.472   7.576 -1.5723 -0.2811  0.4924
   58SAPC   O31 4323   6.600   1.582   7.392 -0.2203 -0.1287  0.4989
   58SAPC   C31 4324   6.717   1.551   7.332  0.1520 -0.5751 -0.5975
   58SAPC   O32 4325   6.818   1.514   7.392  0.0338 -0.1461 -0.2647
   58SAPC   C32 4326   6.696   1.562   7.182  0.6452 -0.4674 -1.0201
   58SAPC   H2X 4327   6.670   1.669   7.167  0.0195 -0.2105  1.4541
   58SAPC   H2Y 4328   6.615   1.499   7.141  0.0335 -0.6486  0.4070
   58SAPC   C23 4329   6.600   2.060   7.374 -0.1548 -0.3859 -0.1494
   58SAPC   H3R 4330   6.709   2.074   7.362 -0.0862 -0.1657  0.6563
   58SAPC   H3S 4331   6.550   2.147   7.328  1.3277 -0.3326 -1.7580
   58SAPC   C24 4332   6.584   1.943   7.266  0.7902  0.0159  0.0426
   58SAPC   H4R 4333   6.659   1.864   7.292  2.1805  0.9728 -0.8905
   58SAPC   H4S 4334   6.637   1.990   7.181  0.1783 -0.2682 -0.5001
   58SAPC   C25 4335   6.443   1.900   7.241  0.1646  0.0336  0.4513
   58SAPC   H5R 4336   6.381   1.884   7.330 -0.3508  3.3770  0.8222
   58SAPC   C26 4337   6.375   1.902   7.125 -0.1360 -0.7991 -0.1656
   58SAPC   H6R 4338   6.267   1.884   7.126 -0.1838 -0.5246 -0.2289
   58SAPC   C27 4339   6.430   1.927   6.982 -0.2623  0.0554 -0.2848
   58SAPC   H7R 4340   6.506   2.007   6.969 -0.6074  0.1192 -2.2041
   58SAPC   H7S 4341   6.348   1.965   6.918  1.1909  3.3715 -0.3851
   58SAPC   C28 4342   6.496   1.799   6.930  0.1356 -0.8003 -0.2171
   58SAPC   H8R 4343   6.526   1.722   7.003  1.2868  1.2611  1.5983
   58SAPC   C29 4344   6.505   1.766   6.802 -0.2652  0.3724 -0.0711
   58SAPC   H9R 4345   6.548   1.667   6.779  0.4170 -0.1474  3.0536
   58SAPC  C210 4346   6.471   1.844   6.676 -0.7257  0.3185 -0.8300
   58SAPC  H10R 4347   6.561   1.842   6.610 -0.4029 -2.7364 -0.4342
   58SAPC  H10S 4348   6.450   1.953   6.691  1.2314  0.8863 -1.8797
   58SAPC  C211 4349   6.355   1.785   6.599 -0.0563  0.1047  0.1733
   58SAPC  H11R 4350   6.261   1.840   6.610  0.1786  1.0268 -1.9697
   58SAPC  C212 4351   6.347   1.677   6.511 -0.4034  0.1201 -0.7627
   58SAPC  H12R 4352   6.246   1.661   6.470 -0.4076 -0.6947 -0.4557
   58SAPC  C213 4353   6.464   1.601   6.461 -0.6669  0.4188 -0.2399
   58SAPC  H13R 4354   6.554   1.607   6.526 -0.8805 -0.0472  0.1068
   58SAPC  H13S 4355   6.484   1.654   6.365 -1.9181 -1.0253 -1.3465
   58SAPC  C214 4356   6.448   1.454   6.429  0.1128  0.3622 -0.0367
   58SAPC  H14R 4357   6.513   1.384   6.483 -0.6539 -1.2650 -1.1346
   58SAPC  C215 4358   6.364   1.400   6.340 -0.1568 -0.3283  0.4782
   58SAPC  H15R 4359   6.354   1.291   6.329 -1.1461  0.0292 -5.8986
   58SAPC  C216 4360   6.261   1.475   6.258  0.4294  0.2186 -0.5569
   58SAPC  H16R 4361   6.293   1.581   6.248  2.0353 -0.4098 -2.8331
   58SAPC  H16S 4362   6.169   1.494   6.316  0.6910  1.0182 -0.3866
   58SAPC  C217 4363   6.228   1.401   6.126  0.0586  0.0479 -0.7779
   58SAPC  H17R 4364   6.187   1.300   6.147 -0.3759  0.5981  1.2216
   58SAPC  H17S 4365   6.328   1.403   6.076 -1.4171  0.0579 -4.0065
   58SAPC  C218 4366   6.138   1.475   6.031 -0.7981 -0.0634  0.2774
   58SAPC  H18R 4367   6.182   1.576   6.018 -0.3483 -0.0344  1.8535
   58SAPC  H18S 4368   6.033   1.473   6.068 -1.1714 -0.7648 -0.7359
   58SAPC  C219 4369   6.139   1.401   5.889 -0.2292  0.5117  0.7178
   58SAPC  H19R 4370   6.056   1.453   5.837  0.2671  1.5361  0.9439
   58SAPC  H19S 4371   6.103   1.296   5.901  2.1258 -0.2107  2.1100
   58SAPC  C220 4372   6.270   1.417   5.810  0.4040  0.1911  0.2272
   58SAPC  H20R 4373   6.283   1.527   5.800 -0.3969  0.3583  0.8453
   58SAPC  H20S 4374   6.269   1.360   5.715 -0.1166  0.3969  0.1015
   58SAPC  H20T 4375   6.359   1.383   5.866  1.1298  2.3839  0.4893
   58SAPC   C33 4376   6.822   1.529   7.094 -0.5385  0.6021 -0.3802
   58SAPC   H3X 4377   6.835   1.420   7.075  1.6038  0.6395  0.5250
   58SAPC   H3Y 4378   6.911   1.569   7.147 -2.4330  3.2266  0.9705
   58SAPC   C34 4379   6.815   1.595   6.955  0.4787 -0.5841  0.2309
   58SAPC   H4X 4380   6.832   1.705   6.960 -1.9806  0.0497 -2.5536
   58SAPC   H4Y 4381   6.707   1.585   6.929  0.5191  0.5863 -0.4425
   58SAPC   C35 4382   6.899   1.526   6.853  0.5600 -0.2028 -0.4131
   58SAPC   H5X 4383   6.885   1.416   6.852  0.7999 -0.3831  2.8033
   58SAPC   H5Y 4384   7.009   1.535   6.868  0.7262 -0.2483 -1.5334
   58SAPC   C36 4385   6.859   1.567   6.709  0.2915 -0.5340  0.6868
   58SAPC   H6X 4386   6.882   1.674   6.688 -0.1397 -0.4735  0.5136
   58SAPC   H6Y 4387   6.748   1.573   6.708  0.1717 -0.7665 -3.2312
   58SAPC   C37 4388   6.898   1.470   6.598  0.6144 -0.0066  0.0409
   58SAPC   H7X 4389   6.851   1.371   6.617 -0.1632  0.3017 -0.2719
   58SAPC   H7Y 4390   7.008   1.457   6.611  0.5117 -0.0544  0.9157
   58SAPC   C38 4391   6.850   1.507   6.455 -0.0501 -0.3630 -0.5675
   58SAPC   H8X 4392   6.891   1.609   6.438 -1.0952  0.3925  1.1890
   58SAPC   H8Y 4393   6.740   1.516   6.447 -0.1657 -0.8116  0.3353
   58SAPC   C39 4394   6.899   1.408   6.349 -0.1058 -0.2942  0.1295
   58SAPC   H9X 4395   6.845   1.311   6.360 -2.9732  1.1017 -0.6388
   58SAPC   H9Y 4396   7.009   1.398   6.359  0.3997  1.1670 -2.8534
   58SAPC  C310 4397   6.866   1.459   6.207 -0.7358  0.1817  0.4565
   58SAPC  H10X 4398   6.866   1.570   6.206 -0.7994  0.1812  0.3746
   58SAPC  H10Y 4399   6.760   1.430   6.189 -0.7075  0.2230  0.2234
   58SAPC  C311 4400   6.953   1.407   6.090 -0.4069  0.1850 -0.1975
   58SAPC  H11X 4401   6.940   1.297   6.100 -1.4643 -0.0549 -3.1894
   58SAPC  H11Y 4402   7.059   1.435   6.104 -1.4754  4.2623  1.0303
   58SAPC  C312 4403   6.895   1.442   5.949 -0.8973  0.2581  0.0250
   58SAPC  H12X 4404   6.902   1.553   5.941 -1.1623  0.1934 -1.4598
   58SAPC  H12Y 4405   6.790   1.411   5.930 -1.0459  2.1371 -2.8874
   58SAPC  C313 4406   6.976   1.391   5.832 -0.1232  0.4805 -0.4854
   58SAPC  H13X 4407   6.997   1.282   5.839  0.1232  0.6589  2.7170
   58SAPC  H13Y 4408   7.074   1.439   5.848  1.0768 -2.4014  1.6574
   58SAPC  C314 4409   6.909   1.413   5.698 -0.2498 -0.3021  0.0493
   58SAPC  H14X 4410   6.899   1.521   5.672  0.7097 -0.4014 -0.8277
   58SAPC  H14Y 4411   6.804   1.377   5.694 -1.1141  1.9807  0.3051
   58SAPC  C315 4412   7.000   1.347   5.592  0.4943 -0.1920  0.7474
   58SAPC  H15X 4413   6.984   1.239   5.570  3.7308 -0.5758 -0.1730
   58SAPC  H15Y 4414   7.103   1.348   5.632  1.2173  0.2278 -1.0564
   58SAPC  C316 4415   6.998   1.427   5.452 -0.6128  0.4339  0.0517
   58SAPC  H16X 4416   7.067   1.376   5.382 -1.8821 -2.8436  0.9407
   58SAPC  H16Y 4417   7.039   1.528   5.472  3.0590 -0.7697 -0.6992
   58SAPC  C317 4418   6.866   1.442   5.372  0.3483  0.5812 -0.0620
   58SAPC  H17X 4419   6.816   1.533   5.411 -4.1113 -1.0093 -1.3742
   58SAPC  H17Y 4420   6.795   1.361   5.401 -0.1335  1.1568  0.3778
   58SAPC  C318 4421   6.885   1.459   5.213 -0.4828 -0.2783  0.3310
   58SAPC  H18X 4422   6.946   1.550   5.196 -0.4852 -0.4596 -0.7026
   58SAPC  H18Y 4423   6.786   1.480   5.167 -0.5727 -0.6334  0.3539
   58SAPC  H18Z 4424   6.932   1.365   5.176 -0.5763  0.1322 -0.8969
   59SAPC     N 4425   6.794   2.727   7.736 -0.3093 -0.7030 -0.4332
   59SAPC   C12 4426   6.711   2.729   7.604 -0.3896 -0.3207 -0.2065
   59SAPC  H12A 4427   6.762   2.662   7.536 -1.4890 -1.1052 -0.2901
   59SAPC  H12B 4428   6.721   2.827   7.560  1.0391 -0.5131 -0.3556
   59SAPC   C13 4429   6.932   2.693   7.706  0.8167 -0.4120  0.5599
   59SAPC  H13A 4430   6.993   2.764   7.652 -1.4533  1.1793 -0.0347
   59SAPC  H13B 4431   6.983   2.680   7.800 -0.2107 -0.5408  1.1186
   59SAPC  H13C 4432   6.934   2.599   7.654 -0.1185  0.0130 -0.2846
   59SAPC   C14 4433   6.788   2.865   7.798 -0.0947  0.4819 -0.6861
   59SAPC  H14A 4434   6.687   2.895   7.822 -0.1310 -0.2512  0.1290
   59SAPC  H14B 4435   6.851   2.873   7.885 -3.6122  2.5240  1.9210
   59SAPC  H14C 4436   6.835   2.942   7.738 -1.2690  1.4409 -0.4056
   59SAPC   C15 4437   6.732   2.627   7.836 -0.2457 -0.7362 -0.0905
   59SAPC  H15A 4438   6.764   2.663   7.933 -1.9828 -0.2188  0.3386
   59SAPC  H15B 4439   6.624   2.634   7.842 -0.1027  2.2641  1.0773
   59SAPC  H15C 4440   6.769   2.529   7.814  0.0462 -1.5938  3.5159
   59SAPC   C11 4441   6.562   2.702   7.608  0.5307  0.0931 -0.0192
   59SAPC  H11A 4442   6.531   2.600   7.639  1.2216 -0.9671 -2.5676
   59SAPC  H11B 4443   6.513   2.695   7.509 -1.3029  0.3218  0.8256
   59SAPC     P 4444   6.432   2.825   7.816  0.3501 -0.1410  0.2922
   59SAPC   O13 4445   6.438   2.704   7.900  0.3539 -0.1674 -0.0320
   59SAPC   O14 4446   6.470   2.954   7.880 -0.0436  0.3457  0.0342
   59SAPC   O12 4447   6.511   2.812   7.687 -0.3602 -0.0710 -0.1548
   59SAPC   O11 4448   6.282   2.848   7.760  0.0209 -0.8948 -0.2744
   59SAPC    C1 4449   6.246   2.837   7.620 -0.2735  0.7012  0.0842
   59SAPC    HA 4450   6.311   2.768   7.562  1.0141  0.4591  1.7520
   59SAPC    HB 4451   6.143   2.795   7.619  1.1954 -3.3086  0.1494
   59SAPC    C2 4452   6.224   2.979   7.549 -0.6455 -0.0762 -0.6408
   59SAPC    HS 4453   6.151   3.041   7.604 -1.1100 -0.0925 -1.2265
   59SAPC   O21 4454   6.185   2.952   7.411 -0.3911 -0.2394  0.8407
   59SAPC   C21 4455   6.062   2.908   7.404 -0.0090 -0.3566  0.1263
   59SAPC   O22 4456   5.984   2.899   7.497  0.1703 -0.8394 -0.2477
   59SAPC   C22 4457   6.023   2.872   7.261 -0.4333 -0.2202 -0.9439
   59SAPC   H2R 4458   5.968   2.960   7.222 -1.6918  0.4635  2.1167
   59SAPC   H2S 4459   6.116   2.863   7.200  1.1946 -1.8123  1.6124
   59SAPC    C3 4460   6.355   3.057   7.553  0.6516 -0.0785 -0.3774
   59SAPC    HX 4461   6.436   2.994   7.512  0.6841  0.6062 -1.3958
   59SAPC    HY 4462   6.397   3.072   7.655  2.1015  1.2910 -1.1212
   59SAPC   O31 4463   6.342   3.189   7.489 -0.1788 -0.0764  0.1037
   59SAPC   C31 4464   6.268   3.282   7.563 -0.1928  0.6765  0.1152
   59SAPC   O32 4465   6.228   3.254   7.677 -0.1029 -0.0762 -0.1509
   59SAPC   C32 4466   6.240   3.411   7.487 -0.7074 -0.2586  0.2262
   59SAPC   H2X 4467   6.323   3.412   7.413 -1.5363 -1.0327 -0.7467
   59SAPC   H2Y 4468   6.256   3.496   7.557 -2.9267  1.9978 -1.8419
   59SAPC   C23 4469   5.959   2.728   7.258 -0.2246  1.0380 -0.2215
   59SAPC   H3R 4470   5.891   2.734   7.346 -0.6432  1.5090 -0.5683
   59SAPC   H3S 4471   6.040   2.654   7.272 -1.3182 -0.0619  0.4894
   59SAPC   C24 4472   5.877   2.705   7.126  0.3482  0.3213  0.3583
   59SAPC   H4R 4473   5.951   2.713   7.043  2.0840 -1.0329  1.7018
   59SAPC   H4S 4474   5.807   2.792   7.126  1.9059  1.6244  0.5509
   59SAPC   C25 4475   5.810   2.567   7.129  0.7665  0.0162  0.2747
   59SAPC   H5R 4476   5.875   2.486   7.095  3.3665  0.9912  2.4705
   59SAPC   C26 4477   5.682   2.533   7.146  0.3579  0.0019 -0.0810
   59SAPC   H6R 4478   5.652   2.427   7.148 -0.0411  0.1120 -0.1136
   59SAPC   C27 4479   5.574   2.620   7.201  0.1056  0.7057 -0.8341
   59SAPC   H7R 4480   5.558   2.702   7.128 -1.0763  0.4618 -0.8716
   59SAPC   H7S 4481   5.603   2.659   7.301 -0.2373 -2.6154  0.7235
   59SAPC   C28 4482   5.449   2.540   7.224  0.8227 -0.4591 -0.0497
   59SAPC   H8R 4483   5.429   2.515   7.329  0.7466  0.3171  0.1273
   59SAPC   C29 4484   5.349   2.510   7.130 -0.0037 -0.2045 -0.7413
   59SAPC   H9R 4485   5.254   2.463   7.160 -0.2525 -0.3761 -1.7633
   59SAPC  C210 4486   5.363   2.538   6.982  0.0265  0.5013  0.5460
   59SAPC  H10R 4487   5.435   2.619   6.961 -1.3587  1.8447  0.7669
   59SAPC  H10S 4488   5.271   2.574   6.930  0.3624 -1.4009 -1.5398
   59SAPC  C211 4489   5.404   2.408   6.913 -0.5554 -0.6702 -0.3205
   59SAPC  H11R 4490   5.334   2.327   6.941  0.5249 -1.4747  0.1520
   59SAPC  C212 4491   5.522   2.379   6.845  0.7693 -0.5868 -0.2635
   59SAPC  H12R 4492   5.528   2.280   6.798 -0.1441 -1.6812  1.7633
   59SAPC  C213 4493   5.623   2.483   6.803  0.4621  0.4452 -0.5246
   59SAPC  H13R 4494   5.716   2.426   6.782  0.5525  0.9215 -1.4878
   59SAPC  H13S 4495   5.639   2.549   6.890 -2.7687  1.3347 -0.4693
   59SAPC  C214 4496   5.571   2.552   6.676 -0.2238  0.0747 -0.0373
   59SAPC  H14R 4497   5.461   2.557   6.672 -0.2368  0.8997  0.8243
   59SAPC  C215 4498   5.638   2.589   6.564 -0.8438 -0.3844  0.5813
   59SAPC  H15R 4499   5.583   2.626   6.476  0.1299 -0.8186 -0.2271
   59SAPC  C216 4500   5.780   2.558   6.539  0.4016  0.2607  0.3481
   59SAPC  H16R 4501   5.841   2.546   6.631 -0.0053 -1.1317  0.4702
   59SAPC  H16S 4502   5.824   2.638   6.475  1.1346 -2.0660 -2.2803
   59SAPC  C217 4503   5.802   2.418   6.471 -0.7763  0.0044 -1.0421
   59SAPC  H17R 4504   5.761   2.333   6.530 -0.3488 -0.6368 -1.6442
   59SAPC  H17S 4505   5.913   2.409   6.479 -0.6508  1.4805 -0.8097
   59SAPC  C218 4506   5.737   2.405   6.331 -0.1875  0.4299 -0.0316
   59SAPC  H18R 4507   5.757   2.499   6.276  2.0723  0.9834  1.5984
   59SAPC  H18S 4508   5.627   2.390   6.335 -0.1437  0.2681  0.7285
   59SAPC  C219 4509   5.792   2.285   6.251 -0.0421 -0.0561 -0.2910
   59SAPC  H19R 4510   5.777   2.195   6.315 -0.6625  1.0962  1.2432
   59SAPC  H19S 4511   5.900   2.302   6.231  0.3830 -1.9727  0.2259
   59SAPC  C220 4512   5.709   2.259   6.127 -0.2345 -0.3337  0.2822
   59SAPC  H20R 4513   5.702   2.348   6.061 -0.8105 -0.5896 -0.0113
   59SAPC  H20S 4514   5.608   2.219   6.153  0.9397 -3.2312  0.7632
   59SAPC  H20T 4515   5.755   2.177   6.068 -0.8694 -0.8763  0.5235
   59SAPC   C33 4516   6.097   3.416   7.422 -0.5753  0.5259 -0.6569
   59SAPC   H3X 4517   6.072   3.513   7.374 -1.8971  0.4728 -0.1069
   59SAPC   H3Y 4518   6.021   3.382   7.495 -0.3308 -0.8205 -0.9973
   59SAPC   C34 4519   6.079   3.308   7.303  0.0269 -0.0367  0.4678
   59SAPC   H4X 4520   5.975   3.270   7.293  0.4419 -1.7530  2.0190
   59SAPC   H4Y 4521   6.148   3.223   7.322  1.0729  0.4965 -0.7690
   59SAPC   C35 4522   6.122   3.380   7.177 -0.5780  0.1650  0.4628
   59SAPC   H5X 4523   6.227   3.413   7.195 -1.0857  1.1633  1.7980
   59SAPC   H5Y 4524   6.063   3.473   7.161 -1.9835 -0.8959 -0.6860
   59SAPC   C36 4525   6.124   3.288   7.049  0.5298  0.4566 -0.6917
   59SAPC   H6X 4526   6.015   3.271   7.053  0.7719 -0.9508  1.7068
   59SAPC   H6Y 4527   6.195   3.202   7.056 -0.0191  0.0496 -0.1327
   59SAPC   C37 4528   6.149   3.362   6.915  0.6036 -0.4352  0.3618
   59SAPC   H7X 4529   6.249   3.411   6.916  1.1096 -1.2985 -1.6395
   59SAPC   H7Y 4530   6.075   3.444   6.904 -0.7129 -0.8328  4.5784
   59SAPC   C38 4531   6.162   3.256   6.800 -0.2638 -0.1597  0.1275
   59SAPC   H8X 4532   6.075   3.189   6.820 -0.9471  0.4744 -0.6755
   59SAPC   H8Y 4533   6.252   3.193   6.812 -0.3531 -0.0256  1.8111
   59SAPC   C39 4534   6.136   3.297   6.650  0.6782 -0.2039  0.0754
   59SAPC   H9X 4535   6.028   3.317   6.637  1.3123  1.9817 -2.7261
   59SAPC   H9Y 4536   6.154   3.207   6.588 -0.1024  0.6510 -1.4278
   59SAPC  C310 4537   6.224   3.416   6.606  0.1679  0.5122 -0.0579
   59SAPC  H10X 4538   6.201   3.507   6.665  0.7960  0.3606  0.4328
   59SAPC  H10Y 4539   6.198   3.441   6.501 -2.1552 -0.5043  0.2242
   59SAPC  C311 4540   6.373   3.384   6.611 -0.2470  0.0390  0.5469
   59SAPC  H11X 4541   6.410   3.290   6.565  2.7417 -0.1436  3.0165
   59SAPC  H11Y 4542   6.395   3.383   6.720 -2.5908  1.0444  1.1035
   59SAPC  C312 4543   6.463   3.492   6.546 -0.6612  0.1100  0.6572
   59SAPC  H12X 4544   6.565   3.470   6.582  0.2144  1.2877 -0.9370
   59SAPC  H12Y 4545   6.439   3.593   6.586  1.9380  0.8669  0.4707
   59SAPC  C313 4546   6.452   3.488   6.391 -0.2210  0.4089 -0.0948
   59SAPC  H13X 4547   6.350   3.520   6.362 -0.5426  0.5149  1.1259
   59SAPC  H13Y 4548   6.482   3.388   6.353 -0.4911  1.0883 -2.2420
   59SAPC  C314 4549   6.559   3.582   6.324 -0.6138 -0.2943 -0.7958
   59SAPC  H14X 4550   6.662   3.545   6.341 -0.6776  0.4433  1.5016
   59SAPC  H14Y 4551   6.548   3.685   6.365 -1.7490 -0.8422  0.3534
   59SAPC  C315 4552   6.545   3.575   6.170 -0.2087 -0.1904 -0.0063
   59SAPC  H15X 4553   6.439   3.567   6.138  0.2892  0.0251 -1.8210
   59SAPC  H15Y 4554   6.592   3.483   6.130  0.2757  0.1167 -0.1570
   59SAPC  C316 4555   6.622   3.696   6.109  0.0553  0.1466  0.3322
   59SAPC  H16X 4556   6.718   3.695   6.165  0.2306 -1.3083  0.0399
   59SAPC  H16Y 4557   6.573   3.792   6.138  2.5175  1.4848  0.3048
   59SAPC  C317 4558   6.633   3.687   5.955 -0.4627 -0.0801  0.5410
   59SAPC  H17X 4559   6.679   3.594   5.914 -0.6416  0.1178 -0.1236
   59SAPC  H17Y 4560   6.705   3.766   5.927  1.0409 -1.7099 -0.4424
   59SAPC  C318 4561   6.499   3.715   5.886  0.1236  0.2422  0.1946
   59SAPC  H18X 4562   6.428   3.633   5.909  2.4622 -1.7655  0.5971
   59SAPC  H18Y 4563   6.518   3.709   5.776  1.6878  2.8882  0.2485
   59SAPC  H18Z 4564   6.461   3.816   5.911  1.2951  0.8611 -0.4187
   60SAPC     N 4565   4.241   4.606   8.376  0.3128  0.0613 -0.1501
   60SAPC   C12 4566   4.188   4.594   8.233 -0.3496 -0.0685  0.0820
   60SAPC  H12A 4567   4.186   4.693   8.191 -0.9145 -0.0570  0.1346
   60SAPC  H12B 4568   4.085   4.562   8.237 -0.3934 -0.1571 -1.2750
   60SAPC   C13 4569   4.221   4.483   8.450  0.2253  0.1765 -0.7986
   60SAPC  H13A 4570   4.125   4.457   8.492  0.7599 -0.5718 -0.0221
   60SAPC  H13B 4571   4.247   4.400   8.385 -0.6534  0.8761 -2.1008
   60SAPC  H13C 4572   4.282   4.480   8.539  0.5688  0.2175 -1.0309
   60SAPC   C14 4573   4.390   4.639   8.381  0.1251 -0.0717 -0.1053
   60SAPC  H14A 4574   4.404   4.707   8.298  0.4906 -0.7013 -0.5776
   60SAPC  H14B 4575   4.418   4.686   8.474 -2.9889 -0.2181  0.9920
   60SAPC  H14C 4576   4.450   4.549   8.377 -0.8945 -0.8003  0.6158
   60SAPC   C15 4577   4.177   4.717   8.453 -0.4041  0.2901  1.2072
   60SAPC  H15A 4578   4.069   4.718   8.449 -0.4852  1.7654  2.3975
   60SAPC  H15B 4579   4.215   4.703   8.553  2.2709 -3.4410 -0.1091
   60SAPC  H15C 4580   4.213   4.813   8.420 -3.4731  1.6499  1.4409
   60SAPC   C11 4581   4.264   4.510   8.135 -0.4507  0.6065 -0.1080
   60SAPC  H11A 4582   4.367   4.549   8.118  0.0012  0.2026  1.5344
   60SAPC  H11B 4583   4.229   4.499   8.030 -0.2245 -0.4044 -0.0919
   60SAPC     P 4584   4.396   4.284   8.151  0.4966 -0.1395 -0.1469
   60SAPC   O13 4585   4.524   4.346   8.186 -0.2495  0.5547 -0.2868
   60SAPC   O14 4586   4.376   4.144   8.191  0.3051 -0.4200 -0.0136
   60SAPC   O12 4587   4.275   4.375   8.189  0.1789  0.9806 -0.2921
   60SAPC   O11 4588   4.391   4.287   7.993 -0.2152 -0.7223  0.3525
   60SAPC    C1 4589   4.296   4.211   7.921 -0.2763  0.1234  0.1331
   60SAPC    HA 4590   4.306   4.105   7.954  1.7485  0.5978  1.2782
   60SAPC    HB 4591   4.192   4.248   7.931 -0.1829  0.3784  0.1609
   60SAPC    C2 4592   4.317   4.211   7.763 -0.5141 -0.2211  0.0896
   60SAPC    HS 4593   4.245   4.130   7.739 -0.7431 -0.4771  1.5527
   60SAPC   O21 4594   4.458   4.185   7.721  0.7321  0.5131 -0.1225
   60SAPC   C21 4595   4.494   4.066   7.739  0.9855  0.1865  0.4132
   60SAPC   O22 4596   4.444   3.984   7.815  0.6506 -0.4164  0.1822
   60SAPC   C22 4597   4.619   4.045   7.662  0.1438 -0.0349  0.1896
   60SAPC   H2R 4598   4.701   4.111   7.700  0.3531  0.3256 -0.8536
   60SAPC   H2S 4599   4.653   3.940   7.677 -0.5517 -0.1259  1.2124
   60SAPC    C3 4600   4.254   4.332   7.693  0.0886 -0.1140 -0.8048
   60SAPC    HX 4601   4.290   4.422   7.747  0.7707  0.4143 -2.0920
   60SAPC    HY 4602   4.143   4.331   7.696  0.0783 -0.5615 -1.2115
   60SAPC   O31 4603   4.294   4.336   7.553  0.2849 -0.3939 -0.0009
   60SAPC   C31 4604   4.407   4.398   7.523  0.1283 -0.4202  0.6736
   60SAPC   O32 4605   4.478   4.463   7.601 -0.3594 -0.2738 -0.3132
   60SAPC   C32 4606   4.436   4.376   7.379  0.0981 -0.0756  0.7037
   60SAPC   H2X 4607   4.342   4.376   7.319  0.2966  3.5793  0.1746
   60SAPC   H2Y 4608   4.490   4.280   7.364  0.7907 -0.3680  4.1879
   60SAPC   C23 4609   4.609   4.070   7.509  0.3355 -0.4432 -0.0136
   60SAPC   H3R 4610   4.656   4.165   7.476  0.1593 -0.6299 -0.8262
   60SAPC   H3S 4611   4.501   4.062   7.483  0.3421  2.1749 -1.1921
   60SAPC   C24 4612   4.672   3.955   7.426 -0.4976  0.4628 -0.3232
   60SAPC   H4R 4613   4.616   3.948   7.330 -0.9986  1.7559 -0.1507
   60SAPC   H4S 4614   4.659   3.861   7.483  0.0690  0.3761 -0.3393
   60SAPC   C25 4615   4.819   3.976   7.417  0.2542  0.2546 -0.6832
   60SAPC   H5R 4616   4.874   3.956   7.511  0.5001 -0.0693 -0.8935
   60SAPC   C26 4617   4.889   3.988   7.303  0.1694 -0.3832  0.1644
   60SAPC   H6R 4618   4.998   4.003   7.316 -0.1005  1.5934  0.4502
   60SAPC   C27 4619   4.842   3.999   7.161 -0.1920  0.0441  0.1201
   60SAPC   H7R 4620   4.733   4.020   7.152 -0.6913 -1.1485  2.5868
   60SAPC   H7S 4621   4.850   3.898   7.115 -1.3818 -0.2521  0.5212
   60SAPC   C28 4622   4.939   4.086   7.079 -0.0564 -0.4096 -0.1574
   60SAPC   H8R 4623   4.977   4.174   7.135  0.3585 -0.4508 -0.3690
   60SAPC   C29 4624   4.988   4.066   6.952  0.0432  0.0592  0.2327
   60SAPC   H9R 4625   5.047   4.144   6.902 -0.7754  0.1948 -0.5335
   60SAPC  C210 4626   4.938   3.948   6.867 -0.4391 -0.2429  0.5736
   60SAPC  H10R 4627   4.826   3.950   6.863 -0.4147  2.0713 -1.0951
   60SAPC  H10S 4628   4.972   3.854   6.917  0.7968  0.0668  0.3447
   60SAPC  C211 4629   4.989   3.941   6.721 -0.3649  0.1628  0.0862
   60SAPC  H11R 4630   5.060   3.859   6.702 -0.2219  0.5509 -1.0879
   60SAPC  C212 4631   4.967   4.029   6.620  0.3697 -0.5225  0.0692
   60SAPC  H12R 4632   5.014   4.012   6.522 -0.0854 -0.6226 -0.1314
   60SAPC  C213 4633   4.867   4.144   6.636  0.1293 -1.0149 -0.2847
   60SAPC  H13R 4634   4.917   4.228   6.688  0.2104 -0.0455 -1.8606
   60SAPC  H13S 4635   4.782   4.104   6.696 -0.0511 -0.8568 -0.4337
   60SAPC  C214 4636   4.834   4.199   6.497  0.0183 -0.5041 -0.2044
   60SAPC  H14R 4637   4.922   4.251   6.457 -0.9224 -1.1203 -3.4172
   60SAPC  C215 4638   4.733   4.162   6.415  0.1695  0.1246 -0.3481
   60SAPC  H15R 4639   4.714   4.214   6.320 -0.8985  1.4589  0.5450
   60SAPC  C216 4640   4.618   4.063   6.430 -0.1185  0.0500  0.2984
   60SAPC  H16R 4641   4.521   4.109   6.400 -1.3210 -1.5616  1.5097
   60SAPC  H16S 4642   4.591   4.039   6.535 -0.4662  0.1972  0.2461
   60SAPC  C217 4643   4.624   3.929   6.358 -0.5560 -0.0043  0.1996
   60SAPC  H17R 4644   4.556   3.860   6.412  0.8315 -1.6035 -0.0248
   60SAPC  H17S 4645   4.727   3.890   6.372 -0.8159 -0.0557  2.3935
   60SAPC  C218 4646   4.584   3.915   6.212 -0.0874 -0.3704  0.0913
   60SAPC  H18R 4647   4.664   3.966   6.155 -1.0199  2.4577  1.1390
   60SAPC  H18S 4648   4.488   3.967   6.187  0.3803 -0.1341 -1.2829
   60SAPC  C219 4649   4.573   3.765   6.176 -0.0520 -0.4719 -0.0958
   60SAPC  H19R 4650   4.529   3.711   6.263 -0.1078 -2.1605 -1.1294
   60SAPC  H19S 4651   4.675   3.723   6.165 -0.5068 -1.6294 -0.0416
   60SAPC  C220 4652   4.480   3.741   6.056 -0.1758  0.5835  0.1061
   60SAPC  H20R 4653   4.462   3.635   6.029  0.6244  0.9048 -1.9051
   60SAPC  H20S 4654   4.514   3.792   5.963  1.2321 -0.3700  0.0708
   60SAPC  H20T 4655   4.379   3.783   6.078 -1.2058 -1.7337  0.0281
   60SAPC   C33 4656   4.515   4.487   7.318 -0.3554 -0.1954 -0.3069
   60SAPC   H3X 4657   4.617   4.502   7.360  0.3915  1.4272 -2.4766
   60SAPC   H3Y 4658   4.464   4.585   7.323  0.3360  0.1107  1.2778
   60SAPC   C34 4659   4.542   4.481   7.170 -0.2582  0.4750 -0.2640
   60SAPC   H4X 4660   4.570   4.379   7.135  3.9898  0.8660  1.4369
   60SAPC   H4Y 4661   4.631   4.537   7.132  0.8868 -1.5574 -0.7730
   60SAPC   C35 4662   4.419   4.512   7.085  0.1837  0.6371  0.0305
   60SAPC   H5X 4663   4.374   4.612   7.100  1.0467  0.9323  0.6806
   60SAPC   H5Y 4664   4.346   4.431   7.105  2.1821 -1.3977 -0.4819
   60SAPC   C36 4665   4.451   4.506   6.936  0.4195  0.1460  1.0160
   60SAPC   H6X 4666   4.509   4.417   6.902  1.8371  1.1448  0.7481
   60SAPC   H6Y 4667   4.527   4.586   6.922  2.1112 -1.3655  1.0973
   60SAPC   C37 4668   4.327   4.512   6.838  0.2648 -0.7578 -0.6791
   60SAPC   H7X 4669   4.264   4.593   6.881  1.7945 -0.0073  0.2500
   60SAPC   H7Y 4670   4.260   4.423   6.829 -2.4441  1.2631 -2.2350
   60SAPC   C38 4671   4.368   4.563   6.693 -0.2450 -0.3640 -0.1727
   60SAPC   H8X 4672   4.416   4.663   6.705  1.7341 -1.0768 -1.5075
   60SAPC   H8Y 4673   4.280   4.580   6.628  1.1784  2.3234 -1.5821
   60SAPC   C39 4674   4.456   4.470   6.612  0.0974  0.1310  0.4008
   60SAPC   H9X 4675   4.396   4.377   6.616  0.4015 -0.0716  0.3071
   60SAPC   H9Y 4676   4.554   4.444   6.658  0.5018 -0.1772 -0.6009
   60SAPC  C310 4677   4.472   4.512   6.468  0.1355  0.1979 -0.1034
   60SAPC  H10X 4678   4.404   4.598   6.450  1.1120  1.0336  0.0971
   60SAPC  H10Y 4679   4.448   4.434   6.394 -0.2388  1.3614 -1.2438
   60SAPC  C311 4680   4.624   4.555   6.449 -0.0574  0.2323 -0.7735
   60SAPC  H11X 4681   4.688   4.464   6.448  0.9004  0.8657  0.1646
   60SAPC  H11Y 4682   4.658   4.610   6.540 -2.5281  1.0672 -0.2830
   60SAPC  C312 4683   4.637   4.636   6.317  0.4206  0.7243  0.8908
   60SAPC  H12X 4684   4.731   4.695   6.328  0.6284  0.9501 -1.4245
   60SAPC  H12Y 4685   4.553   4.708   6.330 -0.0674 -0.0128  1.8991
   60SAPC  C313 4686   4.644   4.544   6.194  0.3596 -0.8201  0.5405
   60SAPC  H13X 4687   4.611   4.614   6.114  1.7468  0.6561  1.2028
   60SAPC  H13Y 4688   4.576   4.457   6.207  0.7338 -0.7256  4.3373
   60SAPC  C314 4689   4.783   4.488   6.160 -0.5120 -0.0714  0.2901
   60SAPC  H14X 4690   4.831   4.446   6.251 -0.2645  1.7850  1.0641
   60SAPC  H14Y 4691   4.856   4.565   6.129  0.4094 -1.3954 -0.9810
   60SAPC  C315 4692   4.768   4.380   6.052 -0.1518  0.4037  0.5684
   60SAPC  H15X 4693   4.745   4.428   5.955 -0.0457  0.0881  0.3836
   60SAPC  H15Y 4694   4.686   4.309   6.076  0.2300 -0.1839  0.1816
   60SAPC  C316 4695   4.900   4.296   6.034 -0.0903  1.2777  0.1388
   60SAPC  H16X 4696   4.925   4.285   6.141 -1.4509  2.0593  0.5685
   60SAPC  H16Y 4697   4.981   4.356   5.987  0.3862  0.5875  0.0707
   60SAPC  C317 4698   4.866   4.158   5.970  0.6057  0.6475  0.3215
   60SAPC  H17X 4699   4.900   4.147   5.865 -1.6807  1.9013 -0.6335
   60SAPC  H17Y 4700   4.755   4.153   5.974  0.5947  0.5795 -0.0682
   60SAPC  C318 4701   4.910   4.043   6.063  0.3703 -0.2521  0.0613
   60SAPC  H18X 4702   4.868   3.948   6.026 -0.0776  0.6281 -1.7788
   60SAPC  H18Y 4703   4.874   4.056   6.167  0.2401  1.7368 -0.1936
   60SAPC  H18Z 4704   5.017   4.023   6.084  0.2863 -1.6014 -0.7350
   61SAPC     N 4705   3.788   4.901   8.033  0.7476 -0.4667 -0.2002
   61SAPC   C12 4706   3.857   5.020   7.950 -0.2480 -0.0903 -0.4756
   61SAPC  H12A 4707   3.799   5.029   7.859  0.2842 -1.2205 -0.9531
   61SAPC  H12B 4708   3.958   4.987   7.930 -0.0963  0.4827 -0.6760
   61SAPC   C13 4709   3.790   4.778   7.944  0.4798  0.3180  0.0238
   61SAPC  H13A 4710   3.885   4.759   7.895 -0.6402 -1.6486 -1.5506
   61SAPC  H13B 4711   3.753   4.694   8.001 -0.1696  0.3490 -0.3416
   61SAPC  H13C 4712   3.726   4.791   7.857 -0.0708  2.3769  0.6894
   61SAPC   C14 4713   3.874   4.873   8.151  0.1243 -0.3556  0.2670
   61SAPC  H14A 4714   3.817   4.801   8.208 -0.2875  2.5922  3.9398
   61SAPC  H14B 4715   3.972   4.850   8.114 -0.6792 -1.5435 -1.2569
   61SAPC  H14C 4716   3.894   4.964   8.206  2.5787  0.1503 -1.2775
   61SAPC   C15 4717   3.653   4.938   8.084 -0.1455 -0.2589 -0.0201
   61SAPC  H15A 4718   3.597   4.853   8.119 -0.0078 -0.7755 -1.0216
   61SAPC  H15B 4719   3.657   5.022   8.153  1.6266  1.2440 -1.8300
   61SAPC  H15C 4720   3.592   4.966   8.000 -0.5944  0.5821  0.5632
   61SAPC   C11 4721   3.849   5.154   8.020 -0.1547  0.0323  0.2163
   61SAPC  H11A 4722   3.747   5.176   8.058  0.3219  1.3683  0.7585
   61SAPC  H11B 4723   3.864   5.242   7.955 -6.3980 -1.0416 -3.4667
   61SAPC     P 4724   4.025   5.280   8.169  0.1843 -0.2336 -0.0649
   61SAPC   O13 4725   3.942   5.396   8.192 -0.1720 -0.1905  0.2003
   61SAPC   O14 4726   4.116   5.236   8.275 -0.1215 -0.1573 -0.4903
   61SAPC   O12 4727   3.935   5.159   8.135  1.1657 -0.3056  0.3519
   61SAPC   O11 4728   4.122   5.309   8.044  0.0193 -0.5319 -0.1033
   61SAPC    C1 4729   4.181   5.201   7.976 -0.7224  0.1859  0.4309
   61SAPC    HA 4730   4.275   5.169   8.024  0.2871  2.1780 -0.1123
   61SAPC    HB 4731   4.124   5.105   7.976  2.4430 -1.8524 -0.9412
   61SAPC    C2 4732   4.211   5.248   7.828  0.4816 -0.6278 -0.3301
   61SAPC    HS 4733   4.238   5.356   7.834  0.6672 -0.6724 -0.3606
   61SAPC   O21 4734   4.088   5.248   7.761  0.0326 -0.3307  0.3201
   61SAPC   C21 4735   4.081   5.309   7.652 -0.0240  0.6474  0.1807
   61SAPC   O22 4736   4.152   5.403   7.618  0.2444 -0.1675 -0.6076
   61SAPC   C22 4737   3.955   5.260   7.570 -0.4259  0.2117  0.6770
   61SAPC   H2R 4738   3.992   5.181   7.503  0.3675  1.4735 -0.4258
   61SAPC   H2S 4739   3.893   5.207   7.645  2.0443 -1.5713  1.6061
   61SAPC    C3 4740   4.315   5.152   7.765  0.2538 -0.7752 -0.3076
   61SAPC    HX 4741   4.253   5.063   7.740  0.0007  0.0210 -2.7787
   61SAPC    HY 4742   4.393   5.122   7.838  0.3989  0.9710  0.3011
   61SAPC   O31 4743   4.374   5.196   7.646 -0.0274 -0.5521  0.2498
   61SAPC   C31 4744   4.484   5.278   7.665  0.1794  0.9232 -0.2133
   61SAPC   O32 4745   4.533   5.298   7.774 -0.2720 -0.4672  0.1836
   61SAPC   C32 4746   4.527   5.334   7.532  0.6243 -0.1624  0.0884
   61SAPC   H2X 4747   4.443   5.374   7.472 -0.1384  0.5325  1.5582
   61SAPC   H2Y 4748   4.562   5.254   7.463  1.3081  1.8388 -2.0209
   61SAPC   C23 4749   3.880   5.376   7.501  0.3337  0.1269 -0.6168
   61SAPC   H3R 4750   3.958   5.429   7.442 -0.0623 -0.2629 -1.5069
   61SAPC   H3S 4751   3.833   5.443   7.575  1.8875  1.7857 -1.0669
   61SAPC   C24 4752   3.758   5.326   7.413  0.1791  0.2370 -0.9419
   61SAPC   H4R 4753   3.701   5.261   7.482  2.0011 -2.6718 -2.0134
   61SAPC   H4S 4754   3.802   5.265   7.331  0.4388  1.4391 -1.7333
   61SAPC   C25 4755   3.675   5.440   7.365 -0.2906 -0.4752 -0.0269
   61SAPC   H5R 4756   3.627   5.503   7.442 -0.6591  0.8607 -1.3064
   61SAPC   C26 4757   3.642   5.465   7.238 -0.1458  0.1417  0.3178
   61SAPC   H6R 4758   3.573   5.550   7.230  0.5457  0.7852  0.9816
   61SAPC   C27 4759   3.697   5.391   7.121  0.0866  0.2866  0.7112
   61SAPC   H7R 4760   3.674   5.283   7.133 -2.0118  0.7113  1.0065
   61SAPC   H7S 4761   3.805   5.412   7.108 -0.3766  2.2290 -0.4185
   61SAPC   C28 4762   3.629   5.449   6.991  0.3326 -0.5213  0.3693
   61SAPC   H8R 4763   3.530   5.492   7.012 -0.2354 -2.3629  1.7827
   61SAPC   C29 4764   3.666   5.419   6.864 -0.2296  0.0922  0.8947
   61SAPC   H9R 4765   3.614   5.464   6.778  0.6089 -2.8951 -1.3496
   61SAPC  C210 4766   3.792   5.343   6.819 -0.1587  0.0876  0.6298
   61SAPC  H10R 4767   3.768   5.243   6.778 -2.2459  1.5435 -2.0256
   61SAPC  H10S 4768   3.860   5.321   6.904 -0.1823 -1.7070  0.2251
   61SAPC  C211 4769   3.872   5.428   6.713  0.1443  0.6571  0.0027
   61SAPC  H11R 4770   3.949   5.493   6.758  0.3419 -0.2032  0.9352
   61SAPC  C212 4771   3.837   5.439   6.585  0.3060  0.7152  0.5286
   61SAPC  H12R 4772   3.884   5.515   6.520 -1.6046  1.7112  0.2381
   61SAPC  C213 4773   3.731   5.356   6.522  0.5215 -0.2061 -0.2031
   61SAPC  H13R 4774   3.665   5.420   6.460  1.0321  0.1305 -0.4093
   61SAPC  H13S 4775   3.669   5.306   6.600  0.0397 -1.9334 -1.6453
   61SAPC  C214 4776   3.798   5.252   6.445 -0.0570  1.0685  0.7919
   61SAPC  H14R 4777   3.813   5.156   6.497 -3.6057 -0.8034 -1.2396
   61SAPC  C215 4778   3.858   5.263   6.323  0.8929  0.5997  0.0687
   61SAPC  H15R 4779   3.907   5.172   6.287 -0.9653 -0.4962  0.1967
   61SAPC  C216 4780   3.847   5.378   6.224  0.3290  1.2177 -0.4828
   61SAPC  H16R 4781   3.942   5.397   6.170  1.5270 -3.4584 -0.4454
   61SAPC  H16S 4782   3.832   5.475   6.277  0.7836  0.4473  1.1199
   61SAPC  C217 4783   3.735   5.373   6.108  0.0759  0.3993  0.0415
   61SAPC  H17R 4784   3.747   5.288   6.038  0.7126  0.8853 -0.4430
   61SAPC  H17S 4785   3.740   5.468   6.052 -1.8191 -0.6221 -2.0485
   61SAPC  C218 4786   3.587   5.344   6.148  0.2424  0.1411  0.0994
   61SAPC  H18R 4787   3.568   5.406   6.238 -0.5822 -1.4483  1.0701
   61SAPC  H18S 4788   3.576   5.239   6.184  0.3251  0.4603  1.0796
   61SAPC  C219 4789   3.491   5.358   6.022  0.6051  0.5306  0.2863
   61SAPC  H19R 4790   3.398   5.303   6.049  1.2168  0.2965  2.0287
   61SAPC  H19S 4791   3.540   5.300   5.941 -0.4733  0.3244 -0.2362
   61SAPC  C220 4792   3.468   5.499   5.986  0.5212 -0.4195 -0.2177
   61SAPC  H20R 4793   3.564   5.554   5.978 -0.0209  0.6380  0.3277
   61SAPC  H20S 4794   3.411   5.559   6.059  0.1312 -1.3460  0.2593
   61SAPC  H20T 4795   3.413   5.520   5.892 -0.1292  3.8462  0.9199
   61SAPC   C33 4796   4.638   5.438   7.548 -0.9085 -0.6078  0.3246
   61SAPC   H3X 4797   4.723   5.386   7.597 -0.4796 -0.9644 -0.7692
   61SAPC   H3Y 4798   4.609   5.514   7.624  0.1604 -3.5307  3.9009
   61SAPC   C34 4799   4.691   5.500   7.420  0.6993 -0.5462  0.6320
   61SAPC   H4X 4800   4.783   5.555   7.450  0.5056  0.8641 -1.1669
   61SAPC   H4Y 4801   4.618   5.578   7.390  0.8633 -1.0244 -1.1318
   61SAPC   C35 4802   4.720   5.398   7.305  0.1867  0.5094 -0.4213
   61SAPC   H5X 4803   4.632   5.338   7.274  0.8015  0.1119 -1.4453
   61SAPC   H5Y 4804   4.790   5.321   7.345 -0.1074  1.4640  2.1209
   61SAPC   C36 4805   4.770   5.477   7.188 -0.0253 -0.3335  0.5577
   61SAPC   H6X 4806   4.849   5.547   7.223  1.1971 -0.5286 -1.6067
   61SAPC   H6Y 4807   4.686   5.534   7.144  0.9106 -0.6312 -1.7764
   61SAPC   C37 4808   4.819   5.392   7.071 -0.5256 -0.2996 -1.3593
   61SAPC   H7X 4809   4.725   5.338   7.046 -1.3786 -0.1397  1.1956
   61SAPC   H7Y 4810   4.897   5.327   7.114 -0.9473  0.2758  0.3482
   61SAPC   C38 4811   4.859   5.467   6.953  0.2842  0.0122 -0.2770
   61SAPC   H8X 4812   4.945   5.532   6.981  0.4770 -0.2812 -0.1889
   61SAPC   H8Y 4813   4.772   5.532   6.931 -0.9112 -1.9023 -1.4537
   61SAPC   C39 4814   4.895   5.385   6.833  0.2709  0.2422  0.0348
   61SAPC   H9X 4815   4.814   5.312   6.812  0.8460  0.3301 -2.8808
   61SAPC   H9Y 4816   4.979   5.315   6.856  0.9205  0.8805 -0.3799
   61SAPC  C310 4817   4.933   5.467   6.711 -0.0848 -0.6618  0.2550
   61SAPC  H10X 4818   5.011   5.545   6.721 -0.6466 -0.2849  2.0214
   61SAPC  H10Y 4819   4.846   5.531   6.684  0.9209  0.3703 -0.6162
   61SAPC  C311 4820   4.971   5.382   6.590  0.4526 -0.3044  0.8088
   61SAPC  H11X 4821   4.891   5.306   6.575  0.3059 -0.2566  1.3128
   61SAPC  H11Y 4822   5.064   5.329   6.621 -0.4382 -2.2021  0.3409
   61SAPC  C312 4823   4.986   5.463   6.453 -0.4242  0.4457  0.5784
   61SAPC  H12X 4824   5.033   5.393   6.381 -0.4659 -0.0723  1.0417
   61SAPC  H12Y 4825   5.062   5.543   6.464  1.4639 -1.1198 -0.4053
   61SAPC  C313 4826   4.855   5.510   6.393  0.1295 -0.2322 -0.1514
   61SAPC  H13X 4827   4.810   5.587   6.460 -2.4987 -1.5779 -0.2111
   61SAPC  H13Y 4828   4.782   5.426   6.391 -0.7748  0.4534 -3.9057
   61SAPC  C314 4829   4.869   5.582   6.259 -0.2720  0.2400 -0.1314
   61SAPC  H14X 4830   4.906   5.507   6.185 -3.0484 -0.4389 -0.9601
   61SAPC  H14Y 4831   4.943   5.664   6.267  2.2829 -1.8484 -0.7049
   61SAPC  C315 4832   4.729   5.630   6.201 -0.2730 -0.3043 -0.2438
   61SAPC  H15X 4833   4.674   5.693   6.274 -1.3380 -1.7912  0.2749
   61SAPC  H15Y 4834   4.669   5.542   6.172  2.0523 -2.1448  0.2089
   61SAPC  C316 4835   4.752   5.710   6.071  0.3716 -0.6086  0.0199
   61SAPC  H16X 4836   4.861   5.714   6.047  0.1301 -0.5939 -1.1136
   61SAPC  H16Y 4837   4.734   5.818   6.087  1.7629 -0.6145  2.1006
   61SAPC  C317 4838   4.677   5.672   5.947 -0.5406  0.6797  0.2784
   61SAPC  H17X 4839   4.675   5.746   5.864 -1.0723  0.4284  0.0613
   61SAPC  H17Y 4840   4.567   5.666   5.963 -0.6225 -0.5378 -0.5975
   61SAPC  C318 4841   4.726   5.543   5.881 -0.4886 -0.1160 -0.2222
   61SAPC  H18X 4842   4.700   5.458   5.948  1.9541 -0.5460  0.2974
   61SAPC  H18Y 4843   4.837   5.538   5.875 -0.3480  0.9680  0.9559
   61SAPC  H18Z 4844   4.669   5.525   5.788 -0.7935 -1.3266  0.1726
   62SAPC     N 4845   5.602   0.903   8.137  0.0365 -0.0032 -0.1573
   62SAPC   C12 4846   5.721   0.927   8.045  0.6129 -0.0618 -0.1809
   62SAPC  H12A 4847   5.746   1.031   8.029 -0.2233 -0.1783 -2.6998
   62SAPC  H12B 4848   5.684   0.895   7.949 -0.5160 -1.2002  0.6079
   62SAPC   C13 4849   5.489   0.985   8.079  0.7726 -0.0614  0.1153
   62SAPC  H13A 4850   5.397   0.968   8.133 -0.5488  0.4046 -1.8799
   62SAPC  H13B 4851   5.509   1.091   8.077 -0.6169  0.2129 -0.8233
   62SAPC  H13C 4852   5.463   0.964   7.976 -1.1828 -1.7027  0.8586
   62SAPC   C14 4853   5.553   0.758   8.129 -0.0246 -0.1826  0.4823
   62SAPC  H14A 4854   5.527   0.722   8.030  0.6787 -0.2182  0.3053
   62SAPC  H14B 4855   5.632   0.695   8.167  0.1817  1.1302  2.3120
   62SAPC  H14C 4856   5.471   0.769   8.198 -1.2308  4.4503 -1.3220
   62SAPC   C15 4857   5.632   0.949   8.274  0.0177 -0.5698 -0.4007
   62SAPC  H15A 4858   5.726   0.912   8.313  0.8390  0.0975 -1.6840
   62SAPC  H15B 4859   5.642   1.056   8.282  0.3413 -0.7267  2.0559
   62SAPC  H15C 4860   5.553   0.908   8.336 -1.0974 -1.0098 -2.0460
   62SAPC   C11 4861   5.847   0.845   8.067 -0.8609  0.3933  0.2134
   62SAPC  H11A 4862   5.919   0.846   7.982 -0.5197  1.3159  0.5025
   62SAPC  H11B 4863   5.813   0.741   8.084 -0.3100  0.2503  0.4881
   62SAPC     P 4864   6.002   1.021   8.193 -0.0158  0.4725  0.1009
   62SAPC   O13 4865   5.918   1.141   8.156 -0.5104  0.1693  0.1693
   62SAPC   O14 4866   6.066   1.009   8.324 -0.4689  0.4297  0.3293
   62SAPC   O12 4867   5.909   0.888   8.186 -0.6088 -0.0789 -0.3363
   62SAPC   O11 4868   6.105   0.992   8.084  0.3638 -0.1122 -0.3971
   62SAPC    C1 4869   6.222   0.899   8.117  0.2243  0.0042  0.3663
   62SAPC    HA 4870   6.231   0.879   8.226 -2.6703 -2.3610  0.3118
   62SAPC    HB 4871   6.197   0.796   8.084  1.1802 -0.9231  2.3313
   62SAPC    C2 4872   6.354   0.953   8.060  0.2509  0.1495  0.2281
   62SAPC    HS 4873   6.380   1.051   8.107  1.1868 -0.5259  1.1595
   62SAPC   O21 4874   6.323   0.970   7.918 -0.2878 -0.0551  0.1539
   62SAPC   C21 4875   6.409   1.055   7.848  0.5306 -0.1710  0.3171
   62SAPC   O22 4876   6.513   1.108   7.879  0.3052  0.2799 -0.0605
   62SAPC   C22 4877   6.365   1.044   7.705 -0.4164 -0.2537  0.2233
   62SAPC   H2R 4878   6.363   0.935   7.688  3.4475 -0.3314 -0.8249
   62SAPC   H2S 4879   6.264   1.088   7.689  0.2919  0.4277 -3.2117
   62SAPC    C3 4880   6.483   0.863   8.091  0.1210  0.4048 -0.7305
   62SAPC    HX 4881   6.485   0.852   8.201  0.3792  1.0543 -0.6605
   62SAPC    HY 4882   6.577   0.917   8.067  0.4901  0.4338  0.6875
   62SAPC   O31 4883   6.477   0.738   8.024  0.2450 -0.3694 -0.4955
   62SAPC   C31 4884   6.475   0.624   8.084 -0.4607 -0.0079  0.6093
   62SAPC   O32 4885   6.470   0.597   8.199 -0.2037 -0.5319  0.2803
   62SAPC   C32 4886   6.500   0.512   7.978  0.3340  0.1992  0.1403
   62SAPC   H2X 4887   6.403   0.489   7.930  1.9705 -4.5702 -1.5225
   62SAPC   H2Y 4888   6.524   0.417   8.030  1.1353 -0.1392 -0.7988
   62SAPC   C23 4889   6.463   1.093   7.595 -0.5707  0.1060 -0.3056
   62SAPC   H3R 4890   6.557   1.035   7.606 -1.0402 -0.5199  0.6237
   62SAPC   H3S 4891   6.487   1.199   7.619 -0.8968 -0.0412  0.7206
   62SAPC   C24 4892   6.402   1.082   7.458 -0.1778 -0.0671  0.3634
   62SAPC   H4R 4893   6.293   1.090   7.478 -0.3692  0.1499 -0.7280
   62SAPC   H4S 4894   6.411   0.975   7.429 -0.4895  0.6995 -2.9373
   62SAPC   C25 4895   6.439   1.174   7.347  0.3803 -0.0261 -0.0621
   62SAPC   H5R 4896   6.462   1.277   7.378 -0.6476  0.7301 -1.6621
   62SAPC   C26 4897   6.473   1.139   7.222 -0.2729  0.1551  0.3809
   62SAPC   H6R 4898   6.507   1.222   7.159  0.1566  0.9226  1.5934
   62SAPC   C27 4899   6.475   1.001   7.168  0.0046  0.1953 -0.0763
   62SAPC   H7R 4900   6.425   0.921   7.226  0.7465 -0.6284 -0.5458
   62SAPC   H7S 4901   6.579   0.962   7.165  0.1484  0.6357 -1.6762
   62SAPC   C28 4902   6.428   1.011   7.022 -0.3236  0.3001  0.3013
   62SAPC   H8R 4903   6.322   0.985   7.016 -0.1201 -1.1340  1.9352
   62SAPC   C29 4904   6.488   1.038   6.908  0.2331 -0.1028  0.2425
   62SAPC   H9R 4905   6.423   1.027   6.820  0.6116 -1.5701  0.1230
   62SAPC  C210 4906   6.625   1.071   6.883 -0.0049 -0.4402  0.5576
   62SAPC  H10R 4907   6.683   0.977   6.867  1.3716  0.5527 -0.5853
   62SAPC  H10S 4908   6.659   1.125   6.974  0.5980  1.7928 -0.9067
   62SAPC  C211 4909   6.646   1.159   6.760 -0.3689  0.4018  0.3886
   62SAPC  H11R 4910   6.669   1.265   6.779  1.1377  0.2192 -0.3203
   62SAPC  C212 4911   6.623   1.130   6.631 -0.3713  0.1917  0.1461
   62SAPC  H12R 4912   6.655   1.202   6.554  1.8289 -0.2152  0.6225
   62SAPC  C213 4913   6.594   0.994   6.576 -0.4303 -0.5569 -0.2708
   62SAPC  H13R 4914   6.493   1.004   6.531 -0.7752  0.7565  0.7331
   62SAPC  H13S 4915   6.590   0.921   6.659 -0.7547  0.3559  0.5394
   62SAPC  C214 4916   6.700   0.945   6.490  0.5387 -0.3325 -0.1010
   62SAPC  H14R 4917   6.775   0.877   6.532  0.9479 -0.1031 -0.4567
   62SAPC  C215 4918   6.725   0.981   6.361  0.2452 -0.2756  0.2457
   62SAPC  H15R 4919   6.800   0.924   6.305 -2.3284 -0.3314 -3.5060
   62SAPC  C216 4920   6.641   1.068   6.268  0.3486  0.1009  0.0468
   62SAPC  H16R 4921   6.669   1.173   6.293  2.7238  0.0549 -2.0450
   62SAPC  H16S 4922   6.530   1.058   6.278  0.3599  0.1121  0.2007
   62SAPC  C217 4923   6.665   1.035   6.125 -0.3198  0.1539 -0.0412
   62SAPC  H17R 4924   6.652   0.927   6.103  3.3303 -0.3584 -0.2548
   62SAPC  H17S 4925   6.770   1.060   6.098  0.2967 -1.0514  1.1591
   62SAPC  C218 4926   6.563   1.112   6.040 -0.4178 -0.4707  0.2159
   62SAPC  H18R 4927   6.574   1.222   6.046 -1.2997 -0.1932 -2.0487
   62SAPC  H18S 4928   6.463   1.105   6.089  0.4028  1.1184  2.2554
   62SAPC  C219 4929   6.560   1.083   5.892 -0.6927  0.2317 -0.3234
   62SAPC  H19R 4930   6.481   1.140   5.839 -0.6426 -0.1304 -0.7926
   62SAPC  H19S 4931   6.533   0.976   5.885  0.5093 -0.1048 -0.1722
   62SAPC  C220 4932   6.696   1.114   5.823  0.4945 -0.7867 -0.0317
   62SAPC  H20R 4933   6.689   1.095   5.714 -1.7897  1.0576 -0.2875
   62SAPC  H20S 4934   6.771   1.058   5.882  1.4687  0.4403 -0.0664
   62SAPC  H20T 4935   6.733   1.219   5.830  0.9159 -0.9518  0.2555
   62SAPC   C33 4936   6.612   0.526   7.865  0.0062 -0.8138  0.3893
   62SAPC   H3X 4937   6.621   0.424   7.821  0.3504  0.1721 -1.9947
   62SAPC   H3Y 4938   6.704   0.555   7.921 -1.4925  1.4304  1.8051
   62SAPC   C34 4939   6.575   0.626   7.753  0.3104 -0.3379 -0.0675
   62SAPC   H4X 4940   6.578   0.727   7.799  0.4820 -0.0173 -0.7719
   62SAPC   H4Y 4941   6.465   0.619   7.739  0.2128  3.0149 -1.8257
   62SAPC   C35 4942   6.649   0.614   7.616 -0.1439 -0.0879  1.2057
   62SAPC   H5X 4943   6.621   0.516   7.573  0.6896 -0.5604  1.7173
   62SAPC   H5Y 4944   6.758   0.615   7.638  0.3516 -0.2548 -1.0310
   62SAPC   C36 4945   6.612   0.736   7.533 -0.2782  0.2994  0.3762
   62SAPC   H6X 4946   6.611   0.825   7.600 -1.6632  1.1602 -0.7546
   62SAPC   H6Y 4947   6.508   0.721   7.500 -0.0408 -1.7253  0.4192
   62SAPC   C37 4948   6.706   0.772   7.416 -0.0794 -0.5022  0.1002
   62SAPC   H7X 4949   6.811   0.787   7.450 -0.5465  0.1428  1.3361
   62SAPC   H7Y 4950   6.674   0.868   7.372 -0.8708 -0.0219  1.6277
   62SAPC   C38 4951   6.708   0.677   7.302 -0.3175  0.1641 -0.7581
   62SAPC   H8X 4952   6.609   0.652   7.258 -0.2435  0.8809 -1.3304
   62SAPC   H8Y 4953   6.755   0.581   7.334 -0.8132 -0.5462 -2.0984
   62SAPC   C39 4954   6.802   0.735   7.186  0.1072  0.3266 -0.1317
   62SAPC   H9X 4955   6.897   0.757   7.240 -1.2098 -0.0452  2.5372
   62SAPC   H9Y 4956   6.760   0.826   7.139  1.4541  0.6905 -0.6577
   62SAPC  C310 4957   6.840   0.634   7.071 -0.5997  0.1449 -0.7348
   62SAPC  H10X 4958   6.749   0.586   7.030 -0.4072 -1.8978  1.0494
   62SAPC  H10Y 4959   6.895   0.548   7.114 -1.0366  1.3349  2.4723
   62SAPC  C311 4960   6.913   0.691   6.954 -0.5461 -0.3278  0.2212
   62SAPC  H11X 4961   7.007   0.739   6.988 -1.1632  2.5644 -1.6965
   62SAPC  H11Y 4962   6.847   0.770   6.910  1.1218  1.0370  0.0476
   62SAPC  C312 4963   6.932   0.587   6.842  0.9788  0.7147  0.1601
   62SAPC  H12X 4964   6.843   0.522   6.829 -1.0835  3.5546 -1.1325
   62SAPC  H12Y 4965   7.013   0.514   6.863  1.2301  0.2168 -2.2504
   62SAPC  C313 4966   6.969   0.654   6.712 -0.2417 -0.1467 -0.5608
   62SAPC  H13X 4967   7.054   0.725   6.719 -0.3984 -0.1410  2.8510
   62SAPC  H13Y 4968   6.890   0.725   6.678  1.1001  0.3854 -2.8294
   62SAPC  C314 4969   7.016   0.560   6.597 -0.5875  0.3984 -0.4061
   62SAPC  H14X 4970   6.931   0.495   6.566 -0.6801 -1.0835  2.5889
   62SAPC  H14Y 4971   7.106   0.499   6.621  0.5792  2.1202 -0.2550
   62SAPC  C315 4972   7.067   0.649   6.470 -0.2795 -0.7304 -0.5947
   62SAPC  H15X 4973   7.140   0.725   6.505  0.2101 -1.3791 -0.1807
   62SAPC  H15Y 4974   6.975   0.704   6.442 -0.4028 -0.5287  0.1745
   62SAPC  C316 4975   7.094   0.561   6.353 -0.2113  0.8601  0.8988
   62SAPC  H16X 4976   7.001   0.508   6.324  0.2970 -0.2264  1.1946
   62SAPC  H16Y 4977   7.165   0.483   6.388  0.0449  1.3996  1.5980
   62SAPC  C317 4978   7.150   0.632   6.230  0.3659 -0.1186 -0.3875
   62SAPC  H17X 4979   7.245   0.676   6.269  0.1974  0.8594 -1.0407
   62SAPC  H17Y 4980   7.087   0.717   6.196  1.7066  1.5393  1.0135
   62SAPC  C318 4981   7.174   0.536   6.113 -0.7959 -0.2504  0.9235
   62SAPC  H18X 4982   7.237   0.579   6.033 -0.3975 -1.8118  0.3680
   62SAPC  H18Y 4983   7.071   0.508   6.083  0.1020 -2.5741 -0.2227
   62SAPC  H18Z 4984   7.226   0.446   6.152  0.8587 -0.4083 -1.4482
   63SAPC     N 4985   5.447   5.292   7.982  0.2938  0.1177 -0.8682
   63SAPC   C12 4986   5.532   5.408   8.016 -0.1156  0.1561  0.4295
   63SAPC  H12A 4987   5.495   5.499   7.972  1.4032  0.2558 -0.7404
   63SAPC  H12B 4988   5.631   5.404   7.971  0.5246 -1.5249  1.8838
   63SAPC   C13 4989   5.300   5.341   8.017  0.3712  0.4754  0.3089
   63SAPC  H13A 4990   5.229   5.261   8.003 -0.5072  1.1522  0.7791
   63SAPC  H13B 4991   5.301   5.369   8.121 -1.5102 -1.3653  0.8799
   63SAPC  H13C 4992   5.272   5.426   7.956 -1.5417 -1.0406 -1.0667
   63SAPC   C14 4993   5.452   5.258   7.841 -0.5153  0.0770  0.6589
   63SAPC  H14A 4994   5.548   5.222   7.806 -0.3490  1.7485 -0.7136
   63SAPC  H14B 4995   5.376   5.183   7.823 -0.0904 -0.3613  0.6573
   63SAPC  H14C 4996   5.427   5.337   7.773  0.4961 -1.9995 -2.3620
   63SAPC   C15 4997   5.476   5.172   8.067  0.0732  0.9917  0.2176
   63SAPC  H15A 4998   5.573   5.134   8.038  0.4962  1.2567  1.2316
   63SAPC  H15B 4999   5.476   5.197   8.173  1.3017  0.1557  0.4413
   63SAPC  H15C 5000   5.399   5.099   8.048  1.6148 -0.7724  0.4703
   63SAPC   C11 5001   5.558   5.445   8.162  0.3676 -0.0307 -0.1044
   63SAPC  H11A 5002   5.635   5.524   8.173 -0.8647  1.4421 -1.4869
   63SAPC  H11B 5003   5.588   5.353   8.217 -1.7951 -1.7147 -1.5766
   63SAPC     P 5004   5.384   5.637   8.213 -0.0138  0.4494 -0.0826
   63SAPC   O13 5005   5.302   5.672   8.333 -1.0021  0.5385  0.4658
   63SAPC   O14 5006   5.491   5.731   8.177 -0.4418  0.0756  0.7333
   63SAPC   O12 5007   5.436   5.487   8.223 -0.1076 -0.8112 -0.1125
   63SAPC   O11 5008   5.289   5.628   8.097  0.4561  0.8263 -0.4335
   63SAPC    C1 5009   5.197   5.743   8.062  0.1938  0.9031 -0.4980
   63SAPC    HA 5010   5.093   5.708   8.077  0.6787 -0.0201  0.8468
   63SAPC    HB 5011   5.213   5.840   8.115 -1.2333  0.6330  0.4695
   63SAPC    C2 5012   5.213   5.786   7.907  0.7486 -0.4658 -0.5050
   63SAPC    HS 5013   5.169   5.696   7.860 -0.9519 -0.3796  0.8350
   63SAPC   O21 5014   5.351   5.803   7.872  1.0142 -0.4636 -0.7738
   63SAPC   C21 5015   5.413   5.725   7.794 -0.4298  0.2539  0.1283
   63SAPC   O22 5016   5.374   5.618   7.746 -0.1708  0.4211  0.5281
   63SAPC   C22 5017   5.550   5.787   7.772  0.2174  0.0331 -0.5844
   63SAPC   H2R 5018   5.522   5.848   7.684  1.6665  0.2533 -0.9103
   63SAPC   H2S 5019   5.586   5.844   7.860  2.9204 -0.7267 -1.1202
   63SAPC    C3 5020   5.124   5.912   7.877 -0.1628 -0.0285 -0.3742
   63SAPC    HX 5021   5.137   5.988   7.958  1.8370 -1.6688  0.9179
   63SAPC    HY 5022   5.014   5.902   7.888 -0.6152  1.7130 -2.5788
   63SAPC   O31 5023   5.140   5.970   7.748  0.2506  0.2299  0.0639
   63SAPC   C31 5024   5.084   5.899   7.650 -0.5845 -0.0296  0.2356
   63SAPC   O32 5025   5.033   5.786   7.654  0.0905 -0.2792  0.3930
   63SAPC   C32 5026   5.107   5.986   7.524 -0.3515  0.2115  0.2197
   63SAPC   H2X 5027   5.215   6.008   7.511 -0.9396  1.9812 -2.2605
   63SAPC   H2Y 5028   5.045   6.077   7.537 -1.6627 -0.4502 -1.1786
   63SAPC   C23 5029   5.647   5.675   7.732  0.3636  0.3818  0.3283
   63SAPC   H3R 5030   5.608   5.602   7.659 -0.3064  0.5990  0.4630
   63SAPC   H3S 5031   5.675   5.610   7.819  0.6310 -0.2131 -0.1952
   63SAPC   C24 5032   5.780   5.735   7.676 -0.1006  0.7615  0.2189
   63SAPC   H4R 5033   5.820   5.796   7.759  1.7976  0.5683 -0.5211
   63SAPC   H4S 5034   5.751   5.802   7.592  1.7708 -1.0724 -2.0387
   63SAPC   C25 5035   5.882   5.628   7.626  0.4957 -0.0527 -0.2181
   63SAPC   H5R 5036   5.953   5.583   7.697 -0.6393 -1.3907  0.1009
   63SAPC   C26 5037   5.910   5.604   7.499  0.5006 -1.0974  0.1021
   63SAPC   H6R 5038   5.986   5.528   7.474  0.3542 -0.4726 -2.5336
   63SAPC   C27 5039   5.838   5.643   7.372  1.1796  0.7820  0.4644
   63SAPC   H7R 5040   5.900   5.627   7.281  0.0497  0.6401 -0.3001
   63SAPC   H7S 5041   5.818   5.751   7.383 -1.9166  0.3065  0.5504
   63SAPC   C28 5042   5.704   5.569   7.355 -0.2194  0.3560 -0.3130
   63SAPC   H8R 5043   5.665   5.515   7.442 -1.1016 -0.7701 -1.3840
   63SAPC   C29 5044   5.630   5.565   7.247  0.1713  0.7004 -0.6745
   63SAPC   H9R 5045   5.528   5.525   7.256  0.3690  0.1075 -0.9896
   63SAPC  C210 5046   5.670   5.625   7.122  0.2907 -0.0805  0.3292
   63SAPC  H10R 5047   5.745   5.707   7.125  1.2227 -0.9317  0.8812
   63SAPC  H10S 5048   5.583   5.676   7.076  0.9335  0.8640  0.1367
   63SAPC  C211 5049   5.727   5.531   7.016 -0.2486 -0.3670 -0.5765
   63SAPC  H11R 5050   5.781   5.440   7.045 -0.1375  0.1346  0.8806
   63SAPC  C212 5051   5.715   5.553   6.884 -0.6378  0.6254 -0.0253
   63SAPC  H12R 5052   5.760   5.481   6.815 -0.3237 -0.4900  1.2988
   63SAPC  C213 5053   5.659   5.663   6.812  1.0097 -0.0534 -0.3676
   63SAPC  H13R 5054   5.645   5.742   6.889 -0.9088  0.3027 -1.0377
   63SAPC  H13S 5055   5.552   5.652   6.785  0.2535  0.0220  2.2946
   63SAPC  C214 5056   5.733   5.708   6.690 -0.1548 -0.6899 -0.9297
   63SAPC  H14R 5057   5.788   5.801   6.712 -0.8551 -0.6518  0.7609
   63SAPC  C215 5058   5.745   5.635   6.574  0.4556 -0.1745  0.1121
   63SAPC  H15R 5059   5.794   5.684   6.489 -0.6434 -0.7082 -0.8434
   63SAPC  C216 5060   5.691   5.506   6.540 -0.2896  0.0914  0.3232
   63SAPC  H16R 5061   5.586   5.508   6.576 -0.6161  0.7911 -0.6181
   63SAPC  H16S 5062   5.747   5.430   6.598  1.7085 -0.1632 -1.7726
   63SAPC  C217 5063   5.710   5.443   6.399  0.4050 -0.1621 -0.4310
   63SAPC  H17R 5064   5.692   5.333   6.406  2.3896 -0.4971  0.1439
   63SAPC  H17S 5065   5.819   5.444   6.378  0.0829  0.8940 -2.2205
   63SAPC  C218 5066   5.625   5.512   6.297  0.2850  0.0413  0.3132
   63SAPC  H18R 5067   5.645   5.617   6.268 -3.9384  0.3126 -2.5402
   63SAPC  H18S 5068   5.522   5.514   6.340 -0.3708  1.5993 -1.2096
   63SAPC  C219 5069   5.626   5.427   6.172  0.1146 -0.7615 -0.4295
   63SAPC  H19R 5070   5.537   5.445   6.109  1.0080 -1.1252 -1.8453
   63SAPC  H19S 5071   5.627   5.319   6.199 -2.4804 -1.2318 -1.9134
   63SAPC  C220 5072   5.755   5.458   6.090 -0.0247  0.2213 -0.0607
   63SAPC  H20R 5073   5.772   5.378   6.015  0.6426 -0.7871  1.1126
   63SAPC  H20S 5074   5.831   5.433   6.168  0.4464  0.4412 -0.4452
   63SAPC  H20T 5075   5.757   5.561   6.051  1.8803  0.3761  0.3391
   63SAPC   C33 5076   5.064   5.909   7.400  0.0982  0.7472  0.6107
   63SAPC   H3X 5077   5.006   5.973   7.330 -0.8896  1.0800  1.6969
   63SAPC   H3Y 5078   4.989   5.834   7.434  0.6691  0.5450  1.4622
   63SAPC   C34 5079   5.174   5.831   7.323 -0.2083 -0.2420 -0.5443
   63SAPC   H4X 5080   5.219   5.761   7.397  0.7216  0.9331  0.0464
   63SAPC   H4Y 5081   5.247   5.905   7.282 -1.8779  1.1252 -1.1806
   63SAPC   C35 5082   5.114   5.751   7.206  0.2938  0.1866  0.9704
   63SAPC   H5X 5083   5.045   5.823   7.157  0.0713  0.1194  1.1863
   63SAPC   H5Y 5084   5.055   5.661   7.234 -0.0193 -0.2816 -1.0312
   63SAPC   C36 5085   5.224   5.708   7.106 -1.1597 -0.4311  0.0348
   63SAPC   H6X 5086   5.221   5.602   7.074  0.9394  0.4530 -3.5757
   63SAPC   H6Y 5087   5.317   5.720   7.166 -2.8254  2.8756  2.2684
   63SAPC   C37 5088   5.236   5.789   6.971 -0.8423  0.5351 -0.4314
   63SAPC   H7X 5089   5.332   5.761   6.924  0.6034  2.4600  1.1904
   63SAPC   H7Y 5090   5.244   5.897   6.995  1.3264 -0.1096  2.2753
   63SAPC   C38 5091   5.120   5.770   6.873 -0.4058  0.3456  0.6465
   63SAPC   H8X 5092   5.024   5.794   6.923 -1.3017 -1.5286 -0.1183
   63SAPC   H8Y 5093   5.117   5.661   6.855  2.2708  0.0447  1.5427
   63SAPC   C39 5094   5.131   5.850   6.743 -0.7789  0.0782 -0.8104
   63SAPC   H9X 5095   5.158   5.957   6.754  1.5294 -0.2816 -2.1434
   63SAPC   H9Y 5096   5.030   5.851   6.697 -0.3067 -3.5380 -2.2699
   63SAPC  C310 5097   5.224   5.775   6.644 -0.5497  0.2951 -0.1845
   63SAPC  H10X 5098   5.180   5.673   6.640  0.0201  0.0007  0.6480
   63SAPC  H10Y 5099   5.325   5.770   6.690 -0.6639  0.4737  0.0916
   63SAPC  C311 5100   5.234   5.827   6.497 -0.0971  0.0612 -0.0003
   63SAPC  H11X 5101   5.267   5.933   6.506  1.1089 -0.4422  2.4317
   63SAPC  H11Y 5102   5.138   5.835   6.441 -0.5201  2.1246  0.9093
   63SAPC  C312 5103   5.328   5.748   6.409  0.7418  0.1075  0.8827
   63SAPC  H12X 5104   5.280   5.655   6.373  1.3364  0.6199 -1.3451
   63SAPC  H12Y 5105   5.416   5.720   6.471 -0.1478  0.5840  2.4389
   63SAPC  C313 5106   5.381   5.826   6.288  0.1188 -0.1759  0.9121
   63SAPC  H13X 5107   5.466   5.778   6.234 -0.6289 -1.4714  0.8530
   63SAPC  H13Y 5108   5.407   5.925   6.330 -0.1925 -0.2373  1.2490
   63SAPC  C314 5109   5.271   5.855   6.181 -0.4362 -0.3601  0.2240
   63SAPC  H14X 5110   5.189   5.913   6.228  0.8042  1.3800  0.3627
   63SAPC  H14Y 5111   5.216   5.769   6.139 -4.0934  2.9718 -2.6241
   63SAPC  C315 5112   5.308   5.945   6.055 -0.1715 -0.8254 -0.2463
   63SAPC  H15X 5113   5.403   5.906   6.012 -0.1879 -2.0307  0.7422
   63SAPC  H15Y 5114   5.323   6.046   6.099 -0.4877  0.5588 -3.1307
   63SAPC  C316 5115   5.195   5.937   5.941  0.0319 -0.3809  0.1875
   63SAPC  H16X 5116   5.093   5.943   5.985  0.0727 -0.6035  0.3147
   63SAPC  H16Y 5117   5.211   5.842   5.885  2.3340  0.9656 -1.5837
   63SAPC  C317 5118   5.210   6.053   5.836 -1.0030  0.8307  0.8302
   63SAPC  H17X 5119   5.172   6.027   5.735  0.1396 -3.3209  1.2946
   63SAPC  H17Y 5120   5.320   6.059   5.827 -0.8896 -0.1385  1.4642
   63SAPC  C318 5121   5.156   6.189   5.885  0.1257  0.3663 -0.1311
   63SAPC  H18X 5122   5.178   6.263   5.806  0.7906 -1.9369 -2.2317
   63SAPC  H18Y 5123   5.206   6.207   5.983  2.7157 -0.9189 -1.0994
   63SAPC  H18Z 5124   5.046   6.186   5.894  0.0822  1.4947 -0.1533
   64SAPC     N 5125   4.575   0.357   8.369  0.3505  1.1356 -0.3275
   64SAPC   C12 5126   4.616   0.205   8.362 -0.9342 -0.5821  0.5137
   64SAPC  H12A 5127   4.611   0.170   8.464 -0.7294 -1.0193  0.3741
   64SAPC  H12B 5128   4.723   0.210   8.348 -1.1102 -0.4185 -0.9500
   64SAPC   C13 5129   4.439   0.375   8.424 -0.3019  0.7807 -0.4437
   64SAPC  H13A 5130   4.433   0.319   8.516 -1.8216  0.8611 -0.4589
   64SAPC  H13B 5131   4.411   0.477   8.447 -2.9371 -0.1689  1.0939
   64SAPC  H13C 5132   4.362   0.332   8.361 -0.4265 -1.4739  1.0867
   64SAPC   C14 5133   4.672   0.425   8.468  0.1295 -0.2975 -0.1020
   64SAPC  H14A 5134   4.702   0.357   8.546  1.5525 -0.2177 -0.5427
   64SAPC  H14B 5135   4.758   0.473   8.422 -0.3979 -1.4582 -2.4564
   64SAPC  H14C 5136   4.617   0.497   8.527 -0.2460 -0.3564 -0.3837
   64SAPC   C15 5137   4.589   0.426   8.242 -0.0262  0.2049 -0.3698
   64SAPC  H15A 5138   4.683   0.404   8.193 -0.3867  1.9742 -2.0052
   64SAPC  H15B 5139   4.512   0.392   8.174  1.4544 -1.6078 -1.2204
   64SAPC  H15C 5140   4.582   0.533   8.259 -2.4751  0.2000 -1.0167
   64SAPC   C11 5141   4.550   0.113   8.261  0.2891  0.2659  0.3027
   64SAPC  H11A 5142   4.602   0.015   8.264  0.7251  0.5149  0.9516
   64SAPC  H11B 5143   4.564   0.156   8.159  1.2255  2.8131  1.4272
   64SAPC     P 5144   4.328  -0.014   8.220 -0.0500  0.0721  0.3727
   64SAPC   O13 5145   4.415  -0.137   8.203  0.1068  0.6438 -0.7646
   64SAPC   O14 5146   4.200  -0.042   8.287  0.1257  0.4818  0.4979
   64SAPC   O12 5147   4.412   0.100   8.290  0.2259 -0.2784  0.5764
   64SAPC   O11 5148   4.308   0.057   8.077 -0.2312  0.5965 -0.6589
   64SAPC    C1 5149   4.217   0.165   8.075 -0.0255  1.0059 -0.1281
   64SAPC    HA 5150   4.115   0.147   8.113 -0.4311  2.0948 -0.6769
   64SAPC    HB 5151   4.260   0.248   8.134  0.5980  0.3858  0.3170
   64SAPC    C2 5152   4.206   0.214   7.919 -0.6150 -0.0302 -0.1704
   64SAPC    HS 5153   4.143   0.306   7.918  1.0004  1.1217 -0.5354
   64SAPC   O21 5154   4.161   0.109   7.828  0.1365 -0.6579  0.4405
   64SAPC   C21 5155   4.032   0.083   7.844  0.2108  0.2126  0.7417
   64SAPC   O22 5156   3.950   0.143   7.914  0.7822 -0.4294  0.1455
   64SAPC   C22 5157   3.996  -0.026   7.748 -0.2060  0.0180  1.2432
   64SAPC   H2R 5158   4.082  -0.051   7.683 -1.2941  1.9767 -1.1138
   64SAPC   H2S 5159   3.975  -0.107   7.820  2.2042 -2.7465 -0.9055
   64SAPC    C3 5160   4.353   0.260   7.877  0.3548 -0.2581  0.0616
   64SAPC    HX 5161   4.425   0.183   7.910 -0.8091 -1.0441  0.8465
   64SAPC    HY 5162   4.377   0.350   7.937 -1.6571 -0.8550  1.8969
   64SAPC   O31 5163   4.364   0.300   7.740 -0.4314 -0.3208 -0.4368
   64SAPC   C31 5164   4.372   0.199   7.652  0.2773 -0.5513 -0.1223
   64SAPC   O32 5165   4.391   0.084   7.673  0.6826  0.3471  0.9825
   64SAPC   C32 5166   4.370   0.269   7.512 -0.2406 -0.0728  0.0743
   64SAPC   H2X 5167   4.393   0.377   7.525 -1.5008  0.2460 -0.2388
   64SAPC   H2Y 5168   4.265   0.267   7.476 -0.3265 -2.1081  0.3557
   64SAPC   C23 5169   3.877  -0.003   7.657 -0.2468 -0.1970 -0.1006
   64SAPC   H3R 5170   3.809   0.078   7.691 -0.3919 -0.2580 -0.2436
   64SAPC   H3S 5171   3.811  -0.092   7.653 -0.4525 -0.0178 -0.6524
   64SAPC   C24 5172   3.909   0.056   7.517 -0.2194 -0.2142  0.6552
   64SAPC   H4R 5173   3.827   0.040   7.444  1.3748  2.2288 -1.8412
   64SAPC   H4S 5174   3.990  -0.006   7.472 -0.6966 -0.3790  0.0145
   64SAPC   C25 5175   3.955   0.197   7.498 -0.8310 -0.0167  0.6377
   64SAPC   H5R 5176   4.034   0.230   7.568  2.0137  0.6128 -2.6107
   64SAPC   C26 5177   3.891   0.294   7.427  0.0131  0.1317  0.1155
   64SAPC   H6R 5178   3.935   0.395   7.429  1.4682 -0.4789  0.2903
   64SAPC   C27 5179   3.768   0.281   7.338  1.1401  0.4084  0.3331
   64SAPC   H7R 5180   3.691   0.348   7.381  1.1585  0.5949  0.0769
   64SAPC   H7S 5181   3.731   0.176   7.338  1.8642  0.1486  0.3954
   64SAPC   C28 5182   3.805   0.323   7.198  0.2666 -0.1034 -0.5564
   64SAPC   H8R 5183   3.780   0.428   7.174  2.9632  0.6452 -0.3772
   64SAPC   C29 5184   3.875   0.256   7.105 -0.2110  0.1057  0.1622
   64SAPC   H9R 5185   3.904   0.299   7.008 -1.1816 -1.4282 -0.8336
   64SAPC  C210 5186   3.926   0.117   7.122 -0.6473  0.5873  0.2590
   64SAPC  H10R 5187   3.864   0.051   7.058  1.5045 -0.9427 -0.3940
   64SAPC  H10S 5188   3.899   0.087   7.225  2.4039 -0.0303  1.0007
   64SAPC  C211 5189   4.078   0.106   7.098  0.3805  0.3770 -0.3781
   64SAPC  H11R 5190   4.129   0.092   7.195 -1.1021  2.6402  0.8245
   64SAPC  C212 5191   4.149   0.088   6.984  0.0634  0.2773  0.5462
   64SAPC  H12R 5192   4.258   0.072   6.988  0.4334  2.2473 -0.3276
   64SAPC  C213 5193   4.092   0.079   6.841  0.0066 -0.3441 -0.4469
   64SAPC  H13R 5194   3.983   0.054   6.842  0.0080 -0.6125 -2.5761
   64SAPC  H13S 5195   4.126  -0.008   6.781 -1.5316 -0.4603 -1.2071
   64SAPC  C214 5196   4.129   0.196   6.751  0.1152 -0.3545  0.0628
   64SAPC  H14R 5197   4.068   0.283   6.780 -1.5214 -1.7239  0.9039
   64SAPC  C215 5198   4.198   0.200   6.633 -0.5501 -0.3524  0.0060
   64SAPC  H15R 5199   4.220   0.293   6.580  1.1227 -1.4598 -1.3698
   64SAPC  C216 5200   4.252   0.086   6.552 -0.5734 -0.2287 -0.1477
   64SAPC  H16R 5201   4.270  -0.001   6.619 -3.5970 -1.5518 -0.9203
   64SAPC  H16S 5202   4.348   0.108   6.500  0.4292  0.0970  1.7403
   64SAPC  C217 5203   4.158   0.033   6.443  0.3921  0.2120  0.0523
   64SAPC  H17R 5204   4.128   0.124   6.387 -1.1761 -0.2605  0.0982
   64SAPC  H17S 5205   4.072   0.003   6.506  0.0084  1.1859  0.0108
   64SAPC  C218 5206   4.201  -0.090   6.369 -0.6210  0.4794 -0.6005
   64SAPC  H18R 5207   4.126  -0.122   6.294  1.5796  1.2977 -3.3032
   64SAPC  H18S 5208   4.210  -0.169   6.447  1.4019  0.6815 -0.5738
   64SAPC  C219 5209   4.331  -0.082   6.297 -0.1626 -0.7065 -0.1088
   64SAPC  H19R 5210   4.362  -0.176   6.247  0.5738 -0.5880  0.1049
   64SAPC  H19S 5211   4.415  -0.059   6.367 -1.2689  1.1719  0.6719
   64SAPC  C220 5212   4.322   0.022   6.186 -0.1129 -0.5019 -0.0928
   64SAPC  H20R 5213   4.247  -0.006   6.109 -0.6399 -1.6761  0.8289
   64SAPC  H20S 5214   4.424   0.034   6.142 -0.9977  0.9417 -1.8833
   64SAPC  H20T 5215   4.304   0.122   6.232  2.3891 -0.5765  1.2143
   64SAPC   C33 5216   4.467   0.201   7.414  0.6330  0.3114 -0.0472
   64SAPC   H3X 5217   4.408   0.110   7.392 -0.0155  0.6962  0.0867
   64SAPC   H3Y 5218   4.564   0.172   7.460  0.4285 -1.3426 -0.5920
   64SAPC   C34 5219   4.487   0.278   7.289 -0.3493  0.4883  0.0296
   64SAPC   H4X 5220   4.525   0.379   7.315 -1.7000  0.7074  1.3087
   64SAPC   H4Y 5221   4.394   0.306   7.235  1.8619  3.2846 -2.6607
   64SAPC   C35 5222   4.566   0.201   7.184  0.2974  0.1061  0.6945
   64SAPC   H5X 5223   4.519   0.101   7.170 -1.2210  1.0639 -1.6188
   64SAPC   H5Y 5224   4.676   0.194   7.203  0.2656  0.9228  1.2309
   64SAPC   C36 5225   4.548   0.272   7.047  0.2523 -0.3651 -0.0417
   64SAPC   H6X 5226   4.581   0.378   7.048 -5.1109  1.6091  0.0577
   64SAPC   H6Y 5227   4.439   0.281   7.027 -0.0802 -0.8244  1.4879
   64SAPC   C37 5228   4.604   0.186   6.926 -0.1668  0.6703  0.4573
   64SAPC   H7X 5229   4.540   0.096   6.919  0.4671  0.2906 -0.5835
   64SAPC   H7Y 5230   4.710   0.165   6.955 -0.2324  0.9164  0.8901
   64SAPC   C38 5231   4.596   0.264   6.790 -0.2029 -0.5550 -0.2849
   64SAPC   H8X 5232   4.661   0.352   6.810  0.1113 -0.4388 -1.6973
   64SAPC   H8Y 5233   4.492   0.303   6.781 -0.4715 -1.2442 -0.2130
   64SAPC   C39 5234   4.634   0.191   6.661 -0.3928  0.3287  0.2121
   64SAPC   H9X 5235   4.591   0.093   6.633  1.1526 -0.3658  0.1298
   64SAPC   H9Y 5236   4.742   0.170   6.678 -0.5504 -0.7189 -0.0291
   64SAPC  C310 5237   4.617   0.272   6.526  0.3024 -0.5950 -0.0601
   64SAPC  H10X 5238   4.688   0.357   6.517 -0.8498  0.4145  0.1789
   64SAPC  H10Y 5239   4.520   0.326   6.528  0.2777 -0.6285 -0.2982
   64SAPC  C311 5240   4.625   0.193   6.386 -0.4174 -0.0445 -0.1552
   64SAPC  H11X 5241   4.545   0.117   6.375  0.2788 -0.5708 -1.9007
   64SAPC  H11Y 5242   4.722   0.143   6.370  0.0698  0.6545  0.5296
   64SAPC  C312 5243   4.622   0.282   6.263 -0.2069 -0.4909 -0.8037
   64SAPC  H12X 5244   4.677   0.376   6.288 -1.7609 -0.0898  1.5131
   64SAPC  H12Y 5245   4.516   0.308   6.241 -0.6819 -1.5096  0.1868
   64SAPC  C313 5246   4.684   0.226   6.135  0.3408  0.8260 -1.0229
   64SAPC  H13X 5247   4.612   0.146   6.107 -0.8985  1.1457  0.9916
   64SAPC  H13Y 5248   4.781   0.177   6.161 -1.0950 -0.6848  2.0269
   64SAPC  C314 5249   4.695   0.312   6.008 -0.3835  0.1132 -0.0891
   64SAPC  H14X 5250   4.753   0.255   5.933 -1.1329  1.2112 -1.5423
   64SAPC  H14Y 5251   4.750   0.405   6.034 -0.7589  0.1519  0.6104
   64SAPC  C315 5252   4.562   0.359   5.953 -0.0229  0.3211 -0.2099
   64SAPC  H15X 5253   4.570   0.421   5.861 -3.4215 -1.1417 -1.6875
   64SAPC  H15Y 5254   4.515   0.429   6.025  0.8089 -0.5952  1.2637
   64SAPC  C316 5255   4.455   0.251   5.910  0.2002 -0.9318 -0.0050
   64SAPC  H16X 5256   4.373   0.301   5.855 -0.0284  0.0782  1.2179
   64SAPC  H16Y 5257   4.421   0.194   5.999 -1.2220  0.6589  0.5292
   64SAPC  C317 5258   4.514   0.140   5.821  0.3144  0.2474 -0.0041
   64SAPC  H17X 5259   4.598   0.092   5.877  0.4226 -1.7291 -1.7437
   64SAPC  H17Y 5260   4.554   0.182   5.726 -0.8462  0.8453 -0.2422
   64SAPC  C318 5261   4.411   0.023   5.799 -0.5509  0.2290 -0.9065
   64SAPC  H18X 5262   4.319   0.052   5.745 -0.5216 -0.2319 -1.2046
   64SAPC  H18Y 5263   4.381  -0.008   5.902  2.1403 -1.2295 -0.4584
   64SAPC  H18Z 5264   4.470  -0.055   5.746 -0.8821 -0.4906 -0.2292
   65SAPC     N 5265   2.272   6.414   3.753  0.2920 -0.0953 -0.0479
   65SAPC   C12 5266   2.152   6.502   3.761  0.5227  0.1880  0.1240
   65SAPC  H12A 5267   2.181   6.605   3.751  0.2382  0.1059 -2.0033
   65SAPC  H12B 5268   2.119   6.497   3.863  0.0371 -0.3654 -0.0472
   65SAPC   C13 5269   2.303   6.390   3.608 -0.6176 -0.3580  0.5810
   65SAPC  H13A 5270   2.391   6.330   3.588 -1.2874 -1.7419  1.6326
   65SAPC  H13B 5271   2.225   6.340   3.553  0.1985  0.2305 -1.1846
   65SAPC  H13C 5272   2.313   6.485   3.559 -0.8908  0.3480  1.8516
   65SAPC   C14 5273   2.393   6.477   3.816  0.1837  0.4617  0.5563
   65SAPC  H14A 5274   2.483   6.418   3.805 -0.4160 -1.0010  2.8090
   65SAPC  H14B 5275   2.414   6.580   3.791  2.7069 -0.1622 -0.2516
   65SAPC  H14C 5276   2.380   6.490   3.923  1.8743  0.3365  0.8167
   65SAPC   C15 5277   2.244   6.281   3.825 -0.0206  0.0965 -0.1206
   65SAPC  H15A 5278   2.330   6.217   3.808 -0.4585 -0.5268 -0.0035
   65SAPC  H15B 5279   2.255   6.304   3.930  2.9192  3.0419 -0.9022
   65SAPC  H15C 5280   2.151   6.236   3.794  0.6231 -0.1453 -1.8076
   65SAPC   C11 5281   2.026   6.467   3.663 -0.2251  0.9855  0.4149
   65SAPC  H11A 5282   2.054   6.471   3.556  1.2572 -0.1691  0.7316
   65SAPC  H11B 5283   1.944   6.543   3.666 -0.1571  1.0474  0.8209
   65SAPC     P 5284   1.874   6.308   3.810 -0.0941  0.4711  0.0593
   65SAPC   O13 5285   1.740   6.291   3.749 -0.5103  0.0959  0.0896
   65SAPC   O14 5286   1.920   6.187   3.885  0.2426 -0.3450 -0.0221
   65SAPC   O12 5287   1.969   6.337   3.685  0.0172 -0.2983 -0.5380
   65SAPC   O11 5288   1.865   6.434   3.902  0.1591 -0.5661  0.9892
   65SAPC    C1 5289   1.938   6.451   4.025  0.0355  0.3350 -0.3264
   65SAPC    HA 5290   2.041   6.409   4.024 -0.0107 -0.2312  3.3406
   65SAPC    HB 5291   1.961   6.560   4.032 -0.7175  0.4784  0.1102
   65SAPC    C2 5292   1.853   6.421   4.151 -0.1750  0.3848 -0.1822
   65SAPC    HS 5293   1.900   6.474   4.237  0.9263 -0.9285  0.0699
   65SAPC   O21 5294   1.840   6.284   4.182  0.0202 -0.4760 -0.6577
   65SAPC   C21 5295   1.945   6.230   4.237 -0.5839  0.7318  0.4373
   65SAPC   O22 5296   2.057   6.278   4.238  0.4899 -0.0043  0.4861
   65SAPC   C22 5297   1.907   6.103   4.308  0.1694  0.3449  0.0058
   65SAPC   H2R 5298   1.838   6.039   4.249 -1.8131  1.9943  0.3822
   65SAPC   H2S 5299   1.996   6.039   4.319 -1.2859 -1.7407  0.2056
   65SAPC    C3 5300   1.711   6.489   4.139  0.8422  0.3821 -1.3388
   65SAPC    HX 5301   1.660   6.465   4.043 -0.5385 -1.0657 -0.3000
   65SAPC    HY 5302   1.725   6.599   4.138  2.1426  0.3057  1.1328
   65SAPC   O31 5303   1.618   6.456   4.244  0.3693 -0.0699 -0.3896
   65SAPC   C31 5304   1.635   6.525   4.357  0.6130 -0.2745  0.0927
   65SAPC   O32 5305   1.706   6.621   4.375 -0.1774 -0.3059  0.2099
   65SAPC   C32 5306   1.560   6.449   4.470 -0.5701 -0.2453  0.1794
   65SAPC   H2X 5307   1.596   6.345   4.463  0.9258  0.3252 -1.2206
   65SAPC   H2Y 5308   1.452   6.461   4.448 -0.6961  0.6777  1.2169
   65SAPC   C23 5309   1.853   6.129   4.455  0.0050  0.5188  0.5080
   65SAPC   H3R 5310   1.801   6.037   4.489 -0.4140  1.6058  2.9860
   65SAPC   H3S 5311   1.766   6.197   4.458 -0.7414 -0.4458  1.0994
   65SAPC   C24 5312   1.964   6.163   4.556  0.4474 -0.1512  0.3771
   65SAPC   H4R 5313   1.929   6.246   4.620  1.4028  0.1270  0.5516
   65SAPC   H4S 5314   2.048   6.208   4.498 -1.7059  2.7449 -0.7090
   65SAPC   C25 5315   2.009   6.052   4.640 -0.6534  0.2029 -0.9328
   65SAPC   H5R 5316   2.081   5.987   4.588 -0.0349  0.9486 -1.0266
   65SAPC   C26 5317   1.987   6.046   4.777  0.1297 -0.3192  0.1633
   65SAPC   H6R 5318   2.030   5.959   4.830 -0.1863 -1.1989 -0.9955
   65SAPC   C27 5319   1.913   6.143   4.865 -0.2071  1.1999 -0.9864
   65SAPC   H7R 5320   1.811   6.100   4.869  0.5350 -0.5348  0.9219
   65SAPC   H7S 5321   1.911   6.243   4.816  1.3228  1.3087 -0.8829
   65SAPC   C28 5322   1.964   6.147   5.006  0.0003 -0.1316  0.4046
   65SAPC   H8R 5323   2.041   6.221   5.030  1.8999 -2.5803  2.5272
   65SAPC   C29 5324   1.924   6.070   5.114 -0.4776 -0.0204  0.3516
   65SAPC   H9R 5325   1.976   6.067   5.211 -1.9100 -0.0973  1.1416
   65SAPC  C210 5326   1.827   5.958   5.106 -0.0581 -0.1996  0.0694
   65SAPC  H10R 5327   1.846   5.884   5.187 -1.2113 -0.1956  0.3570
   65SAPC  H10S 5328   1.833   5.901   5.011 -1.6900 -2.9330  1.4408
   65SAPC  C211 5329   1.685   6.012   5.119 -0.6244 -0.0459  0.3252
   65SAPC  H11R 5330   1.681   6.109   5.171 -1.3527 -0.0355  0.2544
   65SAPC  C212 5331   1.574   5.957   5.069 -0.2223 -0.4422  0.0118
   65SAPC  H12R 5332   1.483   6.017   5.077 -0.3235 -0.8315  2.6058
   65SAPC  C213 5333   1.564   5.811   5.011 -0.3093 -0.9281  0.3978
   65SAPC  H13R 5334   1.575   5.737   5.094 -0.0068 -1.4101 -0.0666
   65SAPC  H13S 5335   1.654   5.775   4.958  0.6789 -1.1995  2.1690
   65SAPC  C214 5336   1.435   5.789   4.930  0.3240  0.0961  0.0225
   65SAPC  H14R 5337   1.363   5.716   4.971 -1.9221  2.2122  0.0630
   65SAPC  C215 5338   1.418   5.826   4.803  0.1239 -0.8294  0.1182
   65SAPC  H15R 5339   1.331   5.788   4.748  0.1146  0.2525 -0.6393
   65SAPC  C216 5340   1.513   5.919   4.732  0.6757 -0.1342  0.0465
   65SAPC  H16R 5341   1.580   5.855   4.670  3.4345  1.3892  1.2870
   65SAPC  H16S 5342   1.576   5.978   4.801  1.4167  0.1269 -0.8395
   65SAPC  C217 5343   1.435   6.018   4.639 -0.2530 -0.6053 -1.1156
   65SAPC  H17R 5344   1.506   6.102   4.622  0.9898 -1.0762  1.3014
   65SAPC  H17S 5345   1.350   6.062   4.695  0.1059 -1.4322  0.1144
   65SAPC  C218 5346   1.391   5.961   4.502 -0.1304  0.1025 -0.7317
   65SAPC  H18R 5347   1.315   6.035   4.469  0.0537  1.9697  2.5814
   65SAPC  H18S 5348   1.348   5.860   4.515  0.1049 -0.0512 -1.1217
   65SAPC  C219 5349   1.494   5.959   4.390  0.8907 -0.2561 -0.5174
   65SAPC  H19R 5350   1.575   5.893   4.427 -0.2514 -1.1651  0.4483
   65SAPC  H19S 5351   1.530   6.062   4.371 -0.4168  0.7499  1.9562
   65SAPC  C220 5352   1.453   5.902   4.258  0.2968  0.6781 -0.2368
   65SAPC  H20R 5353   1.530   5.899   4.179 -2.1247  0.0524 -2.7393
   65SAPC  H20S 5354   1.365   5.963   4.227 -1.7654 -2.0270 -0.0577
   65SAPC  H20T 5355   1.409   5.800   4.265  1.0646  0.2645 -1.1799
   65SAPC   C33 5356   1.594   6.513   4.605  0.6138  0.1766  0.0603
   65SAPC   H3X 5357   1.550   6.615   4.608 -4.0100 -1.5845  0.8835
   65SAPC   H3Y 5358   1.703   6.527   4.619  0.4482 -0.7772  2.7686
   65SAPC   C34 5359   1.520   6.430   4.715 -0.2248 -0.2457  0.0756
   65SAPC   H4X 5360   1.545   6.324   4.697  1.6180 -0.3345  2.6317
   65SAPC   H4Y 5361   1.411   6.448   4.708 -0.2121  0.3448  1.0968
   65SAPC   C35 5362   1.563   6.470   4.852 -0.0423 -0.5968  0.3702
   65SAPC   H5X 5363   1.533   6.574   4.878  0.9706  0.2288 -1.4988
   65SAPC   H5Y 5364   1.674   6.475   4.841 -0.2966  1.3145 -2.6907
   65SAPC   C36 5365   1.500   6.384   4.962  0.8524  0.4795 -0.5720
   65SAPC   H6X 5366   1.545   6.283   4.964 -1.1125 -0.4283  0.0365
   65SAPC   H6Y 5367   1.392   6.372   4.936  0.7438 -0.0094  0.0972
   65SAPC   C37 5368   1.513   6.425   5.106  0.1541  0.3533  0.3530
   65SAPC   H7X 5369   1.471   6.346   5.171  0.0640 -1.1178 -1.4180
   65SAPC   H7Y 5370   1.465   6.523   5.129  1.8545  0.7521  2.6208
   65SAPC   C38 5371   1.658   6.434   5.156 -0.2107  0.5624 -0.1216
   65SAPC   H8X 5372   1.699   6.527   5.111  0.6647  0.4654  0.4521
   65SAPC   H8Y 5373   1.717   6.351   5.112 -0.1131  0.3147  0.4774
   65SAPC   C39 5374   1.678   6.435   5.314 -0.4605  0.1912 -0.2833
   65SAPC   H9X 5375   1.619   6.516   5.360  0.1008  2.0606 -2.6718
   65SAPC   H9Y 5376   1.779   6.474   5.338 -1.1919  0.9443  1.8085
   65SAPC  C310 5377   1.645   6.302   5.387 -0.1661 -0.4246  0.4482
   65SAPC  H10X 5378   1.717   6.226   5.350  0.8543  1.7518 -2.4335
   65SAPC  H10Y 5379   1.543   6.265   5.361  0.4436 -2.6526  0.9746
   65SAPC  C311 5380   1.666   6.294   5.540 -0.2345  0.3332  0.1983
   65SAPC  H11X 5381   1.768   6.321   5.574 -0.9999  1.2649  1.9110
   65SAPC  H11Y 5382   1.659   6.185   5.561 -2.5673  0.3944 -0.0158
   65SAPC  C312 5383   1.566   6.386   5.611 -1.0148  0.3238  0.0078
   65SAPC  H12X 5384   1.468   6.370   5.561 -1.1868  2.4433 -0.3941
   65SAPC  H12Y 5385   1.611   6.487   5.608 -1.6186  0.7079  2.1016
   65SAPC  C313 5386   1.556   6.350   5.762 -0.2191 -0.2108  0.5966
   65SAPC  H13X 5387   1.498   6.428   5.815  0.4881  0.9026 -0.2301
   65SAPC  H13Y 5388   1.659   6.336   5.800 -0.1927 -4.3258 -0.5144
   65SAPC  C314 5389   1.494   6.211   5.778  0.4191  0.0618 -0.1519
   65SAPC  H14X 5390   1.556   6.132   5.731  0.0960  1.2207 -2.6912
   65SAPC  H14Y 5391   1.394   6.205   5.730  0.8339 -0.3682 -0.9979
   65SAPC  C315 5392   1.479   6.183   5.931  0.1281 -0.0739 -0.2077
   65SAPC  H15X 5393   1.428   6.257   5.996  0.4679  0.3818 -0.4571
   65SAPC  H15Y 5394   1.581   6.187   5.974 -0.1394  0.9403  0.3588
   65SAPC  C316 5395   1.434   6.042   5.958  0.0068 -0.0555 -0.8215
   65SAPC  H16X 5396   1.509   5.978   5.906  0.5196  1.6639 -2.2820
   65SAPC  H16Y 5397   1.336   6.025   5.907 -0.4082 -3.5361  0.8324
   65SAPC  C317 5398   1.426   5.992   6.106  0.2804 -0.0107  0.0858
   65SAPC  H17X 5399   1.399   5.884   6.101 -3.6041  0.8690 -0.8348
   65SAPC  H17Y 5400   1.341   6.048   6.151 -1.4834 -0.2391 -2.7357
   65SAPC  C318 5401   1.562   6.015   6.182  0.3885  0.4050 -1.3918
   65SAPC  H18X 5402   1.634   5.943   6.139  1.5275  0.4032  0.4139
   65SAPC  H18Y 5403   1.551   5.997   6.291  0.1450  0.1863 -1.4514
   65SAPC  H18Z 5404   1.598   6.120   6.178 -1.2734  1.1854  1.1912
   66SAPC     N 5405   6.061   2.600   3.299 -0.1112 -0.6438 -0.6776
   66SAPC   C12 5406   5.987   2.675   3.411  0.3318 -0.0511  0.5751
   66SAPC  H12A 5407   6.030   2.773   3.417  0.6936 -0.2789  2.4173
   66SAPC  H12B 5408   6.013   2.634   3.508  1.6667  0.8373  0.6095
   66SAPC   C13 5409   5.997   2.476   3.287  0.3900 -0.2978 -0.0564
   66SAPC  H13A 5410   5.889   2.476   3.291  0.4269  0.2240  2.5929
   66SAPC  H13B 5411   6.029   2.414   3.204  0.8664 -0.5986  0.3429
   66SAPC  H13C 5412   6.020   2.419   3.376  0.6211 -1.3605 -0.7771
   66SAPC   C14 5413   6.058   2.683   3.172  0.1015  0.4499 -0.5509
   66SAPC  H14A 5414   5.953   2.692   3.147 -0.2094  0.1023  0.5847
   66SAPC  H14B 5415   6.098   2.782   3.186 -1.9560  1.4098 -0.9781
   66SAPC  H14C 5416   6.113   2.630   3.095 -1.3543 -0.4249 -1.0471
   66SAPC   C15 5417   6.199   2.581   3.349  0.2061 -0.1696  0.4591
   66SAPC  H15A 5418   6.256   2.672   3.347 -1.0077  0.6306 -2.8282
   66SAPC  H15B 5419   6.202   2.537   3.448  1.5236  1.1149  1.0234
   66SAPC  H15C 5420   6.236   2.506   3.280 -2.8611  0.2123 -1.7993
   66SAPC   C11 5421   5.829   2.676   3.408 -0.2091 -0.0917  0.6632
   66SAPC  H11A 5422   5.802   2.700   3.303  0.8228 -1.1962  0.1195
   66SAPC  H11B 5423   5.803   2.765   3.469 -1.8945  2.2032 -3.0392
   66SAPC     P 5424   5.621   2.563   3.499  0.0178  0.3674 -0.1456
   66SAPC   O13 5425   5.537   2.618   3.385  0.0665  0.0426 -0.1371
   66SAPC   O14 5426   5.575   2.432   3.543  0.1558 -0.1592  0.4872
   66SAPC   O12 5427   5.772   2.551   3.446 -0.3919 -0.1850  0.3202
   66SAPC   O11 5428   5.640   2.653   3.633  0.0294 -0.0125  0.3471
   66SAPC    C1 5429   5.515   2.683   3.699 -0.1542 -0.8683  0.1026
   66SAPC    HA 5430   5.508   2.793   3.691  0.4692 -0.8687 -0.5487
   66SAPC    HB 5431   5.420   2.646   3.655 -0.6198 -1.6922  1.7267
   66SAPC    C2 5432   5.514   2.644   3.855  0.0608  0.3409 -0.9769
   66SAPC    HS 5433   5.424   2.693   3.900  0.2589  1.0227 -1.3175
   66SAPC   O21 5434   5.635   2.696   3.905 -0.0273 -0.1310 -0.3122
   66SAPC   C21 5435   5.629   2.820   3.946 -0.1416 -0.2749  0.4802
   66SAPC   O22 5436   5.533   2.898   3.937  0.2350 -0.5287  0.1349
   66SAPC   C22 5437   5.767   2.863   4.009  0.1671 -0.3748 -0.3237
   66SAPC   H2R 5438   5.831   2.772   4.017 -1.2040 -1.4295 -1.0107
   66SAPC   H2S 5439   5.808   2.931   3.931  1.7954 -2.9553 -1.8819
   66SAPC    C3 5440   5.523   2.489   3.881 -0.0813 -0.1858  0.4416
   66SAPC    HX 5441   5.628   2.461   3.858  0.4265  0.6294  1.6876
   66SAPC    HY 5442   5.457   2.446   3.803  0.3902 -0.8142  0.3771
   66SAPC   O31 5443   5.481   2.448   4.010 -0.3723  0.3287 -0.0480
   66SAPC   C31 5444   5.506   2.319   4.030 -0.5932  0.4832  0.1470
   66SAPC   O32 5445   5.561   2.247   3.944 -0.7312  0.8428 -0.3954
   66SAPC   C32 5446   5.475   2.268   4.170 -0.3111 -0.2989 -0.2657
   66SAPC   H2X 5447   5.547   2.304   4.247 -1.9494  1.6611  0.4439
   66SAPC   H2Y 5448   5.475   2.157   4.165 -1.1079 -0.2793 -0.8439
   66SAPC   C23 5449   5.747   2.927   4.146  0.5662  0.5806  0.3113
   66SAPC   H3R 5450   5.841   2.919   4.206  0.5013  0.2291  0.3663
   66SAPC   H3S 5451   5.671   2.869   4.202 -0.9879  0.9742 -1.3133
   66SAPC   C24 5452   5.706   3.079   4.151  0.1553 -0.6277 -0.6663
   66SAPC   H4R 5453   5.689   3.100   4.259  0.6912 -2.4865 -0.1666
   66SAPC   H4S 5454   5.607   3.068   4.101  1.0842 -0.8258 -2.5654
   66SAPC   C25 5455   5.790   3.179   4.090 -0.0454  0.4872 -0.4611
   66SAPC   H5R 5456   5.751   3.205   3.991 -3.4888  1.9688  1.1049
   66SAPC   C26 5457   5.900   3.223   4.149 -0.1333 -0.4820 -0.1620
   66SAPC   H6R 5458   5.963   3.289   4.089 -0.0296 -0.9202 -0.5403
   66SAPC   C27 5459   5.965   3.181   4.280 -0.4059  0.2857 -1.0918
   66SAPC   H7R 5460   5.888   3.139   4.349  0.2191 -1.1082 -1.1979
   66SAPC   H7S 5461   5.991   3.269   4.341  1.8694 -0.6415 -0.6293
   66SAPC   C28 5462   6.083   3.091   4.249 -0.6040  0.7155  0.0652
   66SAPC   H8R 5463   6.070   2.981   4.246  0.6770  0.4816  1.7865
   66SAPC   C29 5464   6.201   3.127   4.203  0.0610  1.0859 -0.5115
   66SAPC   H9R 5465   6.271   3.044   4.187  0.3586  1.2143  0.0993
   66SAPC  C210 5466   6.254   3.262   4.171 -0.3589 -0.2342 -0.1058
   66SAPC  H10R 5467   6.336   3.275   4.245 -1.7369 -1.6647  1.7591
   66SAPC  H10S 5468   6.177   3.335   4.201 -1.0227 -1.0100  0.1127
   66SAPC  C211 5469   6.304   3.291   4.031 -0.1119 -0.4294  0.4526
   66SAPC  H11R 5470   6.239   3.354   3.969  1.1648 -0.6358 -1.1883
   66SAPC  C212 5471   6.423   3.246   3.982 -0.9068  0.0269  0.1095
   66SAPC  H12R 5472   6.450   3.251   3.875 -1.3041 -0.3538 -0.0135
   66SAPC  C213 5473   6.520   3.164   4.069  0.0205 -0.7268 -0.5280
   66SAPC  H13R 5474   6.480   3.153   4.172  0.8008  0.2932 -0.0850
   66SAPC  H13S 5475   6.616   3.219   4.082 -0.5911 -0.1053  2.0472
   66SAPC  C214 5476   6.553   3.032   4.004 -0.0971 -0.5118 -0.6188
   66SAPC  H14R 5477   6.583   3.033   3.898  2.1717 -0.5620 -0.0398
   66SAPC  C215 5478   6.559   2.911   4.068 -0.3317 -0.1001 -0.0883
   66SAPC  H15R 5479   6.596   2.828   4.005  3.1490  1.0127  0.2522
   66SAPC  C216 5480   6.535   2.877   4.213  0.8935 -0.1837 -0.2426
   66SAPC  H16R 5481   6.500   2.960   4.277 -1.5312 -1.1418 -0.1938
   66SAPC  H16S 5482   6.627   2.828   4.250 -0.0575 -1.4386  0.5718
   66SAPC  C217 5483   6.402   2.791   4.225  0.3257  0.1747 -0.3878
   66SAPC  H17R 5484   6.404   2.704   4.155 -0.3838  0.1114 -0.3402
   66SAPC  H17S 5485   6.313   2.854   4.203 -0.7186 -0.4794  1.6609
   66SAPC  C218 5486   6.386   2.749   4.370 -0.4148  0.1799 -0.2412
   66SAPC  H18R 5487   6.365   2.843   4.424 -2.2179  0.2165 -0.9333
   66SAPC  H18S 5488   6.485   2.703   4.389 -0.5676  0.3889  1.1282
   66SAPC  C219 5489   6.273   2.654   4.393  1.1486 -0.0226  0.2653
   66SAPC  H19R 5490   6.284   2.566   4.327  2.1543  0.9263 -0.8974
   66SAPC  H19S 5491   6.175   2.701   4.370  0.7879 -1.4874 -1.3735
   66SAPC  C220 5492   6.267   2.590   4.533  0.2752  0.3212 -0.1420
   66SAPC  H20R 5493   6.356   2.537   4.572 -2.3758 -2.5449  2.5599
   66SAPC  H20S 5494   6.194   2.506   4.539 -0.5430  1.1167  2.8256
   66SAPC  H20T 5495   6.236   2.657   4.616  0.9405 -2.4973  2.5652
   66SAPC   C33 5496   5.345   2.322   4.236 -0.1309 -0.3519 -0.4879
   66SAPC   H3X 5497   5.324   2.232   4.298  0.3361 -1.2474 -1.5963
   66SAPC   H3Y 5498   5.265   2.334   4.160  0.3158  1.5959 -0.6913
   66SAPC   C34 5499   5.365   2.445   4.320  0.3298  0.1659 -0.1293
   66SAPC   H4X 5500   5.263   2.467   4.360  0.0639  0.5496 -0.9821
   66SAPC   H4Y 5501   5.398   2.528   4.254  1.5455  0.1912  0.4975
   66SAPC   C35 5502   5.453   2.438   4.449  0.6509 -0.3312  0.3273
   66SAPC   H5X 5503   5.425   2.525   4.512  2.3385  2.1167 -2.0831
   66SAPC   H5Y 5504   5.556   2.453   4.409  0.5860 -0.6958  0.0144
   66SAPC   C36 5505   5.446   2.312   4.538  0.6459  0.2361 -0.4266
   66SAPC   H6X 5506   5.450   2.222   4.473 -0.3609  0.6209 -1.0469
   66SAPC   H6Y 5507   5.342   2.316   4.577  0.4218  1.0167 -1.0760
   66SAPC   C37 5508   5.556   2.302   4.649 -0.1492 -0.0016  0.6851
   66SAPC   H7X 5509   5.655   2.292   4.600  0.3539 -0.5514  1.8041
   66SAPC   H7Y 5510   5.543   2.208   4.707  0.2933  0.6748  1.8977
   66SAPC   C38 5511   5.539   2.414   4.756 -0.4175 -0.5261  0.4635
   66SAPC   H8X 5512   5.431   2.404   4.777 -1.0971 -0.0223 -2.3420
   66SAPC   H8Y 5513   5.565   2.511   4.709  1.9819 -1.8105 -1.0970
   66SAPC   C39 5514   5.638   2.400   4.873 -0.4515  0.6729 -0.2098
   66SAPC   H9X 5515   5.615   2.479   4.948 -1.2801  0.3863 -0.1532
   66SAPC   H9Y 5516   5.745   2.418   4.849 -0.5500  0.8569 -0.5245
   66SAPC  C310 5517   5.624   2.270   4.961  0.1563 -0.6509 -0.3586
   66SAPC  H10X 5518   5.679   2.192   4.904 -3.0863 -0.9864 -3.3766
   66SAPC  H10Y 5519   5.516   2.255   4.977  0.0772 -0.2680 -0.5112
   66SAPC  C311 5520   5.688   2.285   5.097 -0.8722  0.6172 -0.3209
   66SAPC  H11X 5521   5.629   2.357   5.159  0.5684  1.0400  0.6134
   66SAPC  H11Y 5522   5.791   2.325   5.091 -0.3590 -0.3019  1.5049
   66SAPC  C312 5523   5.681   2.150   5.170  0.4402 -0.0013  0.9023
   66SAPC  H12X 5524   5.589   2.100   5.135  0.7693  0.6209 -1.0320
   66SAPC  H12Y 5525   5.672   2.178   5.277 -2.9140  2.1142  0.2086
   66SAPC  C313 5526   5.810   2.062   5.158  0.9672 -0.1104 -0.0686
   66SAPC  H13X 5527   5.897   2.130   5.175  1.5465 -0.2483 -2.2150
   66SAPC  H13Y 5528   5.819   2.016   5.058 -0.6138  2.6795 -1.6212
   66SAPC  C314 5529   5.802   1.963   5.273  0.4816 -0.5258  0.4669
   66SAPC  H14X 5530   5.713   1.896   5.270 -0.9540  1.2124  1.7331
   66SAPC  H14Y 5531   5.788   2.013   5.372 -3.8857 -1.1670  0.3550
   66SAPC  C315 5532   5.933   1.893   5.297 -0.1726 -0.2760 -0.4772
   66SAPC  H15X 5533   6.009   1.971   5.274 -0.1612 -0.5214 -1.3250
   66SAPC  H15Y 5534   5.933   1.817   5.215  0.3341  0.6020 -1.3099
   66SAPC  C316 5535   5.945   1.821   5.434  0.8116  0.4293 -0.0566
   66SAPC  H16X 5536   5.867   1.742   5.440 -0.0977  1.3598  0.7510
   66SAPC  H16Y 5537   5.902   1.884   5.515 -1.0823 -0.2679 -0.4744
   66SAPC  C317 5538   6.078   1.764   5.476  0.8527  0.0653 -0.3311
   66SAPC  H17X 5539   6.156   1.843   5.482  1.1585 -0.0984 -1.8868
   66SAPC  H17Y 5540   6.104   1.677   5.412 -3.1218 -1.5573 -0.0322
   66SAPC  C318 5541   6.064   1.706   5.628  0.1246 -0.5771 -0.6004
   66SAPC  H18X 5542   5.994   1.620   5.628 -1.8618  0.7394  3.5394
   66SAPC  H18Y 5543   6.031   1.789   5.695 -0.9997 -2.7081  1.6478
   66SAPC  H18Z 5544   6.167   1.673   5.652  0.3548 -0.3634 -1.2696
   67SAPC     N 5545   4.362   3.620   3.277  0.5339 -0.0757 -0.0022
   67SAPC   C12 5546   4.509   3.606   3.307 -0.3156  0.2008 -0.2684
   67SAPC  H12A 5547   4.525   3.500   3.314 -0.0612  0.2876  0.5605
   67SAPC  H12B 5548   4.531   3.655   3.401 -0.4855  0.7176 -0.4952
   67SAPC   C13 5549   4.329   3.765   3.265  0.1169  0.7269 -0.0125
   67SAPC  H13A 5550   4.369   3.796   3.169  1.5351  1.7059  0.8640
   67SAPC  H13B 5551   4.222   3.779   3.264  0.1460  1.4148  1.9081
   67SAPC  H13C 5552   4.385   3.821   3.338 -0.0229 -3.5033  3.7223
   67SAPC   C14 5553   4.317   3.553   3.154 -0.4461  0.3272  0.3105
   67SAPC  H14A 5554   4.354   3.587   3.058 -1.8635 -0.1931 -0.4456
   67SAPC  H14B 5555   4.334   3.446   3.154  2.0130  0.6295  1.8190
   67SAPC  H14C 5556   4.211   3.573   3.152 -0.0477  2.6524 -1.0528
   67SAPC   C15 5557   4.279   3.566   3.389 -0.0447 -0.6324 -0.4707
   67SAPC  H15A 5558   4.175   3.592   3.378  0.2464  0.6845 -0.2681
   67SAPC  H15B 5559   4.278   3.458   3.395  0.2261 -0.5583  1.8317
   67SAPC  H15C 5560   4.317   3.604   3.483 -0.9667  2.0480 -1.0858
   67SAPC   C11 5561   4.621   3.661   3.205  0.0103 -0.0083 -0.5687
   67SAPC  H11A 5562   4.602   3.616   3.105  0.6890  0.5644 -0.9583
   67SAPC  H11B 5563   4.715   3.618   3.245 -1.4598 -2.1156  0.8140
   67SAPC     P 5564   4.687   3.900   3.287  0.1936  0.4112 -0.3147
   67SAPC   O13 5565   4.833   3.895   3.267  0.3774 -0.3286 -0.0171
   67SAPC   O14 5566   4.620   4.032   3.275  0.1036  0.1123 -0.6673
   67SAPC   O12 5567   4.616   3.802   3.183  0.0362 -0.3776 -0.2252
   67SAPC   O11 5568   4.663   3.828   3.423  0.2215 -0.0253  0.4455
   67SAPC    C1 5569   4.716   3.883   3.542 -0.4556 -0.1254 -0.2822
   67SAPC    HA 5570   4.826   3.875   3.552 -0.4983  1.0274  1.4612
   67SAPC    HB 5571   4.711   3.993   3.556  1.7590 -0.2690  2.5651
   67SAPC    C2 5572   4.651   3.816   3.662 -0.8150 -0.2035  0.0506
   67SAPC    HS 5573   4.541   3.823   3.645 -0.9528 -1.8504  0.1405
   67SAPC   O21 5574   4.691   3.892   3.774 -0.0976  0.7010 -0.3059
   67SAPC   C21 5575   4.604   3.906   3.868  0.5571  0.2369  0.4188
   67SAPC   O22 5576   4.488   3.865   3.865 -0.2230  0.2368  0.3506
   67SAPC   C22 5577   4.667   3.987   3.979 -0.6264  0.6562  0.0062
   67SAPC   H2R 5578   4.777   3.981   3.969 -0.4635  0.2428  1.7290
   67SAPC   H2S 5579   4.645   4.093   3.952  0.2535  1.1154  1.0060
   67SAPC    C3 5580   4.695   3.668   3.680 -0.7074  0.0730  0.1202
   67SAPC    HX 5581   4.806   3.670   3.683 -0.7262  0.4436  1.4701
   67SAPC    HY 5582   4.656   3.615   3.591 -0.0694  1.5035 -1.0603
   67SAPC   O31 5583   4.650   3.611   3.801 -0.6250  0.1992  0.0087
   67SAPC   C31 5584   4.528   3.563   3.794  0.3846 -0.2151  0.2805
   67SAPC   O32 5585   4.451   3.566   3.701  0.3806  0.5506  0.2225
   67SAPC   C32 5586   4.498   3.488   3.924  0.1682 -1.2050 -0.2193
   67SAPC   H2X 5587   4.524   3.560   4.005  1.9854 -0.7166 -1.1913
   67SAPC   H2Y 5588   4.561   3.397   3.928 -0.4538 -1.6908 -1.0795
   67SAPC   C23 5589   4.624   3.956   4.125 -0.1411  0.0206 -1.1089
   67SAPC   H3R 5590   4.653   3.854   4.159  0.9665  0.3965 -0.8655
   67SAPC   H3S 5591   4.513   3.959   4.118 -0.0798 -0.1323 -2.5949
   67SAPC   C24 5592   4.670   4.049   4.242  0.4367 -0.5429  0.3096
   67SAPC   H4R 5593   4.628   4.015   4.339  3.1034  0.7198  1.9874
   67SAPC   H4S 5594   4.638   4.154   4.222 -0.5076 -0.9123 -0.2328
   67SAPC   C25 5595   4.819   4.059   4.245  0.3063 -0.4263  0.0402
   67SAPC   H5R 5596   4.862   4.119   4.164  1.1305 -0.3038  0.5565
   67SAPC   C26 5597   4.904   3.994   4.328 -0.2628 -0.6182  0.2632
   67SAPC   H6R 5598   5.012   4.015   4.320 -0.0189 -0.9663  2.1271
   67SAPC   C27 5599   4.862   3.891   4.426  0.5234  0.2116  0.3550
   67SAPC   H7R 5600   4.803   3.813   4.373  2.3381 -1.5840  0.8277
   67SAPC   H7S 5601   4.791   3.936   4.498  0.6893  0.0861  0.5987
   67SAPC   C28 5602   4.974   3.814   4.484 -0.2550 -1.0410 -0.4546
   67SAPC   H8R 5603   5.029   3.746   4.418 -0.6005 -1.2944 -0.4840
   67SAPC   C29 5604   4.994   3.814   4.620  0.0300  0.5663  0.1448
   67SAPC   H9R 5605   5.083   3.760   4.657  1.0703  0.8789 -1.7928
   67SAPC  C210 5606   4.916   3.897   4.718  0.1060 -0.3944 -0.5820
   67SAPC  H10R 5607   4.945   3.853   4.816  1.0752  2.2966  0.4493
   67SAPC  H10S 5608   4.810   3.864   4.716  0.2419 -1.1880  1.7726
   67SAPC  C211 5609   4.933   4.045   4.724 -0.3539 -0.4873  0.3681
   67SAPC  H11R 5610   4.968   4.089   4.630  0.1517  0.3193  0.9242
   67SAPC  C212 5611   4.913   4.130   4.834  0.6321 -0.0023  0.1542
   67SAPC  H12R 5612   4.943   4.235   4.819  0.1169 -0.1093 -1.8554
   67SAPC  C213 5613   4.872   4.082   4.969 -0.5432 -0.0729 -0.0892
   67SAPC  H13R 5614   4.799   4.001   4.953 -1.8094  0.8039  1.0883
   67SAPC  H13S 5615   4.807   4.154   5.023 -0.6677 -0.7015  0.6101
   67SAPC  C214 5616   4.994   4.039   5.062  0.7306  0.0397  0.4834
   67SAPC  H14R 5617   5.089   4.038   5.006  1.3027  2.6309  1.2948
   67SAPC  C215 5618   4.994   4.046   5.198  0.5037 -0.6960  0.4575
   67SAPC  H15R 5619   5.081   4.013   5.257  0.2647 -0.1720  1.1232
   67SAPC  C216 5620   4.885   4.072   5.297  0.2759  0.3545 -0.2309
   67SAPC  H16R 5621   4.786   4.041   5.257 -0.0626 -0.4410  1.1657
   67SAPC  H16S 5622   4.877   4.181   5.315  0.8625  0.1113  1.7533
   67SAPC  C217 5623   4.909   4.004   5.431  0.2913  0.0551 -0.8955
   67SAPC  H17R 5624   4.995   4.056   5.480 -0.1306 -2.0503  2.3869
   67SAPC  H17S 5625   4.949   3.902   5.413  0.9025 -0.3446  2.1845
   67SAPC  C218 5626   4.787   3.993   5.519 -0.0183  0.3991 -0.1877
   67SAPC  H18R 5627   4.802   3.902   5.582 -1.4339  0.7432  0.6829
   67SAPC  H18S 5628   4.709   3.962   5.446  0.5382  0.1401 -0.6806
   67SAPC  C219 5629   4.772   4.117   5.603 -0.6845 -0.4069  0.7402
   67SAPC  H19R 5630   4.771   4.211   5.543  0.7227 -1.8046 -1.6233
   67SAPC  H19S 5631   4.868   4.131   5.658  0.0084 -0.5894 -0.3998
   67SAPC  C220 5632   4.646   4.123   5.683  1.5872  0.1711  0.0160
   67SAPC  H20R 5633   4.576   4.046   5.642  1.4957  0.8565 -1.1670
   67SAPC  H20S 5634   4.589   4.218   5.685  0.2488 -0.6157  1.0266
   67SAPC  H20T 5635   4.672   4.088   5.785  2.1433  1.4349  0.3354
   67SAPC   C33 5636   4.342   3.458   3.943  0.9732 -0.4814 -0.6924
   67SAPC   H3X 5637   4.308   3.404   3.852  1.2198  1.8153 -2.2388
   67SAPC   H3Y 5638   4.291   3.556   3.942  2.1408  0.1819  0.8368
   67SAPC   C34 5639   4.307   3.393   4.077  0.4723 -0.8094  0.0688
   67SAPC   H4X 5640   4.387   3.398   4.154 -0.8635 -0.5740  1.5141
   67SAPC   H4Y 5641   4.289   3.288   4.046 -0.1786 -0.3210 -1.2562
   67SAPC   C35 5642   4.167   3.434   4.129  0.0025 -0.1930  0.3716
   67SAPC   H5X 5643   4.088   3.397   4.061 -0.5567  0.4636  0.6541
   67SAPC   H5Y 5644   4.174   3.545   4.134 -1.1186 -0.1140  0.2725
   67SAPC   C36 5645   4.130   3.394   4.274  0.6515 -0.2676 -0.0512
   67SAPC   H6X 5646   4.144   3.285   4.291  0.1081 -0.1281  1.4532
   67SAPC   H6Y 5647   4.024   3.424   4.289  0.4499  0.0536 -1.8056
   67SAPC   C37 5648   4.216   3.465   4.381 -0.1301  0.3941 -0.0037
   67SAPC   H7X 5649   4.222   3.575   4.367 -1.0901  0.7901  2.1903
   67SAPC   H7Y 5650   4.317   3.422   4.364 -0.3756 -1.3170  2.3652
   67SAPC   C38 5651   4.180   3.433   4.526 -0.5808  0.2512 -0.6796
   67SAPC   H8X 5652   4.074   3.401   4.524 -0.8027  0.8302  0.6097
   67SAPC   H8Y 5653   4.172   3.528   4.583  3.2224  0.0554  0.4540
   67SAPC   C39 5654   4.281   3.336   4.587 -0.1653  0.1100 -0.1857
   67SAPC   H9X 5655   4.390   3.353   4.575  0.2652 -1.4731  1.0474
   67SAPC   H9Y 5656   4.251   3.236   4.549 -0.0886 -0.1309  0.3760
   67SAPC  C310 5657   4.251   3.329   4.735 -0.1210  0.2412 -0.2017
   67SAPC  H10X 5658   4.147   3.302   4.761 -0.0589 -0.5683 -0.7784
   67SAPC  H10Y 5659   4.267   3.432   4.774 -2.4991  0.3487  0.6429
   67SAPC  C311 5660   4.357   3.237   4.805  0.0946  0.1538  0.2957
   67SAPC  H11X 5661   4.458   3.244   4.759  1.6273 -1.3864  3.1613
   67SAPC  H11Y 5662   4.323   3.132   4.808  2.4902 -0.6747  0.3641
   67SAPC  C312 5663   4.366   3.270   4.953 -0.4038 -0.9847  0.6060
   67SAPC  H12X 5664   4.266   3.257   5.002 -1.0330 -2.3533 -0.9510
   67SAPC  H12Y 5665   4.385   3.379   4.954 -0.0934 -0.9905 -1.2752
   67SAPC  C313 5666   4.483   3.199   5.029  0.9211  0.5117  0.0520
   67SAPC  H13X 5667   4.564   3.181   4.955 -3.1782 -0.2667 -4.7739
   67SAPC  H13Y 5668   4.440   3.106   5.071  1.3426  0.7834  1.1144
   67SAPC  C314 5669   4.536   3.285   5.144 -0.0905  0.4580 -0.4859
   67SAPC  H14X 5670   4.443   3.310   5.201 -0.5629  0.1349 -1.1001
   67SAPC  H14Y 5671   4.574   3.379   5.099 -0.2612 -0.0294 -1.6849
   67SAPC  C315 5672   4.633   3.220   5.241  0.3989  0.1732  0.3532
   67SAPC  H15X 5673   4.725   3.195   5.184 -0.8472  0.5776 -1.9932
   67SAPC  H15Y 5674   4.600   3.131   5.298 -1.1291 -0.1610 -0.9674
   67SAPC  C316 5675   4.672   3.322   5.354 -0.4159  0.3258  0.0424
   67SAPC  H16X 5676   4.599   3.306   5.437  0.6828 -1.7607  0.6744
   67SAPC  H16Y 5677   4.678   3.428   5.323  0.4632 -0.2226 -1.8186
   67SAPC  C317 5678   4.812   3.289   5.417 -0.2030  0.9609 -0.6394
   67SAPC  H17X 5679   4.894   3.308   5.344  0.2600 -0.5469 -0.5441
   67SAPC  H17Y 5680   4.817   3.182   5.444 -1.8506  0.9068 -0.4544
   67SAPC  C318 5681   4.840   3.367   5.547  0.5216 -0.8809  0.0178
   67SAPC  H18X 5682   4.842   3.478   5.539  0.1854 -0.7861  1.0339
   67SAPC  H18Y 5683   4.933   3.330   5.595 -0.2654  0.2173  2.6279
   67SAPC  H18Z 5684   4.764   3.347   5.626  0.4561  1.2745  0.5880
   68SAPC     N 5685   5.073   2.650   3.468 -1.0163  0.2553  0.4280
   68SAPC   C12 5686   5.008   2.520   3.508  1.4312  0.1110  1.0771
   68SAPC  H12A 5687   4.902   2.537   3.513  1.6306  1.1561  2.3779
   68SAPC  H12B 5688   5.025   2.507   3.614  0.0007  0.8627  1.4211
   68SAPC   C13 5689   5.023   2.767   3.547  1.2931  0.3492 -0.0201
   68SAPC  H13A 5690   5.039   2.755   3.653  0.1569 -0.3171  0.0962
   68SAPC  H13B 5691   5.064   2.856   3.502  0.1439  0.2021 -1.4486
   68SAPC  H13C 5692   4.918   2.791   3.536  1.1584 -0.1216  0.1941
   68SAPC   C14 5693   5.221   2.643   3.497 -0.7139  0.8174  0.2727
   68SAPC  H14A 5694   5.280   2.730   3.470 -1.8525  1.2993 -0.7239
   68SAPC  H14B 5695   5.241   2.618   3.600  2.6612  3.1884  0.3622
   68SAPC  H14C 5696   5.264   2.561   3.440 -1.0080 -0.1387  1.3832
   68SAPC   C15 5697   5.047   2.685   3.324 -0.1701  0.1138 -0.3588
   68SAPC  H15A 5698   4.948   2.727   3.316  0.3504  1.5633  0.5205
   68SAPC  H15B 5699   5.114   2.762   3.290 -0.7295  1.0078  0.5173
   68SAPC  H15C 5700   5.055   2.597   3.261 -1.0286  0.2649 -0.7012
   68SAPC   C11 5701   5.039   2.392   3.437  0.1035 -0.2630 -0.4963
   68SAPC  H11A 5702   5.149   2.376   3.450  0.1795  0.1689 -0.6028
   68SAPC  H11B 5703   5.030   2.398   3.327  1.0150  0.9110 -0.5292
   68SAPC     P 5704   5.006   2.145   3.509  0.5694 -0.1485 -0.3877
   68SAPC   O13 5705   4.990   2.068   3.384  0.2035  0.1849 -0.1873
   68SAPC   O14 5706   5.131   2.137   3.586 -0.2573 -0.1493  0.3825
   68SAPC   O12 5707   4.955   2.294   3.486  0.5694  0.1435 -0.2937
   68SAPC   O11 5708   4.893   2.098   3.603  0.0595  0.1395  0.2947
   68SAPC    C1 5709   4.863   1.959   3.631  0.1241  0.1146  0.7879
   68SAPC    HA 5710   4.766   1.928   3.585  0.3899 -1.0373  0.9736
   68SAPC    HB 5711   4.944   1.891   3.597  0.2163  0.4083  0.4240
   68SAPC    C2 5712   4.847   1.931   3.778  0.3649 -0.2579  0.3090
   68SAPC    HS 5713   4.748   1.961   3.819  0.2312 -0.2166 -0.0366
   68SAPC   O21 5714   4.948   2.010   3.850  0.2785  0.0215 -0.2710
   68SAPC   C21 5715   4.905   2.112   3.923  1.0644 -0.2532 -0.5502
   68SAPC   O22 5716   4.792   2.146   3.941 -0.2847 -0.4245  0.6088
   68SAPC   C22 5717   5.016   2.176   4.001 -0.6895  0.0899 -0.5540
   68SAPC   H2R 5718   5.099   2.108   4.027 -1.6694 -1.1152 -0.4931
   68SAPC   H2S 5719   5.070   2.246   3.933 -1.5607  0.9473 -0.3911
   68SAPC    C3 5720   4.867   1.778   3.813  0.2295  0.0456 -0.5328
   68SAPC    HX 5721   4.974   1.749   3.807  0.6601  0.5342  2.8795
   68SAPC    HY 5722   4.803   1.704   3.760  0.5342 -1.9811  1.7397
   68SAPC   O31 5723   4.830   1.769   3.957  0.3839  0.1522  0.2203
   68SAPC   C31 5724   4.707   1.733   3.990  0.0607  0.4990  0.0578
   68SAPC   O32 5725   4.621   1.686   3.917  0.3019  0.3442  0.1337
   68SAPC   C32 5726   4.699   1.765   4.140 -0.2840  0.5429 -0.0439
   68SAPC   H2X 5727   4.760   1.855   4.162 -3.3585  2.0161  3.2934
   68SAPC   H2Y 5728   4.729   1.671   4.190  2.3988  1.7043  0.7152
   68SAPC   C23 5729   4.954   2.258   4.124 -0.3888  0.5833  0.4367
   68SAPC   H3R 5730   4.876   2.330   4.091 -1.7445 -1.6992 -1.6656
   68SAPC   H3S 5731   5.035   2.309   4.180  0.1847 -1.8407  1.9979
   68SAPC   C24 5732   4.889   2.175   4.243 -0.8646  0.1374  0.3129
   68SAPC   H4R 5733   4.803   2.123   4.196 -0.6496  0.1478 -0.0964
   68SAPC   H4S 5734   4.851   2.238   4.326 -1.2678 -0.8109  0.8532
   68SAPC   C25 5735   4.978   2.062   4.290 -0.3431 -0.4049 -0.4550
   68SAPC   H5R 5736   5.011   1.991   4.212  2.8207  0.1157  0.3083
   68SAPC   C26 5737   5.006   2.023   4.417 -0.1960 -0.4696 -0.0430
   68SAPC   H6R 5738   5.059   1.927   4.429 -0.4017 -0.4663  0.9887
   68SAPC   C27 5739   4.954   2.094   4.543  0.3414  0.3842  0.2431
   68SAPC   H7R 5740   4.933   2.024   4.626  0.4106 -1.2957 -1.1196
   68SAPC   H7S 5741   4.862   2.154   4.524 -0.4579 -0.3042  1.7872
   68SAPC   C28 5742   5.058   2.194   4.585 -0.3740 -0.0673 -0.1853
   68SAPC   H8R 5743   5.120   2.237   4.504  0.0047  0.0435  0.1595
   68SAPC   C29 5744   5.093   2.225   4.712  0.3880 -0.6645 -0.6278
   68SAPC   H9R 5745   5.157   2.312   4.734  0.1885 -0.5710 -0.4031
   68SAPC  C210 5746   5.025   2.190   4.846 -0.2849 -0.3808 -0.0060
   68SAPC  H10R 5747   4.919   2.164   4.828 -0.0129 -0.7497 -1.1132
   68SAPC  H10S 5748   5.026   2.280   4.912 -0.7388 -0.9550  0.7990
   68SAPC  C211 5749   5.090   2.076   4.923 -0.1051 -0.0360  0.1397
   68SAPC  H11R 5750   5.193   2.055   4.892 -0.1969  1.4335 -1.3249
   68SAPC  C212 5751   5.035   2.007   5.021 -0.1494  0.8683 -0.4740
   68SAPC  H12R 5752   5.100   1.943   5.082 -0.2161  3.2944  2.4360
   68SAPC  C213 5753   4.907   2.026   5.088 -0.7661 -0.4611  0.6370
   68SAPC  H13R 5754   4.849   2.100   5.029 -1.4440  0.5449  2.4766
   68SAPC  H13S 5755   4.936   2.062   5.189  2.7884 -3.1052  0.7634
   68SAPC  C214 5756   4.825   1.901   5.103 -0.3815  0.0196  0.5383
   68SAPC  H14R 5757   4.873   1.811   5.062 -2.2299 -1.4679  1.4858
   68SAPC  C215 5758   4.721   1.885   5.183  0.4050  0.6944 -0.3988
   68SAPC  H15R 5759   4.675   1.786   5.195 -2.9281  2.2746  1.3900
   68SAPC  C216 5760   4.634   1.993   5.238  0.4367 -0.8662 -0.3101
   68SAPC  H16R 5761   4.691   2.087   5.253 -0.1237 -0.8102  1.8829
   68SAPC  H16S 5762   4.597   1.974   5.341 -2.3294  0.6042 -0.9193
   68SAPC  C217 5763   4.512   2.005   5.147  0.7550  0.3817  0.1920
   68SAPC  H17R 5764   4.544   2.024   5.042 -3.0019  0.7268 -1.0267
   68SAPC  H17S 5765   4.441   2.086   5.175  0.6270 -0.5344  2.7607
   68SAPC  C218 5766   4.409   1.887   5.157 -0.1936  0.0272 -0.6657
   68SAPC  H18R 5767   4.369   1.870   5.259  0.7590 -0.8112 -0.4164
   68SAPC  H18S 5768   4.458   1.793   5.124 -2.0684 -1.4338  0.5041
   68SAPC  C219 5769   4.290   1.902   5.059  0.4682 -0.0015 -0.1211
   68SAPC  H19R 5770   4.328   1.963   4.975  0.5837 -1.3592 -1.0770
   68SAPC  H19S 5771   4.209   1.960   5.109  1.1484  0.2272  0.7468
   68SAPC  C220 5772   4.224   1.772   5.017 -0.3622 -0.0839  0.0053
   68SAPC  H20R 5773   4.287   1.703   4.956  1.5041 -1.2552  3.0741
   68SAPC  H20S 5774   4.121   1.784   4.976 -0.6250  0.3622  0.7871
   68SAPC  H20T 5775   4.224   1.718   5.114 -1.0446  0.9945  0.6194
   68SAPC   C33 5776   4.553   1.790   4.176  0.2980  0.7404 -0.1569
   68SAPC   H3X 5777   4.509   1.689   4.163  0.6191  0.5897 -0.0771
   68SAPC   H3Y 5778   4.504   1.863   4.108 -0.2192  0.0925 -0.4876
   68SAPC   C34 5779   4.519   1.822   4.324 -0.2506  0.0098  0.0209
   68SAPC   H4X 5780   4.566   1.765   4.407 -0.8940 -1.3264 -0.4982
   68SAPC   H4Y 5781   4.408   1.812   4.328 -0.6570  2.3456 -2.3829
   68SAPC   C35 5782   4.538   1.972   4.348 -0.1461  1.0301 -0.0700
   68SAPC   H5X 5783   4.466   2.025   4.281  1.6436  1.0446 -2.0753
   68SAPC   H5Y 5784   4.643   2.000   4.324  1.1347 -3.2189 -0.1175
   68SAPC   C36 5785   4.498   2.015   4.491  0.1652  0.3390  0.3231
   68SAPC   H6X 5786   4.564   1.972   4.570 -0.2188 -0.1227  0.3992
   68SAPC   H6Y 5787   4.392   1.988   4.513  0.3143 -0.9222 -0.4520
   68SAPC   C37 5788   4.510   2.169   4.500  0.9175  0.4074  0.3463
   68SAPC   H7X 5789   4.431   2.209   4.432 -0.2117 -2.0320  0.1148
   68SAPC   H7Y 5790   4.613   2.204   4.477  1.2198  0.4695  1.6997
   68SAPC   C38 5791   4.475   2.220   4.642 -0.4856  0.1598  0.5838
   68SAPC   H8X 5792   4.546   2.171   4.712 -0.6307 -0.6759  0.1633
   68SAPC   H8Y 5793   4.371   2.190   4.665 -0.3802 -0.5767  0.1393
   68SAPC   C39 5794   4.487   2.375   4.655 -0.1558  0.2748 -0.3162
   68SAPC   H9X 5795   4.437   2.401   4.751  0.1073  1.1039 -0.3933
   68SAPC   H9Y 5796   4.428   2.426   4.576  1.9843  1.5487 -1.1845
   68SAPC  C310 5797   4.626   2.433   4.646  0.6461  0.0194  0.0256
   68SAPC  H10X 5798   4.618   2.543   4.660 -1.8339  0.0359 -1.1164
   68SAPC  H10Y 5799   4.690   2.403   4.559  3.3963  1.7700  1.2947
   68SAPC  C311 5800   4.717   2.383   4.765 -0.5054 -0.3357  0.5011
   68SAPC  H11X 5801   4.808   2.446   4.764  0.8242 -2.1518 -1.3818
   68SAPC  H11Y 5802   4.746   2.276   4.751 -2.5746 -0.9391  0.3962
   68SAPC  C312 5803   4.651   2.406   4.900 -0.1058  0.6682 -0.2081
   68SAPC  H12X 5804   4.561   2.340   4.907  0.9155 -0.5925  1.6040
   68SAPC  H12Y 5805   4.608   2.508   4.896  0.5181  0.9037 -1.2542
   68SAPC  C313 5806   4.743   2.401   5.014 -0.1291  0.0153  0.5036
   68SAPC  H13X 5807   4.826   2.470   4.990 -0.4818 -0.8627 -4.1946
   68SAPC  H13Y 5808   4.784   2.297   5.013  0.1658  0.1280  0.6362
   68SAPC  C314 5809   4.663   2.433   5.147 -0.8080 -0.5879  0.6567
   68SAPC  H14X 5810   4.575   2.366   5.154 -1.2058 -0.0918  0.4490
   68SAPC  H14Y 5811   4.625   2.537   5.149 -0.1769 -0.3645  2.0457
   68SAPC  C315 5812   4.742   2.416   5.273 -1.1260  0.2852  0.0557
   68SAPC  H15X 5813   4.807   2.505   5.291  0.4622 -0.5511 -1.2518
   68SAPC  H15Y 5814   4.814   2.332   5.265 -3.1083 -1.5156  0.3557
   68SAPC  C316 5815   4.648   2.396   5.385 -0.5455 -0.3606 -1.0267
   68SAPC  H16X 5816   4.606   2.294   5.372 -1.6111  0.0519 -0.9380
   68SAPC  H16Y 5817   4.565   2.468   5.401 -0.1643 -0.0030 -0.6247
   68SAPC  C317 5818   4.724   2.381   5.521 -0.1250  0.0360  0.0686
   68SAPC  H17X 5819   4.701   2.460   5.595 -0.9713  0.6181 -0.7905
   68SAPC  H17Y 5820   4.833   2.381   5.499  0.0206  0.7336  0.7667
   68SAPC  C318 5821   4.703   2.249   5.588  0.2910  0.0865 -0.6039
   68SAPC  H18X 5822   4.743   2.162   5.532 -0.6223 -1.8309  1.5750
   68SAPC  H18Y 5823   4.595   2.243   5.611  0.5441  1.1672  1.1197
   68SAPC  H18Z 5824   4.756   2.239   5.686  0.2667 -3.1622 -0.8203
   69SAPC     N 5825   5.999   0.179   3.819 -0.3216 -0.3550 -0.2732
   69SAPC   C12 5826   5.886   0.101   3.871  0.1556  0.6720 -0.1798
   69SAPC  H12A 5827   5.933   0.028   3.935 -0.4416  0.1740 -0.3032
   69SAPC  H12B 5828   5.837   0.049   3.791 -1.0020 -0.7618  1.3919
   69SAPC   C13 5829   6.047   0.270   3.928  0.5492 -0.7713 -0.2027
   69SAPC  H13A 5830   6.079   0.217   4.017 -1.7490 -1.0029  0.5367
   69SAPC  H13B 5831   6.121   0.335   3.883 -1.4931  1.2131 -0.8464
   69SAPC  H13C 5832   5.972   0.338   3.964  1.2621 -0.7511  1.3180
   69SAPC   C14 5833   6.113   0.096   3.782  0.2390  0.3833  0.1574
   69SAPC  H14A 5834   6.082   0.011   3.722  0.9822 -0.2559  0.6707
   69SAPC  H14B 5835   6.190   0.152   3.733  1.8449 -0.2076  1.8867
   69SAPC  H14C 5836   6.162   0.057   3.870  0.1176 -1.6095 -0.6036
   69SAPC   C15 5837   5.953   0.269   3.709 -0.1340  0.3438 -0.1206
   69SAPC  H15A 5838   6.030   0.342   3.690  0.3281 -0.0684  0.1470
   69SAPC  H15B 5839   5.931   0.214   3.618 -1.6526  1.9973 -0.8063
   69SAPC  H15C 5840   5.868   0.329   3.739 -1.0715 -0.7205 -0.5871
   69SAPC   C11 5841   5.763   0.155   3.947 -0.1662  0.4107 -0.2600
   69SAPC  H11A 5842   5.807   0.190   4.043  1.1277  0.1449 -0.7469
   69SAPC  H11B 5843   5.691   0.072   3.963 -1.2526  1.0277 -1.6985
   69SAPC     P 5844   5.588   0.242   3.777 -0.2206  0.1202  0.1167
   69SAPC   O13 5845   5.551   0.371   3.706 -0.1619  0.5968 -0.3756
   69SAPC   O14 5846   5.640   0.135   3.683 -0.6863 -0.3016 -0.1903
   69SAPC   O12 5847   5.707   0.266   3.877 -0.7972  0.1516  0.2092
   69SAPC   O11 5848   5.456   0.189   3.855 -0.3982 -0.3484  0.3983
   69SAPC    C1 5849   5.401   0.241   3.969  0.2532 -0.2823  0.1895
   69SAPC    HA 5850   5.461   0.328   4.003 -0.1442 -0.5031  1.5057
   69SAPC    HB 5851   5.304   0.293   3.951  0.0466 -1.4827 -2.9551
   69SAPC    C2 5852   5.386   0.138   4.071  0.0901  0.5117 -0.7444
   69SAPC    HS 5853   5.486   0.098   4.097 -0.4891 -1.1912 -1.0171
   69SAPC   O21 5854   5.283   0.042   4.031 -0.4235 -0.8143  0.3993
   69SAPC   C21 5855   5.324  -0.072   3.993  0.0081  0.3343 -0.0834
   69SAPC   O22 5856   5.437  -0.117   4.000 -1.1468 -0.5415 -0.1698
   69SAPC   C22 5857   5.208  -0.149   3.924 -0.5106 -0.2446  0.1852
   69SAPC   H2R 5858   5.175  -0.086   3.839  0.1773  0.6080  0.5290
   69SAPC   H2S 5859   5.242  -0.249   3.892 -0.3499  0.0174 -0.4706
   69SAPC    C3 5860   5.338   0.214   4.200  0.0735 -0.5416  0.1074
   69SAPC    HX 5861   5.235   0.255   4.202  0.6902  1.1963  2.8715
   69SAPC    HY 5862   5.402   0.305   4.211 -0.0244 -0.5636  0.9436
   69SAPC   O31 5863   5.362   0.125   4.313 -0.1973  0.5377 -0.0082
   69SAPC   C31 5864   5.478   0.124   4.365 -0.3853 -0.1701  0.7042
   69SAPC   O32 5865   5.580   0.166   4.308 -0.5040  0.3931 -0.4957
   69SAPC   C32 5866   5.469   0.037   4.493  0.0799  0.3607  0.4340
   69SAPC   H2X 5867   5.419  -0.060   4.473 -1.2863  0.9988  0.6418
   69SAPC   H2Y 5868   5.405   0.097   4.562  2.5666  2.8573  0.7753
   69SAPC   C23 5869   5.083  -0.164   4.016  0.1179 -0.1988  0.0334
   69SAPC   H3R 5870   5.008  -0.161   3.934  2.4102 -0.6098 -2.2315
   69SAPC   H3S 5871   5.076  -0.075   4.083  1.3086 -1.1424  1.4774
   69SAPC   C24 5872   5.079  -0.305   4.085  0.3192 -0.4825 -0.2117
   69SAPC   H4R 5873   5.057  -0.371   3.998  1.3179 -2.0308  0.6749
   69SAPC   H4S 5874   4.982  -0.300   4.138 -1.6193  0.1859 -3.5043
   69SAPC   C25 5875   5.195  -0.371   4.152 -0.4065  0.1694  0.0680
   69SAPC   H5R 5876   5.281  -0.391   4.085 -1.0835  0.3565 -0.8830
   69SAPC   C26 5877   5.227  -0.386   4.282  0.0821 -0.1858  0.2616
   69SAPC   H6R 5878   5.319  -0.444   4.299 -1.3858 -3.0866 -0.9824
   69SAPC   C27 5879   5.136  -0.366   4.400 -0.3749 -0.0234 -0.9471
   69SAPC   H7R 5880   5.133  -0.465   4.450 -0.8445  0.0338 -0.8576
   69SAPC   H7S 5881   5.031  -0.337   4.377  0.0230  0.3090 -2.4899
   69SAPC   C28 5882   5.188  -0.254   4.486 -0.4639  0.4045 -0.3024
   69SAPC   H8R 5883   5.195  -0.154   4.442  2.6759 -0.3301 -1.7232
   69SAPC   C29 5884   5.209  -0.255   4.617 -0.6870  0.3566 -0.4937
   69SAPC   H9R 5885   5.249  -0.165   4.666  1.1062 -0.1294 -0.9707
   69SAPC  C210 5886   5.187  -0.366   4.717 -0.0024 -0.3198 -0.4294
   69SAPC  H10R 5887   5.270  -0.373   4.791 -0.7874 -0.8152  0.4161
   69SAPC  H10S 5888   5.169  -0.460   4.660  0.3240  0.1347 -1.2973
   69SAPC  C211 5889   5.065  -0.327   4.794 -0.5481 -0.4144 -0.3695
   69SAPC  H11R 5890   4.994  -0.259   4.745 -0.0014  1.7161  1.6332
   69SAPC  C212 5891   5.046  -0.349   4.923  0.2498  0.4107  0.3820
   69SAPC  H12R 5892   4.958  -0.303   4.970  0.3575  1.3884 -0.3432
   69SAPC  C213 5893   5.126  -0.437   5.014 -0.7595  0.7746 -0.0872
   69SAPC  H13R 5894   5.219  -0.387   5.049 -0.9819  0.4616  0.9758
   69SAPC  H13S 5895   5.158  -0.519   4.946 -1.6596  0.6016 -0.3177
   69SAPC  C214 5896   5.045  -0.495   5.128 -0.2778  0.0363 -0.2937
   69SAPC  H14R 5897   4.963  -0.561   5.097 -2.1712  2.0356  0.2515
   69SAPC  C215 5898   5.061  -0.478   5.262  0.1774  0.7105  0.1612
   69SAPC  H15R 5899   4.981  -0.512   5.329  0.0437  2.5696  1.0178
   69SAPC  C216 5900   5.151  -0.389   5.337 -0.0797  0.1224  0.5757
   69SAPC  H16R 5901   5.229  -0.333   5.281  1.5057 -1.0788  1.4982
   69SAPC  H16S 5902   5.216  -0.450   5.403  0.0513  0.4745  0.7781
   69SAPC  C217 5903   5.073  -0.284   5.421 -0.4439  0.1544  0.5397
   69SAPC  H17R 5904   4.987  -0.253   5.357  0.6987  0.8068 -0.7092
   69SAPC  H17S 5905   5.134  -0.196   5.447 -1.9637  1.1673  0.8358
   69SAPC  C218 5906   5.027  -0.345   5.561 -0.0394  0.0827 -0.7213
   69SAPC  H18R 5907   5.116  -0.390   5.610  0.2087  1.1120 -0.2044
   69SAPC  H18S 5908   4.943  -0.416   5.546 -0.4504  0.2783  0.5613
   69SAPC  C219 5909   4.977  -0.242   5.666  0.8459 -0.3524  0.0135
   69SAPC  H19R 5910   4.871  -0.259   5.696  1.0963 -0.5136  0.8439
   69SAPC  H19S 5911   4.988  -0.143   5.617  3.0424  0.1507  1.3977
   69SAPC  C220 5912   5.052  -0.240   5.801  0.7435 -0.1347  0.4661
   69SAPC  H20R 5913   5.019  -0.146   5.851  0.7735  0.0852  0.0787
   69SAPC  H20S 5914   5.157  -0.215   5.774 -0.4560  2.4871 -2.3818
   69SAPC  H20T 5915   5.053  -0.330   5.866  1.8038 -1.2107 -0.9740
   69SAPC   C33 5916   5.601  -0.004   4.557 -0.5099  0.6333  0.0687
   69SAPC   H3X 5917   5.675   0.071   4.592 -1.0991  0.5422  1.5773
   69SAPC   H3Y 5918   5.650  -0.063   4.477 -2.5360 -1.0529 -0.0280
   69SAPC   C34 5919   5.573  -0.086   4.688  0.3649  0.5030 -0.5001
   69SAPC   H4X 5920   5.663  -0.146   4.713  0.3642  0.3504 -0.8577
   69SAPC   H4Y 5921   5.501  -0.167   4.665  0.4012  0.4221 -0.3295
   69SAPC   C35 5922   5.526  -0.009   4.816  0.1292  0.1714  0.6325
   69SAPC   H5X 5923   5.431   0.038   4.782 -0.2075  1.3759  3.0121
   69SAPC   H5Y 5924   5.595   0.072   4.846 -0.1746  0.4472  0.6018
   69SAPC   C36 5925   5.483  -0.089   4.939  0.4879 -0.3812  0.7725
   69SAPC   H6X 5926   5.568  -0.144   4.985 -1.0178 -1.8730  1.8953
   69SAPC   H6Y 5927   5.412  -0.168   4.906  0.9048 -0.0510 -1.0142
   69SAPC   C37 5928   5.416   0.004   5.041 -0.2124  0.1809  1.0587
   69SAPC   H7X 5929   5.348   0.069   4.983  0.2239  1.8502  2.3559
   69SAPC   H7Y 5930   5.495   0.060   5.095  0.0092 -1.0784  2.1011
   69SAPC   C38 5931   5.351  -0.087   5.139  0.4460  0.0482 -0.5045
   69SAPC   H8X 5932   5.430  -0.147   5.190 -1.0946 -1.1541  0.5273
   69SAPC   H8Y 5933   5.294  -0.170   5.093  0.9411  0.3628 -1.7105
   69SAPC   C39 5934   5.275  -0.011   5.251  0.3983 -0.1029  0.0781
   69SAPC   H9X 5935   5.178  -0.060   5.274 -0.6037  1.2156 -1.1627
   69SAPC   H9Y 5936   5.238   0.087   5.214 -0.5594 -1.0393 -1.5577
   69SAPC  C310 5937   5.368   0.007   5.373  0.0743  0.5378  0.2988
   69SAPC  H10X 5938   5.464   0.051   5.337 -0.1877  0.5550 -0.3951
   69SAPC  H10Y 5939   5.394  -0.097   5.403  1.3869  0.7856  0.0857
   69SAPC  C311 5940   5.309   0.093   5.483 -0.0595  0.5673  0.0649
   69SAPC  H11X 5941   5.240   0.033   5.545  0.2787 -2.9318 -2.6021
   69SAPC  H11Y 5942   5.262   0.182   5.435  1.8526  2.9531  2.3020
   69SAPC  C312 5943   5.418   0.147   5.571  0.6830 -0.1378 -0.0964
   69SAPC  H12X 5944   5.465   0.235   5.522 -0.9046  0.6426 -0.2895
   69SAPC  H12Y 5945   5.503   0.076   5.573  2.7244  2.0885 -1.5447
   69SAPC  C313 5946   5.377   0.186   5.718  0.2784  0.3560 -0.3140
   69SAPC  H13X 5947   5.302   0.268   5.714  0.6307  0.6266 -2.1767
   69SAPC  H13Y 5948   5.469   0.231   5.762  2.0412 -2.8564 -0.3790
   69SAPC  C314 5949   5.337   0.071   5.807  0.3380 -0.2849  0.5161
   69SAPC  H14X 5950   5.407  -0.016   5.805 -0.7574 -1.2101  1.1947
   69SAPC  H14Y 5951   5.240   0.043   5.761  0.2344  0.5812  0.1829
   69SAPC  C315 5952   5.322   0.115   5.953  0.0536  0.0367 -0.3233
   69SAPC  H15X 5953   5.258   0.204   5.968 -1.2974 -1.1300  1.0974
   69SAPC  H15Y 5954   5.424   0.143   5.987  0.0684 -0.2437 -0.1360
   69SAPC  C316 5955   5.265   0.010   6.048  0.5091 -0.5500  0.1384
   69SAPC  H16X 5956   5.157  -0.009   6.027 -0.0474  0.7454  1.6216
   69SAPC  H16Y 5957   5.283   0.052   6.149 -0.3911 -0.2777  0.1913
   69SAPC  C317 5958   5.322  -0.128   6.050 -1.0281 -0.6120  0.4681
   69SAPC  H17X 5959   5.315  -0.182   5.954  1.1857  0.1352 -0.1801
   69SAPC  H17Y 5960   5.271  -0.191   6.126 -0.7532 -0.2489  0.9651
   69SAPC  C318 5961   5.475  -0.120   6.088  0.1466  0.1414 -0.0222
   69SAPC  H18X 5962   5.483  -0.077   6.190 -1.0916 -0.4257  0.3239
   69SAPC  H18Y 5963   5.542  -0.061   6.021  1.3037 -1.7082 -0.5954
   69SAPC  H18Z 5964   5.519  -0.222   6.083  1.5200  0.5919  1.6265
   70SAPC     N 5965   1.241   5.229   3.610  0.2372  0.0557 -0.2429
   70SAPC   C12 5966   1.288   5.268   3.755  0.0158  0.4560  0.0646
   70SAPC  H12A 5967   1.209   5.328   3.799 -0.3730 -0.4239  0.6018
   70SAPC  H12B 5968   1.375   5.331   3.748 -0.8897  1.6350 -1.2683
   70SAPC   C13 5969   1.239   5.344   3.520  0.0730 -0.1753  0.5870
   70SAPC  H13A 5970   1.203   5.326   3.420  1.0279  3.1717 -0.4954
   70SAPC  H13B 5971   1.186   5.426   3.565  0.8026  0.7877 -0.2585
   70SAPC  H13C 5972   1.337   5.380   3.491  0.1861 -1.5119 -0.8404
   70SAPC   C14 5973   1.337   5.130   3.554 -0.5689 -0.7838  0.0583
   70SAPC  H14A 5974   1.311   5.080   3.463 -0.5398 -0.3573 -0.1886
   70SAPC  H14B 5975   1.427   5.187   3.534 -0.7258 -0.2749  0.7300
   70SAPC  H14C 5976   1.359   5.063   3.636  2.4302  2.0669  1.8471
   70SAPC   C15 5977   1.108   5.175   3.611  0.3145  0.3487  0.8094
   70SAPC  H15A 5978   1.086   5.119   3.701  2.4386  1.7672  2.3017
   70SAPC  H15B 5979   1.034   5.252   3.597  1.2178  1.1194  0.1382
   70SAPC  H15C 5980   1.107   5.108   3.526  0.7774  1.3680 -0.0165
   70SAPC   C11 5981   1.325   5.163   3.862  0.3386 -0.1739 -0.1837
   70SAPC  H11A 5982   1.321   5.211   3.962  0.4040  0.0748 -0.2971
   70SAPC  H11B 5983   1.431   5.136   3.840  0.4600  0.7401 -0.7926
   70SAPC     P 5984   1.265   4.910   3.841  0.1275 -0.5148 -0.1720
   70SAPC   O13 5985   1.150   4.830   3.794 -0.3005  0.4443  0.1411
   70SAPC   O14 5986   1.383   4.913   3.750 -0.9174 -0.1404 -0.5343
   70SAPC   O12 5987   1.230   5.059   3.868  0.2713 -0.2366 -0.0011
   70SAPC   O11 5988   1.304   4.857   3.983  0.7869  0.3418 -0.4519
   70SAPC    C1 5989   1.428   4.890   4.037  0.0844 -0.3499 -0.4722
   70SAPC    HA 5990   1.502   4.817   3.998 -0.8023 -0.1964 -2.5963
   70SAPC    HB 5991   1.456   4.994   4.010  0.0866 -0.2848 -0.2210
   70SAPC    C2 5992   1.432   4.881   4.193 -0.3667 -0.1833 -0.1486
   70SAPC    HS 5993   1.536   4.890   4.231 -0.0099 -0.6457 -0.9766
   70SAPC   O21 5994   1.369   4.751   4.222  0.3554 -0.1617 -0.4023
   70SAPC   C21 5995   1.416   4.691   4.330 -0.5551 -0.3681  0.0764
   70SAPC   O22 5996   1.511   4.720   4.399  0.0225  0.2375 -0.2513
   70SAPC   C22 5997   1.326   4.569   4.359  0.4251 -0.1804 -0.0856
   70SAPC   H2R 5998   1.226   4.601   4.324 -0.5814 -1.5180  1.4502
   70SAPC   H2S 5999   1.349   4.483   4.291 -4.1660 -1.9860  0.2770
   70SAPC    C3 6000   1.356   5.001   4.252 -0.5347 -0.1116  0.3020
   70SAPC    HX 6001   1.248   5.006   4.228  0.1637 -0.5197 -3.4709
   70SAPC    HY 6002   1.394   5.095   4.205  1.4138 -0.6056  0.7854
   70SAPC   O31 6003   1.382   5.008   4.393  0.1236  0.3173  0.0772
   70SAPC   C31 6004   1.506   5.061   4.419  0.0099  0.7472  0.4796
   70SAPC   O32 6005   1.595   5.099   4.341  0.3217 -0.5693 -0.3254
   70SAPC   C32 6006   1.533   5.012   4.560 -0.3833 -0.4785 -1.0290
   70SAPC   H2X 6007   1.543   4.902   4.553  1.0663 -0.5559  1.3538
   70SAPC   H2Y 6008   1.444   5.044   4.619  1.8726  2.3100  1.1731
   70SAPC   C23 6009   1.316   4.524   4.510  0.2960 -0.2738  0.5241
   70SAPC   H3R 6010   1.417   4.487   4.540  1.2190  0.0372 -1.9960
   70SAPC   H3S 6011   1.244   4.441   4.517 -1.1896  0.9727  0.5285
   70SAPC   C24 6012   1.270   4.631   4.603 -0.3260 -0.2687  0.1977
   70SAPC   H4R 6013   1.172   4.673   4.573 -0.6959 -1.3265 -0.1314
   70SAPC   H4S 6014   1.348   4.709   4.591 -1.2211  0.4828 -0.9319
   70SAPC   C25 6015   1.258   4.574   4.746  0.3633  0.0040  0.6235
   70SAPC   H5R 6016   1.180   4.499   4.763  2.1781 -2.0626  0.2912
   70SAPC   C26 6017   1.337   4.607   4.853 -0.1341  0.4575 -0.1151
   70SAPC   H6R 6018   1.311   4.546   4.941  2.0721 -0.5298 -0.0622
   70SAPC   C27 6019   1.450   4.711   4.865  0.0920 -0.5368 -0.7271
   70SAPC   H7R 6020   1.456   4.759   4.965  0.7728  0.0190 -1.0258
   70SAPC   H7S 6021   1.418   4.800   4.806 -1.6402 -0.3427  0.4320
   70SAPC   C28 6022   1.580   4.649   4.823 -0.4431 -0.1873 -0.6158
   70SAPC   H8R 6023   1.592   4.643   4.714 -1.1664  1.9691 -0.8560
   70SAPC   C29 6024   1.656   4.581   4.913  0.3719 -0.7941  0.1654
   70SAPC   H9R 6025   1.744   4.528   4.872  2.2139  0.3166  2.4594
   70SAPC  C210 6026   1.649   4.566   5.065 -0.0495 -0.1984  0.1558
   70SAPC  H10R 6027   1.639   4.666   5.111  0.0537 -1.4284  3.0735
   70SAPC  H10S 6028   1.748   4.533   5.105 -0.8743  0.3152  2.8246
   70SAPC  C211 6029   1.539   4.475   5.121 -0.1104 -0.5667  0.6545
   70SAPC  H11R 6030   1.454   4.454   5.054 -0.4153  1.0401  0.5041
   70SAPC  C212 6031   1.534   4.418   5.242  0.7851  0.8156 -0.3305
   70SAPC  H12R 6032   1.439   4.371   5.270 -0.4022  2.3741 -1.5663
   70SAPC  C213 6033   1.637   4.422   5.352  0.0154  0.2130 -0.4193
   70SAPC  H13R 6034   1.580   4.455   5.441  0.3853  1.5826 -0.6793
   70SAPC  H13S 6035   1.733   4.474   5.335 -0.3010  1.0150  0.2101
   70SAPC  C214 6036   1.670   4.274   5.360  0.4312  0.2248 -0.5258
   70SAPC  H14R 6037   1.723   4.236   5.271  1.2329  2.8580 -1.2550
   70SAPC  C215 6038   1.675   4.200   5.471 -0.0630 -0.3471  0.1629
   70SAPC  H15R 6039   1.724   4.102   5.461 -0.5609 -0.8926  2.5220
   70SAPC  C216 6040   1.636   4.255   5.605 -0.1624 -0.1315 -0.4589
   70SAPC  H16R 6041   1.579   4.174   5.654 -0.0681  0.3782  0.5286
   70SAPC  H16S 6042   1.572   4.346   5.604 -1.7203 -1.1948 -0.6545
   70SAPC  C217 6043   1.751   4.277   5.702  0.2201  0.0162 -1.1740
   70SAPC  H17R 6044   1.815   4.364   5.678  3.0968 -1.8918 -0.8816
   70SAPC  H17S 6045   1.819   4.190   5.690 -0.0787 -0.6263  1.3722
   70SAPC  C218 6046   1.688   4.295   5.839 -0.0592  0.7010  0.7537
   70SAPC  H18R 6047   1.606   4.222   5.857 -1.3913  1.8603 -0.3451
   70SAPC  H18S 6048   1.635   4.393   5.831  1.5949  2.1972  5.2442
   70SAPC  C219 6049   1.784   4.302   5.960  0.4206 -0.2817  0.1416
   70SAPC  H19R 6050   1.850   4.388   5.935 -0.9852  0.5142 -0.9796
   70SAPC  H19S 6051   1.843   4.207   5.953 -0.2134 -0.6383 -0.5650
   70SAPC  C220 6052   1.710   4.331   6.090 -0.2455  0.0813  0.1188
   70SAPC  H20R 6053   1.644   4.245   6.113 -2.1827  1.7782  1.2022
   70SAPC  H20S 6054   1.651   4.424   6.078  1.6685  1.4891  1.0600
   70SAPC  H20T 6055   1.782   4.338   6.175  1.5503  0.4483 -1.3722
   70SAPC   C33 6056   1.663   5.082   4.627  0.4643  0.5642  0.2067
   70SAPC   H3X 6057   1.654   5.191   4.606 -0.3437  0.3607 -0.5730
   70SAPC   H3Y 6058   1.752   5.053   4.568  0.1099  0.2908 -0.1985
   70SAPC   C34 6059   1.679   5.036   4.767  0.8741  0.5891 -0.6707
   70SAPC   H4X 6060   1.687   4.926   4.764 -0.7625  0.4195  0.0123
   70SAPC   H4Y 6061   1.588   5.056   4.828  1.2735  1.6320 -0.3981
   70SAPC   C35 6062   1.800   5.101   4.834 -1.2512  0.5803 -0.5585
   70SAPC   H5X 6063   1.812   5.207   4.803 -2.0898  0.3570 -1.6782
   70SAPC   H5Y 6064   1.895   5.055   4.798 -0.3326  1.7573  0.2660
   70SAPC   C36 6065   1.806   5.097   4.987 -0.0859 -0.3506  0.1242
   70SAPC   H6X 6066   1.708   5.135   5.024  0.1422 -0.4267  0.8171
   70SAPC   H6Y 6067   1.875   5.179   5.017  0.5766 -0.5304 -0.8798
   70SAPC   C37 6068   1.840   4.961   5.054  0.2873 -0.0787  0.2070
   70SAPC   H7X 6069   1.829   4.872   4.989 -0.5768  0.0542  0.1577
   70SAPC   H7Y 6070   1.949   4.969   5.071  0.2203  1.3304  0.0940
   70SAPC   C38 6071   1.771   4.921   5.182  1.0012 -0.2104 -0.2195
   70SAPC   H8X 6072   1.665   4.900   5.157  0.2787  2.3304  0.5218
   70SAPC   H8Y 6073   1.782   5.005   5.252  1.9816 -1.4906  1.2292
   70SAPC   C39 6074   1.849   4.798   5.241  0.6775  0.3610 -0.7321
   70SAPC   H9X 6075   1.953   4.833   5.257  0.9160 -0.8646  0.6397
   70SAPC   H9Y 6076   1.864   4.723   5.160  2.8578  0.4034 -0.4171
   70SAPC  C310 6077   1.780   4.741   5.360 -0.1443 -0.5389 -0.4643
   70SAPC  H10X 6078   1.837   4.655   5.402  0.8532  0.9823  1.4731
   70SAPC  H10Y 6079   1.679   4.704   5.332 -0.0472 -0.9176 -0.3150
   70SAPC  C311 6080   1.759   4.838   5.477  0.1567 -0.5941  0.4252
   70SAPC  H11X 6081   1.657   4.880   5.482  1.2050  2.0443  1.8996
   70SAPC  H11Y 6082   1.835   4.920   5.473  0.0391 -0.0583  4.6496
   70SAPC  C312 6083   1.785   4.761   5.609  0.6687 -0.5710 -0.0955
   70SAPC  H12X 6084   1.894   4.741   5.606  0.7526 -0.3144  0.8456
   70SAPC  H12Y 6085   1.730   4.664   5.613  3.2546 -2.1333  2.6520
   70SAPC  C313 6086   1.746   4.837   5.736 -0.3251 -0.4095  0.2777
   70SAPC  H13X 6087   1.636   4.852   5.733 -0.3041  0.1113  1.5344
   70SAPC  H13Y 6088   1.787   4.940   5.733  0.0201 -0.5610 -1.0696
   70SAPC  C314 6089   1.774   4.761   5.869  0.0652  0.3353  0.3315
   70SAPC  H14X 6090   1.881   4.732   5.873 -0.1297 -0.7503 -1.3297
   70SAPC  H14Y 6091   1.722   4.663   5.868 -1.1018  0.9295  0.6138
   70SAPC  C315 6092   1.745   4.842   5.999 -0.6884 -0.3913  0.3325
   70SAPC  H15X 6093   1.646   4.890   5.983 -0.9930 -1.3498 -0.7318
   70SAPC  H15Y 6094   1.814   4.925   6.028 -1.2576 -0.7493  2.9489
   70SAPC  C316 6095   1.725   4.747   6.107 -0.3998  0.9564 -0.0959
   70SAPC  H16X 6096   1.820   4.696   6.133 -2.2513 -2.6531  0.2992
   70SAPC  H16Y 6097   1.656   4.665   6.077  0.6271  0.1594 -0.3112
   70SAPC  C317 6098   1.674   4.821   6.234  0.5405 -0.7076  0.7886
   70SAPC  H17X 6099   1.566   4.842   6.220  0.7892  0.6790  0.8135
   70SAPC  H17Y 6100   1.732   4.916   6.229 -1.6110  0.6385  0.2005
   70SAPC  C318 6101   1.704   4.744   6.359  0.5034  0.4937  0.2538
   70SAPC  H18X 6102   1.662   4.642   6.344  1.4129  0.1859 -0.2564
   70SAPC  H18Y 6103   1.650   4.780   6.449  2.0301 -0.1025  1.4404
   70SAPC  H18Z 6104   1.814   4.740   6.371  0.4367  0.0629  0.7710
   71SAPC     N 6105   0.590   2.132   3.257 -0.1289  0.2605  0.1391
   71SAPC   C12 6106   0.553   2.067   3.392  0.0891 -0.7735  0.1842
   71SAPC  H12A 6107   0.628   1.992   3.409  2.1976  1.7498  3.2361
   71SAPC  H12B 6108   0.462   2.012   3.371  1.6602 -2.5273 -2.6622
   71SAPC   C13 6109   0.609   2.029   3.151 -0.0989  0.6986 -0.4019
   71SAPC  H13A 6110   0.642   2.087   3.065  1.3722  3.3486  1.7862
   71SAPC  H13B 6111   0.690   1.961   3.169 -2.8371 -2.2040  2.2042
   71SAPC  H13C 6112   0.520   1.971   3.133 -0.0501 -0.1610  1.8530
   71SAPC   C14 6113   0.471   2.219   3.216 -0.4504  0.5320  0.5446
   71SAPC  H14A 6114   0.446   2.289   3.296 -0.8487  1.9471 -0.7697
   71SAPC  H14B 6115   0.491   2.274   3.126 -0.6624 -2.5411 -1.5097
   71SAPC  H14C 6116   0.386   2.159   3.189 -0.1658  1.2642 -2.2329
   71SAPC   C15 6117   0.713   2.215   3.262  0.3771 -0.7714  0.6805
   71SAPC  H15A 6118   0.724   2.255   3.361 -1.7333 -2.1154  1.5265
   71SAPC  H15B 6119   0.802   2.156   3.244  0.2699 -1.3515  1.9411
   71SAPC  H15C 6120   0.703   2.285   3.180 -0.4375 -0.2855  1.1807
   71SAPC   C11 6121   0.548   2.151   3.524  0.1065 -0.7316 -0.1068
   71SAPC  H11A 6122   0.499   2.086   3.600 -0.0099 -0.4665  0.0447
   71SAPC  H11B 6123   0.495   2.248   3.512  1.5643  0.4434  2.2250
   71SAPC     P 6124   0.783   2.099   3.644  0.0763  0.0197  0.1425
   71SAPC   O13 6125   0.739   1.956   3.646 -0.0145 -0.3034 -0.2963
   71SAPC   O14 6126   0.919   2.119   3.577  0.2232 -0.0536  0.0460
   71SAPC   O12 6127   0.682   2.185   3.564  0.6483  0.1678  1.1676
   71SAPC   O11 6128   0.759   2.158   3.786 -0.7078  0.1718 -0.1108
   71SAPC    C1 6129   0.780   2.297   3.812 -0.0286  0.3520  0.7547
   71SAPC    HA 6130   0.831   2.346   3.726  0.2115  0.3520  0.8955
   71SAPC    HB 6131   0.679   2.342   3.818 -1.6411 -3.1531  3.2043
   71SAPC    C2 6132   0.847   2.333   3.955 -0.5786 -0.2788 -0.3489
   71SAPC    HS 6133   0.828   2.441   3.972 -0.4425 -0.2246 -0.5474
   71SAPC   O21 6134   0.986   2.305   3.949  0.7117  0.2321 -0.8725
   71SAPC   C21 6135   1.065   2.394   3.887 -0.0530 -0.3291 -0.4922
   71SAPC   O22 6136   1.024   2.494   3.828 -0.2835 -0.5002  0.3975
   71SAPC   C22 6137   1.211   2.350   3.903 -0.4974 -0.1515  0.1643
   71SAPC   H2R 6138   1.219   2.240   3.898  2.3355  0.0027 -0.2210
   71SAPC   H2S 6139   1.256   2.386   3.808  2.6299  0.1249  1.6260
   71SAPC    C3 6140   0.783   2.244   4.061 -0.6885  0.3197  0.9716
   71SAPC    HX 6141   0.815   2.139   4.044 -2.6143 -0.5050  2.1738
   71SAPC    HY 6142   0.674   2.228   4.050 -0.9089  0.0140  3.1587
   71SAPC   O31 6143   0.817   2.296   4.194  0.0075 -0.2568  0.0835
   71SAPC   C31 6144   0.753   2.228   4.293  0.4607 -0.3315  0.7455
   71SAPC   O32 6145   0.711   2.114   4.285  0.0137  0.6898  0.6934
   71SAPC   C32 6146   0.754   2.319   4.421  0.2736 -0.1022  0.9881
   71SAPC   H2X 6147   0.708   2.416   4.394 -0.4183 -1.2533 -2.4988
   71SAPC   H2Y 6148   0.859   2.337   4.455  0.3948 -0.5087  0.8392
   71SAPC   C23 6149   1.280   2.424   4.025  0.1904  0.2652 -0.4858
   71SAPC   H3R 6150   1.249   2.530   4.018  0.8310  0.3658 -2.2294
   71SAPC   H3S 6151   1.391   2.424   4.016  0.1780 -0.2178 -0.6568
   71SAPC   C24 6152   1.233   2.356   4.162  0.7837 -0.6960 -0.1248
   71SAPC   H4R 6153   1.124   2.364   4.179  0.8873 -2.2598  1.5383
   71SAPC   H4S 6154   1.279   2.414   4.245 -1.7080  0.2017  0.7029
   71SAPC   C25 6155   1.277   2.212   4.157 -0.2534 -0.4633 -0.8696
   71SAPC   H5R 6156   1.368   2.197   4.097 -0.6234  0.3996 -1.6897
   71SAPC   C26 6157   1.215   2.107   4.214 -0.4976  0.0509  0.1387
   71SAPC   H6R 6158   1.275   2.016   4.199  0.2135  0.2648  1.5562
   71SAPC   C27 6159   1.080   2.103   4.287 -0.0173  0.3659  0.4345
   71SAPC   H7R 6160   1.004   2.102   4.205  0.4581  0.7427 -0.0240
   71SAPC   H7S 6161   1.054   2.202   4.330 -1.6816 -0.4091  1.2762
   71SAPC   C28 6162   1.063   1.986   4.388 -0.6078 -0.5380 -0.6502
   71SAPC   H8R 6163   1.007   1.900   4.348  0.5806 -0.5411 -2.4239
   71SAPC   C29 6164   1.082   1.990   4.519  0.2881  0.6933 -0.4417
   71SAPC   H9R 6165   1.061   1.895   4.570  3.7094  1.6002  3.0972
   71SAPC  C210 6166   1.153   2.095   4.595  0.3128  0.1773  0.4873
   71SAPC  H10R 6167   1.217   2.165   4.537  1.1036 -1.5259 -0.7914
   71SAPC  H10S 6168   1.218   2.044   4.669  0.6741  1.3743  1.0260
   71SAPC  C211 6169   1.055   2.170   4.683 -0.8972 -0.4786 -0.2363
   71SAPC  H11R 6170   0.952   2.181   4.647 -1.1911 -0.1420  0.6810
   71SAPC  C212 6171   1.085   2.234   4.800  0.7142 -0.1238  0.4714
   71SAPC  H12R 6172   1.005   2.278   4.862  0.8765  3.4223 -1.5726
   71SAPC  C213 6173   1.210   2.245   4.875 -0.4855 -0.0289 -0.1850
   71SAPC  H13R 6174   1.290   2.230   4.799 -1.3512 -1.3124 -0.8807
   71SAPC  H13S 6175   1.209   2.163   4.950  0.1191  0.4532  0.3673
   71SAPC  C214 6176   1.227   2.385   4.935 -0.0307  0.5388  0.2358
   71SAPC  H14R 6177   1.228   2.466   4.861 -0.7035 -1.0280 -1.5907
   71SAPC  C215 6178   1.251   2.409   5.066 -0.2195  0.2619  0.4981
   71SAPC  H15R 6179   1.255   2.512   5.104  0.9206 -0.2704  1.8860
   71SAPC  C216 6180   1.251   2.305   5.173 -0.1532  0.1386 -0.1810
   71SAPC  H16R 6181   1.317   2.219   5.146 -0.1292  0.5650 -1.5395
   71SAPC  H16S 6182   1.149   2.271   5.198 -1.3645  2.5912 -1.4413
   71SAPC  C217 6183   1.302   2.380   5.297 -0.0304 -0.3241 -0.2913
   71SAPC  H17R 6184   1.386   2.451   5.280 -1.4152  1.2942 -0.5803
   71SAPC  H17S 6185   1.322   2.299   5.371 -2.7391  0.1698  1.0952
   71SAPC  C218 6186   1.195   2.475   5.361  0.7914 -0.1274 -0.2946
   71SAPC  H18R 6187   1.108   2.412   5.389  0.9159  0.0582  0.5383
   71SAPC  H18S 6188   1.147   2.542   5.286 -1.6752  0.5969  1.7953
   71SAPC  C219 6189   1.235   2.565   5.476  0.0207  0.2994 -0.1929
   71SAPC  H19R 6190   1.139   2.601   5.519 -1.6658  1.0386 -4.2042
   71SAPC  H19S 6191   1.284   2.651   5.427 -2.4907  1.0554 -1.5180
   71SAPC  C220 6192   1.321   2.496   5.591  0.2968  0.3660  0.1521
   71SAPC  H20R 6193   1.424   2.481   5.551 -0.2352  0.8800 -1.4738
   71SAPC  H20S 6194   1.282   2.396   5.619 -0.1720 -0.6434 -3.6385
   71SAPC  H20T 6195   1.334   2.562   5.680 -1.2597 -0.6054  1.1413
   71SAPC   C33 6196   0.676   2.253   4.542  0.0559 -0.4037 -0.6194
   71SAPC   H3X 6197   0.703   2.146   4.555  1.1290 -0.2712 -1.7073
   71SAPC   H3Y 6198   0.567   2.254   4.517 -0.4397  2.4157  1.1461
   71SAPC   C34 6199   0.707   2.337   4.666 -0.3075  0.0325 -0.2693
   71SAPC   H4X 6200   0.655   2.434   4.651 -3.1108 -1.5047 -1.2953
   71SAPC   H4Y 6201   0.814   2.359   4.683 -0.6547  1.7635 -0.1487
   71SAPC   C35 6202   0.652   2.287   4.798  0.5443 -0.3646  0.6069
   71SAPC   H5X 6203   0.670   2.179   4.820 -0.9667 -1.2482 -2.0283
   71SAPC   H5Y 6204   0.541   2.285   4.801  0.5113 -2.5840  3.7373
   71SAPC   C36 6205   0.684   2.375   4.922  0.1790 -0.5973 -0.3726
   71SAPC   H6X 6206   0.684   2.482   4.892 -0.0795 -0.2617  0.7979
   71SAPC   H6Y 6207   0.786   2.349   4.959  0.1437 -3.7017 -2.0895
   71SAPC   C37 6208   0.583   2.347   5.037 -0.8211  0.3098  0.4509
   71SAPC   H7X 6209   0.585   2.239   5.059 -0.2341  0.3103  0.4355
   71SAPC   H7Y 6210   0.480   2.376   5.009 -0.1756  2.9331  0.5174
   71SAPC   C38 6211   0.615   2.437   5.155 -0.1038  0.3402  0.0011
   71SAPC   H8X 6212   0.623   2.538   5.111 -0.5480  0.9393  1.2453
   71SAPC   H8Y 6213   0.718   2.416   5.192 -0.6613 -1.3918  0.6746
   71SAPC   C39 6214   0.509   2.425   5.268 -0.8461 -0.2195 -0.1671
   71SAPC   H9X 6215   0.544   2.490   5.351 -0.5793  1.7669 -1.7595
   71SAPC   H9Y 6216   0.490   2.322   5.305 -0.3260 -0.2101  0.1241
   71SAPC  C310 6217   0.364   2.479   5.233 -0.4403  0.3875 -0.0763
   71SAPC  H10X 6218   0.313   2.420   5.154 -1.2892  1.3388 -0.2462
   71SAPC  H10Y 6219   0.384   2.582   5.199 -4.4624  0.8193 -1.6743
   71SAPC  C311 6220   0.267   2.508   5.351  0.0299  0.3657 -0.3386
   71SAPC  H11X 6221   0.314   2.585   5.415 -0.6151  0.1404  0.4207
   71SAPC  H11Y 6222   0.251   2.410   5.400  1.7912 -0.6044 -1.5880
   71SAPC  C312 6223   0.125   2.562   5.316  0.6648  0.4762 -0.4777
   71SAPC  H12X 6224   0.089   2.489   5.241 -2.5582  1.9668 -0.5613
   71SAPC  H12Y 6225   0.137   2.655   5.256 -0.9500  0.4394 -0.9223
   71SAPC  C313 6226   0.033   2.564   5.446 -0.1872 -0.2995  0.1662
   71SAPC  H13X 6227   0.090   2.621   5.523 -1.2662  0.3426  0.5039
   71SAPC  H13Y 6228   0.013   2.459   5.475 -0.3841 -0.2873  0.0736
   71SAPC  C314 6229  -0.099   2.638   5.416 -0.2119 -0.0438  0.1608
   71SAPC  H14X 6230  -0.165   2.578   5.350 -1.1292  2.0908 -0.9556
   71SAPC  H14Y 6231  -0.078   2.739   5.374 -1.8145 -0.2681 -1.2448
   71SAPC  C315 6232  -0.172   2.668   5.550 -0.0003 -0.4014  0.1227
   71SAPC  H15X 6233  -0.101   2.721   5.617 -2.2656  0.7382  1.7522
   71SAPC  H15Y 6234  -0.194   2.574   5.606 -1.3134 -0.4609 -0.4636
   71SAPC  C316 6235  -0.305   2.736   5.535  0.2890 -0.1269 -0.1785
   71SAPC  H16X 6236  -0.375   2.683   5.467 -1.0662 -0.4128  1.3981
   71SAPC  H16Y 6237  -0.282   2.835   5.490  0.1819 -1.2217 -2.8263
   71SAPC  C317 6238  -0.388   2.739   5.666  0.2843 -0.3581 -0.5228
   71SAPC  H17X 6239  -0.323   2.803   5.730  0.7970  2.5277 -3.6619
   71SAPC  H17Y 6240  -0.390   2.636   5.709 -3.1337 -0.1720  0.0837
   71SAPC  C318 6241  -0.516   2.824   5.653 -0.5010  0.0258 -0.3511
   71SAPC  H18X 6242  -0.546   2.836   5.759 -0.1502 -0.4101 -0.2014
   71SAPC  H18Y 6243  -0.589   2.780   5.582  0.9499  2.4947 -3.6272
   71SAPC  H18Z 6244  -0.495   2.922   5.605 -1.7396 -0.6522 -2.3835
   72SAPC     N 6245   6.550   1.882   3.386 -0.0421  0.4073  0.2105
   72SAPC   C12 6246   6.509   2.000   3.470 -0.2051  0.3587 -0.0305
   72SAPC  H12A 6247   6.468   2.078   3.407 -2.1429 -0.5583  0.0291
   72SAPC  H12B 6248   6.600   2.038   3.514  1.2862 -0.4563 -2.1790
   72SAPC   C13 6249   6.430   1.805   3.337  0.4554  0.0377  0.1196
   72SAPC  H13A 6250   6.377   1.762   3.421 -1.0480  2.1199  0.3167
   72SAPC  H13B 6251   6.363   1.861   3.274  1.6407  1.2371 -0.1097
   72SAPC  H13C 6252   6.457   1.720   3.275 -1.4717  0.8035 -1.8942
   72SAPC   C14 6253   6.636   1.927   3.273 -0.2787 -0.4745 -0.7566
   72SAPC  H14A 6254   6.599   2.017   3.225 -0.1142 -0.3026 -0.5603
   72SAPC  H14B 6255   6.739   1.936   3.302  0.2251 -2.7053 -1.6870
   72SAPC  H14C 6256   6.642   1.856   3.192 -2.1652  0.9318 -2.2274
   72SAPC   C15 6257   6.638   1.786   3.468 -0.5986 -0.6116  0.8686
   72SAPC  H15A 6258   6.582   1.748   3.552  0.4974 -1.3776  1.2626
   72SAPC  H15B 6259   6.684   1.707   3.412  0.9128  1.7920 -1.5632
   72SAPC  H15C 6260   6.721   1.844   3.506  0.6661 -1.6009 -0.2920
   72SAPC   C11 6261   6.400   1.976   3.572 -0.0733  0.0239 -0.7263
   72SAPC  H11A 6262   6.430   1.902   3.649 -0.5841  2.8504  2.4261
   72SAPC  H11B 6263   6.312   1.925   3.526  0.5415 -3.0282  1.2344
   72SAPC     P 6264   6.292   2.212   3.576  0.0138 -0.2426 -0.1322
   72SAPC   O13 6265   6.323   2.342   3.648  0.1808  0.4575 -0.7304
   72SAPC   O14 6266   6.301   2.215   3.427 -0.0602  0.3682  0.1405
   72SAPC   O12 6267   6.387   2.100   3.636 -0.1555 -0.1408  0.1081
   72SAPC   O11 6268   6.150   2.162   3.629 -0.3043  0.0237 -0.5382
   72SAPC    C1 6269   6.122   2.092   3.747  0.6060  0.0202 -0.1763
   72SAPC    HA 6270   6.026   2.035   3.742  1.0794 -0.7517 -0.6097
   72SAPC    HB 6271   6.198   2.014   3.768 -1.9165 -2.7044 -0.3958
   72SAPC    C2 6272   6.093   2.189   3.869 -0.3384  0.0757  0.4085
   72SAPC    HS 6273   6.188   2.244   3.887 -0.3805  1.1203 -2.0748
   72SAPC   O21 6274   6.051   2.112   3.985  0.3020 -0.4091  0.1297
   72SAPC   C21 6275   6.148   2.046   4.050 -0.4152 -0.4250  0.1418
   72SAPC   O22 6276   6.270   2.051   4.022  0.2006  0.4666  0.1108
   72SAPC   C22 6277   6.080   1.967   4.169  0.0971 -0.2776 -0.1966
   72SAPC   H2R 6278   5.974   1.960   4.136 -0.3729  1.9653  0.6115
   72SAPC   H2S 6279   6.135   1.872   4.180 -1.2574 -1.2419 -1.3023
   72SAPC    C3 6280   5.976   2.288   3.842 -0.1829 -0.7850  0.8506
   72SAPC    HX 6281   5.903   2.241   3.774  0.6023 -0.2686 -0.3823
   72SAPC    HY 6282   6.012   2.369   3.775 -2.0992  0.3126  1.0864
   72SAPC   O31 6283   5.903   2.343   3.952  0.2778  0.1298 -0.0531
   72SAPC   C31 6284   5.969   2.438   4.028  0.6656  0.6936 -0.0289
   72SAPC   O32 6285   6.082   2.471   4.011  0.2491 -0.6221 -0.1256
   72SAPC   C32 6286   5.870   2.493   4.126  0.2547 -0.9956  0.8923
   72SAPC   H2X 6287   5.834   2.400   4.177  2.0555 -2.3762 -0.2297
   72SAPC   H2Y 6288   5.790   2.547   4.071  2.2961  0.8832 -0.3565
   72SAPC   C23 6289   6.076   2.049   4.302  0.1700 -0.2799 -0.0613
   72SAPC   H3R 6290   6.182   2.072   4.323  0.4311 -0.6448 -0.9545
   72SAPC   H3S 6291   6.034   1.982   4.379 -2.5906  0.8643 -0.4308
   72SAPC   C24 6292   5.985   2.164   4.288 -0.5666  0.4243  0.0331
   72SAPC   H4R 6293   5.883   2.125   4.268 -0.2463 -0.1087 -0.6018
   72SAPC   H4S 6294   6.019   2.240   4.215 -1.4397 -0.1376 -0.9879
   72SAPC   C25 6295   5.980   2.253   4.411  0.3266  0.5040  0.0849
   72SAPC   H5R 6296   6.012   2.358   4.397 -0.4933  0.6341 -0.8620
   72SAPC   C26 6297   5.916   2.224   4.526  0.2519 -0.4606 -0.2970
   72SAPC   H6R 6298   5.920   2.293   4.611 -1.4552 -0.6334 -0.0395
   72SAPC   C27 6299   5.838   2.094   4.568 -1.0121 -0.7927 -0.0794
   72SAPC   H7R 6300   5.881   2.002   4.523 -0.4795 -0.5894 -0.0003
   72SAPC   H7S 6301   5.731   2.087   4.539 -1.3609 -1.4586  1.3082
   72SAPC   C28 6302   5.843   2.060   4.713 -0.0084  0.0159 -0.5884
   72SAPC   H8R 6303   5.742   2.062   4.757 -0.1706 -0.2595 -0.9342
   72SAPC   C29 6304   5.951   2.032   4.787 -0.5208 -0.7017  0.3570
   72SAPC   H9R 6305   5.945   2.003   4.893 -1.2533  0.0859  0.5462
   72SAPC  C210 6306   6.091   2.030   4.728 -0.7179  0.2799 -0.3790
   72SAPC  H10R 6307   6.132   2.133   4.738 -1.1345  0.3858  0.2988
   72SAPC  H10S 6308   6.099   2.016   4.618  0.5618 -1.2301 -0.1205
   72SAPC  C211 6309   6.181   1.915   4.792 -0.7421 -0.5257  0.3501
   72SAPC  H11R 6310   6.184   1.825   4.730  2.5065 -0.4859  0.2564
   72SAPC  C212 6311   6.227   1.912   4.922 -0.6363  0.4574  0.8027
   72SAPC  H12R 6312   6.267   1.816   4.959 -0.7729  0.8033  1.8831
   72SAPC  C213 6313   6.223   2.030   5.019 -0.2434 -0.1794  0.1841
   72SAPC  H13R 6314   6.187   1.999   5.120 -1.6279 -0.9368 -0.5226
   72SAPC  H13S 6315   6.151   2.109   4.991  0.4175  0.2066 -0.4599
   72SAPC  C214 6316   6.362   2.089   5.041  0.2653 -0.2021  0.1023
   72SAPC  H14R 6317   6.384   2.182   4.987 -1.0141  2.5883  3.9772
   72SAPC  C215 6318   6.459   2.036   5.118  0.5081  0.1560 -0.6729
   72SAPC  H15R 6319   6.554   2.091   5.128  0.1906  0.6544 -0.4095
   72SAPC  C216 6320   6.444   1.918   5.218 -0.2624 -0.3385  0.1605
   72SAPC  H16R 6321   6.344   1.876   5.190 -2.3606  3.1028  1.7914
   72SAPC  H16S 6322   6.442   1.940   5.327 -0.0113 -1.0448  0.3177
   72SAPC  C217 6323   6.546   1.805   5.187  0.0088 -0.5736 -0.1267
   72SAPC  H17R 6324   6.646   1.820   5.234 -1.1584  2.0183  1.7823
   72SAPC  H17S 6325   6.569   1.782   5.080  1.6888  1.0480 -0.1712
   72SAPC  C218 6326   6.489   1.672   5.237  0.0703 -0.6098  0.3261
   72SAPC  H18R 6327   6.554   1.587   5.206  0.4044 -0.1668 -0.1996
   72SAPC  H18S 6328   6.395   1.652   5.181 -0.6691  1.1427  0.8764
   72SAPC  C219 6329   6.438   1.670   5.384 -0.1273  0.0215 -0.5234
   72SAPC  H19R 6330   6.357   1.742   5.405 -1.0091 -1.0669 -0.0825
   72SAPC  H19S 6331   6.520   1.691   5.456 -1.6281 -0.6070  1.4461
   72SAPC  C220 6332   6.376   1.527   5.409 -0.1393 -0.6916 -0.0216
   72SAPC  H20R 6333   6.332   1.495   5.312 -0.4492 -1.9019  0.5006
   72SAPC  H20S 6334   6.307   1.524   5.496 -1.3434  1.1886 -0.8432
   72SAPC  H20T 6335   6.466   1.462   5.417  2.7869  2.4760 -3.3617
   72SAPC   C33 6336   5.935   2.582   4.235 -0.0340  0.3461  0.2696
   72SAPC   H3X 6337   5.961   2.680   4.190  0.4928 -0.7237 -1.9214
   72SAPC   H3Y 6338   6.024   2.525   4.269 -0.6342  0.1501  1.5805
   72SAPC   C34 6339   5.849   2.602   4.363  0.0327  0.6294  0.6561
   72SAPC   H4X 6340   5.825   2.503   4.408  0.1798  0.2933 -0.0044
   72SAPC   H4Y 6341   5.759   2.656   4.326  0.1440  0.8895  0.7546
   72SAPC   C35 6342   5.924   2.679   4.474  0.3613 -0.2947  0.2829
   72SAPC   H5X 6343   5.986   2.749   4.414 -0.8684 -0.4782 -1.2506
   72SAPC   H5Y 6344   5.983   2.602   4.529 -1.4545 -1.8363  0.1757
   72SAPC   C36 6345   5.833   2.745   4.576  0.4601 -0.6912 -0.4838
   72SAPC   H6X 6346   5.752   2.679   4.613 -1.1463  1.0830 -0.6775
   72SAPC   H6Y 6347   5.786   2.842   4.547  0.7686  0.0728  1.4596
   72SAPC   C37 6348   5.907   2.781   4.706 -0.0130 -0.2359  0.0185
   72SAPC   H7X 6349   5.996   2.846   4.693  0.3583 -0.4121  1.4261
   72SAPC   H7Y 6350   5.934   2.682   4.748  1.7478 -0.3302 -1.2208
   72SAPC   C38 6351   5.828   2.850   4.814  1.0437 -0.1424  0.0046
   72SAPC   H8X 6352   5.723   2.814   4.818  0.4999  1.2336 -0.9422
   72SAPC   H8Y 6353   5.805   2.955   4.785 -2.9330 -1.0572 -0.8326
   72SAPC   C39 6354   5.886   2.862   4.958  0.1050  0.0484  0.1204
   72SAPC   H9X 6355   5.818   2.924   5.020  1.2884  0.2860  1.2345
   72SAPC   H9Y 6356   5.993   2.892   4.952 -0.0440  0.4607 -0.5289
   72SAPC  C310 6357   5.890   2.724   5.040  0.1661 -0.4212  0.6300
   72SAPC  H10X 6358   5.979   2.667   5.006  0.7918  0.2047  1.2083
   72SAPC  H10Y 6359   5.796   2.675   5.006  0.9270  0.1484 -2.5851
   72SAPC  C311 6360   5.879   2.750   5.193  0.1540  0.5964  0.2575
   72SAPC  H11X 6361   5.798   2.822   5.217  1.4658  2.2962 -0.2033
   72SAPC  H11Y 6362   5.974   2.793   5.233  1.1827  1.6159 -2.9465
   72SAPC  C312 6363   5.841   2.620   5.258  0.0708  0.2111 -0.0398
   72SAPC  H12X 6364   5.762   2.578   5.193 -1.0224  1.9054  0.1245
   72SAPC  H12Y 6365   5.797   2.648   5.356 -0.8756  0.2925 -0.4732
   72SAPC  C313 6366   5.966   2.539   5.276 -0.3449 -0.3178  0.0799
   72SAPC  H13X 6367   6.039   2.604   5.329 -1.1590  0.5680  0.1276
   72SAPC  H13Y 6368   6.004   2.505   5.177  1.4256  0.0364  0.5947
   72SAPC  C314 6369   5.949   2.408   5.347  0.3493  0.1661 -0.1603
   72SAPC  H14X 6370   5.870   2.352   5.293  0.7174  0.9645 -1.6023
   72SAPC  H14Y 6371   5.920   2.424   5.453  0.4666  0.6760 -0.2006
   72SAPC  C315 6372   6.073   2.327   5.353  0.3416  1.5248  0.0405
   72SAPC  H15X 6373   6.094   2.297   5.249 -0.1569 -0.9493  0.5894
   72SAPC  H15Y 6374   6.065   2.232   5.410  2.5993  1.5888  0.5632
   72SAPC  C316 6375   6.197   2.394   5.409  0.8007  0.1983  0.6235
   72SAPC  H16X 6376   6.183   2.481   5.477  1.4753 -0.2199  1.3112
   72SAPC  H16Y 6377   6.238   2.450   5.321  0.7409 -1.0473 -0.2150
   72SAPC  C317 6378   6.301   2.299   5.458 -0.5946  0.3576  1.1497
   72SAPC  H17X 6379   6.315   2.222   5.379 -0.3855  0.1858  1.3517
   72SAPC  H17Y 6380   6.268   2.244   5.549  0.3994  0.8857  1.8382
   72SAPC  C318 6381   6.439   2.358   5.479  0.4509  0.3155  0.2188
   72SAPC  H18X 6382   6.459   2.407   5.381  2.0311  0.9524  0.8220
   72SAPC  H18Y 6383   6.522   2.285   5.495 -0.3252 -0.1393  2.5140
   72SAPC  H18Z 6384   6.437   2.427   5.567  1.8433  1.3578 -0.5306
   73SLPC     N 6385   0.418   5.624   8.591  0.2928 -0.1357 -0.5560
   73SLPC   C13 6386   0.343   5.506   8.650 -0.0006  0.1019  0.2723
   73SLPC  H13A 6387   0.340   5.433   8.571  2.4869  0.6104 -0.3547
   73SLPC  H13B 6388   0.387   5.465   8.739  1.4728  0.0034 -0.4710
   73SLPC  H13C 6389   0.242   5.538   8.672 -0.2670  1.1212 -2.0659
   73SLPC   C14 6390   0.560   5.577   8.587  0.2953 -0.2524  0.0699
   73SLPC  H14A 6391   0.562   5.501   8.510 -0.5539  0.3889 -0.6106
   73SLPC  H14B 6392   0.625   5.650   8.541 -2.2674 -0.8598 -5.2476
   73SLPC  H14C 6393   0.594   5.532   8.680  2.1647 -1.1157 -0.9842
   73SLPC   C15 6394   0.407   5.741   8.683 -0.0012 -0.0997  0.2825
   73SLPC  H15A 6395   0.454   5.726   8.779  0.3722 -0.1438  0.0971
   73SLPC  H15B 6396   0.451   5.833   8.647  0.3577 -0.5412 -0.4360
   73SLPC  H15C 6397   0.304   5.768   8.700  0.5582  1.7161  1.0070
   73SLPC   C12 6398   0.361   5.667   8.456 -0.5387  0.6022  0.2131
   73SLPC  H12A 6399   0.255   5.687   8.467 -1.1203 -1.2883 -1.3353
   73SLPC  H12B 6400   0.389   5.586   8.390 -0.6867  0.6052  0.1480
   73SLPC   C11 6401   0.409   5.789   8.381 -0.6620  0.3360  0.1006
   73SLPC  H11A 6402   0.387   5.884   8.435 -0.7991  0.1264  0.4130
   73SLPC  H11B 6403   0.357   5.796   8.284 -1.2234 -0.7099  0.3148
   73SLPC     P 6404   0.613   5.704   8.241  0.2314 -0.2159  0.5163
   73SLPC   O13 6405   0.752   5.673   8.284 -0.1001  0.2234  0.1029
   73SLPC   O14 6406   0.528   5.594   8.199  0.3131 -0.0627 -0.4214
   73SLPC   O12 6407   0.547   5.782   8.359 -0.4456  0.2343 -0.2642
   73SLPC   O11 6408   0.612   5.810   8.130 -0.2762  0.1021 -0.0942
   73SLPC    C1 6409   0.502   5.840   8.046  0.3000 -0.0079  0.5277
   73SLPC    HA 6410   0.402   5.832   8.095  0.3586  0.3597  0.7130
   73SLPC    HB 6411   0.520   5.942   8.006 -0.6991 -0.3544 -0.8659
   73SLPC    C2 6412   0.483   5.742   7.935 -0.0410  0.2312 -0.0634
   73SLPC    HS 6413   0.459   5.644   7.981  0.8616 -0.3175 -0.7249
   73SLPC   O21 6414   0.605   5.736   7.863  0.2571  0.2222  0.5535
   73SLPC   C21 6415   0.646   5.627   7.807  0.6249  0.9939  0.3629
   73SLPC   O22 6416   0.597   5.514   7.814  0.1189 -1.0167  0.0444
   73SLPC   C22 6417   0.771   5.659   7.721  0.7942  0.0105  0.3578
   73SLPC   H2R 6418   0.833   5.570   7.743 -0.1104 -0.0648  3.0018
   73SLPC   H2S 6419   0.728   5.673   7.619  1.5085 -0.0337  0.0431
   73SLPC    C3 6420   0.358   5.770   7.839 -0.1673  0.4681 -0.0753
   73SLPC    HX 6421   0.367   5.872   7.795 -1.8618 -0.2974 -2.4632
   73SLPC    HY 6422   0.265   5.770   7.900  0.8272  0.0070  1.4736
   73SLPC   O31 6423   0.346   5.679   7.725  0.1197  0.5761 -0.1263
   73SLPC   C31 6424   0.300   5.557   7.749 -0.2557 -0.0868 -0.1612
   73SLPC   O32 6425   0.257   5.512   7.855 -0.5156 -0.0825  0.5483
   73SLPC   C32 6426   0.320   5.472   7.617  0.4314 -0.2686  0.3589
   73SLPC   H2X 6427   0.222   5.431   7.585  0.8285  0.2800 -1.7185
   73SLPC   H2Y 6428   0.386   5.385   7.638  1.0308 -0.5806 -2.4137
   73SLPC   C23 6429   0.842   5.784   7.766 -0.6897  0.0671  0.2670
   73SLPC   H3R 6430   0.889   5.757   7.863  2.2722  4.6340  0.4204
   73SLPC   H3S 6431   0.765   5.863   7.778 -3.0437 -2.2800  1.6368
   73SLPC   C24 6432   0.954   5.830   7.664 -0.7597 -0.7483  0.3456
   73SLPC   H4R 6433   1.030   5.900   7.705 -0.8106  1.5912 -3.0973
   73SLPC   H4S 6434   0.906   5.898   7.590  2.6911  0.5531 -0.9215
   73SLPC   C25 6435   1.016   5.723   7.566  0.0406 -0.0537  0.3938
   73SLPC   H5R 6436   0.932   5.677   7.510  0.4898 -0.9354  0.4313
   73SLPC   H5S 6437   1.068   5.654   7.636 -3.4824 -1.1506  2.1414
   73SLPC   C26 6438   1.118   5.782   7.461 -0.3217  0.1149 -0.1943
   73SLPC   H6R 6439   1.207   5.820   7.515 -0.3576  0.3338 -0.2868
   73SLPC   H6S 6440   1.072   5.872   7.416  0.0059  0.7392  0.6894
   73SLPC   C27 6441   1.156   5.677   7.352 -0.4978 -0.7699  0.3402
   73SLPC   H7R 6442   1.064   5.616   7.339 -0.9054 -0.0767 -0.0633
   73SLPC   H7S 6443   1.221   5.601   7.402  0.5310  0.0043  0.1972
   73SLPC   C28 6444   1.218   5.747   7.229 -0.4164  0.2863 -0.7765
   73SLPC   H8R 6445   1.156   5.832   7.192 -0.5860  1.4423  1.9285
   73SLPC   H8S 6446   1.223   5.670   7.149 -0.3420  1.0308 -1.5023
   73SLPC   C29 6447   1.355   5.804   7.251  0.1823 -0.4809  0.1211
   73SLPC   H9R 6448   1.363   5.887   7.322 -2.1490 -1.7708  2.0236
   73SLPC  C210 6449   1.468   5.775   7.177 -0.3809  0.1953  0.2376
   73SLPC  H10R 6450   1.568   5.816   7.195 -0.7023  1.0166  0.1968
   73SLPC  C211 6451   1.475   5.664   7.076  0.1350 -0.1597 -0.0847
   73SLPC  H11R 6452   1.423   5.573   7.112  0.2457  0.2226  1.0997
   73SLPC  H11S 6453   1.579   5.634   7.054 -0.2236 -1.5829  0.0816
   73SLPC  C212 6454   1.415   5.713   6.950  0.1807 -0.1204 -0.6869
   73SLPC  H12R 6455   1.333   5.786   6.961 -0.2560 -0.6729 -0.2697
   73SLPC  C213 6456   1.459   5.693   6.826  0.0792 -0.0310 -0.0670
   73SLPC  H13R 6457   1.401   5.741   6.746 -0.7965 -1.1870 -0.1679
   73SLPC  C214 6458   1.582   5.620   6.774  0.4066 -0.3318 -0.2971
   73SLPC  H14R 6459   1.656   5.589   6.851 -0.0458 -0.0501  0.2590
   73SLPC  H14S 6460   1.643   5.692   6.715  1.8550 -0.6629  0.7486
   73SLPC  C215 6461   1.529   5.510   6.685 -0.6557  0.1559  0.2708
   73SLPC  H15R 6462   1.450   5.542   6.614  0.5500 -1.8316 -2.1600
   73SLPC  H15S 6463   1.479   5.432   6.746  1.1752 -0.7289  0.7190
   73SLPC  C216 6464   1.648   5.447   6.600 -0.1241 -0.4121 -0.1280
   73SLPC  H16R 6465   1.735   5.420   6.663  0.2007  0.1743 -0.3194
   73SLPC  H16S 6466   1.694   5.526   6.537  1.0773 -0.4618  0.6513
   73SLPC  C217 6467   1.597   5.332   6.520 -0.3617  0.2436 -0.1981
   73SLPC  H17R 6468   1.524   5.354   6.439 -1.0856 -0.3600  0.2836
   73SLPC  H17S 6469   1.541   5.261   6.585  3.1033 -2.6298  0.0098
   73SLPC  C218 6470   1.703   5.239   6.456  0.7157 -0.3765 -0.2852
   73SLPC  H18R 6471   1.668   5.142   6.415 -2.2085  0.1090  0.7913
   73SLPC  H18S 6472   1.773   5.195   6.530  0.3723  0.3366  0.4769
   73SLPC  H18T 6473   1.773   5.292   6.389 -1.0749  0.7760 -1.3395
   73SLPC   C33 6474   0.374   5.544   7.492 -0.1266 -0.4298  0.1751
   73SLPC   H3X 6475   0.484   5.563   7.494 -0.0932 -0.5152 -0.4844
   73SLPC   H3Y 6476   0.327   5.642   7.466  1.0365 -0.1727 -1.1124
   73SLPC   C34 6477   0.356   5.450   7.374  1.4069 -0.0142  0.6817
   73SLPC   H4X 6478   0.248   5.453   7.351  0.9095  1.5252  2.8855
   73SLPC   H4Y 6479   0.393   5.347   7.390  0.0036 -0.7852 -0.7146
   73SLPC   C35 6480   0.427   5.505   7.245 -0.9071  0.4104  0.6205
   73SLPC   H5X 6481   0.535   5.500   7.272 -0.7483 -0.0116 -0.0701
   73SLPC   H5Y 6482   0.400   5.612   7.240 -1.5266  0.3219  1.6672
   73SLPC   C36 6483   0.395   5.419   7.124 -0.0822  1.3163  0.8435
   73SLPC   H6X 6484   0.293   5.437   7.085 -0.4963 -1.5710  0.3725
   73SLPC   H6Y 6485   0.405   5.309   7.140  0.0135  1.1755 -0.1086
   73SLPC   C37 6486   0.498   5.445   7.012 -0.0097  0.5027 -0.8492
   73SLPC   H7X 6487   0.491   5.372   6.928  0.7635 -0.6695  0.0829
   73SLPC   H7Y 6488   0.599   5.427   7.054 -0.2418 -0.4611 -0.6938
   73SLPC   C38 6489   0.490   5.586   6.967  0.8666 -0.5883 -0.0374
   73SLPC   H8X 6490   0.499   5.662   7.047  0.0598 -0.5984  0.0703
   73SLPC   H8Y 6491   0.392   5.601   6.918  1.4596 -2.3161 -1.9182
   73SLPC   C39 6492   0.579   5.618   6.850  0.6564  0.3978 -0.4609
   73SLPC   H9X 6493   0.584   5.530   6.782 -0.1265 -0.7201  0.8813
   73SLPC   H9Y 6494   0.683   5.615   6.889 -0.8141 -0.3519  3.9173
   73SLPC  C310 6495   0.541   5.738   6.769  0.5279 -0.5321  0.2647
   73SLPC  H10X 6496   0.546   5.826   6.837  0.7611 -0.9123  0.7428
   73SLPC  H10Y 6497   0.432   5.740   6.751  0.3137  2.2441  1.3073
   73SLPC  C311 6498   0.629   5.762   6.638 -0.2386 -0.6037 -0.3858
   73SLPC  H11X 6499   0.735   5.744   6.667 -0.6521 -1.3180  0.7873
   73SLPC  H11Y 6500   0.620   5.861   6.589  2.7940 -0.8577 -1.6734
   73SLPC  C312 6501   0.587   5.661   6.527 -0.0825  0.3592 -0.3282
   73SLPC  H12X 6502   0.528   5.710   6.446  0.4109  0.5703 -0.5598
   73SLPC  H12Y 6503   0.530   5.580   6.578 -0.1297  1.1799  0.9547
   73SLPC  C313 6504   0.716   5.599   6.459  0.5126  0.3648  1.2826
   73SLPC  H13X 6505   0.781   5.554   6.537  0.9225 -2.5724 -0.5843
   73SLPC  H13Y 6506   0.768   5.688   6.418 -1.2920  0.3136 -1.3179
   73SLPC  C314 6507   0.686   5.483   6.355  0.1650 -0.2945  0.0116
   73SLPC  H14X 6508   0.599   5.498   6.287 -0.3629  0.5043  0.8515
   73SLPC  H14Y 6509   0.662   5.386   6.404  0.4276 -0.5560 -0.3685
   73SLPC  C315 6510   0.814   5.464   6.272  0.3212  0.0582 -0.1411
   73SLPC  H15X 6511   0.890   5.416   6.338 -0.8521 -1.2140  0.3246
   73SLPC  H15Y 6512   0.847   5.566   6.242 -0.1696  0.2366 -0.0832
   73SLPC  C316 6513   0.802   5.380   6.148 -0.6647 -0.3591  0.0358
   73SLPC  H16X 6514   0.896   5.377   6.090 -0.4936  2.8304 -0.0249
   73SLPC  H16Y 6515   0.726   5.418   6.076 -0.5984 -1.6826 -0.7627
   73SLPC  C317 6516   0.766   5.232   6.176 -0.7952 -0.0273 -0.2449
   73SLPC  H17X 6517   0.696   5.230   6.262  1.1422 -1.3028  1.4062
   73SLPC  H17Y 6518   0.864   5.193   6.210  0.1239  1.9266 -0.5341
   73SLPC  C318 6519   0.712   5.137   6.067  0.2054 -0.8976  0.2319
   73SLPC  H18X 6520   0.691   5.040   6.116 -3.5704 -0.7244 -0.7611
   73SLPC  H18Y 6521   0.787   5.122   5.986 -0.6237  2.0704 -1.2333
   73SLPC  H18Z 6522   0.622   5.185   6.023  0.9647  0.1699 -0.2022
   74SLPC     N 6523   1.539   2.560   7.573 -0.2195  0.2750 -0.2512
   74SLPC   C13 6524   1.564   2.644   7.455 -1.1570  0.3781 -0.1412
   74SLPC  H13A 6525   1.469   2.682   7.421 -1.1384  1.3338  0.7956
   74SLPC  H13B 6526   1.630   2.727   7.478  2.9645 -2.6265  0.0098
   74SLPC  H13C 6527   1.610   2.588   7.376 -4.4731  1.6160 -3.2546
   74SLPC   C14 6528   1.480   2.652   7.678 -0.3736  0.3908  0.2952
   74SLPC  H14A 6529   1.515   2.753   7.664 -0.4919  0.2769 -0.9929
   74SLPC  H14B 6530   1.372   2.653   7.678 -0.4489 -1.6463 -1.0080
   74SLPC  H14C 6531   1.514   2.611   7.772  1.4594 -2.7885 -1.5644
   74SLPC   C15 6532   1.680   2.521   7.621  0.7264  0.5490  0.0842
   74SLPC  H15A 6533   1.729   2.458   7.549 -0.4822 -1.3602  0.8686
   74SLPC  H15B 6534   1.729   2.615   7.643 -0.7891  0.6157  3.8699
   74SLPC  H15C 6535   1.675   2.472   7.717 -0.2421  0.7817  0.1650
   74SLPC   C12 6536   1.453   2.440   7.543  1.1591 -0.6418  0.8064
   74SLPC  H12A 6537   1.430   2.395   7.638  0.1896  0.2430  1.0049
   74SLPC  H12B 6538   1.511   2.367   7.486  0.0912 -0.5549 -0.4402
   74SLPC   C11 6539   1.320   2.465   7.468 -0.0037 -0.2946  0.4031
   74SLPC  H11A 6540   1.272   2.365   7.471 -1.6604  0.4806  0.7299
   74SLPC  H11B 6541   1.334   2.505   7.366  1.7102  0.8262  1.0341
   74SLPC     P 6542   1.160   2.492   7.671  0.6539  0.2172  0.4617
   74SLPC   O13 6543   1.257   2.436   7.769 -0.8690 -0.1728  0.2410
   74SLPC   O14 6544   1.060   2.589   7.723  0.3392  0.2993 -0.3319
   74SLPC   O12 6545   1.234   2.553   7.540 -0.3936  0.4201 -0.0635
   74SLPC   O11 6546   1.084   2.365   7.616  0.0712 -0.3514  0.1262
   74SLPC    C1 6547   0.954   2.384   7.558 -0.2572 -0.2270 -0.2003
   74SLPC    HA 6548   0.886   2.424   7.637  0.9122  1.8980 -0.2016
   74SLPC    HB 6549   0.948   2.455   7.474  2.5561 -0.5395 -0.7320
   74SLPC    C2 6550   0.911   2.255   7.485  0.2270  0.7565 -0.7724
   74SLPC    HS 6551   0.900   2.173   7.559 -0.9057  2.0824  0.5851
   74SLPC   O21 6552   1.014   2.212   7.398 -0.2534 -0.3237  0.4014
   74SLPC   C21 6553   1.028   2.089   7.360 -0.3697 -0.3823 -0.4816
   74SLPC   O22 6554   0.954   1.996   7.393  0.3536 -0.0491 -0.2060
   74SLPC   C22 6555   1.153   2.068   7.277  0.4596 -0.3314 -0.0154
   74SLPC   H2R 6556   1.238   2.063   7.349  0.0164 -1.7922  0.4380
   74SLPC   H2S 6557   1.148   1.968   7.230 -3.3789  0.5187 -1.7392
   74SLPC    C3 6558   0.787   2.289   7.405  0.2170 -0.0178  0.3330
   74SLPC    HX 6559   0.826   2.370   7.339 -1.4707  0.2135 -0.4306
   74SLPC    HY 6560   0.700   2.338   7.454 -0.0126 -1.0422  0.9938
   74SLPC   O31 6561   0.743   2.175   7.323 -0.6951 -0.1487 -0.4872
   74SLPC   C31 6562   0.661   2.092   7.391  0.5120 -0.7917  0.1276
   74SLPC   O32 6563   0.629   2.116   7.511  0.0976  0.1932  0.2182
   74SLPC   C32 6564   0.615   1.976   7.300 -0.7774 -0.6777 -0.0468
   74SLPC   H2X 6565   0.513   1.946   7.333 -1.7278  1.9909 -0.2976
   74SLPC   H2Y 6566   0.670   1.882   7.323  0.6009  0.3319  0.9335
   74SLPC   C23 6567   1.173   2.172   7.163 -0.2879  0.4462  0.0735
   74SLPC   H3R 6568   1.282   2.183   7.142 -0.3875  1.0660 -0.1479
   74SLPC   H3S 6569   1.128   2.268   7.195 -1.5811 -0.8976  2.5717
   74SLPC   C24 6570   1.111   2.133   7.024 -1.0884 -0.5400  0.3303
   74SLPC   H4R 6571   1.166   2.039   7.003  0.7548  0.0085  2.4149
   74SLPC   H4S 6572   1.137   2.206   6.944  1.5279 -1.0285  0.6614
   74SLPC   C25 6573   0.968   2.096   7.035  0.2861 -0.2204  0.0796
   74SLPC   H5R 6574   0.932   2.159   7.119 -0.4363  1.3860 -1.3955
   74SLPC   H5S 6575   0.948   1.988   7.052  0.7363 -0.5595 -1.3967
   74SLPC   C26 6576   0.892   2.149   6.911 -0.2333  0.2978 -0.2402
   74SLPC   H6R 6577   0.931   2.252   6.895 -0.5764  0.4155 -0.3202
   74SLPC   H6S 6578   0.784   2.160   6.930 -0.4442  1.1615 -1.8005
   74SLPC   C27 6579   0.919   2.071   6.781  0.8365  0.4956  0.6090
   74SLPC   H7R 6580   0.875   1.970   6.793  0.3050  0.4100 -1.5407
   74SLPC   H7S 6581   1.027   2.050   6.770  0.2423 -1.8672 -1.5617
   74SLPC   C28 6582   0.847   2.143   6.660 -0.5962 -0.1551  0.6993
   74SLPC   H8R 6583   0.739   2.162   6.679 -1.0381 -0.4309 -1.3156
   74SLPC   H8S 6584   0.852   2.073   6.574  1.5300  0.3850  0.3134
   74SLPC   C29 6585   0.933   2.270   6.631  0.2108 -0.1001  0.3856
   74SLPC   H9R 6586   0.933   2.349   6.708 -0.8634 -1.4375  1.8355
   74SLPC  C210 6587   0.995   2.305   6.524  0.0961  0.1467 -0.0400
   74SLPC  H10R 6588   1.038   2.406   6.521  0.3172  0.0487 -0.2674
   74SLPC  C211 6589   1.016   2.227   6.394  0.1418  0.7525 -0.1136
   74SLPC  H11R 6590   0.956   2.133   6.386 -0.8161  1.3155  0.2745
   74SLPC  H11S 6591   1.115   2.177   6.404 -0.8681 -0.9772  2.2461
   74SLPC  C212 6592   1.018   2.311   6.272 -0.3961 -0.7231 -0.0263
   74SLPC  H12R 6593   0.926   2.333   6.215  0.8824  0.2967 -1.7971
   74SLPC  C213 6594   1.119   2.385   6.227  0.2094  0.0685  0.0765
   74SLPC  H13R 6595   1.108   2.440   6.133  1.1051 -0.3502 -0.2860
   74SLPC  C214 6596   1.260   2.394   6.282  0.4345 -0.1064 -0.4794
   74SLPC  H14R 6597   1.272   2.366   6.389  0.7253  1.2737 -0.1367
   74SLPC  H14S 6598   1.286   2.502   6.277  0.8828 -0.1230  1.1172
   74SLPC  C215 6599   1.367   2.317   6.207  0.1301  0.1950 -0.2543
   74SLPC  H15R 6600   1.350   2.207   6.204  3.3818 -0.4162 -0.7865
   74SLPC  H15S 6601   1.467   2.323   6.256 -0.6465 -0.5788  1.5154
   74SLPC  C216 6602   1.388   2.362   6.068  0.9803 -0.0667  0.0059
   74SLPC  H16R 6603   1.378   2.472   6.060  1.8331 -0.0119 -0.4174
   74SLPC  H16S 6604   1.304   2.320   6.009 -1.6707  1.4185  2.4743
   74SLPC  C217 6605   1.516   2.307   6.008 -0.1746 -0.3290 -0.1166
   74SLPC  H17R 6606   1.507   2.197   6.007 -1.0291 -0.2714 -2.0567
   74SLPC  H17S 6607   1.600   2.334   6.076  0.4791 -4.5442  1.0269
   74SLPC  C218 6608   1.542   2.355   5.870  0.5465 -0.0921 -0.0481
   74SLPC  H18R 6609   1.465   2.324   5.796 -0.5169  0.6912  0.7017
   74SLPC  H18S 6610   1.642   2.319   5.837  0.9843  1.3495 -0.4057
   74SLPC  H18T 6611   1.544   2.466   5.858 -1.4644  0.0176  0.2900
   74SLPC   C33 6612   0.631   2.007   7.143 -0.2866  0.3979  0.2270
   74SLPC   H3X 6613   0.741   2.003   7.136 -0.0635 -0.8838  3.0137
   74SLPC   H3Y 6614   0.602   2.110   7.112 -1.2740 -0.0396 -0.3633
   74SLPC   C34 6615   0.565   1.898   7.065  0.1155 -0.0756 -0.3563
   74SLPC   H4X 6616   0.458   1.881   7.092  1.1661  0.1035  4.9453
   74SLPC   H4Y 6617   0.613   1.800   7.084 -0.7751 -0.3096  0.8062
   74SLPC   C35 6618   0.588   1.926   6.924 -1.1799 -0.3145  0.2432
   74SLPC   H5X 6619   0.695   1.914   6.898 -1.4913 -1.9443 -0.3964
   74SLPC   H5Y 6620   0.552   2.028   6.898 -0.5869  0.3527  1.8404
   74SLPC   C36 6621   0.517   1.834   6.831 -0.3896  0.7991 -0.5369
   74SLPC   H6X 6622   0.411   1.817   6.861 -0.0410  0.9886  0.8795
   74SLPC   H6Y 6623   0.566   1.738   6.856 -0.4288  1.3124  1.7693
   74SLPC   C37 6624   0.530   1.860   6.683 -0.4339  0.3857 -0.6750
   74SLPC   H7X 6625   0.635   1.842   6.650 -0.7165  0.3069 -1.5844
   74SLPC   H7Y 6626   0.509   1.968   6.667  1.9407  1.0954  0.5596
   74SLPC   C38 6627   0.420   1.787   6.596 -0.1360  0.7056 -0.1391
   74SLPC   H8X 6628   0.318   1.812   6.632  0.1547  0.9052  0.5562
   74SLPC   H8Y 6629   0.423   1.676   6.599 -3.0186  0.5554 -0.2477
   74SLPC   C39 6630   0.441   1.823   6.447  0.1737  0.5377  0.0189
   74SLPC   H9X 6631   0.547   1.804   6.420 -0.2391 -2.1597 -0.0443
   74SLPC   H9Y 6632   0.424   1.931   6.430 -0.4787  0.6094  1.0244
   74SLPC  C310 6633   0.351   1.732   6.365 -0.7944 -0.3787  0.6538
   74SLPC  H10X 6634   0.256   1.784   6.342 -0.4284  1.9165  3.7163
   74SLPC  H10Y 6635   0.325   1.639   6.419  0.4436 -0.3089  1.4089
   74SLPC  C311 6636   0.430   1.681   6.246 -0.1940  0.2846 -0.3000
   74SLPC  H11X 6637   0.381   1.593   6.200  2.3325 -0.6321 -1.4106
   74SLPC  H11Y 6638   0.530   1.644   6.278  0.2175 -0.1206 -1.9530
   74SLPC  C312 6639   0.449   1.789   6.141  0.2334  0.0736 -0.0357
   74SLPC  H12X 6640   0.501   1.873   6.190  0.8531 -1.1293  1.4738
   74SLPC  H12Y 6641   0.351   1.838   6.121 -2.1545 -3.5561  1.5262
   74SLPC  C313 6642   0.525   1.742   6.019 -0.1705 -0.9613  0.6198
   74SLPC  H13X 6643   0.468   1.658   5.976 -1.3800  1.4040 -2.8269
   74SLPC  H13Y 6644   0.629   1.712   6.044  0.3483  0.1314 -0.1517
   74SLPC  C314 6645   0.523   1.851   5.911 -0.0013  0.1240  0.3811
   74SLPC  H14X 6646   0.561   1.948   5.947 -0.9444  1.4468 -1.9720
   74SLPC  H14Y 6647   0.420   1.878   5.879  0.1747  0.3057 -0.0399
   74SLPC  C315 6648   0.601   1.810   5.788  0.1098 -0.1650  0.1716
   74SLPC  H15X 6649   0.593   1.702   5.766  0.8657 -0.3001  0.5333
   74SLPC  H15Y 6650   0.708   1.824   5.813  0.7077 -1.1356 -1.6848
   74SLPC  C316 6651   0.577   1.889   5.660  0.1311  0.1429  0.2382
   74SLPC  H16X 6652   0.653   1.856   5.585  1.1285 -0.8485  1.6434
   74SLPC  H16Y 6653   0.586   1.998   5.680 -2.4389  0.6728 -1.0588
   74SLPC  C317 6654   0.438   1.877   5.597 -0.3350 -0.0050  0.1293
   74SLPC  H17X 6655   0.365   1.933   5.660 -0.0545 -1.0282  1.4196
   74SLPC  H17Y 6656   0.405   1.771   5.600 -1.4814  0.3601  1.6050
   74SLPC  C318 6657   0.425   1.924   5.452 -0.1628  0.1612 -0.8365
   74SLPC  H18X 6658   0.477   1.849   5.388 -0.8459 -0.6256 -0.4823
   74SLPC  H18Y 6659   0.470   2.024   5.435  0.2049  0.2775  0.6722
   74SLPC  H18Z 6660   0.322   1.922   5.411 -0.3654 -0.7082 -0.3018
   75SLPC     N 6661   2.270   4.420   8.247  0.1962  0.7313 -0.2656
   75SLPC   C13 6662   2.245   4.541   8.325 -0.7058  0.2954  0.7270
   75SLPC  H13A 6663   2.212   4.619   8.258  0.9070 -0.4713 -1.0192
   75SLPC  H13B 6664   2.166   4.526   8.398 -1.1478 -0.9407  0.0198
   75SLPC  H13C 6665   2.333   4.577   8.377 -0.0748  1.1687 -0.8775
   75SLPC   C14 6666   2.353   4.326   8.331 -0.0062 -0.1706 -0.0436
   75SLPC  H14A 6667   2.449   4.367   8.357  0.3140 -2.8920  3.9460
   75SLPC  H14B 6668   2.288   4.314   8.417 -0.4650  1.3400 -0.1445
   75SLPC  H14C 6669   2.365   4.233   8.277  1.2184  0.6859 -1.3264
   75SLPC   C15 6670   2.354   4.455   8.131  0.2662  0.0712 -0.5345
   75SLPC  H15A 6671   2.388   4.370   8.074  0.0206 -0.4967  0.1574
   75SLPC  H15B 6672   2.295   4.518   8.066  0.3165  1.8927  1.0828
   75SLPC  H15C 6673   2.447   4.505   8.155 -0.2264  1.3317 -1.1491
   75SLPC   C12 6674   2.145   4.359   8.190  0.7003 -0.1842  0.2770
   75SLPC  H12A 6675   2.174   4.273   8.131  0.7066  0.5170 -0.7627
   75SLPC  H12B 6676   2.090   4.425   8.125 -0.4857 -1.3509  0.0500
   75SLPC   C11 6677   2.042   4.312   8.295 -0.4016 -0.1580  0.2734
   75SLPC  H11A 6678   1.949   4.302   8.236  1.2748  0.9932 -2.7507
   75SLPC  H11B 6679   2.023   4.394   8.368  0.3020  0.0418  0.2378
   75SLPC     P 6680   2.047   4.062   8.357  0.2903  0.1257  0.0450
   75SLPC   O13 6681   2.160   3.966   8.381  0.4052  0.3308 -0.7399
   75SLPC   O14 6682   1.926   4.037   8.437 -0.2676 -0.0428 -0.6508
   75SLPC   O12 6683   2.096   4.213   8.383 -0.3477 -0.1523  0.2931
   75SLPC   O11 6684   2.001   4.065   8.207 -0.0584 -0.2975  0.4688
   75SLPC    C1 6685   2.054   3.988   8.097  0.3419  0.0465  0.0080
   75SLPC    HA 6686   2.126   3.909   8.128 -1.9809 -1.7896  1.0251
   75SLPC    HB 6687   1.966   3.928   8.065 -0.5462  0.3394  1.7720
   75SLPC    C2 6688   2.103   4.075   7.976 -0.8164  0.8360  0.4906
   75SLPC    HS 6689   2.204   4.117   7.996  0.0120 -1.2455  0.9750
   75SLPC   O21 6690   1.999   4.170   7.946 -0.0084  0.2671 -0.1418
   75SLPC   C21 6691   2.037   4.283   7.884 -0.0678 -0.0076 -0.5994
   75SLPC   O22 6692   2.147   4.330   7.895  0.3425 -0.6776  0.0184
   75SLPC   C22 6693   1.912   4.338   7.816  1.0571  0.4555  0.4854
   75SLPC   H2R 6694   1.866   4.258   7.754 -0.7757  0.8492  1.2667
   75SLPC   H2S 6695   1.838   4.373   7.890 -0.4777 -0.5913 -0.5010
   75SLPC    C3 6696   2.133   3.981   7.851  0.1511 -0.5897 -0.2672
   75SLPC    HX 6697   2.058   3.900   7.845  0.7114 -1.3174  1.8741
   75SLPC    HY 6698   2.226   3.924   7.870  1.1204  0.8169 -0.6544
   75SLPC   O31 6699   2.143   4.056   7.732  0.3948 -0.2472  0.1491
   75SLPC   C31 6700   2.178   3.978   7.632  0.1088 -0.8191  1.2237
   75SLPC   O32 6701   2.201   3.861   7.630  0.0784 -0.0034 -0.6467
   75SLPC   C32 6702   2.185   4.066   7.505  0.4055 -1.3543 -0.9878
   75SLPC   H2X 6703   2.261   4.145   7.520 -1.4837  0.6766 -1.6194
   75SLPC   H2Y 6704   2.084   4.111   7.505  0.0755 -1.6982  3.2815
   75SLPC   C23 6705   1.939   4.454   7.717 -0.1169  0.3772 -0.1752
   75SLPC   H3R 6706   2.030   4.514   7.739  0.5966  0.0954 -2.2054
   75SLPC   H3S 6707   1.860   4.531   7.732 -0.9442  0.0202 -2.2820
   75SLPC   C24 6708   1.947   4.403   7.576 -0.5179 -0.0682  0.2343
   75SLPC   H4R 6709   1.857   4.343   7.551 -0.8090  0.3974  0.1514
   75SLPC   H4S 6710   2.029   4.328   7.570 -0.6046 -0.0908 -0.8596
   75SLPC   C25 6711   1.985   4.506   7.467  0.0938 -0.1069 -1.1444
   75SLPC   H5R 6712   2.089   4.531   7.495 -0.9887  2.1990  1.3091
   75SLPC   H5S 6713   1.934   4.605   7.474  1.5734  0.7205 -1.6937
   75SLPC   C26 6714   1.959   4.459   7.321  0.0850 -0.1711  0.7190
   75SLPC   H6R 6715   1.860   4.499   7.292 -0.0774  0.9334  2.6307
   75SLPC   H6S 6716   1.962   4.348   7.316 -1.2377 -0.1715 -0.7648
   75SLPC   C27 6717   2.062   4.518   7.218  0.5882  0.6713 -0.3833
   75SLPC   H7R 6718   2.164   4.476   7.236  0.3992  0.3766  0.0234
   75SLPC   H7S 6719   2.084   4.626   7.231 -0.3686  0.7124  1.1558
   75SLPC   C28 6720   2.017   4.485   7.072  0.2944 -0.9778  0.2221
   75SLPC   H8R 6721   2.086   4.541   7.005  1.4001 -0.4170  1.7681
   75SLPC   H8S 6722   1.915   4.527   7.067  0.0831 -1.2925  1.5838
   75SLPC   C29 6723   2.001   4.342   7.029 -0.3593  0.5683  0.3091
   75SLPC   H9R 6724   1.909   4.286   7.049 -0.0916 -0.3836 -1.0368
   75SLPC  C210 6725   2.090   4.276   6.950  0.0968 -0.3531 -0.0647
   75SLPC  H10R 6726   2.064   4.178   6.907  0.5953 -0.9489  0.9584
   75SLPC  C211 6727   2.227   4.325   6.899 -0.2438  0.1419 -0.0265
   75SLPC  H11R 6728   2.263   4.404   6.968  0.5674  0.7535 -1.1221
   75SLPC  H11S 6729   2.220   4.374   6.800 -1.2415  1.3208  0.5997
   75SLPC  C212 6730   2.329   4.215   6.902 -0.7599 -0.0525 -0.2777
   75SLPC  H12R 6731   2.377   4.192   6.999 -0.0574 -0.6397 -0.7492
   75SLPC  C213 6732   2.367   4.133   6.803 -0.4491 -0.7735 -0.1285
   75SLPC  H13R 6733   2.443   4.055   6.821  0.5393  0.6474  2.2333
   75SLPC  C214 6734   2.315   4.147   6.662 -0.1910  0.2063 -0.3616
   75SLPC  H14R 6735   2.394   4.147   6.585 -1.1149 -1.3676 -1.3590
   75SLPC  H14S 6736   2.250   4.236   6.646  0.0919  1.0048  2.3690
   75SLPC  C215 6737   2.225   4.034   6.633  0.8557  0.9595  0.2550
   75SLPC  H15R 6738   2.145   4.025   6.709  1.7328 -1.1937  1.0020
   75SLPC  H15S 6739   2.278   3.936   6.635 -2.0439 -0.6936  1.0704
   75SLPC  C216 6740   2.147   4.030   6.499 -0.4368  0.3154  0.3198
   75SLPC  H16R 6741   2.226   3.990   6.432  2.0228  2.6982  1.5854
   75SLPC  H16S 6742   2.121   4.133   6.468 -1.4576 -0.2094 -0.6467
   75SLPC  C217 6743   2.017   3.946   6.507 -1.0321  0.3599  0.2468
   75SLPC  H17R 6744   1.945   3.992   6.578 -1.9925  0.3466 -0.6840
   75SLPC  H17S 6745   2.039   3.850   6.556  1.4659  1.5161  1.5509
   75SLPC  C218 6746   1.942   3.928   6.376  0.7234  0.2974  0.0474
   75SLPC  H18R 6747   1.874   3.841   6.377  3.2506 -1.8074 -0.6546
   75SLPC  H18S 6748   2.009   3.903   6.291  0.8674 -3.6953  1.1368
   75SLPC  H18T 6749   1.893   4.023   6.343  4.4048  3.3248  2.5098
   75SLPC   C33 6750   2.207   3.972   7.386  0.3396  0.2129  0.2116
   75SLPC   H3X 6751   2.128   3.894   7.384 -0.5079  1.0655 -0.8277
   75SLPC   H3Y 6752   2.306   3.921   7.388  0.1569 -0.1512  0.1064
   75SLPC   C34 6753   2.194   4.026   7.246  0.5361 -0.1601 -0.1969
   75SLPC   H4X 6754   2.286   4.085   7.223 -1.2366  2.2933 -1.4381
   75SLPC   H4Y 6755   2.115   4.103   7.235  0.7721  0.4222  1.8576
   75SLPC   C35 6756   2.179   3.906   7.145  0.6102  0.5622  0.0925
   75SLPC   H5X 6757   2.170   3.943   7.040  0.9546  0.9918  0.2110
   75SLPC   H5Y 6758   2.084   3.852   7.167  1.5220 -1.2550 -0.2738
   75SLPC   C36 6759   2.304   3.837   7.134 -0.2082 -0.1963 -0.4007
   75SLPC   H6X 6760   2.320   3.781   7.229 -0.8616 -0.7526 -0.6148
   75SLPC   H6Y 6761   2.382   3.916   7.120 -2.1675  1.8746 -0.1399
   75SLPC   C37 6762   2.309   3.750   7.009  0.0407 -0.1080 -0.5873
   75SLPC   H7X 6763   2.288   3.814   6.921 -2.6009  1.1829  0.8560
   75SLPC   H7Y 6764   2.232   3.670   7.009  0.2811 -0.3452 -1.3147
   75SLPC   C38 6765   2.443   3.674   6.993  0.2578  0.1277 -0.4728
   75SLPC   H8X 6766   2.466   3.619   7.086 -1.4270  1.2153  0.6343
   75SLPC   H8Y 6767   2.522   3.752   6.988  1.4552 -1.0115  0.1723
   75SLPC   C39 6768   2.455   3.583   6.867 -0.0866 -1.0075 -0.8008
   75SLPC   H9X 6769   2.372   3.509   6.863  0.8634 -2.3114  1.6251
   75SLPC   H9Y 6770   2.549   3.529   6.891 -0.2223 -0.9103 -0.0238
   75SLPC  C310 6771   2.467   3.659   6.728 -0.4659  0.2965  0.3322
   75SLPC  H10X 6772   2.527   3.752   6.740  1.9580 -1.2179  0.8746
   75SLPC  H10Y 6773   2.369   3.701   6.697 -0.1200  1.2735  0.5202
   75SLPC  C311 6774   2.526   3.569   6.618  0.5366  0.1200 -0.1434
   75SLPC  H11X 6775   2.477   3.471   6.596  3.0257 -1.7114  1.8045
   75SLPC  H11Y 6776   2.631   3.534   6.630  0.6436  0.1031 -1.0236
   75SLPC  C312 6777   2.517   3.647   6.484  0.1899  1.2314  0.0418
   75SLPC  H12X 6778   2.600   3.720   6.494  0.9225  0.2087  2.1534
   75SLPC  H12Y 6779   2.417   3.694   6.473 -0.7213 -0.7629 -0.8072
   75SLPC  C313 6780   2.529   3.560   6.357 -0.0457 -0.6089  0.2142
   75SLPC  H13X 6781   2.440   3.496   6.343 -0.3568 -0.0246 -0.5276
   75SLPC  H13Y 6782   2.622   3.500   6.352  0.6099  0.2976  1.0292
   75SLPC  C314 6783   2.538   3.652   6.223 -0.2746 -0.0873  0.4333
   75SLPC  H14X 6784   2.554   3.586   6.135  0.9991  0.8063 -0.0366
   75SLPC  H14Y 6785   2.632   3.712   6.231  0.7895 -1.3604 -1.5870
   75SLPC  C315 6786   2.413   3.743   6.202  0.8977  0.0327 -0.8173
   75SLPC  H15X 6787   2.420   3.831   6.269 -0.2934  0.4225 -1.1779
   75SLPC  H15Y 6788   2.323   3.681   6.222 -0.2760  1.8183 -0.3607
   75SLPC  C316 6789   2.400   3.802   6.060 -0.5390  0.1570 -0.3837
   75SLPC  H16X 6790   2.324   3.739   6.009 -0.1834 -1.2766  0.7919
   75SLPC  H16Y 6791   2.503   3.796   6.020 -0.2093  1.2685  0.2433
   75SLPC  C317 6792   2.359   3.953   6.071  0.0921  0.8110 -0.9005
   75SLPC  H17X 6793   2.430   4.008   6.136  1.8565  3.3112 -4.6196
   75SLPC  H17Y 6794   2.272   3.969   6.139  0.4898  0.0598 -0.1917
   75SLPC  C318 6795   2.340   4.025   5.934 -0.0642  1.1400  0.3835
   75SLPC  H18X 6796   2.294   4.123   5.958  3.0167  2.0047  3.7246
   75SLPC  H18Y 6797   2.267   3.961   5.879  0.1737 -1.7736  3.1532
   75SLPC  H18Z 6798   2.434   4.039   5.877  0.3797 -1.4855  0.3243
   76SLPC     N 6799   3.755   2.715   8.269  0.0183 -0.6167 -0.0528
   76SLPC   C13 6800   3.850   2.603   8.275 -0.0700  0.6172  0.6946
   76SLPC  H13A 6801   3.928   2.633   8.344 -0.3639 -0.1728  1.3867
   76SLPC  H13B 6802   3.817   2.503   8.299 -1.8891  1.3667  1.4644
   76SLPC  H13C 6803   3.901   2.595   8.180  0.1374  0.0308  0.8475
   76SLPC   C14 6804   3.698   2.751   8.403  0.3052 -0.4710 -0.0481
   76SLPC  H14A 6805   3.662   2.657   8.441  0.6365 -0.4019  0.4550
   76SLPC  H14B 6806   3.772   2.783   8.475 -0.0785  0.6350 -0.1230
   76SLPC  H14C 6807   3.618   2.822   8.390  0.2488 -0.5965 -0.3798
   76SLPC   C15 6808   3.644   2.685   8.168 -0.1949 -0.1910 -0.1605
   76SLPC  H15A 6809   3.665   2.642   8.072 -0.1302  1.7109 -1.0240
   76SLPC  H15B 6810   3.576   2.619   8.221 -0.2270  1.1725  1.6210
   76SLPC  H15C 6811   3.588   2.775   8.150 -1.4456 -0.8299  0.3724
   76SLPC   C12 6812   3.840   2.834   8.226  0.1770 -0.5543 -0.3225
   76SLPC  H12A 6813   3.911   2.859   8.304 -0.6533  1.8650 -0.2606
   76SLPC  H12B 6814   3.775   2.920   8.220  0.5019 -0.3202 -0.5343
   76SLPC   C11 6815   3.909   2.832   8.082  0.2918  0.1897 -0.1086
   76SLPC  H11A 6816   3.932   2.937   8.055  0.8251  0.7137  2.1611
   76SLPC  H11B 6817   3.838   2.788   8.010  0.4730 -2.1434  1.0324
   76SLPC     P 6818   4.070   2.646   7.992  0.1718  0.3640  0.3171
   76SLPC   O13 6819   4.217   2.638   7.990 -0.3333 -0.1096  0.3346
   76SLPC   O14 6820   3.997   2.520   8.019 -0.2920  0.6673 -0.2271
   76SLPC   O12 6821   4.025   2.756   8.093  0.2209  1.3109  0.1496
   76SLPC   O11 6822   4.034   2.706   7.853 -0.3333  0.5775  0.5234
   76SLPC    C1 6823   4.073   2.838   7.806 -0.0787 -0.5405  0.5052
   76SLPC    HA 6824   3.982   2.882   7.761  0.0292  1.7351  2.3338
   76SLPC    HB 6825   4.110   2.910   7.881 -0.2688  2.2051 -1.8617
   76SLPC    C2 6826   4.189   2.843   7.703  0.0518  0.0221 -0.6362
   76SLPC    HS 6827   4.293   2.844   7.742 -0.4416  0.4661  0.7420
   76SLPC   O21 6828   4.165   2.951   7.607  1.1249 -0.3937  0.0618
   76SLPC   C21 6829   4.191   3.071   7.666  0.2781  0.0277 -0.5055
   76SLPC   O22 6830   4.232   3.077   7.779 -0.0023 -0.3802 -0.4183
   76SLPC   C22 6831   4.151   3.193   7.575  0.8587  0.4301  0.8460
   76SLPC   H2R 6832   4.040   3.183   7.579  0.4755 -0.4362 -4.5674
   76SLPC   H2S 6833   4.178   3.283   7.634 -0.2877  1.6953 -0.5058
   76SLPC    C3 6834   4.180   2.704   7.616 -0.7928 -0.2233 -0.3538
   76SLPC    HX 6835   4.075   2.701   7.580 -0.4745 -2.3066 -1.2474
   76SLPC    HY 6836   4.202   2.626   7.692 -1.2824  1.0527  1.1705
   76SLPC   O31 6837   4.265   2.703   7.502  0.0053 -0.1763 -0.9567
   76SLPC   C31 6838   4.391   2.699   7.530 -0.3150  0.6433 -0.4489
   76SLPC   O32 6839   4.440   2.667   7.638 -0.5957 -0.1292  0.3927
   76SLPC   C32 6840   4.472   2.757   7.413  0.7095  0.6239 -0.5873
   76SLPC   H2X 6841   4.555   2.815   7.458  1.5921  0.5584 -2.0686
   76SLPC   H2Y 6842   4.415   2.834   7.357  0.5759  0.4033 -0.7552
   76SLPC   C23 6843   4.192   3.184   7.429 -0.7028 -0.0622  0.4954
   76SLPC   H3R 6844   4.162   3.273   7.370 -1.3785  1.3523  2.8400
   76SLPC   H3S 6845   4.135   3.101   7.382 -0.1114 -0.3450  0.2798
   76SLPC   C24 6846   4.344   3.156   7.413  0.5835 -0.2478  0.3422
   76SLPC   H4R 6847   4.374   3.065   7.469  0.3064  0.1891  1.2347
   76SLPC   H4S 6848   4.407   3.238   7.455  2.8713 -1.3393 -0.7801
   76SLPC   C25 6849   4.381   3.166   7.258  0.0827 -0.4608 -0.0132
   76SLPC   H5R 6850   4.489   3.158   7.233 -0.0913  1.4693 -1.6665
   76SLPC   H5S 6851   4.347   3.268   7.228 -1.3769 -0.3613  1.7650
   76SLPC   C26 6852   4.296   3.065   7.171 -0.0737  0.3779  0.2466
   76SLPC   H6R 6853   4.189   3.094   7.180 -0.2037  0.6580 -1.7624
   76SLPC   H6S 6854   4.307   2.964   7.215 -2.4961 -0.7238 -1.4192
   76SLPC   C27 6855   4.329   3.073   7.023  0.3896  0.6143 -0.0836
   76SLPC   H7R 6856   4.415   3.011   6.991 -1.9041 -2.0223 -1.6820
   76SLPC   H7S 6857   4.349   3.178   6.995 -0.7134  1.9621  3.5535
   76SLPC   C28 6858   4.206   3.017   6.935  0.1676 -0.3181  0.4178
   76SLPC   H8R 6859   4.236   3.021   6.827  0.8357 -3.4380  0.3772
   76SLPC   H8S 6860   4.124   3.091   6.938  1.6284  1.3678  0.5927
   76SLPC   C29 6861   4.165   2.873   6.969 -0.9115 -0.0349 -0.3721
   76SLPC   H9R 6862   4.112   2.873   7.066  0.3755  1.1527  0.3676
   76SLPC  C210 6863   4.172   2.758   6.889 -0.0837 -0.1434 -0.5655
   76SLPC  H10R 6864   4.143   2.659   6.927  1.2963 -0.0278  0.9127
   76SLPC  C211 6865   4.229   2.760   6.753  0.2820  0.6121  0.2378
   76SLPC  H11R 6866   4.289   2.668   6.736 -1.6030 -0.4339 -1.1529
   76SLPC  H11S 6867   4.304   2.842   6.754 -0.1904  1.3024 -3.6769
   76SLPC  C212 6868   4.122   2.779   6.643  0.1890  0.6378  0.2818
   76SLPC  H12R 6869   4.038   2.845   6.667 -0.6539 -0.2267 -0.2128
   76SLPC  C213 6870   4.128   2.722   6.521 -0.0961  0.3163  0.5948
   76SLPC  H13R 6871   4.047   2.751   6.451 -2.2402  2.5017  3.6592
   76SLPC  C214 6872   4.244   2.640   6.463 -0.3951  0.0936 -0.0462
   76SLPC  H14R 6873   4.209   2.538   6.439 -2.1643  0.9832 -1.4974
   76SLPC  H14S 6874   4.333   2.623   6.528  1.3444 -0.6912 -2.4885
   76SLPC  C215 6875   4.295   2.692   6.326  0.0722 -0.3467 -0.4924
   76SLPC  H15R 6876   4.368   2.620   6.283  0.3837  0.7509 -1.8858
   76SLPC  H15S 6877   4.343   2.791   6.343 -0.9403 -0.3412  3.2006
   76SLPC  C216 6878   4.177   2.701   6.232 -0.1235 -0.7437  0.2633
   76SLPC  H16R 6879   4.125   2.796   6.259  1.0680  0.0820 -0.2140
   76SLPC  H16S 6880   4.114   2.611   6.246  2.3939 -2.4735  1.0467
   76SLPC  C217 6881   4.228   2.708   6.083 -0.3846  0.8756  0.0213
   76SLPC  H17R 6882   4.245   2.607   6.042 -2.3334  0.0450  1.1526
   76SLPC  H17S 6883   4.332   2.748   6.093  0.5680 -1.3560 -0.3707
   76SLPC  C218 6884   4.142   2.788   5.986  0.3646 -0.4994  0.0468
   76SLPC  H18R 6885   4.150   2.744   5.884  1.6063  0.4950 -0.3185
   76SLPC  H18S 6886   4.180   2.892   5.982 -1.8830  0.4542  1.6203
   76SLPC  H18T 6887   4.035   2.782   6.014  0.2208  0.8822 -0.1413
   76SLPC   C33 6888   4.547   2.651   7.320  0.4539  0.5349 -0.9771
   76SLPC   H3X 6889   4.581   2.569   7.386  0.7359  2.7572  1.8491
   76SLPC   H3Y 6890   4.627   2.706   7.266 -1.4779  2.0255 -2.4704
   76SLPC   C34 6891   4.452   2.591   7.220 -0.5889  0.6577  0.3188
   76SLPC   H4X 6892   4.509   2.554   7.132  0.5832  2.2922  0.3288
   76SLPC   H4Y 6893   4.363   2.642   7.177 -0.2141 -1.0614 -2.7671
   76SLPC   C35 6894   4.382   2.467   7.291  0.1431  0.4645  0.2008
   76SLPC   H5X 6895   4.334   2.512   7.380  1.4080  3.5300 -0.5280
   76SLPC   H5Y 6896   4.470   2.407   7.325  2.2719  2.2719 -1.7382
   76SLPC   C36 6897   4.279   2.391   7.212  0.4148  0.6699  0.4828
   76SLPC   H6X 6898   4.214   2.472   7.172  0.3049  0.3559  0.0146
   76SLPC   H6Y 6899   4.218   2.325   7.277 -1.4548  1.4348 -0.4405
   76SLPC   C37 6900   4.332   2.309   7.092 -0.4847 -0.5358  0.1159
   76SLPC   H7X 6901   4.285   2.210   7.079 -0.1901 -0.7224  0.4524
   76SLPC   H7Y 6902   4.442   2.299   7.102 -0.3125  0.9281 -0.0022
   76SLPC   C38 6903   4.319   2.382   6.954  0.1301  0.3444  0.7645
   76SLPC   H8X 6904   4.352   2.488   6.966 -2.0187  1.0995  0.3240
   76SLPC   H8Y 6905   4.213   2.393   6.925 -0.3291 -3.6911  0.3912
   76SLPC   C39 6906   4.391   2.316   6.833 -0.0163  0.7231  0.0044
   76SLPC   H9X 6907   4.336   2.221   6.814 -1.4666  1.2880  1.1304
   76SLPC   H9Y 6908   4.494   2.284   6.860  0.0876  0.5424 -0.6000
   76SLPC  C310 6909   4.389   2.404   6.706  0.3522 -0.3575  0.0007
   76SLPC  H10X 6910   4.444   2.499   6.722  0.2265  0.0330 -1.7380
   76SLPC  H10Y 6911   4.289   2.432   6.668  0.9508  1.6964 -0.1650
   76SLPC  C311 6912   4.467   2.325   6.598 -0.0138  0.9436  0.2197
   76SLPC  H11X 6913   4.414   2.230   6.578  1.8582 -0.2461  0.6518
   76SLPC  H11Y 6914   4.564   2.307   6.649 -0.5871 -0.5680  0.8328
   76SLPC  C312 6915   4.490   2.395   6.467  0.1250 -0.0312 -0.5067
   76SLPC  H12X 6916   4.546   2.488   6.495  0.4705 -0.7082  1.2041
   76SLPC  H12Y 6917   4.395   2.412   6.412 -1.1806 -2.1174  0.9742
   76SLPC  C313 6918   4.577   2.311   6.375  0.1272  0.7040  0.8204
   76SLPC  H13X 6919   4.520   2.226   6.333 -2.5284  3.1902 -0.9891
   76SLPC  H13Y 6920   4.665   2.266   6.427  0.3309 -0.0395 -0.1387
   76SLPC  C314 6921   4.619   2.397   6.257 -0.1765 -0.3886  0.0226
   76SLPC  H14X 6922   4.651   2.495   6.298 -1.9654  1.3929 -2.5429
   76SLPC  H14Y 6923   4.528   2.415   6.196  0.8655  4.2522 -0.4977
   76SLPC  C315 6924   4.735   2.332   6.174 -0.4442 -0.3174 -0.0903
   76SLPC  H15X 6925   4.708   2.226   6.155  3.1806 -1.1739 -1.3212
   76SLPC  H15Y 6926   4.827   2.332   6.236 -0.4874 -1.7357  0.0005
   76SLPC  C316 6927   4.756   2.412   6.048  0.0241 -0.4793 -0.1421
   76SLPC  H16X 6928   4.762   2.518   6.079 -0.2027  0.0273 -1.7272
   76SLPC  H16Y 6929   4.667   2.417   5.981 -0.6981  1.5100  0.9053
   76SLPC  C317 6930   4.883   2.371   5.975 -0.1749 -0.3546  0.8216
   76SLPC  H17X 6931   4.881   2.262   5.949  0.6070 -0.2381  0.2256
   76SLPC  H17Y 6932   4.976   2.395   6.030  0.3578 -0.5723  0.0458
   76SLPC  C318 6933   4.893   2.448   5.839 -0.8533  0.3498  0.5298
   76SLPC  H18X 6934   4.943   2.547   5.848 -1.7733  0.6613  3.3701
   76SLPC  H18Y 6935   4.793   2.468   5.794 -0.4394 -1.1159 -1.1305
   76SLPC  H18Z 6936   4.954   2.393   5.764 -2.1318  0.9815 -1.0442
   77SLPC     N 6937   3.010   3.073   8.263  0.2488  0.2236  0.4436
   77SLPC   C13 6938   2.998   2.961   8.171 -0.5582  0.0666  0.3981
   77SLPC  H13A 6939   2.981   2.864   8.216 -0.0977 -0.3214 -0.2627
   77SLPC  H13B 6940   2.909   2.974   8.111 -0.1641 -0.6531 -0.3553
   77SLPC  H13C 6941   3.085   2.961   8.108 -0.2374  2.5128  0.7504
   77SLPC   C14 6942   3.111   3.042   8.372 -0.1160 -0.2006 -0.5343
   77SLPC  H14A 6943   3.123   3.124   8.440  0.4496 -1.2092  0.6297
   77SLPC  H14B 6944   3.085   2.949   8.420 -1.3196  0.6554  0.5191
   77SLPC  H14C 6945   3.201   3.011   8.319 -1.0304 -1.8856 -1.1815
   77SLPC   C15 6946   2.887   3.117   8.335  0.4796  0.1379 -0.0614
   77SLPC  H15A 6947   2.805   3.136   8.268 -0.6273  0.1862  1.2742
   77SLPC  H15B 6948   2.874   3.038   8.408  4.3267 -1.8594 -1.2557
   77SLPC  H15C 6949   2.903   3.215   8.379  1.8231 -0.1672  0.1850
   77SLPC   C12 6950   3.054   3.187   8.172  0.2482 -0.2499  0.7387
   77SLPC  H12A 6951   3.136   3.158   8.108 -0.1294 -2.1478  1.0586
   77SLPC  H12B 6952   3.069   3.266   8.245 -1.6351 -1.0003  2.0021
   77SLPC   C11 6953   2.949   3.249   8.074  0.1600 -0.1553  0.3513
   77SLPC  H11A 6954   2.904   3.168   8.013  0.5328 -0.2776  0.2337
   77SLPC  H11B 6955   3.004   3.310   7.999 -0.8405  1.2034  0.6802
   77SLPC     P 6956   2.866   3.482   8.139 -0.6802  0.0566 -0.3877
   77SLPC   O13 6957   2.747   3.545   8.195 -0.6825  0.0714  0.0902
   77SLPC   O14 6958   3.000   3.517   8.193  0.1446  0.0985  0.0675
   77SLPC   O12 6959   2.851   3.330   8.145 -0.0158  0.5063 -0.3207
   77SLPC   O11 6960   2.851   3.498   7.983 -0.0846 -0.1909  0.0350
   77SLPC    C1 6961   2.719   3.483   7.937 -0.2161  0.1593  0.6372
   77SLPC    HA 6962   2.660   3.400   7.980 -0.1523  1.1636  2.7919
   77SLPC    HB 6963   2.665   3.577   7.962  1.0249  0.9768  0.3897
   77SLPC    C2 6964   2.730   3.484   7.784 -0.5092 -0.9740  0.0758
   77SLPC    HS 6965   2.627   3.482   7.742 -1.4453 -1.5526  2.2323
   77SLPC   O21 6966   2.807   3.368   7.751 -0.0280  0.0955  0.4305
   77SLPC   C21 6967   2.741   3.257   7.766  0.5032 -0.6393  0.3445
   77SLPC   O22 6968   2.625   3.247   7.801  1.1771 -0.5424  0.4259
   77SLPC   C22 6969   2.842   3.146   7.718 -0.8721 -0.0488 -0.0776
   77SLPC   H2R 6970   2.943   3.186   7.695 -1.1459  0.7596  0.0679
   77SLPC   H2S 6971   2.842   3.060   7.789  0.9346 -1.5732 -1.8296
   77SLPC    C3 6972   2.805   3.614   7.731 -0.1662 -0.2488  0.6873
   77SLPC    HX 6973   2.902   3.647   7.776  0.9763  0.3015 -2.0141
   77SLPC    HY 6974   2.738   3.698   7.757  0.6309  0.4604  0.4889
   77SLPC   O31 6975   2.811   3.606   7.585 -0.0007 -0.0327  0.3550
   77SLPC   C31 6976   2.934   3.609   7.540 -0.2689 -0.6986 -0.1893
   77SLPC   O32 6977   3.033   3.589   7.605 -0.1551 -0.0137  0.4216
   77SLPC   C32 6978   2.923   3.634   7.394 -0.5216  0.0301 -0.2179
   77SLPC   H2X 6979   3.023   3.634   7.346 -1.3076  1.2858 -1.9643
   77SLPC   H2Y 6980   2.866   3.729   7.385  1.3291  1.4109  1.7240
   77SLPC   C23 6981   2.788   3.070   7.589  0.6523  0.6149 -0.6157
   77SLPC   H3R 6982   2.693   3.016   7.607  1.2787 -0.1647  0.4134
   77SLPC   H3S 6983   2.859   2.987   7.569  2.0305  1.7102 -0.4597
   77SLPC   C24 6984   2.779   3.171   7.470 -0.0469  0.5407  0.1020
   77SLPC   H4R 6985   2.885   3.177   7.435  0.1830 -0.2483  0.6122
   77SLPC   H4S 6986   2.739   3.264   7.514 -1.8210 -0.2105  0.1574
   77SLPC   C25 6987   2.685   3.125   7.362 -0.5775  0.4267  0.0078
   77SLPC   H5R 6988   2.585   3.105   7.406 -1.5392  3.2111 -0.7654
   77SLPC   H5S 6989   2.725   3.032   7.315 -1.1473 -0.0850  0.5217
   77SLPC   C26 6990   2.656   3.238   7.268  0.2697 -0.3279  0.4247
   77SLPC   H6R 6991   2.743   3.268   7.204  1.6838 -0.5010  2.1790
   77SLPC   H6S 6992   2.628   3.326   7.329 -1.1097  0.2241 -0.9403
   77SLPC   C27 6993   2.543   3.212   7.172  0.4115 -0.9439 -0.1604
   77SLPC   H7R 6994   2.507   3.307   7.128  3.8297  0.1042 -0.9901
   77SLPC   H7S 6995   2.465   3.152   7.224 -0.5953 -0.0117 -0.5711
   77SLPC   C28 6996   2.589   3.124   7.058  0.3241 -0.0506  0.2117
   77SLPC   H8R 6997   2.636   3.033   7.100  3.1522  1.6361  0.9748
   77SLPC   H8S 6998   2.663   3.180   6.997  0.0797  0.8518  0.7171
   77SLPC   C29 6999   2.473   3.079   6.968 -0.1825 -0.5192  0.1235
   77SLPC   H9R 7000   2.387   3.043   7.026  0.3263  0.7905  1.7943
   77SLPC  C210 7001   2.473   3.074   6.831  0.3769 -0.2398 -1.0662
   77SLPC  H10R 7002   2.386   3.038   6.774 -0.1295  0.4791 -0.7613
   77SLPC  C211 7003   2.582   3.114   6.738  0.0389  0.1372 -0.2760
   77SLPC  H11R 7004   2.658   3.033   6.733  1.3358  1.3308 -0.7187
   77SLPC  H11S 7005   2.641   3.195   6.787 -1.0426 -0.1833  1.6638
   77SLPC  C212 7006   2.540   3.160   6.598  0.3064 -0.3793  0.5137
   77SLPC  H12R 7007   2.435   3.191   6.585  0.0264 -1.8286 -1.0188
   77SLPC  C213 7008   2.626   3.184   6.494  0.4755  0.0153 -0.7569
   77SLPC  H13R 7009   2.580   3.217   6.399 -2.7949 -0.7322  0.4419
   77SLPC  C214 7010   2.780   3.170   6.516  0.2209 -0.4857  0.0935
   77SLPC  H14R 7011   2.814   3.065   6.507  0.5557 -0.2759 -1.4469
   77SLPC  H14S 7012   2.804   3.197   6.621  2.6330  0.0492 -0.5387
   77SLPC  C215 7013   2.866   3.267   6.419 -0.6216 -0.0354 -1.0366
   77SLPC  H15R 7014   2.970   3.245   6.451 -0.3947  1.0401 -0.9933
   77SLPC  H15S 7015   2.842   3.374   6.437  4.2408  1.2133 -0.7456
   77SLPC  C216 7016   2.852   3.239   6.272  0.2026  0.8037  0.4904
   77SLPC  H16R 7017   2.750   3.221   6.234  1.2642 -2.0460 -1.3315
   77SLPC  H16S 7018   2.915   3.156   6.234 -0.7839 -0.2836  1.1684
   77SLPC  C217 7019   2.897   3.362   6.194  0.0626  0.4001  0.0274
   77SLPC  H17R 7020   2.950   3.419   6.273 -0.9556 -1.1845  1.9389
   77SLPC  H17S 7021   2.807   3.424   6.174  0.0563 -0.3738 -2.8548
   77SLPC  C218 7022   2.975   3.333   6.063  1.3851  0.5690 -0.3405
   77SLPC  H18R 7023   3.022   3.233   6.064 -0.1720 -0.2038  0.5086
   77SLPC  H18S 7024   3.064   3.399   6.058  0.1174  2.3290 -0.8884
   77SLPC  H18T 7025   2.908   3.346   5.976  0.1972  4.0689  0.8967
   77SLPC   C33 7026   2.831   3.533   7.320  0.4311  0.3645  0.1456
   77SLPC   H3X 7027   2.741   3.506   7.378 -0.7330  1.1460 -1.2360
   77SLPC   H3Y 7028   2.896   3.443   7.306 -1.2434 -0.5965 -2.0484
   77SLPC   C34 7029   2.774   3.586   7.182 -0.5230 -0.3193  0.0180
   77SLPC   H4X 7030   2.723   3.682   7.204 -0.7507 -0.2721 -0.6894
   77SLPC   H4Y 7031   2.701   3.514   7.137  1.3352 -2.1114 -0.2828
   77SLPC   C35 7032   2.886   3.622   7.076  0.4469 -0.4915 -0.0167
   77SLPC   H5X 7033   2.952   3.535   7.055  1.3524  0.3527 -0.7436
   77SLPC   H5Y 7034   2.937   3.706   7.126  0.3572 -2.5104  3.8428
   77SLPC   C36 7035   2.826   3.690   6.945  0.3056 -0.3454  0.0836
   77SLPC   H6X 7036   2.802   3.797   6.962  0.4967 -0.3030  0.0870
   77SLPC   H6Y 7037   2.734   3.637   6.912 -0.4459  1.4854 -0.8942
   77SLPC   C37 7038   2.933   3.689   6.832  0.1701 -0.1030  0.2472
   77SLPC   H7X 7039   2.970   3.587   6.811 -1.7197 -0.8107  0.1838
   77SLPC   H7Y 7040   3.008   3.764   6.867 -0.2015  0.2857  0.2202
   77SLPC   C38 7041   2.876   3.733   6.690 -0.3897  0.3642  0.4278
   77SLPC   H8X 7042   2.848   3.840   6.692  0.3745  0.5701  0.3126
   77SLPC   H8Y 7043   2.793   3.671   6.649 -0.1510  0.9402 -0.9756
   77SLPC   C39 7044   2.994   3.707   6.591 -0.2179  0.2055 -0.2622
   77SLPC   H9X 7045   3.004   3.599   6.567  0.8223  0.4157 -0.8238
   77SLPC   H9Y 7046   3.098   3.730   6.625 -0.2685 -0.3063  0.2677
   77SLPC  C310 7047   2.965   3.765   6.458  0.3637  0.3760  0.7576
   77SLPC  H10X 7048   2.960   3.876   6.463 -1.5252  0.3635  0.1270
   77SLPC  H10Y 7049   2.858   3.749   6.432  0.3966  0.6185  0.4633
   77SLPC  C311 7050   3.059   3.725   6.349 -0.2592 -0.3415 -0.3857
   77SLPC  H11X 7051   3.061   3.614   6.341 -0.8005 -0.2818 -1.4595
   77SLPC  H11Y 7052   3.161   3.749   6.386 -0.8494 -0.9754  1.8237
   77SLPC  C312 7053   3.024   3.797   6.227 -0.0534  0.0731 -0.2625
   77SLPC  H12X 7054   3.083   3.747   6.147 -1.2965 -1.7665 -0.0818
   77SLPC  H12Y 7055   3.046   3.906   6.225  0.9317 -0.0769  0.7606
   77SLPC  C313 7056   2.876   3.775   6.186 -0.9376  0.0051 -0.1948
   77SLPC  H13X 7057   2.802   3.837   6.240 -1.8449 -0.8598 -0.4000
   77SLPC  H13Y 7058   2.856   3.669   6.211  1.5461  0.1416  2.9564
   77SLPC  C314 7059   2.856   3.801   6.036  0.3091 -0.5653 -0.8424
   77SLPC  H14X 7060   2.756   3.756   6.013  0.1735  0.4132 -2.3020
   77SLPC  H14Y 7061   2.930   3.760   5.964 -0.1743 -1.9962 -0.5785
   77SLPC  C315 7062   2.846   3.950   5.994 -0.1139 -0.6419  0.0908
   77SLPC  H15X 7063   2.938   4.009   6.014 -2.8430  3.6984  1.1332
   77SLPC  H15Y 7064   2.772   4.001   6.059  0.4390 -1.7658  1.6469
   77SLPC  C316 7065   2.793   3.968   5.849 -0.2317 -1.1205 -0.7445
   77SLPC  H16X 7066   2.701   3.909   5.825 -0.7303 -0.3276 -0.8281
   77SLPC  H16Y 7067   2.874   3.940   5.778  0.2255  0.6022 -0.9619
   77SLPC  C317 7068   2.755   4.115   5.815 -0.0157 -0.0871  0.1257
   77SLPC  H17X 7069   2.852   4.168   5.814  0.7913 -1.4020  2.2063
   77SLPC  H17Y 7070   2.690   4.149   5.898  0.5070  0.9876  0.1066
   77SLPC  C318 7071   2.690   4.118   5.681  0.3652 -0.2529  0.3381
   77SLPC  H18X 7072   2.583   4.090   5.690  0.1604  0.4791  0.2558
   77SLPC  H18Y 7073   2.740   4.051   5.608 -0.9202 -2.1635  1.1320
   77SLPC  H18Z 7074   2.690   4.221   5.639 -2.3805  0.0565  0.9238
   78SLPC     N 7075   5.693   1.727   8.156 -0.1818  0.0719  0.0235
   78SLPC   C13 7076   5.609   1.750   8.276 -0.5150  0.1174  0.6358
   78SLPC  H13A 7077   5.552   1.842   8.280 -1.6453 -0.5947  1.4513
   78SLPC  H13B 7078   5.532   1.677   8.295 -0.0161 -0.4366  0.5422
   78SLPC  H13C 7079   5.668   1.751   8.366  2.1145  0.2309 -0.9979
   78SLPC   C14 7080   5.762   1.597   8.173  0.2484  0.1286  0.3492
   78SLPC  H14A 7081   5.832   1.577   8.093  1.1869  1.7918  0.7131
   78SLPC  H14B 7082   5.815   1.590   8.266 -1.4362  0.4014  1.3731
   78SLPC  H14C 7083   5.695   1.514   8.159  1.0596 -0.3965 -0.5394
   78SLPC   C15 7084   5.787   1.839   8.157 -0.5410 -0.5309  0.4520
   78SLPC  H15A 7085   5.745   1.936   8.178  2.4044  0.9103  0.1946
   78SLPC  H15B 7086   5.855   1.835   8.240 -3.1264  1.5949  2.8909
   78SLPC  H15C 7087   5.840   1.848   8.063 -1.4784 -1.7723 -0.2212
   78SLPC   C12 7088   5.613   1.721   8.032  0.5072  0.5626 -0.0513
   78SLPC  H12A 7089   5.674   1.685   7.950  2.0778  0.3890  1.1414
   78SLPC  H12B 7090   5.598   1.827   8.019 -0.7207  0.9151  3.2275
   78SLPC   C11 7091   5.473   1.659   8.039 -0.8997  0.1006  0.3216
   78SLPC  H11A 7092   5.461   1.658   7.929 -0.7761 -0.9978  0.3106
   78SLPC  H11B 7093   5.410   1.737   8.088 -2.2775 -1.7570  1.6452
   78SLPC     P 7094   5.462   1.398   8.027 -0.1876 -0.2679  0.1589
   78SLPC   O13 7095   5.557   1.296   8.087 -0.6143  0.1309 -0.5313
   78SLPC   O14 7096   5.318   1.370   8.020  0.6643  0.1076  0.2934
   78SLPC   O12 7097   5.474   1.539   8.111  0.0848  0.3856  0.1410
   78SLPC   O11 7098   5.517   1.427   7.890 -0.1804 -0.1532  0.4800
   78SLPC    C1 7099   5.458   1.411   7.764 -0.6716  0.1374  0.9458
   78SLPC    HA 7100   5.362   1.467   7.767 -1.0952 -0.5976  1.5018
   78SLPC    HB 7101   5.525   1.450   7.685  0.6269 -3.2482  0.1884
   78SLPC    C2 7102   5.422   1.263   7.712 -0.7586 -0.6450 -0.3499
   78SLPC    HS 7103   5.375   1.212   7.798 -1.2709  1.9045  0.9404
   78SLPC   O21 7104   5.555   1.204   7.681  0.3349 -0.2818 -0.2102
   78SLPC   C21 7105   5.563   1.073   7.676  0.5539 -0.1949  0.3853
   78SLPC   O22 7106   5.477   0.995   7.713  1.0357  0.5139 -0.5247
   78SLPC   C22 7107   5.696   1.021   7.622 -0.6988 -0.3072 -0.2624
   78SLPC   H2R 7108   5.779   1.054   7.689 -0.6687  0.0740 -0.4805
   78SLPC   H2S 7109   5.693   0.910   7.619  0.8705 -0.3483 -1.8791
   78SLPC    C3 7110   5.320   1.264   7.591  0.8877 -0.0940  0.0854
   78SLPC    HX 7111   5.386   1.320   7.522  0.0332  0.8856  0.0525
   78SLPC    HY 7112   5.231   1.327   7.612  1.9678  1.0490  1.5280
   78SLPC   O31 7113   5.293   1.129   7.539  0.2768 -0.2122 -0.2665
   78SLPC   C31 7114   5.175   1.085   7.565  0.0191  0.1486 -0.6556
   78SLPC   O32 7115   5.080   1.151   7.613  0.7770  0.3130  0.5934
   78SLPC   C32 7116   5.178   0.936   7.531  0.7516 -0.0561 -0.5652
   78SLPC   H2X 7117   5.084   0.892   7.568  0.4464  1.8797  1.1359
   78SLPC   H2Y 7118   5.263   0.890   7.586  2.0409  1.0268 -1.5542
   78SLPC   C23 7119   5.727   1.078   7.480 -0.2821 -0.2640  0.9017
   78SLPC   H3R 7120   5.832   1.056   7.454 -0.4069 -0.9157  0.9285
   78SLPC   H3S 7121   5.709   1.188   7.473  0.2866 -0.2739 -1.8293
   78SLPC   C24 7122   5.644   1.021   7.371  1.3206  0.1252  0.4119
   78SLPC   H4R 7123   5.543   1.057   7.398  0.2664 -3.1779  1.3880
   78SLPC   H4S 7124   5.650   0.911   7.355 -0.5012 -0.2354  1.8734
   78SLPC   C25 7125   5.685   1.076   7.237  0.4705  0.9260  0.0426
   78SLPC   H5R 7126   5.785   1.031   7.217 -0.3045 -0.1078 -1.7726
   78SLPC   H5S 7127   5.693   1.186   7.224  0.5285  0.8876 -0.2721
   78SLPC   C26 7128   5.590   1.033   7.118  0.0759  0.4371 -0.3947
   78SLPC   H6R 7129   5.483   1.054   7.138  0.1148  0.3254 -0.0564
   78SLPC   H6S 7130   5.598   0.922   7.125  1.4373  0.6077  2.0956
   78SLPC   C27 7131   5.643   1.068   6.977  0.0064 -0.5938 -0.1956
   78SLPC   H7R 7132   5.731   1.006   6.952 -0.9612 -1.2959 -2.0512
   78SLPC   H7S 7133   5.681   1.173   6.979 -0.1899 -0.5230 -0.0677
   78SLPC   C28 7134   5.531   1.055   6.862 -0.0007  0.0389 -0.0396
   78SLPC   H8R 7135   5.444   1.119   6.888 -0.3911 -0.3662 -0.3363
   78SLPC   H8S 7136   5.481   0.956   6.874  1.1483 -0.9357 -2.5776
   78SLPC   C29 7137   5.581   1.084   6.721  0.2066 -0.6264  0.7675
   78SLPC   H9R 7138   5.550   1.181   6.679 -0.2627 -1.4030 -0.7491
   78SLPC  C210 7139   5.643   1.000   6.636  0.7252  0.5267 -0.4379
   78SLPC  H10R 7140   5.668   1.031   6.534  1.5794  0.1938 -0.3351
   78SLPC  C211 7141   5.693   0.858   6.666 -0.3355 -0.6987  0.1096
   78SLPC  H11R 7142   5.641   0.817   6.755 -2.1962 -0.2995 -0.7378
   78SLPC  H11S 7143   5.797   0.858   6.704 -0.4110  1.0098  0.4197
   78SLPC  C212 7144   5.667   0.764   6.547  0.4945  0.5285  0.7159
   78SLPC  H12R 7145   5.560   0.739   6.534  0.7872 -0.8926  0.8923
   78SLPC  C213 7146   5.754   0.713   6.461 -0.0960  0.3280 -0.2328
   78SLPC  H13R 7147   5.718   0.628   6.401 -1.8882  0.1581  1.0304
   78SLPC  C214 7148   5.905   0.744   6.463  0.2027 -0.0366 -0.3570
   78SLPC  H14R 7149   5.956   0.648   6.488 -2.3304 -1.7608 -1.3807
   78SLPC  H14S 7150   5.927   0.822   6.539  1.4774 -1.4617  0.8072
   78SLPC  C215 7151   5.959   0.783   6.325 -0.2302 -0.1219 -1.0068
   78SLPC  H15R 7152   5.928   0.890   6.318 -1.0787 -0.2462  0.3889
   78SLPC  H15S 7153   5.916   0.722   6.243 -0.0797 -0.7922 -0.5959
   78SLPC  C216 7154   6.116   0.773   6.318 -0.6401  0.2065 -0.0102
   78SLPC  H16R 7155   6.140   0.666   6.303 -1.3054  0.1067 -0.4220
   78SLPC  H16S 7156   6.166   0.797   6.414 -0.5280 -0.3937  0.0854
   78SLPC  C217 7157   6.174   0.853   6.204  0.2051  0.7265  0.0993
   78SLPC  H17R 7158   6.142   0.800   6.112 -0.7405  0.7314  0.4159
   78SLPC  H17S 7159   6.282   0.834   6.187 -0.2069  0.2595 -2.4230
   78SLPC  C218 7160   6.156   1.011   6.204 -0.1323  0.2290  0.0673
   78SLPC  H18R 7161   6.178   1.064   6.299  0.2851  1.6608 -0.8014
   78SLPC  H18S 7162   6.050   1.028   6.173 -0.0173 -0.9018 -1.0134
   78SLPC  H18T 7163   6.219   1.063   6.130 -0.7146 -0.7626 -1.1657
   78SLPC   C33 7164   5.186   0.916   7.375 -0.7931 -0.1712  0.5681
   78SLPC   H3X 7165   5.207   0.807   7.366  0.6063 -0.2601  3.8665
   78SLPC   H3Y 7166   5.277   0.974   7.348 -1.1959  1.3474  2.2763
   78SLPC   C34 7167   5.060   0.957   7.300  0.6235 -0.2278 -0.5885
   78SLPC   H4X 7168   4.999   1.020   7.369 -1.3907 -1.7131 -0.9247
   78SLPC   H4Y 7169   4.993   0.877   7.263 -0.3122 -0.3773  1.3312
   78SLPC   C35 7170   5.092   1.052   7.192 -0.7214 -0.3458 -0.1637
   78SLPC   H5X 7171   5.157   1.139   7.217 -0.2955 -0.4702 -0.8267
   78SLPC   H5Y 7172   5.002   1.105   7.154  0.4668  1.1237 -1.0472
   78SLPC   C36 7173   5.154   0.983   7.073  0.2307  0.2564 -0.5510
   78SLPC   H6X 7174   5.096   0.889   7.065  2.8437 -1.4208 -0.7969
   78SLPC   H6Y 7175   5.258   0.950   7.090  0.4492  0.7425 -0.9261
   78SLPC   C37 7176   5.139   1.061   6.944  1.0638  0.5953  0.0458
   78SLPC   H7X 7177   5.209   1.147   6.947 -0.0710  1.5363  0.5791
   78SLPC   H7Y 7178   5.038   1.104   6.928 -0.0594 -1.6257  0.7324
   78SLPC   C38 7179   5.188   0.975   6.827  0.4027  0.2154  0.1236
   78SLPC   H8X 7180   5.118   0.891   6.805 -0.0170  0.6144 -0.0765
   78SLPC   H8Y 7181   5.288   0.930   6.844  0.2441  0.0943  0.7647
   78SLPC   C39 7182   5.202   1.050   6.697 -0.2336 -0.4840  0.7446
   78SLPC   H9X 7183   5.283   1.120   6.725  0.9442 -2.5380  2.7696
   78SLPC   H9Y 7184   5.105   1.099   6.673  1.3265  1.7015 -1.6003
   78SLPC  C310 7185   5.265   0.973   6.569  0.2497 -1.1377  0.1687
   78SLPC  H10X 7186   5.194   0.891   6.544 -2.3270  1.7230 -2.8930
   78SLPC  H10Y 7187   5.361   0.922   6.587  0.4352 -1.4859 -1.6882
   78SLPC  C311 7188   5.279   1.069   6.448  0.3977 -0.6455  0.6111
   78SLPC  H11X 7189   5.376   1.123   6.457  1.1775 -1.8754 -0.1701
   78SLPC  H11Y 7190   5.200   1.147   6.448  1.2763  0.2925 -0.5822
   78SLPC  C312 7191   5.278   1.019   6.308 -0.2659  0.0440  0.0870
   78SLPC  H12X 7192   5.318   0.916   6.321  1.2132  0.4011 -1.3048
   78SLPC  H12Y 7193   5.362   1.070   6.257  1.1917 -2.6927 -0.4843
   78SLPC  C313 7194   5.151   1.031   6.226 -0.3009  0.3312 -0.3526
   78SLPC  H13X 7195   5.180   1.035   6.119 -1.2636  1.3386 -0.5858
   78SLPC  H13Y 7196   5.116   1.135   6.236  0.7172  0.6161  0.5111
   78SLPC  C314 7197   5.051   0.933   6.258  0.3928 -0.4129  1.1175
   78SLPC  H14X 7198   5.003   0.966   6.352 -1.4729 -2.6221  1.0095
   78SLPC  H14Y 7199   5.089   0.830   6.271  1.0789 -0.1576  1.2066
   78SLPC  C315 7200   4.928   0.944   6.165  0.2614 -0.3085 -0.1840
   78SLPC  H15X 7201   4.967   0.937   6.062 -1.2501  0.6582 -0.8577
   78SLPC  H15Y 7202   4.900   1.051   6.175  2.1231  0.0781  1.5733
   78SLPC  C316 7203   4.819   0.841   6.208  0.3772  0.2107 -0.2409
   78SLPC  H16X 7204   4.851   0.736   6.190  0.8556  0.3502 -0.1992
   78SLPC  H16Y 7205   4.733   0.873   6.145  1.2584  2.7513 -0.2875
   78SLPC  C317 7206   4.776   0.854   6.358  0.6465  0.9336 -0.7600
   78SLPC  H17X 7207   4.666   0.849   6.367  0.5698 -0.4082 -2.0923
   78SLPC  H17Y 7208   4.801   0.961   6.375 -1.9112  1.7384 -1.6112
   78SLPC  C318 7209   4.848   0.759   6.446 -0.8961  0.2176 -0.2580
   78SLPC  H18X 7210   4.879   0.680   6.375  0.8138 -0.0015  0.6821
   78SLPC  H18Y 7211   4.787   0.723   6.532 -0.5683  2.2744  0.9004
   78SLPC  H18Z 7212   4.941   0.805   6.487 -0.4620  1.5183 -2.5481
   79SLPC     N 7213   4.759   1.434   8.683  0.0045 -0.1115 -0.6363
   79SLPC   C13 7214   4.639   1.373   8.749 -0.1311 -0.2655 -0.2235
   79SLPC  H13A 7215   4.556   1.441   8.755 -1.4614 -1.6981 -1.2739
   79SLPC  H13B 7216   4.599   1.290   8.692 -0.0471 -1.2580  1.1181
   79SLPC  H13C 7217   4.675   1.338   8.844  1.6521  1.2136 -0.2986
   79SLPC   C14 7218   4.867   1.329   8.690 -0.1291 -0.6660  0.0334
   79SLPC  H14A 7219   4.839   1.251   8.620 -2.9691  0.9229 -0.8153
   79SLPC  H14B 7220   4.964   1.371   8.671 -0.1765 -1.1443 -1.4137
   79SLPC  H14C 7221   4.875   1.291   8.790  1.5520  0.8400  0.5051
   79SLPC   C15 7222   4.793   1.555   8.766 -0.0386  0.8237  0.4064
   79SLPC  H15A 7223   4.799   1.531   8.871 -0.7202  2.4978  0.8557
   79SLPC  H15B 7224   4.889   1.597   8.742 -0.1226 -0.0154 -1.5817
   79SLPC  H15C 7225   4.725   1.639   8.765 -1.2530 -0.1199 -1.2681
   79SLPC   C12 7226   4.725   1.480   8.537  0.1400 -0.4556  0.0651
   79SLPC  H12A 7227   4.815   1.527   8.500 -1.2703  1.4620 -1.1245
   79SLPC  H12B 7228   4.642   1.550   8.535  0.8861  0.4745 -2.0682
   79SLPC   C11 7229   4.688   1.364   8.437 -0.4316  0.2177  0.2473
   79SLPC  H11A 7230   4.781   1.305   8.424 -0.8984 -0.3145 -0.7679
   79SLPC  H11B 7231   4.673   1.412   8.338  1.9296 -0.9192 -0.7321
   79SLPC     P 7232   4.423   1.290   8.434 -0.6625 -0.0601  0.2246
   79SLPC   O13 7233   4.352   1.186   8.513  0.2595  0.0160  0.2862
   79SLPC   O14 7234   4.383   1.425   8.452  0.1266  0.5448  0.0517
   79SLPC   O12 7235   4.576   1.280   8.478 -0.2222 -0.3682  0.0512
   79SLPC   O11 7236   4.416   1.247   8.282  0.3688 -0.1418  0.9419
   79SLPC    C1 7237   4.426   1.111   8.236  0.2480  0.3277 -0.7434
   79SLPC    HA 7238   4.531   1.076   8.244  0.1530 -0.5828 -2.8704
   79SLPC    HB 7239   4.366   1.035   8.291  1.4915 -0.9461 -1.0810
   79SLPC    C2 7240   4.411   1.098   8.087  0.8274  0.5536  0.3498
   79SLPC    HS 7241   4.417   0.990   8.059 -3.5315 -0.2961  1.8724
   79SLPC   O21 7242   4.499   1.179   8.012 -0.5027 -0.0284 -0.5824
   79SLPC   C21 7243   4.627   1.154   8.015  0.3451 -0.0616  0.1938
   79SLPC   O22 7244   4.686   1.061   8.066  0.0333  0.5090  0.2162
   79SLPC   C22 7245   4.712   1.261   7.947  0.5367 -0.2141  0.4387
   79SLPC   H2R 7246   4.646   1.337   7.900  2.0105 -0.3824 -2.0912
   79SLPC   H2S 7247   4.790   1.296   8.017  0.1946 -1.2622  1.3666
   79SLPC    C3 7248   4.265   1.123   8.043  0.3998 -0.0303  0.2503
   79SLPC    HX 7249   4.254   1.228   8.077 -0.7738  0.5460 -1.6878
   79SLPC    HY 7250   4.186   1.054   8.080 -0.7495 -1.2490 -3.8532
   79SLPC   O31 7251   4.261   1.102   7.901  0.1161  0.7010 -0.0318
   79SLPC   C31 7252   4.271   1.215   7.826 -0.3021  0.2739 -0.2976
   79SLPC   O32 7253   4.276   1.325   7.880 -0.3967 -0.1093 -0.6315
   79SLPC   C32 7254   4.247   1.189   7.678  0.2258  0.5699 -0.2026
   79SLPC   H2X 7255   4.206   1.086   7.679 -3.3119  1.8246  0.1917
   79SLPC   H2Y 7256   4.346   1.204   7.630 -0.4914  1.0084 -1.5974
   79SLPC   C23 7257   4.796   1.201   7.829  0.0469  0.5867  0.4971
   79SLPC   H3R 7258   4.835   1.098   7.850  0.6859  0.6240 -0.4415
   79SLPC   H3S 7259   4.875   1.277   7.811  0.8555 -0.2006  0.6012
   79SLPC   C24 7260   4.721   1.204   7.693  0.0605  0.0016  0.1917
   79SLPC   H4R 7261   4.791   1.217   7.608 -1.4369  1.6464 -0.8683
   79SLPC   H4S 7262   4.640   1.281   7.694  0.0922  0.0369  0.0372
   79SLPC   C25 7263   4.647   1.071   7.665  0.0226 -0.2566  0.8039
   79SLPC   H5R 7264   4.580   1.052   7.751  0.1797 -0.8392  0.8016
   79SLPC   H5S 7265   4.719   0.987   7.669  0.6459  0.1350 -1.0756
   79SLPC   C26 7266   4.578   1.067   7.531  0.0990  0.3998  0.4534
   79SLPC   H6R 7267   4.526   1.163   7.507  1.9369  1.7361  1.4952
   79SLPC   H6S 7268   4.501   0.989   7.542  1.0583 -1.0943 -2.4406
   79SLPC   C27 7269   4.670   1.014   7.424 -0.0564 -0.3367  0.8683
   79SLPC   H7R 7270   4.698   0.908   7.436  0.8779  0.0499  2.3017
   79SLPC   H7S 7271   4.763   1.072   7.444 -0.8105  0.9325  0.8471
   79SLPC   C28 7272   4.607   1.034   7.279  0.2149  0.0852 -0.4363
   79SLPC   H8R 7273   4.594   1.141   7.251  0.2885 -0.8670 -4.7665
   79SLPC   H8S 7274   4.502   0.998   7.275  1.0509 -2.6092 -0.3791
   79SLPC   C29 7275   4.691   0.966   7.175  0.2047  0.0091  0.3859
   79SLPC   H9R 7276   4.708   0.859   7.188 -0.7480 -0.3852 -1.2327
   79SLPC  C210 7277   4.744   1.031   7.070 -0.1374  0.6921 -0.2926
   79SLPC  H10R 7278   4.822   0.967   7.025 -0.1340  0.1069  0.5226
   79SLPC  C211 7279   4.732   1.169   7.017  0.8383  0.5872 -0.7136
   79SLPC  H11R 7280   4.814   1.184   6.944  2.7435 -4.0879  0.1281
   79SLPC  H11S 7281   4.751   1.239   7.102 -3.0462  1.7802 -0.6244
   79SLPC  C212 7282   4.588   1.207   6.961  0.0754  0.0722 -0.2314
   79SLPC  H12R 7283   4.507   1.213   7.036  1.6559 -1.5115  1.7247
   79SLPC  C213 7284   4.555   1.204   6.827  0.6702 -0.3291  0.4742
   79SLPC  H13R 7285   4.449   1.217   6.798  1.3013  3.4082 -0.7168
   79SLPC  C214 7286   4.640   1.178   6.707  0.2501 -0.3383  0.4897
   79SLPC  H14R 7287   4.607   1.084   6.658  0.7314 -0.4637  0.3953
   79SLPC  H14S 7288   4.744   1.149   6.734  0.6408 -0.2950 -0.9060
   79SLPC  C215 7289   4.647   1.277   6.596  0.3669 -0.3414 -0.5729
   79SLPC  H15R 7290   4.684   1.376   6.632 -0.7589  0.6835 -2.0842
   79SLPC  H15S 7291   4.542   1.295   6.564 -1.1658 -0.2653  3.7847
   79SLPC  C216 7292   4.741   1.242   6.476  0.1887 -0.3383  0.0935
   79SLPC  H16R 7293   4.714   1.136   6.458  0.4708 -0.4607  0.3853
   79SLPC  H16S 7294   4.850   1.239   6.501  0.3525  0.9289 -0.4190
   79SLPC  C217 7295   4.730   1.322   6.347  0.8491  0.5477 -0.1670
   79SLPC  H17R 7296   4.629   1.306   6.303  0.7708  0.2763  0.1028
   79SLPC  H17S 7297   4.808   1.296   6.273  0.8835  1.8587 -0.6151
   79SLPC  C218 7298   4.745   1.470   6.379 -0.1919  0.9338 -0.1877
   79SLPC  H18R 7299   4.672   1.502   6.457 -1.0305  0.1096 -0.6175
   79SLPC  H18S 7300   4.730   1.535   6.290 -0.0475  1.5538  0.2348
   79SLPC  H18T 7301   4.844   1.483   6.428  0.6101 -2.4486 -0.6566
   79SLPC   C33 7302   4.149   1.292   7.618  0.2077 -0.3930 -0.3766
   79SLPC   H3X 7303   4.193   1.387   7.654  1.8846 -1.6833  1.1949
   79SLPC   H3Y 7304   4.051   1.268   7.666 -0.6189  1.1758 -1.2123
   79SLPC   C34 7305   4.133   1.287   7.465  0.4805 -0.4227  0.1653
   79SLPC   H4X 7306   4.234   1.299   7.420  0.1155  1.1689 -0.2680
   79SLPC   H4Y 7307   4.076   1.373   7.424  1.8698  1.8113  2.5807
   79SLPC   C35 7308   4.091   1.149   7.422  0.1636  0.0011 -0.3726
   79SLPC   H5X 7309   4.006   1.102   7.476  0.8419 -2.0591 -1.0001
   79SLPC   H5Y 7310   4.179   1.082   7.431 -0.0133  0.0736  3.6258
   79SLPC   C36 7311   4.052   1.157   7.274 -0.3231  0.1516 -0.2892
   79SLPC   H6X 7312   4.005   1.254   7.251  0.2539  0.3713 -0.5777
   79SLPC   H6Y 7313   3.974   1.080   7.253 -0.8280  0.9355 -1.3746
   79SLPC   C37 7314   4.168   1.131   7.171 -0.1859 -0.6905  0.0173
   79SLPC   H7X 7315   4.203   1.026   7.182  0.7663 -0.6484 -2.1653
   79SLPC   H7Y 7316   4.261   1.191   7.175  1.0446 -2.5734  2.1702
   79SLPC   C38 7317   4.114   1.140   7.028 -0.8735  0.5365 -1.0321
   79SLPC   H8X 7318   4.115   1.248   7.005 -0.7939  0.8556  0.3982
   79SLPC   H8Y 7319   4.010   1.100   7.029 -0.7557  0.2205  0.0563
   79SLPC   C39 7320   4.213   1.065   6.937  0.8053 -0.6318  0.0503
   79SLPC   H9X 7321   4.203   0.955   6.956 -3.7288 -0.4124  0.1350
   79SLPC   H9Y 7322   4.319   1.092   6.956  1.8664 -3.2849 -1.4883
   79SLPC  C310 7323   4.177   1.090   6.791 -1.3519 -0.0538 -0.0142
   79SLPC  H10X 7324   4.207   1.197   6.788 -1.0020  0.1268  4.4071
   79SLPC  H10Y 7325   4.069   1.091   6.761 -0.7737  1.9280 -2.3484
   79SLPC  C311 7326   4.257   0.999   6.694  0.6322 -0.1353 -0.1264
   79SLPC  H11X 7327   4.202   0.902   6.686  2.2810 -1.0254 -1.4611
   79SLPC  H11Y 7328   4.354   0.967   6.737  0.0260 -3.0196 -0.6931
   79SLPC  C312 7329   4.278   1.060   6.559  0.3666 -0.0122  0.9042
   79SLPC  H12X 7330   4.325   0.986   6.491 -0.5379 -0.8788  1.1967
   79SLPC  H12Y 7331   4.353   1.142   6.565 -0.1398  0.4174  1.5642
   79SLPC  C313 7332   4.155   1.111   6.496 -0.2253  0.5028 -0.2295
   79SLPC  H13X 7333   4.090   1.165   6.568  0.4804 -0.2363  1.0142
   79SLPC  H13Y 7334   4.098   1.022   6.460  0.6909 -0.7014  1.1600
   79SLPC  C314 7335   4.183   1.209   6.384 -0.6869 -0.5433  0.6649
   79SLPC  H14X 7336   4.247   1.297   6.409 -1.7655  1.6848 -3.4612
   79SLPC  H14Y 7337   4.082   1.251   6.367 -1.2120 -2.0560 -0.0983
   79SLPC  C315 7338   4.226   1.148   6.246 -0.5728  0.0448  0.8787
   79SLPC  H15X 7339   4.147   1.080   6.207  0.4306 -0.6157 -0.0822
   79SLPC  H15Y 7340   4.309   1.082   6.281  0.8162  1.7883  0.9848
   79SLPC  C316 7341   4.266   1.252   6.143 -0.1437  0.1105 -0.1893
   79SLPC  H16X 7342   4.315   1.331   6.204 -0.0327  0.3378 -0.5735
   79SLPC  H16Y 7343   4.179   1.306   6.100 -0.3511 -0.1097 -0.0492
   79SLPC  C317 7344   4.356   1.194   6.035  0.4139  0.7506 -0.1163
   79SLPC  H17X 7345   4.280   1.130   5.983 -2.6239  2.3763  2.0044
   79SLPC  H17Y 7346   4.436   1.130   6.079 -0.9913 -2.4647 -1.8158
   79SLPC  C318 7347   4.407   1.295   5.934 -0.9365 -0.0817  0.1806
   79SLPC  H18X 7348   4.475   1.373   5.974 -0.0877  0.7287 -2.6470
   79SLPC  H18Y 7349   4.317   1.351   5.900 -0.8263  0.5206  0.8458
   79SLPC  H18Z 7350   4.458   1.241   5.851  0.5694  0.1603  0.9107
   80SLPC     N 7351   2.858   6.285   8.352 -0.2678  0.8745  0.3093
   80SLPC   C13 7352   2.940   6.353   8.245 -0.1705  0.4372 -0.7034
   80SLPC  H13A 7353   2.956   6.459   8.263 -1.4023  0.4985  0.1280
   80SLPC  H13B 7354   3.038   6.307   8.242 -1.2324 -1.9830 -0.3544
   80SLPC  H13C 7355   2.898   6.342   8.146  1.0524  2.5280 -1.5312
   80SLPC   C14 7356   2.737   6.357   8.396 -0.2406  0.4013 -0.0627
   80SLPC  H14A 7357   2.691   6.296   8.472 -0.0619 -0.1384 -0.3805
   80SLPC  H14B 7358   2.754   6.454   8.441 -0.0160 -0.1903  1.1557
   80SLPC  H14C 7359   2.667   6.370   8.315 -2.1732  0.2936  1.5132
   80SLPC   C15 7360   2.939   6.273   8.477 -0.0485 -0.5540 -0.1247
   80SLPC  H15A 7361   2.979   6.367   8.511  1.7174 -1.0538 -0.6910
   80SLPC  H15B 7362   2.882   6.226   8.556 -0.1152 -0.7063 -0.2627
   80SLPC  H15C 7363   3.020   6.201   8.466  0.8228  0.5104 -0.8714
   80SLPC   C12 7364   2.816   6.143   8.305  0.4082  0.0502  0.1309
   80SLPC  H12A 7365   2.746   6.102   8.377  0.9322 -1.1353 -0.0113
   80SLPC  H12B 7366   2.897   6.073   8.291 -3.2688 -4.4069 -1.5401
   80SLPC   C11 7367   2.744   6.149   8.165 -0.1484  0.3293  0.0162
   80SLPC  H11A 7368   2.729   6.040   8.148  1.0086 -0.0486  1.2333
   80SLPC  H11B 7369   2.804   6.189   8.081 -1.1253  0.4535 -0.6275
   80SLPC     P 7370   2.489   6.170   8.097 -0.0645  0.5335 -0.2288
   80SLPC   O13 7371   2.472   6.030   8.138 -0.6213  0.0183 -0.9809
   80SLPC   O14 7372   2.371   6.264   8.121 -0.3381 -0.0798 -0.5016
   80SLPC   O12 7373   2.620   6.218   8.176 -0.3233 -0.0640  0.5661
   80SLPC   O11 7374   2.530   6.172   7.947 -0.2440  0.2583 -0.0514
   80SLPC    C1 7375   2.576   6.291   7.878  0.0111 -0.5500 -0.3552
   80SLPC    HA 7376   2.491   6.362   7.880 -0.9207 -1.6381  0.4130
   80SLPC    HB 7377   2.661   6.340   7.930  0.1686 -0.8444 -0.3337
   80SLPC    C2 7378   2.621   6.262   7.734 -0.5211  0.1628  0.4458
   80SLPC    HS 7379   2.629   6.359   7.682  0.5377  1.8241  3.4440
   80SLPC   O21 7380   2.522   6.166   7.673  0.0945  0.7925  0.7136
   80SLPC   C21 7381   2.408   6.223   7.642 -0.0532  0.1697  0.6641
   80SLPC   O22 7382   2.386   6.340   7.627  0.6001 -0.2517  0.2721
   80SLPC   C22 7383   2.303   6.114   7.628  0.5396 -0.4941  0.0110
   80SLPC   H2R 7384   2.352   6.017   7.608 -2.5967 -1.9941 -1.0964
   80SLPC   H2S 7385   2.246   6.106   7.724  3.2720  3.3171  2.2429
   80SLPC    C3 7386   2.768   6.192   7.726  0.2827 -0.0306 -0.1903
   80SLPC    HX 7387   2.746   6.090   7.765 -0.6455  0.1037 -0.3555
   80SLPC    HY 7388   2.833   6.253   7.792 -2.2597  0.4917  2.0059
   80SLPC   O31 7389   2.805   6.190   7.583 -0.3709  0.0296 -0.3583
   80SLPC   C31 7390   2.934   6.164   7.565  0.0903 -0.1765  0.0223
   80SLPC   O32 7391   3.013   6.132   7.655 -0.4647  0.0739  0.8589
   80SLPC   C32 7392   2.974   6.176   7.420 -0.5216 -0.0822 -0.4486
   80SLPC   H2X 7393   3.081   6.203   7.430 -0.9765  2.0954 -0.9485
   80SLPC   H2Y 7394   2.923   6.264   7.375 -1.0692 -0.1398  0.0559
   80SLPC   C23 7395   2.200   6.142   7.508  0.0322  1.0564 -0.5431
   80SLPC   H3R 7396   2.149   6.240   7.520 -0.1827  0.9675 -0.7282
   80SLPC   H3S 7397   2.133   6.054   7.509  0.8045  0.4184  1.8284
   80SLPC   C24 7398   2.263   6.146   7.369 -0.6380 -0.1788  0.7027
   80SLPC   H4R 7399   2.313   6.054   7.332 -0.0099  0.9485 -1.4145
   80SLPC   H4S 7400   2.339   6.227   7.374 -1.3143  0.4540  0.8438
   80SLPC   C25 7401   2.153   6.191   7.266 -0.3808  0.1131  0.2516
   80SLPC   H5R 7402   2.102   6.276   7.315 -2.1485 -2.1392  2.6003
   80SLPC   H5S 7403   2.099   6.096   7.246  1.6143 -0.7212 -1.6863
   80SLPC   C26 7404   2.217   6.236   7.139 -0.3476 -0.6051 -0.8338
   80SLPC   H6R 7405   2.286   6.161   7.094  0.4709  1.0263 -2.4137
   80SLPC   H6S 7406   2.276   6.330   7.147  1.1296 -1.3466 -2.3586
   80SLPC   C27 7407   2.120   6.263   7.026  0.2031  0.2137 -0.4563
   80SLPC   H7R 7408   2.034   6.315   7.074 -1.4720 -0.6512 -2.3611
   80SLPC   H7S 7409   2.087   6.167   6.981 -0.1654  0.6227 -1.0700
   80SLPC   C28 7410   2.186   6.335   6.912 -0.7309 -0.6641  0.3451
   80SLPC   H8R 7411   2.276   6.280   6.878 -1.1423 -1.2993  0.2519
   80SLPC   H8S 7412   2.226   6.429   6.955  1.4303 -1.0091 -0.8005
   80SLPC   C29 7413   2.091   6.374   6.803 -0.6561  0.2264 -0.2249
   80SLPC   H9R 7414   1.987   6.374   6.841 -0.4972  0.2627  0.2240
   80SLPC  C210 7415   2.124   6.384   6.677 -0.3089 -0.2653 -0.4626
   80SLPC  H10R 7416   2.047   6.410   6.602 -1.8247  2.0971  1.7383
   80SLPC  C211 7417   2.266   6.380   6.614  0.0605 -0.2423  0.4053
   80SLPC  H11R 7418   2.259   6.328   6.517 -0.7477 -1.4276  1.0716
   80SLPC  H11S 7419   2.344   6.327   6.673 -1.0350 -1.3823  0.8622
   80SLPC  C212 7420   2.302   6.520   6.587 -0.0487 -0.0632 -0.1062
   80SLPC  H12R 7421   2.263   6.593   6.659  0.6104 -0.6046  0.8322
   80SLPC  C213 7422   2.380   6.568   6.486 -0.1057 -0.2802  0.2508
   80SLPC  H13R 7423   2.401   6.676   6.482 -1.1796 -0.0429  0.6680
   80SLPC  C214 7424   2.451   6.475   6.390 -0.0646 -0.8291 -0.0034
   80SLPC  H14R 7425   2.463   6.374   6.435 -1.4671 -1.2133 -0.4357
   80SLPC  H14S 7426   2.553   6.510   6.363  0.8224 -3.1553  0.0680
   80SLPC  C215 7427   2.380   6.452   6.255  0.5888 -0.4614 -0.4022
   80SLPC  H15R 7428   2.370   6.552   6.208 -1.3902  0.5924  2.0544
   80SLPC  H15S 7429   2.282   6.403   6.271 -0.0626  0.7598 -0.5437
   80SLPC  C216 7430   2.460   6.367   6.158  0.2108 -0.3387  0.0585
   80SLPC  H16R 7431   2.494   6.279   6.215  0.1730  0.0914  0.7599
   80SLPC  H16S 7432   2.556   6.411   6.123  1.0068 -3.9603 -2.8655
   80SLPC  C217 7433   2.384   6.331   6.031 -0.3202  0.0500  0.0823
   80SLPC  H17R 7434   2.338   6.422   5.988 -0.3594  0.1415  0.3182
   80SLPC  H17S 7435   2.301   6.260   6.051  0.5814 -0.9563  0.3334
   80SLPC  C218 7436   2.469   6.256   5.924  0.1696  0.8526 -0.0514
   80SLPC  H18R 7437   2.561   6.313   5.897 -0.2270  1.0213 -1.1141
   80SLPC  H18S 7438   2.409   6.245   5.831  2.4322 -0.2821 -1.4824
   80SLPC  H18T 7439   2.493   6.152   5.953 -0.5078  1.4912  3.1105
   80SLPC   C33 7440   2.942   6.047   7.342  0.3185 -0.1199 -0.2884
   80SLPC   H3X 7441   2.964   5.958   7.406  1.2975  1.9242  2.3954
   80SLPC   H3Y 7442   3.009   6.041   7.254 -0.1954  0.0756 -0.6988
   80SLPC   C34 7443   2.794   6.027   7.279  0.2700 -1.1045  0.5034
   80SLPC   H4X 7444   2.731   6.054   7.366  0.0747 -1.7412  0.5626
   80SLPC   H4Y 7445   2.789   5.920   7.249 -0.0842 -1.1308  0.6588
   80SLPC   C35 7446   2.772   6.128   7.167 -0.2376  1.4140 -0.0405
   80SLPC   H5X 7447   2.859   6.115   7.098  0.4103  0.2264  0.9448
   80SLPC   H5Y 7448   2.785   6.236   7.191  2.4170  1.5798 -1.7675
   80SLPC   C36 7449   2.641   6.109   7.087 -0.4662 -0.1212  0.0765
   80SLPC   H6X 7450   2.601   6.208   7.057  1.1896  0.5721  0.0285
   80SLPC   H6Y 7451   2.561   6.073   7.154  1.1378 -0.6957  1.7798
   80SLPC   C37 7452   2.662   6.014   6.970  0.3119  0.6739 -0.2426
   80SLPC   H7X 7453   2.710   5.926   7.019 -1.3293  0.2236  0.6185
   80SLPC   H7Y 7454   2.735   6.057   6.899  1.9039 -0.7387  0.4604
   80SLPC   C38 7455   2.537   5.968   6.896 -0.3764 -0.0231  0.6908
   80SLPC   H8X 7456   2.466   5.919   6.966 -0.7618 -1.4051 -0.6048
   80SLPC   H8Y 7457   2.567   5.900   6.813  0.4388 -0.9185  1.6801
   80SLPC   C39 7458   2.453   6.082   6.835  0.3110  0.0287  0.7371
   80SLPC   H9X 7459   2.517   6.133   6.761 -0.6647  0.2470  0.0183
   80SLPC   H9Y 7460   2.422   6.155   6.914 -2.9819 -0.3930 -0.0054
   80SLPC  C310 7461   2.324   6.018   6.774  0.0559 -0.2163 -0.5471
   80SLPC  H10X 7462   2.255   6.101   6.749 -2.0770 -1.3362  1.3334
   80SLPC  H10Y 7463   2.281   5.962   6.859  1.5569 -2.8305 -1.3912
   80SLPC  C311 7464   2.335   5.936   6.641 -0.4546  0.3269 -0.8292
   80SLPC  H11X 7465   2.232   5.902   6.618 -0.8369 -0.2995  1.5242
   80SLPC  H11Y 7466   2.406   5.851   6.648 -1.9063 -1.0528 -2.0536
   80SLPC  C312 7467   2.383   6.024   6.522  0.3152 -1.1864 -0.3880
   80SLPC  H12X 7468   2.472   6.086   6.547 -1.5557  1.5322 -0.0808
   80SLPC  H12Y 7469   2.310   6.103   6.494  0.3625 -0.9028  0.2855
   80SLPC  C313 7470   2.396   5.941   6.392 -0.1643  0.4271  0.4832
   80SLPC  H13X 7471   2.365   6.004   6.306 -1.4583 -0.8501 -0.0321
   80SLPC  H13Y 7472   2.324   5.858   6.407  0.2291  0.2463  1.4672
   80SLPC  C314 7473   2.536   5.891   6.366  0.8153  0.5159 -0.3383
   80SLPC  H14X 7474   2.572   5.836   6.456  1.0230  0.1442 -0.6498
   80SLPC  H14Y 7475   2.602   5.980   6.364 -0.5516  1.5606 -2.9408
   80SLPC  C315 7476   2.565   5.820   6.236 -0.2194  0.3266  0.2246
   80SLPC  H15X 7477   2.536   5.714   6.253 -0.9705  0.8780  2.9314
   80SLPC  H15Y 7478   2.673   5.823   6.209 -0.3211  0.7836 -0.1445
   80SLPC  C316 7479   2.483   5.866   6.112 -0.8189 -0.9817  0.2854
   80SLPC  H16X 7480   2.512   5.973   6.099  1.5265 -1.5376  0.4353
   80SLPC  H16Y 7481   2.374   5.866   6.131 -0.7116 -2.6253  1.0520
   80SLPC  C317 7482   2.507   5.774   5.983  0.0695 -0.5788 -0.1639
   80SLPC  H17X 7483   2.617   5.759   5.975  0.1918  0.4718 -0.6234
   80SLPC  H17Y 7484   2.465   5.833   5.898 -2.4573 -1.6351  0.2624
   80SLPC  C318 7485   2.444   5.639   6.001  0.3145  0.9735 -0.0771
   80SLPC  H18X 7486   2.505   5.574   6.068  1.1923  1.1535 -0.6779
   80SLPC  H18Y 7487   2.435   5.589   5.902 -1.5822  0.4224  0.3380
   80SLPC  H18Z 7488   2.342   5.657   6.040  0.1486  3.0754 -1.3511
   81SLPC     N 7489   1.200   4.580   3.334  0.1636  0.2920 -0.0955
   81SLPC   C13 7490   1.255   4.688   3.240  0.1040  0.7353  0.4540
   81SLPC  H13A 7491   1.283   4.643   3.146 -0.1921 -1.2479  1.2678
   81SLPC  H13B 7492   1.173   4.756   3.228 -1.5584 -1.0695  1.1592
   81SLPC  H13C 7493   1.346   4.731   3.279  0.7627 -1.6149  1.6828
   81SLPC   C14 7494   1.311   4.482   3.355 -0.4189 -0.2770  1.0721
   81SLPC  H14A 7495   1.347   4.432   3.266 -1.8660  0.3470  0.0962
   81SLPC  H14B 7496   1.395   4.545   3.379 -0.2742  0.8783 -1.9774
   81SLPC  H14C 7497   1.289   4.411   3.432 -0.2354 -1.3397  0.1727
   81SLPC   C15 7498   1.092   4.505   3.260 -0.1770  0.5535 -0.5648
   81SLPC  H15A 7499   0.997   4.555   3.249 -1.0033 -0.8277  0.0324
   81SLPC  H15B 7500   1.128   4.468   3.165 -1.6803  0.0914 -0.9733
   81SLPC  H15C 7501   1.067   4.420   3.321  0.0648  2.0851  1.7897
   81SLPC   C12 7502   1.152   4.637   3.464  0.8669  0.1031 -0.2302
   81SLPC  H12A 7503   1.072   4.708   3.447 -0.1971 -0.9731  0.1807
   81SLPC  H12B 7504   1.241   4.684   3.503  0.2303  0.4716  0.8246
   81SLPC   C11 7505   1.097   4.540   3.568 -0.4846 -0.5701 -0.7333
   81SLPC  H11A 7506   1.091   4.602   3.660  0.7218  0.5200 -1.3413
   81SLPC  H11B 7507   1.175   4.468   3.600  0.2660  1.0687  1.3836
   81SLPC     P 7508   0.833   4.491   3.582  0.5360 -0.0676 -0.0351
   81SLPC   O13 7509   0.776   4.611   3.517 -1.0627 -0.1783 -0.8949
   81SLPC   O14 7510   0.756   4.359   3.576 -0.9970 -0.0149 -0.7821
   81SLPC   O12 7511   0.976   4.474   3.527 -0.5181  0.0300 -0.9703
   81SLPC   O11 7512   0.853   4.533   3.734  0.3315 -0.1996  0.5267
   81SLPC    C1 7513   0.887   4.436   3.833 -0.2005  0.5405  0.3372
   81SLPC    HA 7514   0.807   4.360   3.826  1.4870 -1.1768 -1.7651
   81SLPC    HB 7515   0.988   4.394   3.814 -1.0882 -1.8098  0.5576
   81SLPC    C2 7516   0.880   4.474   3.981  0.1711 -0.3889 -0.3973
   81SLPC    HS 7517   0.770   4.478   3.998 -0.0486 -0.0110 -1.7930
   81SLPC   O21 7518   0.946   4.601   4.002 -0.2242 -0.1295  0.7532
   81SLPC   C21 7519   0.893   4.685   4.080 -0.2622  0.5210  0.1015
   81SLPC   O22 7520   0.783   4.677   4.136 -0.3398  0.3447  0.3703
   81SLPC   C22 7521   0.998   4.801   4.100  0.2632  0.6021 -0.3291
   81SLPC   H2R 7522   1.095   4.754   4.126 -1.0804 -1.9109  0.5025
   81SLPC   H2S 7523   1.002   4.844   3.997  1.0515  0.2476 -0.4502
   81SLPC    C3 7524   0.930   4.363   4.073  0.1419 -1.3088 -0.0600
   81SLPC    HX 7525   1.036   4.341   4.047  0.2359 -1.8371  0.7393
   81SLPC    HY 7526   0.863   4.277   4.053  2.2748 -2.5065 -2.6436
   81SLPC   O31 7527   0.898   4.403   4.209  0.1517 -0.0548 -0.0487
   81SLPC   C31 7528   0.991   4.399   4.297  0.2893 -0.9577 -0.2601
   81SLPC   O32 7529   1.102   4.351   4.276  0.2072 -0.1748 -0.3300
   81SLPC   C32 7530   0.946   4.450   4.433  0.1042 -0.7874  0.1806
   81SLPC   H2X 7531   0.844   4.491   4.414  1.2051  1.4740 -1.4035
   81SLPC   H2Y 7532   1.009   4.535   4.469  0.7633 -1.8819  1.7198
   81SLPC   C23 7533   0.946   4.908   4.191 -0.7212  0.3549 -0.4416
   81SLPC   H3R 7534   0.842   4.936   4.164 -1.2939 -0.2324  1.0159
   81SLPC   H3S 7535   1.019   4.991   4.190 -0.1960 -0.0188  1.6247
   81SLPC   C24 7536   0.956   4.869   4.334 -0.0506  0.3291 -0.3116
   81SLPC   H4R 7537   1.034   4.792   4.350 -0.8303 -0.6494 -1.1284
   81SLPC   H4S 7538   0.856   4.826   4.354 -0.1524 -0.8235 -2.9231
   81SLPC   C25 7539   1.006   4.972   4.433  0.1447 -0.6292  0.1586
   81SLPC   H5R 7540   0.960   5.071   4.409 -2.8819 -2.0407 -0.3125
   81SLPC   H5S 7541   1.116   4.983   4.435  0.0356  0.7314  2.6037
   81SLPC   C26 7542   0.952   4.921   4.568 -0.7992  0.0665  0.0088
   81SLPC   H6R 7543   0.970   4.812   4.577 -3.0611 -0.3666 -0.1573
   81SLPC   H6S 7544   0.842   4.935   4.563 -0.7569  1.4963  1.8533
   81SLPC   C27 7545   1.011   5.001   4.688  0.2607 -0.1295  0.4347
   81SLPC   H7R 7546   0.979   5.106   4.672 -0.4651 -0.3015  0.7372
   81SLPC   H7S 7547   1.122   4.991   4.685  0.0259 -4.3919 -1.5241
   81SLPC   C28 7548   0.966   4.953   4.824  0.0191 -0.3424 -0.1814
   81SLPC   H8R 7549   1.010   4.852   4.839  2.7048  0.8968  1.0851
   81SLPC   H8S 7550   0.856   4.948   4.829 -0.0265  0.6453  0.0317
   81SLPC   C29 7551   1.016   5.046   4.933  0.3592  0.2756 -0.8901
   81SLPC   H9R 7552   1.118   5.083   4.915  0.2925  1.2570  0.5555
   81SLPC  C210 7553   0.945   5.082   5.039 -0.3698 -0.4898 -0.4850
   81SLPC  H10R 7554   0.991   5.162   5.098 -2.7463  0.0105  0.8179
   81SLPC  C211 7555   0.809   5.042   5.086 -0.0391 -0.2429 -0.0339
   81SLPC  H11R 7556   0.764   4.970   5.014 -1.0614 -0.7428  1.0726
   81SLPC  H11S 7557   0.740   5.129   5.086  1.1117  0.7202  1.8605
   81SLPC  C212 7558   0.829   4.986   5.228  0.8675 -0.3242 -0.4584
   81SLPC  H12R 7559   0.871   5.055   5.303  0.8873 -2.0784  1.2203
   81SLPC  C213 7560   0.807   4.862   5.279  0.0386  0.3899 -0.6342
   81SLPC  H13R 7561   0.827   4.846   5.386  2.9528 -0.7906 -1.2590
   81SLPC  C214 7562   0.747   4.742   5.211  0.0334 -0.3562  0.0286
   81SLPC  H14R 7563   0.719   4.775   5.108  0.4684 -1.3013 -0.4008
   81SLPC  H14S 7564   0.663   4.721   5.281  0.0916 -0.5526  0.0377
   81SLPC  C215 7565   0.816   4.605   5.189  0.3510  0.7622  0.0940
   81SLPC  H15R 7566   0.740   4.537   5.146 -1.0937  2.7814 -0.6749
   81SLPC  H15S 7567   0.861   4.574   5.286 -1.1187  2.2669  1.3195
   81SLPC  C216 7568   0.928   4.614   5.087  0.4690  0.1658  0.3928
   81SLPC  H16R 7569   0.979   4.707   5.122 -2.1460  2.5120 -1.6152
   81SLPC  H16S 7570   0.871   4.649   4.998 -0.0582  0.4955  0.8522
   81SLPC  C217 7571   1.003   4.485   5.074 -1.1030 -0.0731  0.3781
   81SLPC  H17R 7572   1.068   4.491   4.984 -1.5518  2.1019  0.1461
   81SLPC  H17S 7573   0.939   4.395   5.072 -1.6745  0.3468 -1.2619
   81SLPC  C218 7574   1.091   4.464   5.199 -0.6159 -0.3130 -0.6400
   81SLPC  H18R 7575   1.172   4.391   5.175 -0.5163  0.4168 -2.6550
   81SLPC  H18S 7576   1.035   4.424   5.287 -2.1774  0.7290 -1.1233
   81SLPC  H18T 7577   1.140   4.558   5.232  0.2744 -1.0549  0.2277
   81SLPC   C33 7578   0.939   4.356   4.550  0.3623  0.3735 -0.5390
   81SLPC   H3X 7579   0.905   4.418   4.635 -0.8678 -0.5935 -0.2956
   81SLPC   H3Y 7580   1.030   4.297   4.574 -0.0794  0.3978  1.3719
   81SLPC   C34 7581   0.823   4.249   4.524  0.2383  0.7837  0.5428
   81SLPC   H4X 7582   0.864   4.150   4.492 -2.0064 -0.2839  0.7966
   81SLPC   H4Y 7583   0.770   4.290   4.435  1.5478 -0.0554 -0.6698
   81SLPC   C35 7584   0.743   4.242   4.650  0.4867  0.1393 -0.4258
   81SLPC   H5X 7585   0.647   4.192   4.627  0.1747 -0.3529  1.7144
   81SLPC   H5Y 7586   0.707   4.342   4.684  0.2040 -0.2115  0.3150
   81SLPC   C36 7587   0.817   4.177   4.774  0.2343 -0.4375  0.6322
   81SLPC   H6X 7588   0.909   4.231   4.807  1.0398 -2.0117  1.0415
   81SLPC   H6Y 7589   0.856   4.084   4.728  0.1258  1.5295 -3.9989
   81SLPC   C37 7590   0.735   4.158   4.897  0.1522  0.4342  0.2675
   81SLPC   H7X 7591   0.642   4.101   4.872 -0.0372  1.3504 -1.2090
   81SLPC   H7Y 7592   0.698   4.256   4.934 -3.0713  0.1207 -1.7065
   81SLPC   C38 7593   0.801   4.061   4.997 -0.3576  0.1798  0.8985
   81SLPC   H8X 7594   0.906   4.093   5.013 -0.7568  1.1311  1.7183
   81SLPC   H8Y 7595   0.797   3.961   4.949  0.2164  0.7308 -0.3233
   81SLPC   C39 7596   0.738   4.059   5.132  0.2358 -0.1041 -0.3226
   81SLPC   H9X 7597   0.642   4.005   5.120 -0.7650  1.1531  1.4533
   81SLPC   H9Y 7598   0.730   4.166   5.160  1.2049 -0.2702  0.6731
   81SLPC  C310 7599   0.831   3.995   5.232 -0.0845  0.1201 -0.0969
   81SLPC  H10X 7600   0.879   4.078   5.288 -0.8267  0.2312  0.4035
   81SLPC  H10Y 7601   0.903   3.943   5.166 -0.7500  1.1554 -1.6920
   81SLPC  C311 7602   0.768   3.887   5.325  0.4246  0.0925 -0.0682
   81SLPC  H11X 7603   0.688   3.928   5.390  0.3636 -3.4851  2.4172
   81SLPC  H11Y 7604   0.847   3.849   5.394 -2.4587 -1.6027  2.5777
   81SLPC  C312 7605   0.702   3.776   5.241  0.1984 -0.4941 -0.1165
   81SLPC  H12X 7606   0.783   3.734   5.176  0.5237  2.3686 -1.7284
   81SLPC  H12Y 7607   0.617   3.818   5.183 -0.8581  0.6122  2.1372
   81SLPC  C313 7608   0.640   3.652   5.317  0.0360 -0.3606 -0.1622
   81SLPC  H13X 7609   0.721   3.606   5.377  2.5718  3.2090 -0.4772
   81SLPC  H13Y 7610   0.600   3.586   5.237 -0.2477  0.4069 -0.6746
   81SLPC  C314 7611   0.519   3.696   5.393 -0.0471 -0.3850 -0.2517
   81SLPC  H14X 7612   0.448   3.716   5.310  0.1587 -1.0213 -0.5843
   81SLPC  H14Y 7613   0.520   3.789   5.455 -1.0233 -0.9646  0.6658
   81SLPC  C315 7614   0.458   3.588   5.485  0.0212  0.0475  0.0322
   81SLPC  H15X 7615   0.373   3.617   5.550 -0.3256 -1.5958  0.3559
   81SLPC  H15Y 7616   0.544   3.568   5.552  1.1550 -3.1015 -2.1086
   81SLPC  C316 7617   0.417   3.457   5.418 -0.0719 -0.1543  0.0922
   81SLPC  H16X 7618   0.496   3.406   5.359 -0.3797 -0.7294  0.1725
   81SLPC  H16Y 7619   0.320   3.464   5.364  0.4295 -0.3219 -0.8614
   81SLPC  C317 7620   0.381   3.339   5.514 -0.3083 -0.0431 -0.7885
   81SLPC  H17X 7621   0.306   3.272   5.467 -0.5235 -0.1106 -0.3577
   81SLPC  H17Y 7622   0.350   3.368   5.617  0.9091  0.2988 -0.5056
   81SLPC  C318 7623   0.507   3.250   5.550 -0.3184 -0.2341 -0.5323
   81SLPC  H18X 7624   0.575   3.216   5.469 -0.8874 -1.5093 -0.4896
   81SLPC  H18Y 7625   0.468   3.154   5.589 -0.1860 -0.1076 -0.0880
   81SLPC  H18Z 7626   0.560   3.299   5.635 -0.1982 -1.2378 -0.0219
   82SLPC     N 7627   4.289   4.413   3.460 -0.1534 -0.4685  0.6963
   82SLPC   C13 7628   4.402   4.489   3.417  0.1187  0.0085  0.3685
   82SLPC  H13A 7629   4.406   4.516   3.313  0.6606  1.5427  0.7674
   82SLPC  H13B 7630   4.405   4.584   3.469 -0.0824 -1.0956  2.5375
   82SLPC  H13C 7631   4.494   4.437   3.438 -0.1102 -2.6690 -3.9978
   82SLPC   C14 7632   4.319   4.272   3.434  0.1452 -0.0863  0.3271
   82SLPC  H14A 7633   4.260   4.201   3.490 -1.3660  1.5577  0.9113
   82SLPC  H14B 7634   4.308   4.258   3.328  1.7162  0.2977  0.0849
   82SLPC  H14C 7635   4.422   4.246   3.455 -0.1655 -0.9469  0.8797
   82SLPC   C15 7636   4.169   4.459   3.391  0.2023  0.4200 -1.0160
   82SLPC  H15A 7637   4.143   4.562   3.411 -1.5864 -0.2908  0.6100
   82SLPC  H15B 7638   4.177   4.450   3.283  0.5554 -1.5799 -0.8560
   82SLPC  H15C 7639   4.089   4.394   3.423  1.0321 -0.0205  0.2079
   82SLPC   C12 7640   4.270   4.444   3.611  0.0677  0.1447 -0.0840
   82SLPC  H12A 7641   4.208   4.531   3.624 -2.0575 -1.1563 -0.9400
   82SLPC  H12B 7642   4.370   4.451   3.653  0.6110  0.1833 -1.3477
   82SLPC   C11 7643   4.184   4.345   3.694  0.5740  0.0720  0.2068
   82SLPC  H11A 7644   4.190   4.378   3.800  0.8159 -0.0597  0.2351
   82SLPC  H11B 7645   4.229   4.244   3.678  2.0338  0.8675 -0.9464
   82SLPC     P 7646   3.941   4.439   3.669 -0.5714 -0.4758 -0.3935
   82SLPC   O13 7647   3.996   4.558   3.743  0.1196  0.3634  0.0456
   82SLPC   O14 7648   3.860   4.456   3.548  0.0333 -0.1805 -0.1154
   82SLPC   O12 7649   4.050   4.329   3.650 -0.1104 -0.3590 -0.2882
   82SLPC   O11 7650   3.845   4.372   3.773  0.4293  0.7798 -0.3451
   82SLPC    C1 7651   3.881   4.250   3.846  0.0448  0.4328 -0.4586
   82SLPC    HA 7652   3.786   4.194   3.855 -0.5521  1.6575  1.4770
   82SLPC    HB 7653   3.935   4.175   3.785  0.8855  0.9671 -0.3953
   82SLPC    C2 7654   3.936   4.284   3.989  0.1326  0.2027  0.6427
   82SLPC    HS 7655   4.040   4.316   3.967 -0.5398  1.9885 -0.0813
   82SLPC   O21 7656   3.935   4.174   4.081  0.1899  0.2249 -0.0376
   82SLPC   C21 7657   4.015   4.076   4.046 -0.1360  0.0500 -0.2848
   82SLPC   O22 7658   4.115   4.090   3.973 -0.3953 -0.0286  0.3289
   82SLPC   C22 7659   3.989   3.952   4.131 -0.9021  0.0845  0.3757
   82SLPC   H2R 7660   3.965   3.992   4.232 -1.3707 -0.6175  0.5434
   82SLPC   H2S 7661   3.897   3.897   4.103 -1.9459  2.3577 -1.0211
   82SLPC    C3 7662   3.868   4.402   4.063 -0.3722  0.1765 -0.6119
   82SLPC    HX 7663   3.759   4.390   4.075 -0.1534 -0.9738  0.4262
   82SLPC    HY 7664   3.872   4.491   3.997  2.5194  1.3973  1.0265
   82SLPC   O31 7665   3.937   4.425   4.191  0.5570  0.2084  0.5959
   82SLPC   C31 7666   3.875   4.509   4.269  0.3492 -0.4746  0.3192
   82SLPC   O32 7667   3.769   4.557   4.237 -0.4108  0.5765 -0.0471
   82SLPC   C32 7668   3.967   4.555   4.383 -0.4347 -0.6429  0.3821
   82SLPC   H2X 7669   4.053   4.603   4.331 -2.0665 -0.7775 -2.6718
   82SLPC   H2Y 7670   3.999   4.468   4.444 -0.1042  0.4969  1.8859
   82SLPC   C23 7671   4.113   3.851   4.139  0.0082 -0.4642 -0.9208
   82SLPC   H3R 7672   4.132   3.811   4.037  2.1285  1.7015 -1.4820
   82SLPC   H3S 7673   4.084   3.765   4.202  1.2474  0.2505  0.7042
   82SLPC   C24 7674   4.241   3.894   4.210  0.4373 -0.0407  0.0912
   82SLPC   H4R 7675   4.279   3.985   4.157 -0.7656  0.0091 -0.7229
   82SLPC   H4S 7676   4.325   3.824   4.190  0.2824  0.7262 -4.1952
   82SLPC   C25 7677   4.213   3.900   4.361  0.0115  0.1233  0.0678
   82SLPC   H5R 7678   4.151   3.810   4.377 -0.6745  0.1090 -2.2860
   82SLPC   H5S 7679   4.157   3.989   4.397 -0.8952  0.4429 -1.9946
   82SLPC   C26 7680   4.342   3.883   4.437 -0.3906 -0.3736 -0.8739
   82SLPC   H6R 7681   4.420   3.951   4.395  0.7544  0.5514  2.4397
   82SLPC   H6S 7682   4.367   3.777   4.417 -1.6185 -1.4686  2.6723
   82SLPC   C27 7683   4.328   3.904   4.591 -0.5388  0.2690 -0.1114
   82SLPC   H7R 7684   4.255   3.837   4.641 -1.7569  1.6541  0.0326
   82SLPC   H7S 7685   4.293   4.005   4.620 -1.1401 -0.2292  0.9796
   82SLPC   C28 7686   4.466   3.877   4.664  0.0055  0.1730  0.4129
   82SLPC   H8R 7687   4.449   3.916   4.766 -0.5575 -0.6285  0.6376
   82SLPC   H8S 7688   4.547   3.935   4.614 -0.2152 -0.7478 -1.0818
   82SLPC   C29 7689   4.523   3.740   4.661 -0.0999  0.1194 -0.4603
   82SLPC   H9R 7690   4.565   3.710   4.564  0.9392  2.1913 -0.6924
   82SLPC  C210 7691   4.538   3.658   4.769  0.6860 -0.0046 -0.0071
   82SLPC  H10R 7692   4.587   3.561   4.749  0.4843 -0.1488  0.1976
   82SLPC  C211 7693   4.500   3.688   4.910 -0.0994  0.9142 -0.3991
   82SLPC  H11R 7694   4.500   3.590   4.962  2.4754  1.4093  0.6680
   82SLPC  H11S 7695   4.396   3.728   4.911 -0.5889 -0.3164  0.3027
   82SLPC  C212 7696   4.603   3.767   4.986  0.0261  0.4454  0.4643
   82SLPC  H12R 7697   4.706   3.771   4.947  0.0621  0.2350  0.5384
   82SLPC  C213 7698   4.581   3.833   5.100  0.5440  0.4154 -0.1069
   82SLPC  H13R 7699   4.659   3.890   5.152  0.6416  0.2613 -0.0855
   82SLPC  C214 7700   4.448   3.814   5.177 -0.4434 -0.2519 -0.2631
   82SLPC  H14R 7701   4.414   3.708   5.173 -1.3432 -0.1505  2.6713
   82SLPC  H14S 7702   4.370   3.886   5.145 -0.0325 -1.0418 -3.4069
   82SLPC  C215 7703   4.481   3.829   5.333 -0.3973  0.5251  0.8919
   82SLPC  H15R 7704   4.386   3.816   5.389 -0.0852  0.4142  1.3965
   82SLPC  H15S 7705   4.523   3.926   5.365  2.7703 -1.0264  1.8375
   82SLPC  C216 7706   4.597   3.732   5.376  0.8906  0.6058  0.1053
   82SLPC  H16R 7707   4.695   3.766   5.336  2.5738 -1.8295  1.8840
   82SLPC  H16S 7708   4.576   3.639   5.320  2.2835  0.3853 -0.0798
   82SLPC  C217 7709   4.599   3.711   5.522  0.1181 -0.2554  0.4728
   82SLPC  H17R 7710   4.605   3.804   5.582 -0.5427  0.5887 -0.7249
   82SLPC  H17S 7711   4.684   3.645   5.551 -1.0390 -2.0042 -0.0169
   82SLPC  C218 7712   4.482   3.627   5.574  0.0117 -0.5568  0.0974
   82SLPC  H18R 7713   4.493   3.590   5.678  2.8810 -2.1900 -0.6499
   82SLPC  H18S 7714   4.458   3.537   5.514 -2.8607 -1.1016  1.8797
   82SLPC  H18T 7715   4.390   3.689   5.568  1.2523  1.4088  0.1849
   82SLPC   C33 7716   3.907   4.672   4.470 -0.1837  0.4308  0.2226
   82SLPC   H3X 7717   3.882   4.757   4.403  1.7336 -0.0467 -1.2023
   82SLPC   H3Y 7718   3.987   4.703   4.540 -0.8376 -1.0447  1.6826
   82SLPC   C34 7719   3.801   4.624   4.563  0.4433  0.2277 -0.6834
   82SLPC   H4X 7720   3.726   4.560   4.512  1.3646 -0.4040 -1.2974
   82SLPC   H4Y 7721   3.764   4.721   4.602  1.4969  0.2504  0.3131
   82SLPC   C35 7722   3.849   4.557   4.700  0.9091  0.1947 -0.4451
   82SLPC   H5X 7723   3.914   4.470   4.676  0.8339  0.3052 -1.0735
   82SLPC   H5Y 7724   3.763   4.521   4.761  0.8660  1.0790  0.0314
   82SLPC   C36 7725   3.925   4.650   4.788 -0.1997 -0.7014 -0.2360
   82SLPC   H6X 7726   3.863   4.743   4.787  1.1993  0.2692  0.2705
   82SLPC   H6Y 7727   4.021   4.684   4.742 -0.4427 -2.0283 -1.8135
   82SLPC   C37 7728   3.952   4.594   4.929  0.2312 -0.0766  0.4788
   82SLPC   H7X 7729   4.061   4.592   4.949  0.4786 -1.7982 -0.8421
   82SLPC   H7Y 7730   3.922   4.488   4.937 -1.0844 -0.0750 -2.9068
   82SLPC   C38 7731   3.897   4.687   5.049 -0.3905 -0.3053  0.0974
   82SLPC   H8X 7732   3.789   4.662   5.051 -0.1613 -1.7656 -2.0203
   82SLPC   H8Y 7733   3.902   4.793   5.016 -2.7789  0.3284  1.5134
   82SLPC   C39 7734   3.959   4.663   5.194 -0.2001  0.2635  0.2970
   82SLPC   H9X 7735   3.961   4.754   5.257  1.2901 -0.5850  1.5718
   82SLPC   H9Y 7736   4.067   4.639   5.185  0.4512  1.7501  3.0846
   82SLPC  C310 7737   3.894   4.554   5.275  0.4370 -1.1152  1.1847
   82SLPC  H10X 7738   3.909   4.461   5.217  2.3734  0.1249 -0.4645
   82SLPC  H10Y 7739   3.785   4.574   5.284  0.5315 -0.3110  0.6521
   82SLPC  C311 7740   3.946   4.536   5.417  0.5100 -0.0447 -0.3370
   82SLPC  H11X 7741   3.972   4.641   5.443  1.9233  0.3927 -3.1517
   82SLPC  H11Y 7742   4.037   4.474   5.405 -0.5275 -1.4183 -1.4275
   82SLPC  C312 7743   3.859   4.467   5.524 -0.0266 -0.1650 -0.7104
   82SLPC  H12X 7744   3.778   4.537   5.552  0.6486  0.2380  0.2611
   82SLPC  H12Y 7745   3.923   4.455   5.614 -0.9627 -0.1512 -0.0384
   82SLPC  C313 7746   3.814   4.324   5.486  0.0304 -0.0488 -0.3571
   82SLPC  H13X 7747   3.894   4.269   5.431 -1.3769 -0.7237 -1.8035
   82SLPC  H13Y 7748   3.735   4.326   5.408  1.1691 -1.5089 -1.6148
   82SLPC  C314 7749   3.788   4.231   5.611 -0.8724 -0.1342  0.9485
   82SLPC  H14X 7750   3.695   4.262   5.664 -1.1514 -0.9242  0.9278
   82SLPC  H14Y 7751   3.881   4.232   5.672  0.4778 -1.8603 -0.9490
   82SLPC  C315 7752   3.749   4.089   5.569  0.1028 -0.0621  0.2316
   82SLPC  H15X 7753   3.812   4.047   5.488  1.0147  0.7064  0.5187
   82SLPC  H15Y 7754   3.642   4.063   5.559  0.4690 -2.8991  2.3118
   82SLPC  C316 7755   3.784   3.997   5.694 -0.2789  0.4612  0.9862
   82SLPC  H16X 7756   3.851   4.045   5.768 -1.2987  0.0156  2.2306
   82SLPC  H16Y 7757   3.838   3.910   5.651 -1.9723  0.1826 -0.6980
   82SLPC  C317 7758   3.662   3.938   5.772 -0.4946  0.2410 -0.9318
   82SLPC  H17X 7759   3.606   3.866   5.708 -0.5681 -2.4489  1.8994
   82SLPC  H17Y 7760   3.583   4.010   5.801 -3.3475 -2.7403 -0.6431
   82SLPC  C318 7761   3.703   3.850   5.891  0.2941  0.0974  0.1215
   82SLPC  H18X 7762   3.749   3.920   5.965 -1.0529  0.9693  0.1604
   82SLPC  H18Y 7763   3.779   3.775   5.861  1.2427  1.9230 -2.4309
   82SLPC  H18Z 7764   3.612   3.811   5.941  1.1565 -0.3990  1.3459
   83SLPC     N 7765   1.054   2.883   3.493  0.5481  0.4770 -0.1116
   83SLPC   C13 7766   1.189   2.857   3.557 -0.2658 -0.2178 -0.3120
   83SLPC  H13A 7767   1.258   2.852   3.474 -0.1085 -1.5963 -0.1308
   83SLPC  H13B 7768   1.227   2.937   3.617  1.6000 -0.7411 -0.7456
   83SLPC  H13C 7769   1.188   2.761   3.607 -0.5753 -0.6928 -1.2132
   83SLPC   C14 7770   1.018   2.754   3.418 -0.6620  0.4002 -0.0011
   83SLPC  H14A 7771   1.017   2.664   3.477 -0.7264  0.6575  0.3938
   83SLPC  H14B 7772   0.926   2.769   3.363 -1.4844 -0.5341  1.0854
   83SLPC  H14C 7773   1.099   2.748   3.347  1.2332  1.7039  1.9179
   83SLPC   C15 7774   1.070   3.004   3.403 -0.1220  0.1691  0.5858
   83SLPC  H15A 7775   0.981   3.014   3.343  1.2074  0.1204 -1.5122
   83SLPC  H15B 7776   1.083   3.097   3.455 -3.1491  0.6418  0.6720
   83SLPC  H15C 7777   1.146   2.997   3.326 -0.1568 -0.1192  0.5749
   83SLPC   C12 7778   0.960   2.909   3.611 -0.3076  0.5571 -0.2808
   83SLPC  H12A 7779   0.991   2.989   3.676 -1.2969  0.6150  0.1495
   83SLPC  H12B 7780   0.973   2.828   3.682  0.9924  2.2508  1.5094
   83SLPC   C11 7781   0.807   2.926   3.587  0.0496  0.2228  0.6254
   83SLPC  H11A 7782   0.759   2.958   3.682 -0.0253 -0.8636  0.9750
   83SLPC  H11B 7783   0.771   2.823   3.568 -1.9806  1.1612 -0.9233
   83SLPC     P 7784   0.638   3.057   3.439 -0.3264  0.1016  0.1223
   83SLPC   O13 7785   0.653   3.199   3.419  0.2823  0.3149  0.3529
   83SLPC   O14 7786   0.590   2.978   3.322 -0.2556  0.0767 -0.1698
   83SLPC   O12 7787   0.777   3.006   3.479 -0.8674  0.3687  0.3544
   83SLPC   O11 7788   0.541   3.028   3.566 -0.3440 -0.7817  0.2019
   83SLPC    C1 7789   0.557   3.137   3.665  0.6397  0.0178 -0.4498
   83SLPC    HA 7790   0.660   3.136   3.705  1.2278 -0.3426 -1.8935
   83SLPC    HB 7791   0.541   3.241   3.629  0.7767 -0.0148 -0.6073
   83SLPC    C2 7792   0.458   3.116   3.783 -0.0190  0.3672 -0.2593
   83SLPC    HS 7793   0.472   3.197   3.858  0.3162  1.8525 -1.8740
   83SLPC   O21 7794   0.472   2.981   3.843 -0.0363 -0.0637  0.1531
   83SLPC   C21 7795   0.586   2.964   3.904 -0.4652 -0.1688  0.3437
   83SLPC   O22 7796   0.662   3.046   3.953  0.0147 -0.2882 -0.7685
   83SLPC   C22 7797   0.607   2.805   3.903  0.6135 -0.4097  0.6021
   83SLPC   H2R 7798   0.528   2.742   3.950  2.1236 -2.4757  0.4896
   83SLPC   H2S 7799   0.616   2.782   3.795 -2.1206  1.3070 -0.1052
   83SLPC    C3 7800   0.309   3.140   3.741  0.1665  0.6137  0.7146
   83SLPC    HX 7801   0.290   3.081   3.648 -2.0082  2.5957 -0.1951
   83SLPC    HY 7802   0.325   3.248   3.722 -1.3190  1.8643  5.2393
   83SLPC   O31 7803   0.217   3.119   3.851  0.5927 -0.4674 -0.4902
   83SLPC   C31 7804   0.161   3.002   3.867 -0.1098 -0.0700  0.5620
   83SLPC   O32 7805   0.173   2.902   3.796  0.1475 -0.4044  0.5094
   83SLPC   C32 7806   0.070   3.010   3.987 -0.0758  0.0551 -0.0485
   83SLPC   H2X 7807   0.052   2.906   4.023 -0.3159  0.4560  1.0359
   83SLPC   H2Y 7808  -0.024   3.051   3.943  0.5987 -1.2741 -2.9181
   83SLPC   C23 7809   0.734   2.758   3.976  0.1132 -0.6922 -0.1414
   83SLPC   H3R 7810   0.825   2.813   3.942 -0.1983 -1.7096 -2.8620
   83SLPC   H3S 7811   0.759   2.652   3.955 -3.7097 -1.4790 -1.4455
   83SLPC   C24 7812   0.733   2.773   4.130  0.4088  0.1601 -0.0040
   83SLPC   H4R 7813   0.643   2.731   4.180 -0.9757 -0.7678 -3.0701
   83SLPC   H4S 7814   0.743   2.880   4.156  2.3750  0.2115 -0.7701
   83SLPC   C25 7815   0.849   2.690   4.180  0.1466 -0.0112 -0.1717
   83SLPC   H5R 7816   0.938   2.702   4.114  0.3073 -3.1958 -0.6835
   83SLPC   H5S 7817   0.825   2.584   4.158  1.1028  0.0663 -1.7724
   83SLPC   C26 7818   0.884   2.702   4.322  0.6330 -0.4431 -0.8115
   83SLPC   H6R 7819   0.800   2.664   4.383 -1.5469  3.1785 -1.2657
   83SLPC   H6S 7820   0.900   2.806   4.358 -0.3924 -0.2299 -0.9336
   83SLPC   C27 7821   0.998   2.604   4.368 -0.3403 -0.7816  0.1331
   83SLPC   H7R 7822   1.087   2.641   4.313 -0.4926 -0.7674 -0.1039
   83SLPC   H7S 7823   0.968   2.501   4.337 -2.2978 -0.0514 -0.6003
   83SLPC   C28 7824   1.012   2.599   4.515 -0.2397  0.6478  0.2891
   83SLPC   H8R 7825   0.917   2.552   4.551 -1.3713  0.9226 -2.1559
   83SLPC   H8S 7826   1.012   2.700   4.561 -0.1590  1.1053 -0.6894
   83SLPC   C29 7827   1.134   2.518   4.565 -0.1095 -0.8291 -0.5079
   83SLPC   H9R 7828   1.141   2.412   4.537  1.0337 -0.9986  0.3515
   83SLPC  C210 7829   1.243   2.576   4.615 -0.4570 -0.5383 -0.5506
   83SLPC  H10R 7830   1.322   2.507   4.649  0.7370  2.2474  3.0275
   83SLPC  C211 7831   1.273   2.715   4.655  0.2741  0.1400  0.4906
   83SLPC  H11R 7832   1.246   2.746   4.758  0.2172  2.1334 -0.0683
   83SLPC  H11S 7833   1.220   2.790   4.592 -0.5376  1.8846  3.0843
   83SLPC  C212 7834   1.421   2.731   4.633  0.0883 -0.2040  0.3752
   83SLPC  H12R 7835   1.450   2.695   4.533  1.0003  0.8935  0.2216
   83SLPC  C213 7836   1.509   2.796   4.709  0.3319 -0.2145  0.2252
   83SLPC  H13R 7837   1.615   2.790   4.681  0.4154 -0.1568  0.5300
   83SLPC  C214 7838   1.476   2.858   4.842 -0.0541 -0.4826  0.1726
   83SLPC  H14R 7839   1.366   2.869   4.854  0.2053  1.8111  1.0694
   83SLPC  H14S 7840   1.514   2.960   4.863  0.6008 -1.4322  4.9849
   83SLPC  C215 7841   1.517   2.773   4.964  0.1484  0.0131 -0.0550
   83SLPC  H15R 7842   1.619   2.795   5.002 -0.0378 -2.3851  2.1028
   83SLPC  H15S 7843   1.519   2.666   4.932 -2.7928  0.6293 -2.8006
   83SLPC  C216 7844   1.422   2.783   5.081 -0.0585  0.0136  0.0794
   83SLPC  H16R 7845   1.444   2.702   5.154  0.1462 -1.3701 -1.4422
   83SLPC  H16S 7846   1.317   2.787   5.044  0.6536  0.3627 -2.0460
   83SLPC  C217 7847   1.425   2.921   5.148 -0.3567 -0.5706  0.0168
   83SLPC  H17R 7848   1.383   2.983   5.065 -0.3183 -0.9588 -0.2963
   83SLPC  H17S 7849   1.524   2.960   5.179 -1.6781  1.4076  2.0537
   83SLPC  C218 7850   1.326   2.940   5.268 -0.6515  0.2856  0.0192
   83SLPC  H18R 7851   1.339   2.862   5.346 -1.1479 -1.5520 -1.6616
   83SLPC  H18S 7852   1.222   2.949   5.230 -0.5481 -1.3571 -0.7430
   83SLPC  H18T 7853   1.337   3.046   5.301 -2.7323  1.0032 -1.3772
   83SLPC   C33 7854   0.124   3.088   4.112 -0.4918 -0.0544 -0.1360
   83SLPC   H3X 7855   0.129   3.196   4.085  0.3377  0.1538  0.7750
   83SLPC   H3Y 7856   0.229   3.052   4.125  0.3947  1.2455 -2.9999
   83SLPC   C34 7857   0.033   3.072   4.234 -0.7851  0.2918  0.5055
   83SLPC   H4X 7858   0.027   2.962   4.243 -1.7836  0.2559 -0.3738
   83SLPC   H4Y 7859  -0.070   3.108   4.211 -0.3356  0.0012 -2.3386
   83SLPC   C35 7860   0.091   3.134   4.367 -0.1354  0.4782  0.6537
   83SLPC   H5X 7861   0.104   3.243   4.356 -0.3480  0.4660  0.2768
   83SLPC   H5Y 7862   0.195   3.095   4.375  0.5738  1.6585 -1.8769
   83SLPC   C36 7863   0.020   3.093   4.505 -0.2074  0.4094 -0.0675
   83SLPC   H6X 7864   0.014   2.982   4.511 -0.4772  0.2187 -2.6512
   83SLPC   H6Y 7865  -0.080   3.135   4.480  1.2225  5.1640  1.0933
   83SLPC   C37 7866   0.074   3.171   4.625 -0.0705  0.3424 -0.3449
   83SLPC   H7X 7867   0.092   3.278   4.601 -3.4301  0.5977 -2.3854
   83SLPC   H7Y 7868   0.163   3.124   4.671 -0.1465 -0.7485 -1.2813
   83SLPC   C38 7869  -0.030   3.178   4.742  0.1133 -0.6937 -0.3501
   83SLPC   H8X 7870  -0.111   3.248   4.711 -0.6167 -0.4303  1.9755
   83SLPC   H8Y 7871   0.015   3.234   4.827  0.4463 -2.0346  0.3900
   83SLPC   C39 7872  -0.104   3.044   4.791  0.0046 -0.9122 -0.1933
   83SLPC   H9X 7873  -0.179   3.020   4.714 -3.1347  1.1495  2.0011
   83SLPC   H9Y 7874  -0.169   3.073   4.876  1.4049 -0.1253  0.6663
   83SLPC  C310 7875  -0.010   2.927   4.812  0.4495 -0.2437  0.6102
   83SLPC  H10X 7876   0.076   2.962   4.873  0.6786 -0.3052  0.3273
   83SLPC  H10Y 7877   0.033   2.904   4.712  0.8968  0.8257  0.5488
   83SLPC  C311 7878  -0.065   2.784   4.853  0.5842 -1.1497 -0.1417
   83SLPC  H11X 7879   0.018   2.713   4.841  1.3752 -0.1860 -0.5252
   83SLPC  H11Y 7880  -0.150   2.763   4.784 -2.5871  2.4276  2.2118
   83SLPC  C312 7881  -0.127   2.785   5.001 -0.1687 -0.3183 -0.2928
   83SLPC  H12X 7882  -0.196   2.872   4.998 -1.3837 -1.2827 -1.4703
   83SLPC  H12Y 7883  -0.045   2.818   5.069 -0.4950  1.3810 -0.6750
   83SLPC  C313 7884  -0.195   2.651   5.045  0.2433 -0.2410 -0.1866
   83SLPC  H13X 7885  -0.240   2.640   5.146 -2.1378 -1.8479 -1.3331
   83SLPC  H13Y 7886  -0.112   2.577   5.035  1.5878  0.9662  1.3835
   83SLPC  C314 7887  -0.315   2.633   4.947  0.5263  0.1597  0.1374
   83SLPC  H14X 7888  -0.275   2.618   4.845 -1.3813  0.4074 -0.6816
   83SLPC  H14Y 7889  -0.366   2.732   4.941 -0.9315 -0.5867 -0.3217
   83SLPC  C315 7890  -0.414   2.526   4.988  0.0556  0.0323 -0.0211
   83SLPC  H15X 7891  -0.431   2.514   5.097  0.0369  1.2873  0.1200
   83SLPC  H15Y 7892  -0.373   2.427   4.957 -0.5092  0.7220 -3.3015
   83SLPC  C316 7893  -0.558   2.539   4.928 -0.0878 -0.0208 -0.3401
   83SLPC  H16X 7894  -0.560   2.562   4.820 -1.4424  1.9334  0.0425
   83SLPC  H16Y 7895  -0.600   2.629   4.978 -0.5847 -0.9109  0.9347
   83SLPC  C317 7896  -0.642   2.417   4.971  0.0860 -0.0748  0.2435
   83SLPC  H17X 7897  -0.650   2.427   5.082 -1.4132  1.3102  0.0543
   83SLPC  H17Y 7898  -0.573   2.333   4.947  0.9899  0.6284  0.3353
   83SLPC  C318 7899  -0.781   2.412   4.914  0.2033  0.1060 -0.4460
   83SLPC  H18X 7900  -0.774   2.413   4.804 -0.0241  0.6048 -0.4602
   83SLPC  H18Y 7901  -0.845   2.493   4.955 -0.1722  0.5737 -1.9282
   83SLPC  H18Z 7902  -0.830   2.312   4.925  0.6531  0.0770  1.7383
   84SLPC     N 7903   3.894   2.770   3.575  0.0984  0.5209  0.1582
   84SLPC   C13 7904   3.968   2.812   3.452 -0.3003  0.6620  0.3008
   84SLPC  H13A 7905   3.907   2.866   3.381 -0.8650 -2.8717 -2.2052
   84SLPC  H13B 7906   4.055   2.872   3.474  0.2471  1.3675 -3.1313
   84SLPC  H13C 7907   4.014   2.726   3.404  0.4904  1.0601  0.3155
   84SLPC   C14 7908   3.983   2.677   3.654 -0.5611  0.2384 -0.6014
   84SLPC  H14A 7909   3.929   2.647   3.742 -0.7070 -2.4460 -1.5055
   84SLPC  H14B 7910   3.999   2.581   3.607  1.7682  0.7285 -0.9149
   84SLPC  H14C 7911   4.079   2.721   3.672 -0.1094 -0.1430 -1.9529
   84SLPC   C15 7912   3.767   2.703   3.537 -0.0222  0.8642  0.9970
   84SLPC  H15A 7913   3.787   2.632   3.458 -0.5340 -0.0082  1.6434
   84SLPC  H15B 7914   3.733   2.657   3.628  1.6179 -2.1701  0.1957
   84SLPC  H15C 7915   3.689   2.768   3.499 -1.0234  0.1632  1.8053
   84SLPC   C12 7916   3.860   2.887   3.657 -0.3395  0.0847 -0.7097
   84SLPC  H12A 7917   3.802   2.959   3.601 -0.1030  1.8157  1.1646
   84SLPC  H12B 7918   3.954   2.939   3.667 -0.1890 -0.2601 -0.2837
   84SLPC   C11 7919   3.773   2.865   3.789  0.4320  0.5268  0.1617
   84SLPC  H11A 7920   3.756   2.964   3.837 -0.9255  0.1642  0.4913
   84SLPC  H11B 7921   3.843   2.804   3.850  1.6928  0.0047 -1.7183
   84SLPC     P 7922   3.520   2.863   3.715 -0.0530  0.0229 -0.9296
   84SLPC   O13 7923   3.553   2.970   3.616 -0.7714  0.0394 -0.5113
   84SLPC   O14 7924   3.421   2.759   3.676 -0.1086 -0.3940 -0.2465
   84SLPC   O12 7925   3.654   2.790   3.769 -0.2187 -0.3130 -0.3922
   84SLPC   O11 7926   3.466   2.933   3.849 -0.5355  0.1213  0.0104
   84SLPC    C1 7927   3.410   2.848   3.950  0.4385 -0.7327 -0.8461
   84SLPC    HA 7928   3.394   2.744   3.915 -1.0587  0.3428 -3.6223
   84SLPC    HB 7929   3.473   2.853   4.041 -0.4371 -0.3976 -0.2459
   84SLPC    C2 7930   3.260   2.900   3.994  0.1876 -0.5131 -0.3610
   84SLPC    HS 7931   3.182   2.893   3.915  0.5138 -0.5241 -0.6828
   84SLPC   O21 7932   3.269   3.038   4.044 -0.3104  0.5439 -0.5278
   84SLPC   C21 7933   3.190   3.139   4.002 -0.0763  0.0685 -0.0210
   84SLPC   O22 7934   3.104   3.123   3.915  0.5377  0.1696 -0.5524
   84SLPC   C22 7935   3.201   3.276   4.080 -0.6358  0.1230  0.0004
   84SLPC   H2R 7936   3.209   3.358   4.005 -0.2892  1.2625  1.2466
   84SLPC   H2S 7937   3.107   3.289   4.137 -1.0651 -1.0057 -0.4156
   84SLPC    C3 7938   3.189   2.814   4.111  0.0256 -0.3524  0.0663
   84SLPC    HX 7939   3.198   2.710   4.073 -1.0735 -0.2656 -0.5030
   84SLPC    HY 7940   3.080   2.832   4.124 -0.2608 -0.0964 -2.2664
   84SLPC   O31 7941   3.257   2.817   4.234  0.1847 -0.1933  0.5249
   84SLPC   C31 7942   3.202   2.870   4.343 -0.8553 -0.1267 -0.4833
   84SLPC   O32 7943   3.086   2.888   4.358  0.1455 -0.1157 -0.4630
   84SLPC   C32 7944   3.306   2.905   4.451 -0.4994 -0.2853  0.2209
   84SLPC   H2X 7945   3.263   2.965   4.534  1.0178 -0.1017  0.9015
   84SLPC   H2Y 7946   3.392   2.950   4.396 -0.1728 -0.2788  0.7402
   84SLPC   C23 7947   3.316   3.272   4.187 -0.2205  0.2395  0.1381
   84SLPC   H3R 7948   3.412   3.266   4.131  0.9524 -0.9246  2.1416
   84SLPC   H3S 7949   3.307   3.175   4.240  0.6196  0.5548  0.8897
   84SLPC   C24 7950   3.305   3.384   4.290  0.2840 -1.1154  0.1167
   84SLPC   H4R 7951   3.202   3.387   4.332 -0.4307  0.6069 -1.6097
   84SLPC   H4S 7952   3.323   3.478   4.235 -0.7057  0.0301  1.6699
   84SLPC   C25 7953   3.411   3.366   4.399 -0.2403  0.6311 -0.2122
   84SLPC   H5R 7954   3.393   3.457   4.460 -1.3840  2.0097 -2.4690
   84SLPC   H5S 7955   3.509   3.359   4.347  0.7971 -1.0063  1.8605
   84SLPC   C26 7956   3.397   3.244   4.492  0.1147  0.6552 -0.1729
   84SLPC   H6R 7957   3.495   3.234   4.542 -0.1972  0.5173  0.4234
   84SLPC   H6S 7958   3.391   3.159   4.421 -1.5097  1.1710 -0.7052
   84SLPC   C27 7959   3.284   3.243   4.596 -0.2188 -0.4293 -0.8032
   84SLPC   H7R 7960   3.289   3.152   4.658  1.5946  0.9473  1.2284
   84SLPC   H7S 7961   3.188   3.260   4.544 -1.4192 -1.3892  1.0091
   84SLPC   C28 7962   3.283   3.376   4.690 -0.4287 -0.2106 -0.0834
   84SLPC   H8R 7963   3.199   3.365   4.761 -0.8419 -0.2832 -0.5763
   84SLPC   H8S 7964   3.263   3.467   4.629 -2.4336 -0.4258  0.2093
   84SLPC   C29 7965   3.419   3.397   4.760  0.5723 -0.1557 -0.3127
   84SLPC   H9R 7966   3.494   3.458   4.707  2.1460 -0.4852  1.4320
   84SLPC  C210 7967   3.471   3.316   4.856  0.3656  0.1649  0.0891
   84SLPC  H10R 7968   3.567   3.346   4.900 -0.5345  1.1577  1.4527
   84SLPC  C211 7969   3.393   3.215   4.943 -0.0435 -0.1440 -0.3014
   84SLPC  H11R 7970   3.284   3.219   4.925 -0.4064 -0.9692  1.5477
   84SLPC  H11S 7971   3.407   3.248   5.048  0.6733  1.5793 -0.9021
   84SLPC  C212 7972   3.454   3.076   4.933 -0.5383  0.5997 -0.0533
   84SLPC  H12R 7973   3.523   3.048   4.851 -0.7862 -1.3771  0.3486
   84SLPC  C213 7974   3.428   2.981   5.024 -0.1942  0.0390 -0.7159
   84SLPC  H13R 7975   3.481   2.886   5.008  0.6078  0.3484  0.0542
   84SLPC  C214 7976   3.327   2.979   5.138 -0.0940 -0.4849  1.1275
   84SLPC  H14R 7977   3.247   2.904   5.121  0.2226 -1.4102  3.3531
   84SLPC  H14S 7978   3.279   3.079   5.147 -0.0075 -0.2398 -0.8333
   84SLPC  C215 7979   3.379   2.949   5.274 -0.0920  0.0138 -1.0244
   84SLPC  H15R 7980   3.430   2.851   5.276  0.1218  0.1121 -1.5522
   84SLPC  H15S 7981   3.295   2.940   5.346  2.8790 -3.3984  2.4097
   84SLPC  C216 7982   3.480   3.057   5.323  0.4913 -0.5279  0.4817
   84SLPC  H16R 7983   3.427   3.155   5.317  1.8108  0.1510 -0.5145
   84SLPC  H16S 7984   3.577   3.055   5.270 -0.1278 -1.0399 -0.6610
   84SLPC  C217 7985   3.510   3.043   5.479  0.1500  0.0562  0.1092
   84SLPC  H17R 7986   3.604   2.983   5.480  0.5230  0.6411  0.3383
   84SLPC  H17S 7987   3.425   2.983   5.516  0.7980 -1.5738 -0.9273
   84SLPC  C218 7988   3.546   3.163   5.562 -1.0609 -0.5221 -0.5254
   84SLPC  H18R 7989   3.517   3.149   5.668 -0.3605  1.7669  0.0252
   84SLPC  H18S 7990   3.483   3.249   5.529  0.3171  0.4443 -0.7368
   84SLPC  H18T 7991   3.652   3.193   5.575 -2.1210  3.3162  0.5465
   84SLPC   C33 7992   3.356   2.776   4.529 -0.0068 -0.7354  0.6203
   84SLPC   H3X 7993   3.423   2.710   4.470  2.7707  1.2594  1.3434
   84SLPC   H3Y 7994   3.271   2.708   4.551 -0.8093  0.2309  0.5691
   84SLPC   C34 7995   3.433   2.822   4.651 -0.1641  0.2731 -0.2543
   84SLPC   H4X 7996   3.376   2.888   4.720  0.3730  1.3308 -0.8163
   84SLPC   H4Y 7997   3.518   2.877   4.606 -0.3957  2.0100  1.3375
   84SLPC   C35 7998   3.495   2.707   4.736  0.1313  0.6264  0.3927
   84SLPC   H5X 7999   3.584   2.749   4.787  0.0417  1.2592  0.0422
   84SLPC   H5Y 8000   3.535   2.631   4.667 -0.8281  0.1971  0.2959
   84SLPC   C36 8001   3.404   2.634   4.831  0.1293  0.2581 -0.4455
   84SLPC   H6X 8002   3.314   2.615   4.769 -1.6770  3.5116  0.9093
   84SLPC   H6Y 8003   3.385   2.689   4.925  1.1476 -1.5100  0.8659
   84SLPC   C37 8004   3.461   2.495   4.877  0.2001 -0.3355  0.6106
   84SLPC   H7X 8005   3.452   2.433   4.785  0.9761  2.2642 -1.3336
   84SLPC   H7Y 8006   3.398   2.444   4.954 -0.9544 -0.1339 -0.1871
   84SLPC   C38 8007   3.599   2.493   4.930  0.4613 -0.2754  0.5116
   84SLPC   H8X 8008   3.673   2.524   4.854  0.1130  2.6479  1.2279
   84SLPC   H8Y 8009   3.628   2.389   4.957 -0.3936 -0.6448  0.0378
   84SLPC   C39 8010   3.640   2.595   5.038  0.0356 -0.4869 -0.4395
   84SLPC   H9X 8011   3.606   2.694   5.000 -1.9601 -0.1317  1.9767
   84SLPC   H9Y 8012   3.751   2.594   5.043  0.0038  0.2946  0.7473
   84SLPC  C310 8013   3.582   2.571   5.179  0.0738  0.0780  0.0713
   84SLPC  H10X 8014   3.473   2.546   5.172  0.0520 -0.5859  1.9810
   84SLPC  H10Y 8015   3.598   2.656   5.249  0.2251 -1.0392  1.4606
   84SLPC  C311 8016   3.638   2.448   5.258  1.0873 -0.1226 -0.0645
   84SLPC  H11X 8017   3.744   2.475   5.274  0.8548  1.0488 -0.3965
   84SLPC  H11Y 8018   3.644   2.351   5.204 -0.3219  1.4932 -3.4516
   84SLPC  C312 8019   3.567   2.440   5.393 -0.3949  0.0754 -0.2525
   84SLPC  H12X 8020   3.457   2.436   5.380 -0.1432 -1.0987 -2.5148
   84SLPC  H12Y 8021   3.585   2.535   5.448  3.1430 -0.0340 -0.9941
   84SLPC  C313 8022   3.616   2.317   5.469  0.0709 -0.7591 -0.1249
   84SLPC  H13X 8023   3.727   2.316   5.460  0.1023  0.2316  0.0833
   84SLPC  H13Y 8024   3.571   2.231   5.414  0.0996 -1.1231  0.4042
   84SLPC  C314 8025   3.571   2.330   5.615 -0.1351 -0.2256 -0.2239
   84SLPC  H14X 8026   3.479   2.391   5.623 -0.0886  0.2100 -2.4525
   84SLPC  H14Y 8027   3.653   2.391   5.660 -0.5080  0.6395 -0.7096
   84SLPC  C315 8028   3.550   2.200   5.693  0.1453 -0.1272 -0.2457
   84SLPC  H15X 8029   3.643   2.138   5.691  0.3116  0.1380 -0.8156
   84SLPC  H15Y 8030   3.472   2.140   5.642  1.3089 -3.0632  1.1437
   84SLPC  C316 8031   3.509   2.211   5.838 -1.1180 -0.6110 -0.2179
   84SLPC  H16X 8032   3.417   2.270   5.857  0.3913  1.3409  1.5171
   84SLPC  H16Y 8033   3.582   2.276   5.889 -1.2618 -0.9856  0.4892
   84SLPC  C317 8034   3.509   2.078   5.913  0.0199 -1.1104 -0.2287
   84SLPC  H17X 8035   3.592   2.006   5.899  0.8142 -0.6854  1.8720
   84SLPC  H17Y 8036   3.413   2.033   5.880 -0.8825  2.4474 -3.1654
   84SLPC  C318 8037   3.503   2.094   6.065  0.0047  0.1533 -0.7714
   84SLPC  H18X 8038   3.404   2.130   6.100 -0.6022 -0.4922 -1.7590
   84SLPC  H18Y 8039   3.585   2.157   6.106  1.2291 -2.7755  1.6893
   84SLPC  H18Z 8040   3.511   1.993   6.111  0.3806  1.2699  1.8179
   85SLPC     N 8041   1.381   5.984   3.748 -0.0832 -0.1472 -0.2098
   85SLPC   C13 8042   1.412   5.895   3.861 -0.0071 -0.2460 -0.3065
   85SLPC  H13A 8043   1.378   5.942   3.952 -0.7832 -0.0538 -0.6973
   85SLPC  H13B 8044   1.362   5.800   3.850 -1.4115  0.4400 -0.0721
   85SLPC  H13C 8045   1.520   5.890   3.863  0.0049 -0.4703 -1.2750
   85SLPC   C14 8046   1.418   5.924   3.615 -0.5362 -0.0595  0.1371
   85SLPC  H14A 8047   1.380   5.823   3.619 -0.8076 -0.0580 -1.7011
   85SLPC  H14B 8048   1.374   5.985   3.537 -4.6599 -0.7605  1.6411
   85SLPC  H14C 8049   1.525   5.926   3.605 -0.2251 -0.2141  2.7208
   85SLPC   C15 8050   1.468   6.107   3.767  0.0392 -0.3655 -0.2875
   85SLPC  H15A 8051   1.447   6.177   3.688  0.8677 -0.2371 -0.4036
   85SLPC  H15B 8052   1.451   6.155   3.862 -1.0253 -3.1709  1.0423
   85SLPC  H15C 8053   1.572   6.078   3.768  0.5746  1.4589  0.2330
   85SLPC   C12 8054   1.232   6.015   3.746  0.1964 -0.4031 -0.3488
   85SLPC  H12A 8055   1.219   6.090   3.669  1.0668 -1.0266 -1.1309
   85SLPC  H12B 8056   1.202   6.061   3.839  0.9889 -0.0522 -0.2567
   85SLPC   C11 8057   1.133   5.894   3.721  0.0553 -0.2424  0.6306
   85SLPC  H11A 8058   1.177   5.824   3.646 -0.7659 -1.7487  1.5135
   85SLPC  H11B 8059   1.041   5.944   3.682 -0.0224 -1.1826 -0.4390
   85SLPC     P 8060   0.973   5.796   3.917 -0.2943 -0.2090  0.2850
   85SLPC   O13 8061   0.902   5.926   3.930 -1.2926  0.0629  0.3235
   85SLPC   O14 8062   0.910   5.685   3.845  0.9042 -0.7931  0.3508
   85SLPC   O12 8063   1.111   5.824   3.846  0.3907  0.3266  0.3909
   85SLPC   O11 8064   1.010   5.747   4.061 -0.0402  0.7402 -0.2507
   85SLPC    C1 8065   1.101   5.818   4.144  0.4115 -0.7073  0.3372
   85SLPC    HA 8066   1.185   5.749   4.168 -0.4685 -1.5226  1.1342
   85SLPC    HB 8067   1.148   5.909   4.100  0.8853  0.3262  2.7964
   85SLPC    C2 8068   1.051   5.872   4.276  0.0379  0.2997 -0.6848
   85SLPC    HS 8069   1.135   5.901   4.343 -1.4849 -2.6481  2.8766
   85SLPC   O21 8070   0.975   5.767   4.331  0.4197  0.1846 -0.0172
   85SLPC   C21 8071   0.982   5.756   4.468  0.4240 -0.9025 -0.1260
   85SLPC   O22 8072   1.060   5.820   4.537 -0.2481  0.7756  0.4603
   85SLPC   C22 8073   0.856   5.692   4.518  0.0177 -0.2483  0.0179
   85SLPC   H2R 8074   0.791   5.653   4.436 -0.1298 -1.7496  0.8004
   85SLPC   H2S 8075   0.890   5.596   4.564  0.8499 -2.2548 -4.2527
   85SLPC    C3 8076   0.956   5.997   4.264 -0.8184 -0.3866  0.2276
   85SLPC    HX 8077   0.868   5.970   4.201  0.2630  1.2844 -2.1741
   85SLPC    HY 8078   1.018   6.077   4.219 -0.8738 -0.1006  0.6508
   85SLPC   O31 8079   0.914   6.041   4.393 -0.0336 -0.0173  0.0586
   85SLPC   C31 8080   0.992   6.113   4.467 -0.4920  0.6919 -1.2376
   85SLPC   O32 8081   1.106   6.158   4.442  0.2374 -0.6630 -0.1804
   85SLPC   C32 8082   0.927   6.149   4.604 -0.6376  0.8532  0.7106
   85SLPC   H2X 8083   0.871   6.061   4.641  0.4836  0.2678  1.0502
   85SLPC   H2Y 8084   0.848   6.226   4.587 -1.5891 -0.2290  0.0869
   85SLPC   C23 8085   0.783   5.785   4.614  0.3485 -0.2543 -1.0882
   85SLPC   H3R 8086   0.746   5.880   4.570 -1.4076 -0.1749  0.4488
   85SLPC   H3S 8087   0.857   5.811   4.692  0.4249 -1.5330 -0.7087
   85SLPC   C24 8088   0.659   5.733   4.686  0.3452  0.7989 -0.0794
   85SLPC   H4R 8089   0.677   5.629   4.719  1.5956  0.0840 -2.7661
   85SLPC   H4S 8090   0.576   5.726   4.612  0.6963  1.3364 -0.5350
   85SLPC   C25 8091   0.598   5.825   4.792 -0.4808 -0.6585  0.4684
   85SLPC   H5R 8092   0.566   5.928   4.765  0.1652  0.0057  2.1015
   85SLPC   H5S 8093   0.501   5.779   4.820 -1.3465 -0.2755 -1.7311
   85SLPC   C26 8094   0.685   5.830   4.914 -0.6501 -0.0906 -0.1347
   85SLPC   H6R 8095   0.783   5.882   4.906 -0.7886  0.2769  0.5071
   85SLPC   H6S 8096   0.701   5.727   4.954  0.2374 -0.1598 -0.6581
   85SLPC   C27 8097   0.625   5.914   5.029  0.7011  0.0425  0.2063
   85SLPC   H7R 8098   0.516   5.891   5.030  0.4913  0.8118 -1.7666
   85SLPC   H7S 8099   0.636   6.021   5.003  0.5359  0.1185  0.4465
   85SLPC   C28 8100   0.697   5.893   5.164 -0.0646 -0.7518 -0.0548
   85SLPC   H8R 8101   0.799   5.934   5.143 -0.4240 -0.8831 -2.4147
   85SLPC   H8S 8102   0.709   5.787   5.193  2.9560 -0.2412  0.9111
   85SLPC   C29 8103   0.618   5.952   5.277  0.2692  0.2768 -0.2733
   85SLPC   H9R 8104   0.511   5.971   5.261 -0.1937 -1.9410 -0.0570
   85SLPC  C210 8105   0.666   5.989   5.395 -0.2333 -0.1847 -0.8151
   85SLPC  H10R 8106   0.608   6.049   5.466 -2.1174 -1.4882 -1.1997
   85SLPC  C211 8107   0.812   5.977   5.441 -0.3232  0.2258 -0.7246
   85SLPC  H11R 8108   0.863   6.075   5.444  0.3412 -0.1234 -0.2097
   85SLPC  H11S 8109   0.857   5.912   5.363  2.0406  1.6671 -0.6484
   85SLPC  C212 8110   0.823   5.902   5.575  0.0101 -0.2213  0.5940
   85SLPC  H12R 8111   0.850   5.796   5.558 -0.2646 -0.2334  0.2364
   85SLPC  C213 8112   0.787   5.935   5.698  0.4335  0.2903 -0.2763
   85SLPC  H13R 8113   0.805   5.856   5.772  1.7126 -0.2034 -1.0627
   85SLPC  C214 8114   0.743   6.079   5.733 -0.5855  0.6066  0.2041
   85SLPC  H14R 8115   0.640   6.078   5.776 -1.4403  1.5142 -1.7193
   85SLPC  H14S 8116   0.757   6.139   5.641  2.3007 -2.9797 -1.9269
   85SLPC  C215 8117   0.834   6.150   5.847  0.3255 -0.3162  0.2699
   85SLPC  H15R 8118   0.829   6.087   5.938 -0.1806 -2.0277 -0.8939
   85SLPC  H15S 8119   0.789   6.246   5.879  0.8758 -0.4098  1.3335
   85SLPC  C216 8120   0.976   6.186   5.808 -0.1013  0.0787  0.8489
   85SLPC  H16R 8121   0.968   6.264   5.729  1.5276 -1.0884 -0.5426
   85SLPC  H16S 8122   1.019   6.096   5.760 -0.4602  0.4787 -0.2614
   85SLPC  C217 8123   1.071   6.238   5.912 -0.4410 -0.0970 -0.4602
   85SLPC  H17R 8124   1.044   6.337   5.954  1.0367 -0.0273  0.3906
   85SLPC  H17S 8125   1.168   6.266   5.865 -0.0460  0.4480  0.6466
   85SLPC  C218 8126   1.097   6.130   6.021 -1.3139 -0.5250  0.0942
   85SLPC  H18R 8127   1.006   6.105   6.080  0.3491 -2.2319  2.1185
   85SLPC  H18S 8128   1.165   6.163   6.103 -1.0475 -1.9921  0.5014
   85SLPC  H18T 8129   1.139   6.038   5.976 -0.4892  0.0945 -0.4304
   85SLPC   C33 8130   1.039   6.172   4.703 -0.3919  0.7576 -0.5536
   85SLPC   H3X 8131   1.092   6.269   4.690  1.8046 -0.3156 -0.1510
   85SLPC   H3Y 8132   1.115   6.091   4.695 -1.3970 -0.6565  2.5471
   85SLPC   C34 8133   0.971   6.160   4.841 -0.5222  0.0365 -0.0850
   85SLPC   H4X 8134   0.907   6.070   4.836  0.7493 -0.8593 -0.8382
   85SLPC   H4Y 8135   0.899   6.244   4.846 -0.2110  0.3264 -0.3961
   85SLPC   C35 8136   1.070   6.146   4.960 -0.0865  0.4040 -0.1989
   85SLPC   H5X 8137   1.138   6.232   4.979 -0.0709  0.6050 -1.1451
   85SLPC   H5Y 8138   1.143   6.065   4.933  2.1136  2.2372 -0.0610
   85SLPC   C36 8139   1.002   6.119   5.091 -0.6691 -0.4995  0.5902
   85SLPC   H6X 8140   0.969   6.013   5.089  3.0123 -1.7854 -0.3041
   85SLPC   H6Y 8141   0.917   6.191   5.103  1.2114  2.0718 -0.5534
   85SLPC   C37 8142   1.097   6.141   5.213  0.1090 -0.5201 -0.0000
   85SLPC   H7X 8143   1.043   6.194   5.294  0.1512 -0.2788 -0.1282
   85SLPC   H7Y 8144   1.183   6.207   5.187 -0.6754  0.8324  0.7443
   85SLPC   C38 8145   1.133   5.994   5.260 -0.2338 -0.4420 -0.6778
   85SLPC   H8X 8146   1.200   5.953   5.181 -2.3475  0.0512 -2.8650
   85SLPC   H8Y 8147   1.035   5.943   5.271 -0.9293  0.9343 -0.2887
   85SLPC   C39 8148   1.207   6.008   5.393  0.0332 -0.1043 -0.3915
   85SLPC   H9X 8149   1.126   6.001   5.469 -0.1718 -0.4680 -0.6347
   85SLPC   H9Y 8150   1.267   6.100   5.405 -0.0516  0.1070 -1.4342
   85SLPC  C310 8151   1.314   5.899   5.404  0.4306  0.5135  0.5088
   85SLPC  H10X 8152   1.400   5.929   5.339 -0.0051  0.0247 -0.3124
   85SLPC  H10Y 8153   1.265   5.802   5.382  0.5849 -0.1443  2.8107
   85SLPC  C311 8154   1.384   5.887   5.539 -0.1785  0.1973  0.3182
   85SLPC  H11X 8155   1.314   5.854   5.619 -1.0672 -2.0196 -1.3048
   85SLPC  H11Y 8156   1.420   5.986   5.575  1.7576 -0.7903  1.2588
   85SLPC  C312 8157   1.514   5.805   5.540  0.1983  0.9614 -0.4946
   85SLPC  H12X 8158   1.596   5.845   5.477  2.3342  0.6639  1.9106
   85SLPC  H12Y 8159   1.500   5.697   5.516  3.0723  0.4957 -0.4565
   85SLPC  C313 8160   1.571   5.800   5.684 -0.0001 -0.3284 -0.3108
   85SLPC  H13X 8161   1.507   5.755   5.763  1.2316  0.4171  1.1683
   85SLPC  H13Y 8162   1.601   5.901   5.719  2.2503 -0.7431 -0.9118
   85SLPC  C314 8163   1.701   5.712   5.687  0.1440  0.0984  0.4390
   85SLPC  H14X 8164   1.700   5.614   5.635  1.1645  0.0915  0.4234
   85SLPC  H14Y 8165   1.715   5.682   5.794  0.1828  3.0947  1.3534
   85SLPC  C315 8166   1.825   5.781   5.645  0.3749 -0.0327 -0.7319
   85SLPC  H15X 8167   1.826   5.873   5.707  2.2734 -1.5063  1.5999
   85SLPC  H15Y 8168   1.810   5.808   5.539  1.9387  0.8862 -0.7384
   85SLPC  C316 8169   1.960   5.708   5.677 -0.7594 -0.0268  0.0334
   85SLPC  H16X 8170   2.038   5.783   5.649 -1.5837  0.1249 -1.9697
   85SLPC  H16Y 8171   1.970   5.623   5.606 -0.9017  1.2185 -1.5224
   85SLPC  C317 8172   1.972   5.662   5.821  0.6005 -0.1105 -0.0076
   85SLPC  H17X 8173   1.907   5.573   5.834 -0.1087  0.5536  1.0961
   85SLPC  H17Y 8174   1.936   5.745   5.885 -0.6019  0.3370 -1.2161
   85SLPC  C318 8175   2.114   5.626   5.863  0.5085  0.6739 -0.9667
   85SLPC  H18X 8176   2.142   5.522   5.838 -1.8785 -0.2085 -0.2208
   85SLPC  H18Y 8177   2.126   5.624   5.974  0.3924 -2.2131 -0.9441
   85SLPC  H18Z 8178   2.181   5.706   5.824 -1.1547  2.2224 -0.7975
   86SLPC     N 8179   2.884   1.914   3.600 -0.2803  0.7511 -0.2717
   86SLPC   C13 8180   3.024   1.970   3.597  0.0556  0.0181  0.3277
   86SLPC  H13A 8181   3.028   2.062   3.653  1.9415 -0.0741  0.3972
   86SLPC  H13B 8182   3.088   1.904   3.653 -1.8229  1.4468  4.5641
   86SLPC  H13C 8183   3.064   1.981   3.497 -1.4281 -0.1945 -0.3108
   86SLPC   C14 8184   2.862   1.796   3.512 -0.3520  1.0159 -0.2170
   86SLPC  H14A 8185   2.925   1.717   3.551  1.2333  2.0339 -0.5960
   86SLPC  H14B 8186   2.758   1.770   3.521 -0.6531  1.3699 -2.2279
   86SLPC  H14C 8187   2.904   1.820   3.415  0.6204  0.6395  0.0987
   86SLPC   C15 8188   2.788   2.022   3.558 -0.2795  1.1986 -0.2999
   86SLPC  H15A 8189   2.808   2.108   3.621 -0.9474  1.3244 -0.2531
   86SLPC  H15B 8190   2.809   2.054   3.457 -0.3073  1.3454 -0.2606
   86SLPC  H15C 8191   2.685   1.991   3.564  0.2089 -0.4580 -0.1433
   86SLPC   C12 8192   2.861   1.866   3.744  0.5690 -0.4930 -0.5081
   86SLPC  H12A 8193   2.767   1.813   3.743 -0.0623  0.3246  3.1212
   86SLPC  H12B 8194   2.832   1.951   3.803  0.1108  0.0401 -1.4647
   86SLPC   C11 8195   2.959   1.766   3.813 -0.1719  0.6123  0.0266
   86SLPC  H11A 8196   2.931   1.742   3.918  3.2179 -2.3691  0.4380
   86SLPC  H11B 8197   3.057   1.817   3.823 -1.4241  2.7313  3.6227
   86SLPC     P 8198   3.067   1.538   3.797  0.0644  0.4315 -0.0653
   86SLPC   O13 8199   3.047   1.420   3.709 -0.4790  0.0713  0.5928
   86SLPC   O14 8200   3.205   1.588   3.807 -0.6985  0.1595 -0.2416
   86SLPC   O12 8201   2.965   1.647   3.735  0.3087 -0.5638 -0.3449
   86SLPC   O11 8202   3.016   1.508   3.946 -0.0353  0.2323  0.3298
   86SLPC    C1 8203   2.888   1.448   3.973 -0.7491  0.0230 -0.4196
   86SLPC    HA 8204   2.811   1.459   3.894 -2.6953 -1.8119  1.1046
   86SLPC    HB 8205   2.909   1.341   3.992  1.9104  0.3480 -1.1312
   86SLPC    C2 8206   2.819   1.511   4.100 -0.9658  0.1756  0.2348
   86SLPC    HS 8207   2.785   1.610   4.062  1.9467  0.5499 -1.7010
   86SLPC   O21 8208   2.914   1.533   4.210  0.1309  0.0623  0.4245
   86SLPC   C21 8209   2.888   1.633   4.287  0.4306 -0.9575 -0.1776
   86SLPC   O22 8210   2.817   1.729   4.256  0.2364 -0.3475  0.2585
   86SLPC   C22 8211   2.973   1.631   4.412 -0.0993  0.5991 -0.5729
   86SLPC   H2R 8212   3.030   1.536   4.420  2.8699  2.3745  1.1195
   86SLPC   H2S 8213   3.054   1.706   4.421  0.4746 -0.0066 -0.6263
   86SLPC    C3 8214   2.697   1.420   4.140 -1.2654  0.0497 -0.3834
   86SLPC    HX 8215   2.728   1.321   4.181 -3.1822  0.0465  1.1823
   86SLPC    HY 8216   2.637   1.392   4.051 -1.5813 -1.8933  0.3927
   86SLPC   O31 8217   2.620   1.476   4.247 -0.0923 -0.0396  0.4462
   86SLPC   C31 8218   2.521   1.559   4.206 -0.0472 -0.1701 -0.3878
   86SLPC   O32 8219   2.506   1.597   4.091  0.4146 -0.3783  0.0516
   86SLPC   C32 8220   2.451   1.611   4.337 -0.4183  0.0272 -0.2530
   86SLPC   H2X 8221   2.520   1.609   4.424  0.4041 -0.6963 -0.9088
   86SLPC   H2Y 8222   2.357   1.561   4.369 -2.1511  2.7148 -0.7933
   86SLPC   C23 8223   2.899   1.640   4.547  0.4987  0.0260 -0.1394
   86SLPC   H3R 8224   2.825   1.558   4.555 -1.4520  1.5147 -1.8739
   86SLPC   H3S 8225   2.832   1.728   4.546 -2.1503 -1.8655 -2.6649
   86SLPC   C24 8226   2.992   1.666   4.667  0.3728  0.1879 -0.1607
   86SLPC   H4R 8227   3.048   1.760   4.652 -0.2346  1.2385  3.2398
   86SLPC   H4S 8228   3.068   1.585   4.678  1.1880  0.8996 -0.4179
   86SLPC   C25 8229   2.914   1.665   4.796 -0.4000  0.8480  0.8079
   86SLPC   H5R 8230   2.863   1.566   4.796  1.0598  0.0656 -0.1389
   86SLPC   H5S 8231   2.840   1.748   4.794 -2.3182 -0.7868 -0.0145
   86SLPC   C26 8232   3.009   1.684   4.918 -0.1300 -0.0605  0.0957
   86SLPC   H6R 8233   3.066   1.778   4.899 -0.1005 -0.2899 -1.0045
   86SLPC   H6S 8234   3.086   1.605   4.905  1.0901  1.4717 -3.0951
   86SLPC   C27 8235   2.937   1.670   5.055 -0.0697  0.7284  0.3414
   86SLPC   H7R 8236   2.891   1.570   5.067  1.9657 -0.4068 -0.7801
   86SLPC   H7S 8237   2.855   1.745   5.043 -0.2491  0.5908  0.6931
   86SLPC   C28 8238   3.025   1.690   5.177  0.1541  0.3741 -0.5844
   86SLPC   H8R 8239   3.083   1.784   5.161  0.0576  0.8486  1.5759
   86SLPC   H8S 8240   3.101   1.610   5.184  0.2365  0.5671  1.0199
   86SLPC   C29 8241   2.944   1.725   5.303 -0.2836  0.2335  0.4065
   86SLPC   H9R 8242   2.910   1.830   5.305 -0.7012  0.1236 -0.3714
   86SLPC  C210 8243   2.914   1.651   5.409  0.3483 -1.0897  0.4099
   86SLPC  H10R 8244   2.853   1.699   5.486  1.6186 -0.1238  0.8524
   86SLPC  C211 8245   2.927   1.509   5.431 -0.5706  0.5001 -0.9441
   86SLPC  H11R 8246   3.024   1.471   5.391 -1.5609 -2.2813 -0.8645
   86SLPC  H11S 8247   2.858   1.449   5.368  0.1682  1.0617 -2.3396
   86SLPC  C212 8248   2.910   1.463   5.581 -0.4007 -0.2461  0.3753
   86SLPC  H12R 8249   2.809   1.422   5.596 -1.0366  0.7618 -0.8706
   86SLPC  C213 8250   2.991   1.487   5.685 -0.4124  0.7570  0.1104
   86SLPC  H13R 8251   2.975   1.445   5.785  0.3226  0.0152 -0.0703
   86SLPC  C214 8252   3.128   1.540   5.674  0.6287  0.1262 -0.3430
   86SLPC  H14R 8253   3.150   1.567   5.568 -0.8049  2.3922 -0.1307
   86SLPC  H14S 8254   3.203   1.465   5.706  1.1453 -0.6919 -3.1629
   86SLPC  C215 8255   3.146   1.672   5.745  0.2277  0.5021  0.3379
   86SLPC  H15R 8256   3.064   1.743   5.721  0.7277  0.8913 -0.2632
   86SLPC  H15S 8257   3.235   1.724   5.703 -0.7667  3.0140  1.1545
   86SLPC  C216 8258   3.174   1.655   5.896  0.0570  0.3960  0.3553
   86SLPC  H16R 8259   3.246   1.571   5.908 -1.0311 -0.9812 -1.9769
   86SLPC  H16S 8260   3.073   1.626   5.934  0.3077 -0.1523  0.6149
   86SLPC  C217 8261   3.218   1.781   5.972 -0.3535  0.1698  0.3599
   86SLPC  H17R 8262   3.136   1.855   5.953 -2.3999 -1.6270  1.7554
   86SLPC  H17S 8263   3.317   1.825   5.947 -0.6211  0.6900  0.1929
   86SLPC  C218 8264   3.223   1.761   6.121  0.1260 -0.1319  0.0761
   86SLPC  H18R 8265   3.255   1.855   6.170  1.6676  0.2585 -1.5730
   86SLPC  H18S 8266   3.290   1.676   6.147  1.3216  1.2111  1.6411
   86SLPC  H18T 8267   3.124   1.727   6.158  0.6051 -2.4177 -0.6033
   86SLPC   C33 8268   2.421   1.761   4.313  0.3381  0.1636 -0.5343
   86SLPC   H3X 8269   2.351   1.772   4.228  1.3626 -0.6154 -1.4965
   86SLPC   H3Y 8270   2.495   1.842   4.292 -0.7212  1.7837  1.5489
   86SLPC   C34 8271   2.347   1.812   4.447  0.1375  0.5303 -0.1919
   86SLPC   H4X 8272   2.431   1.790   4.517  1.2678 -0.9444 -1.9045
   86SLPC   H4Y 8273   2.264   1.739   4.461  1.3444 -0.7784  0.4519
   86SLPC   C35 8274   2.312   1.956   4.432 -0.5025 -0.1814 -0.0873
   86SLPC   H5X 8275   2.244   1.978   4.346 -1.3078 -1.1537  0.2810
   86SLPC   H5Y 8276   2.409   2.010   4.425  0.2711 -1.6031 -0.8148
   86SLPC   C36 8277   2.233   2.009   4.559  0.1356  0.0658 -0.6423
   86SLPC   H6X 8278   2.303   1.989   4.643 -0.4501  1.3326  0.1806
   86SLPC   H6Y 8279   2.146   1.940   4.563  1.7437 -2.1432 -1.5441
   86SLPC   C37 8280   2.181   2.149   4.558 -0.2259  0.3487 -0.0961
   86SLPC   H7X 8281   2.098   2.148   4.484 -1.1353 -1.9411  0.8632
   86SLPC   H7Y 8282   2.265   2.218   4.535  1.7082 -2.1891 -1.2277
   86SLPC   C38 8283   2.109   2.203   4.686 -0.2421  0.7667 -0.0595
   86SLPC   H8X 8284   2.019   2.138   4.694 -1.1150  1.7876 -1.1428
   86SLPC   H8Y 8285   2.076   2.308   4.666 -1.0480  0.2712 -1.4228
   86SLPC   C39 8286   2.191   2.190   4.813  0.1533  0.6410  0.4006
   86SLPC   H9X 8287   2.295   2.227   4.803  0.6910  0.1922  3.4376
   86SLPC   H9Y 8288   2.178   2.085   4.847  1.7287  1.1354  2.7708
   86SLPC  C310 8289   2.141   2.268   4.932  0.2973 -0.0506  0.2476
   86SLPC  H10X 8290   2.053   2.226   4.986 -0.6934 -1.2530 -2.1899
   86SLPC  H10Y 8291   2.116   2.374   4.907  4.6258  1.4494  1.3092
   86SLPC  C311 8292   2.246   2.313   5.034 -0.3777 -0.1876 -0.0612
   86SLPC  H11X 8293   2.315   2.380   4.978  0.0971  0.0290  0.7652
   86SLPC  H11Y 8294   2.305   2.224   5.065 -0.3663  0.1742  0.9780
   86SLPC  C312 8295   2.201   2.389   5.156  0.5734  0.2972 -0.3689
   86SLPC  H12X 8296   2.124   2.464   5.130 -1.0922 -1.1603  0.1355
   86SLPC  H12Y 8297   2.280   2.454   5.202 -0.9734  1.2464  1.0728
   86SLPC  C313 8298   2.151   2.291   5.269  0.3685  0.0130  0.1515
   86SLPC  H13X 8299   2.239   2.245   5.319 -1.0042 -1.2012  1.6140
   86SLPC  H13Y 8300   2.079   2.222   5.219 -1.1911  0.1605  2.0356
   86SLPC  C314 8301   2.073   2.362   5.375  0.2537 -0.7368 -0.7286
   86SLPC  H14X 8302   2.012   2.292   5.436  1.5427 -1.3192 -0.0464
   86SLPC  H14Y 8303   2.010   2.433   5.318  1.1985  0.7398  0.0060
   86SLPC  C315 8304   2.149   2.449   5.480  0.2734 -0.1119 -0.4484
   86SLPC  H15X 8305   2.196   2.533   5.423  0.0858 -1.2624 -2.3920
   86SLPC  H15Y 8306   2.229   2.388   5.528  1.5538  0.0502 -2.2604
   86SLPC  C316 8307   2.052   2.508   5.587 -0.6373  0.0645  0.2769
   86SLPC  H16X 8308   1.985   2.576   5.531  0.2800 -0.1963 -1.2068
   86SLPC  H16Y 8309   2.101   2.572   5.663 -0.9095  0.3421  0.2216
   86SLPC  C317 8310   1.962   2.405   5.656 -0.6266  0.4318  0.1790
   86SLPC  H17X 8311   2.024   2.321   5.692 -0.9671  0.4863  0.9118
   86SLPC  H17Y 8312   1.890   2.361   5.584 -0.3073 -2.2212  1.3649
   86SLPC  C318 8313   1.889   2.456   5.776  0.1114 -0.1396  0.1418
   86SLPC  H18X 8314   1.955   2.503   5.852  0.6478 -0.2169 -0.2716
   86SLPC  H18Y 8315   1.831   2.372   5.820 -2.1643  1.3161  0.1002
   86SLPC  H18Z 8316   1.810   2.529   5.750 -0.9990 -0.1953  2.9654
   87SLPC     N 8317   5.610   1.203   3.550  0.2367  0.3649 -0.1753
   87SLPC   C13 8318   5.597   1.055   3.520  0.2864 -0.5910  0.4108
   87SLPC  H13A 8319   5.621   1.024   3.419 -0.6079  0.6287 -0.2086
   87SLPC  H13B 8320   5.657   0.997   3.588 -1.7409 -3.3450  0.0373
   87SLPC  H13C 8321   5.496   1.022   3.540 -0.4851  0.7747 -1.0059
   87SLPC   C14 8322   5.551   1.279   3.433 -0.0170  0.6352 -0.8415
   87SLPC  H14A 8323   5.449   1.245   3.417  0.0512  0.9151 -1.9545
   87SLPC  H14B 8324   5.547   1.385   3.454 -0.6083  0.1321  1.9111
   87SLPC  H14C 8325   5.603   1.242   3.345  3.1470 -1.3729  1.6693
   87SLPC   C15 8326   5.751   1.249   3.561  1.2099 -0.2799  1.0429
   87SLPC  H15A 8327   5.795   1.193   3.641  0.4474  0.8945  2.3299
   87SLPC  H15B 8328   5.801   1.232   3.467  0.8826  1.1342  0.5898
   87SLPC  H15C 8329   5.758   1.353   3.589 -0.0331  0.0471  0.2310
   87SLPC   C12 8330   5.535   1.236   3.681  0.4281  0.8117  0.3887
   87SLPC  H12A 8331   5.568   1.335   3.708  1.3795  0.5857  0.0603
   87SLPC  H12B 8332   5.572   1.176   3.763  1.4981  0.4652 -0.3408
   87SLPC   C11 8333   5.377   1.230   3.680  0.0619  0.3821  0.3837
   87SLPC  H11A 8334   5.343   1.306   3.607 -0.3800 -0.6171 -0.4652
   87SLPC  H11B 8335   5.355   1.257   3.786 -1.0498 -1.8881  0.7869
   87SLPC     P 8336   5.188   1.055   3.613 -0.4047 -0.3104 -0.1700
   87SLPC   O13 8337   5.162   1.124   3.485  0.2395  1.0361 -0.1347
   87SLPC   O14 8338   5.187   0.913   3.611 -0.7266 -0.0887 -0.5926
   87SLPC   O12 8339   5.338   1.096   3.655  0.6971  0.5211  0.0821
   87SLPC   O11 8340   5.100   1.109   3.727  0.0237 -0.2612 -0.1629
   87SLPC    C1 8341   5.112   1.055   3.857 -0.1439  0.3564 -0.4761
   87SLPC    HA 8342   5.107   0.944   3.858  2.2650  0.1896 -1.1994
   87SLPC    HB 8343   5.203   1.093   3.908  0.3426 -0.2758 -0.8727
   87SLPC    C2 8344   4.996   1.112   3.945  0.5984  0.2599 -0.0987
   87SLPC    HS 8345   5.018   1.220   3.954 -1.9668  0.9604 -1.3832
   87SLPC   O21 8346   5.000   1.042   4.074  0.5814 -0.2363  0.1026
   87SLPC   C21 8347   4.944   1.123   4.171 -0.4407 -0.3083  0.5582
   87SLPC   O22 8348   4.904   1.235   4.163 -0.1902  0.5970  0.5529
   87SLPC   C22 8349   4.946   1.039   4.295 -0.3704  0.3956 -0.3136
   87SLPC   H2R 8350   4.860   0.969   4.285  0.6582 -1.0590  0.4861
   87SLPC   H2S 8351   5.039   0.980   4.312 -1.9765 -1.4375  3.3407
   87SLPC    C3 8352   4.864   1.090   3.868  0.4857  0.1048  0.0913
   87SLPC    HX 8353   4.842   0.981   3.871 -2.7173  0.5768 -1.2662
   87SLPC    HY 8354   4.866   1.113   3.760 -1.2923  0.8515  0.1709
   87SLPC   O31 8355   4.747   1.136   3.941  0.0381 -0.6135 -0.5036
   87SLPC   C31 8356   4.713   1.262   3.897  0.7944 -0.0031  0.1536
   87SLPC   O32 8357   4.770   1.322   3.808  0.3497 -0.4928 -0.3897
   87SLPC   C32 8358   4.594   1.315   3.973  0.2101  0.2699  0.0080
   87SLPC   H2X 8359   4.514   1.240   3.955 -0.3556  0.8289  0.1580
   87SLPC   H2Y 8360   4.559   1.409   3.924  0.4030  1.5182  2.1386
   87SLPC   C23 8361   4.915   1.121   4.421  0.1200  0.0601  0.4399
   87SLPC   H3R 8362   4.830   1.189   4.399 -1.0623 -2.4046 -3.7350
   87SLPC   H3S 8363   5.010   1.178   4.430  1.1972 -0.8466 -3.5132
   87SLPC   C24 8364   4.896   1.027   4.543 -0.1234  0.0346  0.4040
   87SLPC   H4R 8365   4.981   0.957   4.556 -1.5513 -1.9288 -0.3817
   87SLPC   H4S 8366   4.809   0.958   4.543 -0.7269  0.7570  1.4745
   87SLPC   C25 8367   4.890   1.108   4.672 -0.2189  0.0718  0.4076
   87SLPC   H5R 8368   4.797   1.167   4.668 -1.6087 -1.9700  0.9690
   87SLPC   H5S 8369   4.985   1.166   4.672 -1.6489  2.5551  0.9148
   87SLPC   C26 8370   4.891   1.021   4.795 -0.1794 -0.5354 -0.2351
   87SLPC   H6R 8371   4.976   0.950   4.796 -1.2454 -1.8988  2.5730
   87SLPC   H6S 8372   4.802   0.957   4.808  0.5736 -1.7484 -0.8219
   87SLPC   C27 8373   4.893   1.115   4.917 -0.7002  0.0465  0.1500
   87SLPC   H7R 8374   4.812   1.187   4.896  0.8240  1.7408 -0.2198
   87SLPC   H7S 8375   4.987   1.175   4.922 -1.0302  0.5590  0.2172
   87SLPC   C28 8376   4.879   1.052   5.056  0.0295  0.2613  0.2678
   87SLPC   H8R 8377   4.794   0.980   5.047  0.1769  0.3125 -2.3977
   87SLPC   H8S 8378   4.851   1.127   5.132 -2.2982  1.5929 -1.7535
   87SLPC   C29 8379   5.003   0.976   5.091  1.0447  0.3126 -0.1272
   87SLPC   H9R 8380   5.032   0.899   5.018 -0.0376  1.1336 -1.4982
   87SLPC  C210 8381   5.063   0.992   5.212 -0.0242  0.4027  0.5153
   87SLPC  H10R 8382   5.146   0.919   5.218 -1.3319 -1.1852  0.0927
   87SLPC  C211 8383   5.057   1.080   5.333  1.1882 -0.2093 -0.4510
   87SLPC  H11R 8384   4.979   1.156   5.310  0.4923 -1.4937 -2.5579
   87SLPC  H11S 8385   5.143   1.151   5.329  1.9533 -1.0023  1.1520
   87SLPC  C212 8386   5.055   0.999   5.457  0.5199  0.2012 -0.7967
   87SLPC  H12R 8387   5.153   0.957   5.485 -0.0613 -1.4297 -1.0899
   87SLPC  C213 8388   4.958   0.963   5.548  1.1213  0.4717  0.2754
   87SLPC  H13R 8389   4.986   0.901   5.634 -0.2310  0.2678  0.5963
   87SLPC  C214 8390   4.816   1.009   5.535  0.6971  0.5999 -0.3773
   87SLPC  H14R 8391   4.745   0.926   5.554  0.3830  1.4200  2.6890
   87SLPC  H14S 8392   4.787   1.042   5.433 -1.3177 -1.1868 -0.4614
   87SLPC  C215 8393   4.790   1.134   5.631 -0.0218  0.1612 -0.6044
   87SLPC  H15R 8394   4.688   1.174   5.620  0.4744  1.8450  0.4702
   87SLPC  H15S 8395   4.856   1.221   5.609 -1.8538  2.3483  1.9549
   87SLPC  C216 8396   4.815   1.115   5.781 -0.9170  0.3522  0.8641
   87SLPC  H16R 8397   4.922   1.085   5.784 -0.0589  2.6585 -1.8515
   87SLPC  H16S 8398   4.769   1.025   5.828  1.3517 -2.0785 -1.1910
   87SLPC  C217 8399   4.794   1.238   5.870  0.1620 -0.4817  0.8649
   87SLPC  H17R 8400   4.764   1.195   5.968  1.1943 -1.3025  0.8397
   87SLPC  H17S 8401   4.710   1.297   5.826  0.2854 -1.1239 -0.2714
   87SLPC  C218 8402   4.919   1.322   5.881  1.3349 -0.3790  0.0188
   87SLPC  H18R 8403   4.986   1.254   5.938 -0.6182 -2.1963  0.2921
   87SLPC  H18S 8404   4.900   1.410   5.947  0.2669 -1.1257  0.7413
   87SLPC  H18T 8405   4.966   1.361   5.788  0.4334  0.7503  0.0182
   87SLPC   C33 8406   4.614   1.326   4.121 -0.1427  0.2520  0.2807
   87SLPC   H3X 8407   4.697   1.397   4.141  3.0355 -2.2329 -2.6669
   87SLPC   H3Y 8408   4.644   1.230   4.170  1.8078  0.5063 -0.3256
   87SLPC   C34 8409   4.475   1.365   4.184  0.0128  0.1874  0.2582
   87SLPC   H4X 8410   4.398   1.295   4.146  0.0402 -0.1728  0.8464
   87SLPC   H4Y 8411   4.457   1.471   4.154  0.1499 -0.2610 -1.5160
   87SLPC   C35 8412   4.475   1.356   4.334 -0.1039 -0.3705 -0.5372
   87SLPC   H5X 8413   4.502   1.255   4.373  1.0424  0.4859  0.9882
   87SLPC   H5Y 8414   4.370   1.383   4.358  0.7789  2.6573  0.3966
   87SLPC   C36 8415   4.556   1.470   4.398 -1.0102  0.4853 -0.3000
   87SLPC   H6X 8416   4.519   1.568   4.362  2.3609  1.3771 -1.7360
   87SLPC   H6Y 8417   4.658   1.478   4.355 -0.7143  1.0116  0.4921
   87SLPC   C37 8418   4.561   1.458   4.554 -0.4551 -0.3968 -0.2250
   87SLPC   H7X 8419   4.641   1.514   4.607 -1.9044  2.4947 -0.8627
   87SLPC   H7Y 8420   4.608   1.360   4.576  0.9502 -0.1311 -1.8660
   87SLPC   C38 8421   4.428   1.485   4.624  0.6130 -0.0762  0.1237
   87SLPC   H8X 8422   4.351   1.420   4.577 -0.8945  0.7349  1.3788
   87SLPC   H8Y 8423   4.397   1.591   4.612 -0.4337 -0.4679 -0.8754
   87SLPC   C39 8424   4.424   1.447   4.777 -0.4289  0.1821  0.1048
   87SLPC   H9X 8425   4.417   1.336   4.780  1.0648  0.0812  0.5845
   87SLPC   H9Y 8426   4.325   1.476   4.818 -0.1229  1.6436 -0.1200
   87SLPC  C310 8427   4.542   1.496   4.865  0.6680 -0.5920  0.1501
   87SLPC  H10X 8428   4.554   1.605   4.847  2.3547 -0.6104  0.9186
   87SLPC  H10Y 8429   4.631   1.437   4.832 -0.7915 -2.9892  0.3163
   87SLPC  C311 8430   4.514   1.470   5.006  0.2414  0.0528  0.4924
   87SLPC  H11X 8431   4.462   1.374   5.026  0.4209  0.1011  1.2313
   87SLPC  H11Y 8432   4.446   1.552   5.038  2.5749  2.7298 -0.9385
   87SLPC  C312 8433   4.639   1.480   5.097 -0.2321  0.6272 -0.1729
   87SLPC  H12X 8434   4.684   1.581   5.094 -0.7815  0.8684 -0.2513
   87SLPC  H12Y 8435   4.713   1.406   5.059  0.5780  0.7773  1.0492
   87SLPC  C313 8436   4.606   1.439   5.245 -0.1056  0.1119  0.0983
   87SLPC  H13X 8437   4.676   1.355   5.260 -0.0245  0.0737 -0.4707
   87SLPC  H13Y 8438   4.500   1.410   5.263  0.5093 -1.0036  2.2075
   87SLPC  C314 8439   4.639   1.538   5.356 -0.3322 -0.1038  0.4492
   87SLPC  H14X 8440   4.564   1.619   5.343  1.0601  0.8979 -1.8681
   87SLPC  H14Y 8441   4.734   1.594   5.342 -0.6188  0.0869 -0.8001
   87SLPC  C315 8442   4.611   1.468   5.489  0.2035 -0.3946 -0.0223
   87SLPC  H15X 8443   4.667   1.373   5.504  0.8495 -0.0395 -0.1229
   87SLPC  H15Y 8444   4.503   1.450   5.475 -0.3801  2.5243  0.1216
   87SLPC  C316 8445   4.632   1.564   5.611 -0.5923 -0.5372 -0.4576
   87SLPC  H16X 8446   4.722   1.628   5.606 -1.7091  1.0714 -0.9783
   87SLPC  H16Y 8447   4.630   1.498   5.701 -2.0791 -1.1256 -0.8797
   87SLPC  C317 8448   4.519   1.672   5.610  0.3665 -0.1909 -0.8897
   87SLPC  H17X 8449   4.429   1.632   5.559 -1.2697  1.3347  0.6560
   87SLPC  H17Y 8450   4.554   1.759   5.551 -2.1936  0.7644 -1.1491
   87SLPC  C318 8451   4.484   1.726   5.746  0.4465 -0.4040 -0.1231
   87SLPC  H18X 8452   4.580   1.742   5.800  0.1445 -0.4293  0.4315
   87SLPC  H18Y 8453   4.428   1.653   5.808 -0.1517  0.3065  0.1900
   87SLPC  H18Z 8454   4.429   1.822   5.752 -1.2119 -1.3543  0.6143
   88SLPC     N 8455   3.369   1.214   3.647  0.2093 -0.3261  0.5564
   88SLPC   C13 8456   3.364   1.198   3.505 -0.1509  0.4417 -1.1032
   88SLPC  H13A 8457   3.290   1.264   3.463  0.8284  1.0910 -1.8815
   88SLPC  H13B 8458   3.457   1.194   3.450  0.2131  0.1557 -0.4774
   88SLPC  H13C 8459   3.323   1.099   3.490 -0.3758  0.7291 -2.5183
   88SLPC   C14 8460   3.413   1.356   3.681  0.0043  0.2442  0.0742
   88SLPC  H14A 8461   3.430   1.361   3.788 -3.8560  1.7314  0.7975
   88SLPC  H14B 8462   3.505   1.382   3.633  0.2441  1.5618  1.2081
   88SLPC  H14C 8463   3.345   1.436   3.658 -1.5058 -0.8887  0.4013
   88SLPC   C15 8464   3.476   1.120   3.706 -0.2842 -0.2146  0.2386
   88SLPC  H15A 8465   3.572   1.171   3.699 -0.2405 -0.1120  1.3821
   88SLPC  H15B 8466   3.445   1.095   3.806 -1.9462 -1.3348 -0.5067
   88SLPC  H15C 8467   3.475   1.025   3.654 -1.1325  0.0385 -0.2233
   88SLPC   C12 8468   3.227   1.185   3.697 -0.0830  0.5501  0.7057
   88SLPC  H12A 8469   3.191   1.100   3.640  1.6750  0.6693 -0.6591
   88SLPC  H12B 8470   3.165   1.269   3.669  0.6649  1.8180  2.6584
   88SLPC   C11 8471   3.216   1.155   3.849  0.6169 -0.2180 -0.1012
   88SLPC  H11A 8472   3.115   1.178   3.889  0.1239 -1.7318 -0.4316
   88SLPC  H11B 8473   3.281   1.232   3.897 -0.5384  0.1276  0.9335
   88SLPC     P 8474   3.195   0.898   3.877 -0.6268  0.0522  0.1420
   88SLPC   O13 8475   3.129   0.895   3.744  0.2200  0.2922 -0.6346
   88SLPC   O14 8476   3.276   0.783   3.927 -0.3284 -0.0519  0.1164
   88SLPC   O12 8477   3.271   1.033   3.894 -0.1750 -0.3494 -0.1121
   88SLPC   O11 8478   3.083   0.914   3.986  0.4100 -0.3747  0.2734
   88SLPC    C1 8479   3.119   0.898   4.122 -0.1259  0.0460 -0.3927
   88SLPC    HA 8480   3.128   0.789   4.141 -1.3572 -0.1291 -0.6839
   88SLPC    HB 8481   3.218   0.938   4.150  0.9627 -2.6244 -0.1663
   88SLPC    C2 8482   3.011   0.934   4.226  0.5227 -0.0395 -0.1947
   88SLPC    HS 8483   3.061   0.952   4.324  0.7464  4.1752 -0.8876
   88SLPC   O21 8484   2.897   0.845   4.233  0.3673  0.1281  1.2290
   88SLPC   C21 8485   2.868   0.803   4.358  0.6045 -0.1671 -0.5471
   88SLPC   O22 8486   2.940   0.809   4.455  0.0104 -0.8301 -0.2485
   88SLPC   C22 8487   2.737   0.723   4.352  0.0795  0.3568 -0.4160
   88SLPC   H2R 8488   2.657   0.779   4.300 -0.6809  0.1152  0.4686
   88SLPC   H2S 8489   2.763   0.621   4.316  0.2069  0.6258 -1.0881
   88SLPC    C3 8490   2.964   1.075   4.184 -0.2646  0.6509 -0.3265
   88SLPC    HX 8491   2.906   1.061   4.090 -0.3075  0.0628 -0.2178
   88SLPC    HY 8492   3.057   1.131   4.160  0.9707 -1.4618 -0.7449
   88SLPC   O31 8493   2.884   1.147   4.281  0.4281 -0.3921  0.1944
   88SLPC   C31 8494   2.948   1.192   4.386 -0.0732 -0.9901 -0.5368
   88SLPC   O32 8495   3.068   1.203   4.402 -0.6613  0.0581  0.8681
   88SLPC   C32 8496   2.850   1.231   4.502 -1.2533  0.0024 -0.0742
   88SLPC   H2X 8497   2.763   1.161   4.507 -2.5770  1.4672 -1.4368
   88SLPC   H2Y 8498   2.823   1.339   4.505 -1.1888  0.0203 -0.1539
   88SLPC   C23 8499   2.674   0.703   4.494 -0.1228 -0.0550 -0.3250
   88SLPC   H3R 8500   2.746   0.659   4.566 -1.7479 -0.4889  1.1245
   88SLPC   H3S 8501   2.582   0.641   4.489 -1.3241  1.5811  0.3890
   88SLPC   C24 8502   2.604   0.833   4.541  0.8936  0.0768 -0.6067
   88SLPC   H4R 8503   2.526   0.870   4.470 -0.4961 -1.1962  0.1930
   88SLPC   H4S 8504   2.682   0.912   4.549  1.2345 -0.4697  3.2710
   88SLPC   C25 8505   2.535   0.819   4.678  0.2807 -0.1079 -0.0217
   88SLPC   H5R 8506   2.453   0.747   4.660 -3.8575  4.0726  0.4713
   88SLPC   H5S 8507   2.488   0.914   4.710  2.4135  0.7930  0.6284
   88SLPC   C26 8508   2.621   0.768   4.794 -0.6751 -0.2428 -0.2351
   88SLPC   H6R 8509   2.681   0.852   4.835  0.9592 -0.8592 -1.2474
   88SLPC   H6S 8510   2.699   0.695   4.763 -0.6358 -0.1765 -0.2918
   88SLPC   C27 8511   2.543   0.722   4.913  0.1594 -0.3563  0.2309
   88SLPC   H7R 8512   2.596   0.670   4.996  0.3661  0.8126  0.8527
   88SLPC   H7S 8513   2.488   0.636   4.870 -0.1381 -0.6672  1.1901
   88SLPC   C28 8514   2.438   0.820   4.962  0.4499 -0.3759 -0.3116
   88SLPC   H8R 8515   2.375   0.849   4.875 -1.5506 -0.6919  0.9606
   88SLPC   H8S 8516   2.486   0.914   4.997 -1.8149  0.3955  0.9315
   88SLPC   C29 8517   2.349   0.763   5.067  0.1875 -0.7643 -0.0821
   88SLPC   H9R 8518   2.261   0.712   5.026  0.6407 -0.7065 -1.1481
   88SLPC  C210 8519   2.357   0.762   5.204 -0.2022  0.0748 -1.5464
   88SLPC  H10R 8520   2.282   0.714   5.268  1.4535 -2.6707 -1.5079
   88SLPC  C211 8521   2.478   0.818   5.287  0.4384 -0.1790  0.0526
   88SLPC  H11R 8522   2.448   0.911   5.339  1.5557  0.1199  0.1862
   88SLPC  H11S 8523   2.562   0.840   5.218 -1.3757 -1.2145 -2.6678
   88SLPC  C212 8524   2.542   0.712   5.376  0.2524 -0.1270  0.1675
   88SLPC  H12R 8525   2.553   0.611   5.333 -1.7657  0.2133 -1.2863
   88SLPC  C213 8526   2.590   0.712   5.504  0.0323  0.6728  1.0432
   88SLPC  H13R 8527   2.641   0.617   5.523  1.1005  1.0265  0.0832
   88SLPC  C214 8528   2.602   0.830   5.593 -0.0098  0.2218 -0.6882
   88SLPC  H14R 8529   2.507   0.887   5.592 -1.3154 -1.8473 -0.4806
   88SLPC  H14S 8530   2.688   0.890   5.557 -1.6369  1.5010 -2.6843
   88SLPC  C215 8531   2.616   0.792   5.743  1.2654 -0.5513 -0.0539
   88SLPC  H15R 8532   2.545   0.711   5.769 -0.7600  0.8448 -0.9784
   88SLPC  H15S 8533   2.582   0.883   5.797  2.8800  3.0467 -4.4606
   88SLPC  C216 8534   2.760   0.753   5.776  0.0086 -0.1290  0.1252
   88SLPC  H16R 8535   2.831   0.834   5.748 -1.2198  1.0386  0.2853
   88SLPC  H16S 8536   2.785   0.674   5.703  0.7126  0.7451 -0.6043
   88SLPC  C217 8537   2.766   0.717   5.926 -0.4244  0.3590 -0.1564
   88SLPC  H17R 8538   2.721   0.617   5.942  2.6701 -1.3623 -1.4390
   88SLPC  H17S 8539   2.729   0.800   5.990  0.3550 -1.4553  2.8381
   88SLPC  C218 8540   2.905   0.698   5.979 -0.2620 -0.2964  0.3962
   88SLPC  H18R 8541   2.961   0.791   5.998 -0.5152 -0.1446  0.4026
   88SLPC  H18S 8542   2.966   0.645   5.903  0.3715  1.8434 -0.6569
   88SLPC  H18T 8543   2.905   0.650   6.079  2.7396  0.1077  0.6905
   88SLPC   C33 8544   2.922   1.221   4.642  0.1054 -0.6241 -0.7525
   88SLPC   H3X 8545   2.880   1.282   4.725 -1.7316 -1.1914 -1.2329
   88SLPC   H3Y 8546   3.016   1.277   4.622  0.8423 -2.0630 -1.4794
   88SLPC   C34 8547   2.946   1.076   4.689 -0.4429 -0.8232 -0.0731
   88SLPC   H4X 8548   3.013   1.025   4.617 -0.4168 -3.1992  1.5152
   88SLPC   H4Y 8549   2.846   1.029   4.691 -1.4193  1.0838 -1.0856
   88SLPC   C35 8550   3.001   1.065   4.829  0.4019  0.4180  1.1969
   88SLPC   H5X 8551   3.093   1.127   4.827  0.7239 -0.0579 -0.9676
   88SLPC   H5Y 8552   3.046   0.965   4.847  0.9661  0.7296  1.5629
   88SLPC   C36 8553   2.898   1.110   4.939  0.0098 -0.0516  1.1182
   88SLPC   H6X 8554   2.821   1.031   4.930  1.2904 -1.3430  1.0771
   88SLPC   H6Y 8555   2.856   1.210   4.916 -2.2505 -1.1978 -0.0655
   88SLPC   C37 8556   2.957   1.111   5.086  0.7097  0.0158  0.4679
   88SLPC   H7X 8557   3.053   1.165   5.088  1.7999 -1.6270 -2.4106
   88SLPC   H7Y 8558   2.982   1.003   5.099  2.8071  0.0166 -2.7586
   88SLPC   C38 8559   2.852   1.163   5.184  0.4021  0.2038  0.7152
   88SLPC   H8X 8560   2.755   1.115   5.160  0.0843  2.0057 -1.9445
   88SLPC   H8Y 8561   2.839   1.273   5.176 -0.7856  0.1695  1.8164
   88SLPC   C39 8562   2.897   1.127   5.325  0.5128 -0.3516  0.0681
   88SLPC   H9X 8563   2.991   1.183   5.345 -0.7589  1.0764  2.5551
   88SLPC   H9Y 8564   2.923   1.019   5.322 -1.9911 -0.9881 -2.9292
   88SLPC  C310 8565   2.799   1.160   5.448  0.1388 -0.5072  0.7012
   88SLPC  H10X 8566   2.718   1.084   5.439  1.6007 -2.0001 -0.3826
   88SLPC  H10Y 8567   2.751   1.260   5.436 -1.8752 -1.4173  0.7958
   88SLPC  C311 8568   2.859   1.135   5.589 -0.0667  0.0190  0.3755
   88SLPC  H11X 8569   2.931   1.217   5.608 -3.1913  3.6431 -1.9137
   88SLPC  H11Y 8570   2.909   1.035   5.592 -0.2632 -0.0693  1.0741
   88SLPC  C312 8571   2.760   1.142   5.701 -0.1834  0.1462 -0.1873
   88SLPC  H12X 8572   2.681   1.065   5.688  0.6318 -0.8745  0.6781
   88SLPC  H12Y 8573   2.710   1.241   5.713  1.3427  1.0073 -0.6159
   88SLPC  C313 8574   2.846   1.118   5.830  0.8216 -0.3686 -0.1007
   88SLPC  H13X 8575   2.913   1.206   5.840 -0.0132  0.0993  1.9064
   88SLPC  H13Y 8576   2.912   1.029   5.832  2.1633  0.4893 -2.4238
   88SLPC  C314 8577   2.754   1.114   5.958  0.2207  0.2227  0.9829
   88SLPC  H14X 8578   2.665   1.049   5.946  1.6809 -1.5916 -0.6788
   88SLPC  H14Y 8579   2.715   1.217   5.977 -0.4482  0.0321  0.6712
   88SLPC  C315 8580   2.819   1.067   6.081 -0.8562  0.0091  0.2894
   88SLPC  H15X 8581   2.866   1.142   6.149  1.2888 -0.6347 -0.3905
   88SLPC  H15Y 8582   2.897   0.990   6.061 -0.4952  0.2074  0.8713
   88SLPC  C316 8583   2.714   0.997   6.176  0.0516  0.0064  0.4227
   88SLPC  H16X 8584   2.665   0.907   6.133 -0.5889  0.4526  0.2033
   88SLPC  H16Y 8585   2.639   1.074   6.204 -0.5972 -0.0747 -0.9778
   88SLPC  C317 8586   2.775   0.923   6.301  0.1781  0.2001  0.3563
   88SLPC  H17X 8587   2.834   0.838   6.263 -1.9630 -1.0920 -0.2620
   88SLPC  H17Y 8588   2.691   0.886   6.364  0.9952  0.7853  1.8707
   88SLPC  C318 8589   2.867   1.012   6.382 -0.2539  0.3101  0.8749
   88SLPC  H18X 8590   2.813   1.097   6.431 -1.8055  0.2175 -0.5928
   88SLPC  H18Y 8591   2.946   1.062   6.322  1.8579 -1.1450  2.2975
   88SLPC  H18Z 8592   2.912   0.950   6.463 -0.8032  0.0210  0.9627
   89SAPE     N 8593   0.975   3.619   8.357  0.0183 -0.4050  0.4101
   89SAPE   HN1 8594   1.071   3.636   8.319  0.2420  1.4017  1.6456
   89SAPE   HN2 8595   0.925   3.585   8.273  1.6853  2.3981 -1.9375
   89SAPE   HN3 8596   0.934   3.714   8.366  1.2252  0.3088 -1.2112
   89SAPE   C12 8597   0.985   3.520   8.472  0.6024  0.1307 -0.3858
   89SAPE  H12A 8598   0.884   3.509   8.516  0.8972 -1.7967 -0.1155
   89SAPE  H12B 8599   1.059   3.561   8.544 -0.1855 -0.2004  0.6389
   89SAPE   C11 8600   1.020   3.381   8.424  0.0703 -0.0671  0.4195
   89SAPE  H11A 8601   0.926   3.341   8.379 -0.4223  2.4226 -0.9261
   89SAPE  H11B 8602   1.043   3.321   8.515  0.4314  0.0406  0.4007
   89SAPE     P 8603   1.162   3.239   8.261 -0.0067 -0.1369  0.2317
   89SAPE   O13 8604   1.252   3.166   8.348  0.4037 -0.0687  0.3140
   89SAPE   O14 8605   1.035   3.173   8.217 -0.2344 -0.3929 -0.3509
   89SAPE   O12 8606   1.131   3.376   8.333  0.1584 -0.3060  0.1059
   89SAPE   O11 8607   1.244   3.278   8.135 -0.8794  0.3713  0.3791
   89SAPE    C1 8608   1.251   3.399   8.065  0.2423  0.2164 -0.5972
   89SAPE    HA 8609   1.268   3.483   8.135  1.6939  0.0330 -0.6988
   89SAPE    HB 8610   1.341   3.399   8.000  0.0562 -2.2605 -0.9548
   89SAPE    C2 8611   1.119   3.429   7.995 -0.6168 -0.2010 -0.0236
   89SAPE    HS 8612   1.035   3.420   8.066 -0.5295  2.5718  0.5169
   89SAPE   O21 8613   1.106   3.336   7.885  0.8968 -0.4830  0.1887
   89SAPE   C21 8614   0.979   3.303   7.854  0.1482  0.3346 -0.0502
   89SAPE   O22 8615   0.881   3.332   7.922 -0.1474 -0.4924 -0.0025
   89SAPE   C22 8616   0.987   3.219   7.728  0.1175 -0.5677  0.0399
   89SAPE   H2R 8617   1.040   3.123   7.744 -0.8558 -1.0689  0.3187
   89SAPE   H2S 8618   0.882   3.190   7.706  0.8512 -3.0454 -0.4451
   89SAPE    C3 8619   1.102   3.569   7.943 -0.2397  0.5365 -0.3793
   89SAPE    HX 8620   1.156   3.587   7.848  1.0649 -0.3401  0.1672
   89SAPE    HY 8621   1.133   3.638   8.024  0.1787  1.3755 -1.2286
   89SAPE   O31 8622   0.964   3.597   7.932 -0.0883 -0.3914 -0.1150
   89SAPE   C31 8623   0.927   3.714   7.882 -0.4896  0.2368  0.9132
   89SAPE   O32 8624   1.002   3.813   7.872 -0.5886  0.9644 -0.1776
   89SAPE   C32 8625   0.785   3.700   7.828 -0.7626 -0.0575  0.5220
   89SAPE   H2X 8626   0.716   3.727   7.911 -0.2813  1.0702  0.5758
   89SAPE   H2Y 8627   0.760   3.593   7.811 -0.5470  0.0217 -0.3269
   89SAPE   C23 8628   1.055   3.302   7.623 -0.1818 -0.1781  0.8038
   89SAPE   H3R 8629   1.158   3.330   7.656 -0.3252  0.5861  0.6250
   89SAPE   H3S 8630   1.006   3.396   7.591  1.6276  1.0963  1.5561
   89SAPE   C24 8631   1.068   3.228   7.489  0.0652 -0.3792  0.0086
   89SAPE   H4R 8632   1.124   3.133   7.499 -0.1702 -0.7446 -1.9099
   89SAPE   H4S 8633   1.114   3.300   7.418 -0.5972  0.8255  0.7495
   89SAPE   C25 8634   0.928   3.184   7.441 -0.0304  0.0582  0.0846
   89SAPE   H5R 8635   0.875   3.131   7.521  0.5736 -0.6453  0.0302
   89SAPE   C26 8636   0.878   3.196   7.319 -0.1802  0.0646 -0.0043
   89SAPE   H6R 8637   0.777   3.153   7.306  0.1727 -0.5547 -0.7576
   89SAPE   C27 8638   0.931   3.261   7.192 -0.2669 -0.6312 -0.7583
   89SAPE   H7R 8639   0.972   3.359   7.224  0.2363 -0.3146 -2.3017
   89SAPE   H7S 8640   0.845   3.290   7.128 -0.0953  1.6215 -0.0522
   89SAPE   C28 8641   1.024   3.166   7.118  0.4300 -0.6626  0.1166
   89SAPE   H8R 8642   1.071   3.092   7.185 -1.2648 -2.3877 -0.4916
   89SAPE   C29 8643   1.041   3.160   6.986  0.0099 -0.3395  0.3121
   89SAPE   H9R 8644   1.099   3.078   6.940  0.2247  0.8225 -1.5895
   89SAPE  C210 8645   0.979   3.255   6.888  0.1652  0.0115  0.2842
   89SAPE  H10R 8646   1.029   3.355   6.891  2.0169 -0.8953  0.8156
   89SAPE  H10S 8647   0.875   3.277   6.918 -0.2553 -0.2180 -0.9622
   89SAPE  C211 8648   0.976   3.215   6.746  0.0167 -0.0147  0.1180
   89SAPE  H11R 8649   0.884   3.172   6.706  0.0994  0.1861 -0.2937
   89SAPE  C212 8650   1.073   3.227   6.659  0.4922  0.8229 -0.1149
   89SAPE  H12R 8651   1.056   3.194   6.556 -1.6314 -1.6733  0.9084
   89SAPE  C213 8652   1.215   3.271   6.695 -0.3105  0.0738  0.0289
   89SAPE  H13R 8653   1.221   3.299   6.803 -1.6990 -0.6912  0.3330
   89SAPE  H13S 8654   1.224   3.370   6.646 -1.2188  0.5858  0.8541
   89SAPE  C214 8655   1.331   3.181   6.657  0.3353 -0.6693  0.2307
   89SAPE  H14R 8656   1.326   3.080   6.700 -0.1001  0.3080  2.6255
   89SAPE  C215 8657   1.425   3.213   6.566  0.6941 -0.0527  0.3028
   89SAPE  H15R 8658   1.504   3.138   6.550  0.6101 -0.4895  1.7626
   89SAPE  C216 8659   1.451   3.332   6.484  0.0839 -0.5044  0.7254
   89SAPE  H16R 8660   1.533   3.388   6.532  1.3920  0.1249 -2.0671
   89SAPE  H16S 8661   1.361   3.397   6.473  0.2962 -0.1396  1.1261
   89SAPE  C217 8662   1.490   3.284   6.343 -0.6468 -0.0603  0.1851
   89SAPE  H17R 8663   1.406   3.228   6.296  0.0019  0.0099 -1.0942
   89SAPE  H17S 8664   1.567   3.204   6.341 -0.8678 -0.2773  0.3411
   89SAPE  C218 8665   1.563   3.393   6.259  0.5188  0.3012 -0.1110
   89SAPE  H18R 8666   1.561   3.341   6.161  0.2548 -1.6917  0.9056
   89SAPE  H18S 8667   1.661   3.418   6.303  1.7291 -1.4395 -1.6410
   89SAPE  C219 8668   1.479   3.520   6.245 -0.4745 -0.0232  0.0055
   89SAPE  H19R 8669   1.460   3.564   6.346  1.2797 -2.2852  1.4221
   89SAPE  H19S 8670   1.379   3.495   6.204 -0.8273  0.9859  0.2340
   89SAPE  C220 8671   1.551   3.624   6.165 -0.7539 -0.2895 -0.8370
   89SAPE  H20R 8672   1.643   3.670   6.208 -0.1367 -1.3888 -0.9609
   89SAPE  H20S 8673   1.479   3.706   6.144 -2.3904 -0.0274  4.4373
   89SAPE  H20T 8674   1.605   3.577   6.080 -0.5947 -0.7149 -0.5023
   89SAPE   C33 8675   0.752   3.781   7.703 -0.3109  0.6765  0.4547
   89SAPE   H3X 8676   0.768   3.891   7.709  0.6696  0.6138 -0.6858
   89SAPE   H3Y 8677   0.641   3.786   7.691 -0.2264  4.7645 -0.1764
   89SAPE   C34 8678   0.810   3.728   7.568 -0.7637 -0.4080 -0.3254
   89SAPE   H4X 8679   0.768   3.790   7.487 -1.0565 -1.7453 -1.2279
   89SAPE   H4Y 8680   0.766   3.627   7.553 -1.8857  0.2990 -1.9788
   89SAPE   C35 8681   0.965   3.726   7.553  0.2491 -0.2356  0.1570
   89SAPE   H5X 8682   1.008   3.662   7.633  0.4454 -0.3767 -0.0596
   89SAPE   H5Y 8683   1.007   3.828   7.565  3.0879 -1.3425  0.4636
   89SAPE   C36 8684   1.022   3.674   7.412  0.0537 -0.0634  0.1755
   89SAPE   H6X 8685   0.983   3.743   7.334  0.2256  1.4327  1.3422
   89SAPE   H6Y 8686   0.976   3.575   7.392 -0.8998  0.2970  0.5251
   89SAPE   C37 8687   1.169   3.663   7.401 -0.6575  0.5652  0.2249
   89SAPE   H7X 8688   1.200   3.591   7.479  0.8794 -1.5467 -2.1568
   89SAPE   H7Y 8689   1.215   3.760   7.429 -3.4808  1.5212  1.9195
   89SAPE   C38 8690   1.211   3.597   7.263 -0.9715  0.9018  0.1518
   89SAPE   H8X 8691   1.181   3.490   7.256  0.1306  0.4690  1.5218
   89SAPE   H8Y 8692   1.322   3.589   7.274 -1.2087 -1.2519  1.4891
   89SAPE   C39 8693   1.189   3.683   7.148 -0.2734 -0.6737 -0.3356
   89SAPE   H9X 8694   1.224   3.784   7.177  1.0867 -1.2246  0.0347
   89SAPE   H9Y 8695   1.080   3.687   7.126 -0.2923  0.6379 -0.0435
   89SAPE  C310 8696   1.259   3.622   7.016  0.6074  0.4811 -0.2501
   89SAPE  H10X 8697   1.198   3.529   7.006  0.5688  0.6830 -2.0855
   89SAPE  H10Y 8698   1.368   3.607   7.037  0.3745 -1.0437  0.0248
   89SAPE  C311 8699   1.258   3.712   6.892 -0.6156  0.3372 -0.3980
   89SAPE  H11X 8700   1.317   3.804   6.913  1.1178 -0.5703 -1.0284
   89SAPE  H11Y 8701   1.158   3.740   6.855 -1.3783 -1.6147  0.0631
   89SAPE  C312 8702   1.337   3.641   6.785  0.1568 -0.1970  0.6276
   89SAPE  H12X 8703   1.279   3.553   6.750 -0.1835  0.8474 -1.5979
   89SAPE  H12Y 8704   1.437   3.609   6.824  0.3762 -1.4657 -0.8679
   89SAPE  C313 8705   1.347   3.723   6.656  0.2275 -0.6970  0.5573
   89SAPE  H13X 8706   1.268   3.801   6.657  1.2171  0.3479  0.4125
   89SAPE  H13Y 8707   1.312   3.658   6.573 -3.9508  0.0348  1.5076
   89SAPE  C314 8708   1.485   3.796   6.632  0.0448  0.2722  0.6902
   89SAPE  H14X 8709   1.567   3.725   6.652 -1.4213 -2.5224 -2.3214
   89SAPE  H14Y 8710   1.491   3.877   6.708  2.3036  0.4870  0.3473
   89SAPE  C315 8711   1.483   3.870   6.492 -0.2951  0.1800 -0.0443
   89SAPE  H15X 8712   1.388   3.926   6.477  1.3161  3.4500  1.1111
   89SAPE  H15Y 8713   1.487   3.791   6.413 -0.4291 -0.2214  0.3424
   89SAPE  C316 8714   1.594   3.972   6.458 -0.6485  0.2388 -0.1376
   89SAPE  H16X 8715   1.693   3.923   6.473 -1.7170 -1.6886  1.0409
   89SAPE  H16Y 8716   1.599   4.068   6.514 -0.5496  0.6653 -0.8593
   89SAPE  C317 8717   1.589   4.013   6.313  0.0900  0.2666  0.2263
   89SAPE  H17X 8718   1.596   3.925   6.245  0.4379  0.8421 -0.4988
   89SAPE  H17Y 8719   1.683   4.067   6.289  0.2362 -0.7250 -1.5982
   89SAPE  C318 8720   1.461   4.095   6.288  0.2177  1.4108  0.4607
   89SAPE  H18X 8721   1.458   4.199   6.327 -2.1229  1.3115  0.6935
   89SAPE  H18Y 8722   1.368   4.045   6.324  0.1955 -0.6075 -2.1533
   89SAPE  H18Z 8723   1.446   4.114   6.180  0.6097  0.0150  0.1488
   90SAPE     N 8724   2.309   2.393   8.034 -0.0508 -0.1049 -0.1357
   90SAPE   HN1 8725   2.308   2.398   8.138 -2.1434 -1.1384 -0.0577
   90SAPE   HN2 8726   2.224   2.343   8.002 -0.8881 -0.4285  2.3862
   90SAPE   HN3 8727   2.389   2.328   8.016  1.2397  0.6703  2.3501
   90SAPE   C12 8728   2.350   2.523   7.963 -0.2982 -0.1062 -0.0209
   90SAPE  H12A 8729   2.268   2.597   7.979 -0.8918 -0.7938  0.1957
   90SAPE  H12B 8730   2.350   2.490   7.856  0.9279 -1.5244  0.3859
   90SAPE   C11 8731   2.480   2.580   8.025 -0.2354  0.0310 -0.4217
   90SAPE  H11A 8732   2.457   2.609   8.129 -0.8687 -0.2322 -0.4823
   90SAPE  H11B 8733   2.507   2.675   7.975  1.9722  0.2001  0.9444
   90SAPE     P 8734   2.716   2.501   8.080  0.2364  0.0182 -0.3799
   90SAPE   O13 8735   2.761   2.644   8.090 -0.4573  0.0358  0.0383
   90SAPE   O14 8736   2.733   2.412   8.200  1.3026 -0.2914 -0.0542
   90SAPE   O12 8737   2.578   2.482   8.011  0.2440 -0.0012 -0.5613
   90SAPE   O11 8738   2.813   2.439   7.971 -0.3267 -0.6887  0.2017
   90SAPE    C1 8739   2.801   2.459   7.831 -0.0317  0.3172  0.3746
   90SAPE    HA 8740   2.757   2.560   7.817  0.0900  0.2678 -0.4559
   90SAPE    HB 8741   2.905   2.477   7.794  0.4051 -1.4447  0.6219
   90SAPE    C2 8742   2.716   2.355   7.753  0.1838  0.2324 -0.2872
   90SAPE    HS 8743   2.672   2.294   7.835 -1.0646  0.3865 -0.8157
   90SAPE   O21 8744   2.802   2.281   7.665 -0.4075  0.2752  0.7293
   90SAPE   C21 8745   2.744   2.184   7.606  0.2708  0.8139 -0.3476
   90SAPE   O22 8746   2.635   2.133   7.642  0.2430  0.0707  0.2902
   90SAPE   C22 8747   2.812   2.131   7.487  0.7109  0.4018  0.0439
   90SAPE   H2R 8748   2.813   2.193   7.395 -1.6152 -1.8641 -1.6527
   90SAPE   H2S 8749   2.920   2.122   7.513  0.5672  0.6241  0.7520
   90SAPE    C3 8750   2.601   2.432   7.682 -0.1356 -0.0588  0.1182
   90SAPE    HX 8751   2.538   2.479   7.760  1.6397 -0.5628  1.9449
   90SAPE    HY 8752   2.540   2.350   7.636 -0.5284  0.1446  0.2719
   90SAPE   O31 8753   2.649   2.521   7.582  0.2207  0.1391  0.6681
   90SAPE   C31 8754   2.567   2.622   7.549  0.5737  0.0515  0.2601
   90SAPE   O32 8755   2.458   2.647   7.596  0.2201  0.0589  0.0944
   90SAPE   C32 8756   2.635   2.706   7.448 -0.4946  0.1961  0.1228
   90SAPE   H2X 8757   2.701   2.639   7.388 -0.9070 -1.3040  1.2925
   90SAPE   H2Y 8758   2.700   2.779   7.502 -0.5030  1.4472 -1.4687
   90SAPE   C23 8759   2.760   1.995   7.451  1.0110  0.4708 -0.3832
   90SAPE   H3R 8760   2.659   2.003   7.406  1.1942  1.9305 -0.5960
   90SAPE   H3S 8761   2.756   1.930   7.542  0.0702  1.9497  0.6868
   90SAPE   C24 8762   2.858   1.920   7.359 -0.3849  0.1044  0.3538
   90SAPE   H4R 8763   2.822   1.816   7.347  1.8326 -0.8255  1.1186
   90SAPE   H4S 8764   2.954   1.900   7.413  0.0829 -0.1180 -0.5496
   90SAPE   C25 8765   2.878   1.987   7.227  0.2126  0.5737 -0.5322
   90SAPE   H5R 8766   2.787   2.037   7.190 -0.4915  0.4513  0.9572
   90SAPE   C26 8767   2.984   1.984   7.149 -0.0590 -0.6615 -0.8641
   90SAPE   H6R 8768   2.982   2.044   7.057  0.2604  0.9271  0.1303
   90SAPE   C27 8769   3.121   1.934   7.183  0.7033 -0.5669  0.0724
   90SAPE   H7R 8770   3.122   1.824   7.166  1.6989 -0.2741 -2.1046
   90SAPE   H7S 8771   3.128   1.947   7.293  1.6083  1.8752 -0.2174
   90SAPE   C28 8772   3.235   2.015   7.122  0.3134  0.2169 -0.1652
   90SAPE   H8R 8773   3.314   2.048   7.191  0.5455  0.4211 -0.5239
   90SAPE   C29 8774   3.263   2.032   6.988  0.0215 -0.4179  0.0983
   90SAPE   H9R 8775   3.349   2.089   6.951 -0.3945 -0.6084 -1.2149
   90SAPE  C210 8776   3.170   1.985   6.875  0.1972  0.6964 -0.3186
   90SAPE  H10R 8777   3.076   1.936   6.909  0.5628 -1.5235 -2.2807
   90SAPE  H10S 8778   3.221   1.902   6.823 -0.1365  0.8876 -0.9580
   90SAPE  C211 8779   3.133   2.099   6.777  0.6920  0.1607  0.5397
   90SAPE  H11R 8780   3.136   2.201   6.818 -0.2715 -0.2342  1.6720
   90SAPE  C212 8781   3.106   2.081   6.644  0.2980 -0.5520 -0.1753
   90SAPE  H12R 8782   3.082   2.170   6.583  2.2537  0.6794  0.7509
   90SAPE  C213 8783   3.106   1.949   6.568 -0.9395  0.1519  0.3171
   90SAPE  H13R 8784   3.116   1.855   6.627 -1.4918  0.5154  1.0079
   90SAPE  H13S 8785   3.190   1.935   6.497 -3.4146 -1.0701 -2.6279
   90SAPE  C214 8786   2.980   1.923   6.489 -0.2102 -0.0705  0.2246
   90SAPE  H14R 8787   2.908   1.854   6.534 -1.2304  1.4311  0.9969
   90SAPE  C215 8788   2.961   1.990   6.366 -0.6769  0.8059 -0.1060
   90SAPE  H15R 8789   2.861   1.986   6.319  0.2606 -1.6970 -2.1410
   90SAPE  C216 8790   3.063   2.088   6.308 -0.0332 -0.2687  0.1564
   90SAPE  H16R 8791   3.167   2.047   6.313  0.2179  0.4501  1.0089
   90SAPE  H16S 8792   3.057   2.185   6.361 -3.3646  0.1793 -0.8510
   90SAPE  C217 8793   3.026   2.119   6.161  0.5341  0.7867 -0.2380
   90SAPE  H17R 8794   3.009   2.027   6.101  0.3823  0.8697 -0.3234
   90SAPE  H17S 8795   3.116   2.166   6.114  0.0131  1.5187 -0.5173
   90SAPE  C218 8796   2.901   2.203   6.146 -0.3177  0.1755 -0.4755
   90SAPE  H18R 8797   2.929   2.308   6.170  4.2992 -0.5193 -1.8609
   90SAPE  H18S 8798   2.812   2.182   6.209 -1.1143  0.1685 -1.5546
   90SAPE  C219 8799   2.849   2.205   5.998 -0.4905 -0.1578 -0.3860
   90SAPE  H19R 8800   2.846   2.101   5.961 -0.5499 -0.1424 -0.4245
   90SAPE  H19S 8801   2.906   2.283   5.942  0.5997 -0.1587  0.6689
   90SAPE  C220 8802   2.712   2.257   5.971  0.4765 -0.0908  0.2492
   90SAPE  H20R 8803   2.633   2.204   6.030  1.0825 -1.7588 -0.3762
   90SAPE  H20S 8804   2.686   2.252   5.864  0.2690  1.9305  0.1716
   90SAPE  H20T 8805   2.710   2.364   6.000 -1.4100 -0.9267  3.9400
   90SAPE   C33 8806   2.534   2.774   7.355 -0.0249  0.2570 -0.5755
   90SAPE   H3X 8807   2.588   2.850   7.295 -0.2177  0.3323 -0.6555
   90SAPE   H3Y 8808   2.449   2.829   7.401 -0.6735 -1.4074  0.2921
   90SAPE   C34 8809   2.492   2.672   7.248 -0.1635  0.1709  0.2173
   90SAPE   H4X 8810   2.434   2.592   7.299 -0.7583  0.6213  0.2565
   90SAPE   H4Y 8811   2.585   2.626   7.207  0.3276  0.0684  1.3989
   90SAPE   C35 8812   2.405   2.739   7.136  0.4509  0.5875  0.1728
   90SAPE   H5X 8813   2.439   2.844   7.121  1.4609  0.1048 -1.1378
   90SAPE   H5Y 8814   2.299   2.736   7.169  0.6079 -1.8775  0.6723
   90SAPE   C36 8815   2.432   2.662   7.007  0.6382 -0.0305  0.3105
   90SAPE   H6X 8816   2.424   2.555   7.033 -0.7660 -0.3991 -1.4229
   90SAPE   H6Y 8817   2.537   2.683   6.975  0.2927  1.0709 -0.1545
   90SAPE   C37 8818   2.331   2.702   6.894 -0.4612  0.5819  0.1945
   90SAPE   H7X 8819   2.369   2.795   6.847 -0.3047  0.2095 -0.4337
   90SAPE   H7Y 8820   2.224   2.707   6.924 -0.9163 -2.8790 -0.4568
   90SAPE   C38 8821   2.318   2.587   6.791 -0.2867  0.6604 -0.4403
   90SAPE   H8X 8822   2.250   2.506   6.821 -0.2398  0.1273 -1.6994
   90SAPE   H8Y 8823   2.420   2.546   6.773 -0.9171 -1.3959  0.4456
   90SAPE   C39 8824   2.256   2.627   6.650 -0.0942  1.0087 -0.3606
   90SAPE   H9X 8825   2.294   2.718   6.599 -2.2493  1.8433 -0.5836
   90SAPE   H9Y 8826   2.148   2.630   6.675  0.1876  0.9382  0.9450
   90SAPE  C310 8827   2.284   2.504   6.561  0.0046 -1.1174  0.1677
   90SAPE  H10X 8828   2.259   2.412   6.618 -0.7434 -0.5264  0.8145
   90SAPE  H10Y 8829   2.394   2.497   6.550 -0.0505 -0.9409 -0.5661
   90SAPE  C311 8830   2.205   2.507   6.427  0.1417 -0.2330  0.3158
   90SAPE  H11X 8831   2.211   2.604   6.373  1.1568 -1.0873 -1.1583
   90SAPE  H11Y 8832   2.096   2.514   6.447 -0.4143 -0.6339 -2.2187
   90SAPE  C312 8833   2.232   2.385   6.336 -0.1278  0.2483 -0.0442
   90SAPE  H12X 8834   2.151   2.313   6.359 -3.3219  3.6347  0.2043
   90SAPE  H12Y 8835   2.331   2.339   6.358 -1.1821 -2.2576 -0.1617
   90SAPE  C313 8836   2.225   2.418   6.186  0.8282 -0.1991 -0.2190
   90SAPE  H13X 8837   2.121   2.451   6.163  0.9745  0.9438  0.6865
   90SAPE  H13Y 8838   2.231   2.318   6.138 -1.1439 -0.3685 -0.2057
   90SAPE  C314 8839   2.341   2.502   6.132  0.0768  0.0465  0.3856
   90SAPE  H14X 8840   2.439   2.462   6.163  1.6200  2.2699 -1.3058
   90SAPE  H14Y 8841   2.346   2.599   6.186 -0.6821  1.6774 -2.2521
   90SAPE  C315 8842   2.338   2.524   5.979  0.6273  0.1022  0.6865
   90SAPE  H15X 8843   2.239   2.552   5.938  0.7003  0.2571  0.6161
   90SAPE  H15Y 8844   2.367   2.426   5.936  0.3084 -0.1045  0.9346
   90SAPE  C316 8845   2.438   2.630   5.922  0.0875  0.2841 -0.0620
   90SAPE  H16X 8846   2.545   2.610   5.946  0.0853  0.1238 -0.1878
   90SAPE  H16Y 8847   2.423   2.727   5.973 -0.9070 -0.6566  1.5420
   90SAPE  C317 8848   2.430   2.658   5.769  0.2876  0.0153 -0.0075
   90SAPE  H17X 8849   2.466   2.760   5.745  1.0897  0.3118  2.2413
   90SAPE  H17Y 8850   2.323   2.652   5.741  0.1621  0.0262  0.4550
   90SAPE  C318 8851   2.504   2.548   5.687  0.1751  0.3457  0.1124
   90SAPE  H18X 8852   2.475   2.449   5.728  2.2556 -0.8695 -1.1576
   90SAPE  H18Y 8853   2.614   2.566   5.690  0.0082  1.8635 -1.4294
   90SAPE  H18Z 8854   2.473   2.548   5.580 -1.3891  0.7136  0.5416
   91SAPE     N 8855   5.677   4.206   7.876  0.1176  0.5848 -0.1172
   91SAPE   HN1 8856   5.763   4.166   7.833 -0.1534 -0.7545  0.5235
   91SAPE   HN2 8857   5.679   4.309   7.867  0.5214  0.5128 -1.0090
   91SAPE   HN3 8858   5.679   4.180   7.976 -1.8800  1.4137  0.1929
   91SAPE   C12 8859   5.547   4.173   7.817 -0.3467  0.3045 -0.4641
   91SAPE  H12A 8860   5.471   4.232   7.872 -0.3617 -0.6431  0.5456
   91SAPE  H12B 8861   5.524   4.065   7.810 -0.1091  0.3189 -1.9726
   91SAPE   C11 8862   5.550   4.217   7.664  0.0836  0.8575 -0.4538
   91SAPE  H11A 8863   5.459   4.180   7.612  1.7671 -2.3068 -1.4183
   91SAPE  H11B 8864   5.641   4.174   7.616 -0.5615 -2.9135  1.2900
   91SAPE     P 8865   5.653   4.459   7.627  0.2840  0.1183  0.2216
   91SAPE   O13 8866   5.585   4.590   7.617  0.1482 -0.4676 -0.0543
   91SAPE   O14 8867   5.741   4.441   7.747 -0.2894  0.2611 -0.2548
   91SAPE   O12 8868   5.537   4.354   7.641  0.3022 -0.3168 -0.1057
   91SAPE   O11 8869   5.718   4.427   7.491  0.1007 -0.1218 -0.6887
   91SAPE    C1 8870   5.837   4.352   7.488 -0.6456 -0.0733  0.0023
   91SAPE    HA 8871   5.925   4.415   7.513 -0.7528  0.4743 -0.9613
   91SAPE    HB 8872   5.834   4.258   7.548  1.0508 -1.0179 -1.2803
   91SAPE    C2 8873   5.854   4.288   7.335 -0.9029 -0.0997  0.3663
   91SAPE    HS 8874   5.963   4.285   7.314 -0.7295 -2.1345  1.2768
   91SAPE   O21 8875   5.778   4.365   7.244  0.0927 -0.2633 -0.5093
   91SAPE   C21 8876   5.832   4.490   7.220 -0.1801  0.1853  0.0763
   91SAPE   O22 8877   5.927   4.535   7.276 -0.0209 -0.6428  0.3839
   91SAPE   C22 8878   5.734   4.549   7.111 -0.5441  0.0139 -0.8969
   91SAPE   H2R 8879   5.632   4.507   7.124 -0.7311  0.2581 -1.5220
   91SAPE   H2S 8880   5.727   4.655   7.144 -1.7602 -1.0469  2.7414
   91SAPE    C3 8881   5.792   4.144   7.335 -0.8779  0.5419  0.6313
   91SAPE    HX 8882   5.702   4.152   7.400 -1.0464 -1.4528  0.7076
   91SAPE    HY 8883   5.870   4.074   7.374  1.2565  2.4259 -0.0494
   91SAPE   O31 8884   5.757   4.097   7.203  0.7113 -0.6283  1.2083
   91SAPE   C31 8885   5.861   4.066   7.125 -0.3574  0.8762 -0.0079
   91SAPE   O32 8886   5.978   4.082   7.151 -0.5139 -0.2980 -0.2880
   91SAPE   C32 8887   5.791   4.012   6.991 -1.1808 -0.0737 -0.0400
   91SAPE   H2X 8888   5.696   4.067   6.973  0.5277  2.3328 -2.5268
   91SAPE   H2Y 8889   5.764   3.906   7.006  3.4021 -1.1469  2.5884
   91SAPE   C23 8890   5.789   4.544   6.966 -0.4827  0.7059  0.0527
   91SAPE   H3R 8891   5.893   4.580   6.981  0.3681 -1.4840 -0.1461
   91SAPE   H3S 8892   5.740   4.619   6.901 -0.0238  2.4071  1.5781
   91SAPE   C24 8893   5.809   4.401   6.907  0.4880 -0.4799 -0.2281
   91SAPE   H4R 8894   5.859   4.336   6.982 -0.4209  1.8044  2.5414
   91SAPE   H4S 8895   5.873   4.404   6.816  0.6279 -2.2008 -0.2245
   91SAPE   C25 8896   5.672   4.348   6.879 -0.4294  0.0250  0.3530
   91SAPE   H5R 8897   5.624   4.328   6.976  0.4870  2.5494  1.4124
   91SAPE   C26 8898   5.614   4.328   6.760  0.1333 -0.2074 -0.0754
   91SAPE   H6R 8899   5.514   4.282   6.767  0.3796 -1.0755 -1.6912
   91SAPE   C27 8900   5.672   4.347   6.619 -0.1339  1.0951 -1.0962
   91SAPE   H7R 8901   5.691   4.245   6.578 -1.5376 -0.1983  1.2423
   91SAPE   H7S 8902   5.765   4.407   6.630  0.1584  0.3303  1.1904
   91SAPE   C28 8903   5.588   4.423   6.516  0.5844  0.5065  1.0531
   91SAPE   H8R 8904   5.503   4.484   6.552  0.0061  0.1169  0.3736
   91SAPE   C29 8905   5.633   4.442   6.390  0.6847  0.3046  0.7349
   91SAPE   H9R 8906   5.575   4.504   6.320  1.5235  0.3998  0.0965
   91SAPE  C210 8907   5.746   4.378   6.321 -0.2483  0.9057  0.0759
   91SAPE  H10R 8908   5.698   4.326   6.235  2.3314  1.3005 -1.7371
   91SAPE  H10S 8909   5.790   4.286   6.366  0.6868  0.5892 -1.3878
   91SAPE  C211 8910   5.847   4.476   6.278 -0.2919  0.1610  0.0586
   91SAPE  H11R 8911   5.882   4.557   6.344  0.4684  0.6837 -0.9506
   91SAPE  C212 8912   5.903   4.467   6.157 -0.3169 -1.0054 -0.2453
   91SAPE  H12R 8913   5.978   4.539   6.122  0.4614 -1.2555  0.8648
   91SAPE  C213 8914   5.874   4.375   6.040  0.8522  0.3316 -0.6599
   91SAPE  H13R 8915   5.814   4.288   6.073  0.7536  0.8199  0.5437
   91SAPE  H13S 8916   5.969   4.331   6.003  0.3950 -0.5710 -0.7732
   91SAPE  C214 8917   5.809   4.446   5.924  0.5709 -0.3184  0.6944
   91SAPE  H14R 8918   5.877   4.510   5.865  0.1520  1.2776  1.8677
   91SAPE  C215 8919   5.690   4.422   5.869  0.8624  0.0443 -0.1637
   91SAPE  H15R 8920   5.678   4.471   5.771 -0.6644 -0.3409 -0.1969
   91SAPE  C216 8921   5.579   4.331   5.925 -0.3718  0.5364 -0.2069
   91SAPE  H16R 8922   5.600   4.300   6.030  0.6531 -1.6293 -0.9903
   91SAPE  H16S 8923   5.575   4.232   5.876  0.5954  0.0494  0.6740
   91SAPE  C217 8924   5.434   4.394   5.932 -0.2865  0.0686 -0.0243
   91SAPE  H17R 8925   5.393   4.423   5.832  0.6286 -1.5018 -0.8986
   91SAPE  H17S 8926   5.436   4.486   5.994 -0.6174 -1.8217  2.9492
   91SAPE  C218 8927   5.335   4.311   6.014  0.4910  0.0289  0.5634
   91SAPE  H18R 8928   5.320   4.208   5.975 -1.1126  0.5771 -0.3582
   91SAPE  H18S 8929   5.232   4.353   6.004 -1.2747 -4.0597 -0.8969
   91SAPE  C219 8930   5.367   4.299   6.165 -0.3832  1.0145  0.8900
   91SAPE  H19R 8931   5.420   4.391   6.199  3.2495 -0.9449  1.0124
   91SAPE  H19S 8932   5.445   4.222   6.177  0.8097  2.2265  1.2012
   91SAPE  C220 8933   5.235   4.273   6.251  0.1365 -0.1227  0.3704
   91SAPE  H20R 8934   5.152   4.333   6.209 -0.2335 -1.8257 -1.4847
   91SAPE  H20S 8935   5.257   4.293   6.358 -1.0676 -0.4601  0.6957
   91SAPE  H20T 8936   5.207   4.166   6.254 -1.7355  0.3483  2.8628
   91SAPE   C33 8937   5.876   4.033   6.867  0.7229  0.3041  0.8380
   91SAPE   H3X 8938   5.970   3.973   6.863 -0.4288 -1.6941 -3.4154
   91SAPE   H3Y 8939   5.911   4.138   6.869  0.8737  0.3304 -0.9484
   91SAPE   C34 8940   5.814   4.003   6.735  0.5383 -0.2670  1.1350
   91SAPE   H4X 8941   5.739   4.080   6.708 -1.5614 -3.2057 -2.4709
   91SAPE   H4Y 8942   5.755   3.909   6.738 -0.9740  0.2837 -3.5382
   91SAPE   C35 8943   5.907   3.997   6.607 -0.0379 -0.8297 -0.0627
   91SAPE   H5X 8944   5.948   3.894   6.612 -2.7821 -2.1414 -1.8279
   91SAPE   H5Y 8945   5.980   4.080   6.607 -0.0911 -0.7829 -0.2706
   91SAPE   C36 8946   5.816   3.990   6.483  0.4155  0.3959 -0.0978
   91SAPE   H6X 8947   5.750   4.078   6.476  0.5401  0.4615 -0.4376
   91SAPE   H6Y 8948   5.757   3.897   6.494 -1.0805  1.2051 -1.0539
   91SAPE   C37 8949   5.908   3.971   6.358 -0.2920  0.1865  0.4152
   91SAPE   H7X 8950   5.961   3.873   6.365  2.8823  1.5552 -2.1143
   91SAPE   H7Y 8951   5.992   4.043   6.351 -0.4256  0.1671 -3.2255
   91SAPE   C38 8952   5.828   3.988   6.227 -0.3196 -0.0321 -0.3994
   91SAPE   H8X 8953   5.795   4.093   6.216  0.6495  0.3828  0.5285
   91SAPE   H8Y 8954   5.740   3.922   6.241  0.6718 -1.3334 -0.1608
   91SAPE   C39 8955   5.915   3.942   6.107  0.5336 -0.5197  0.4583
   91SAPE   H9X 8956   5.952   3.839   6.125 -1.8300 -1.5529 -0.2435
   91SAPE   H9Y 8957   6.004   4.009   6.100 -1.2388  1.8277 -1.4944
   91SAPE  C310 8958   5.847   3.936   5.974  0.3417  1.0376 -0.4010
   91SAPE  H10X 8959   5.842   4.040   5.934 -1.7264  1.4405  0.7400
   91SAPE  H10Y 8960   5.744   3.896   5.991  1.5559 -1.6973  1.0890
   91SAPE  C311 8961   5.925   3.846   5.878 -0.3030  0.0643 -0.4398
   91SAPE  H11X 8962   5.871   3.824   5.784 -0.7128  1.7405 -0.6366
   91SAPE  H11Y 8963   5.943   3.747   5.924 -0.2176  1.5473  3.0903
   91SAPE  C312 8964   6.062   3.899   5.834  0.2181 -0.9021 -0.4351
   91SAPE  H12X 8965   6.128   3.906   5.923  1.3090  0.3214 -1.2953
   91SAPE  H12Y 8966   6.048   4.004   5.802 -2.0613 -0.9847  0.1121
   91SAPE  C313 8967   6.132   3.815   5.725  0.7313 -0.1323 -0.6957
   91SAPE  H13X 8968   6.066   3.805   5.636  0.8790 -0.9742 -0.7189
   91SAPE  H13Y 8969   6.152   3.717   5.773 -3.2472 -0.5926  0.4281
   91SAPE  C314 8970   6.258   3.873   5.671 -0.0873 -0.2312  0.5672
   91SAPE  H14X 8971   6.321   3.783   5.655 -1.0495 -0.4532 -3.0917
   91SAPE  H14Y 8972   6.308   3.933   5.749 -1.9883  1.9782  0.2055
   91SAPE  C315 8973   6.248   3.966   5.549  0.1910 -0.2497 -0.0666
   91SAPE  H15X 8974   6.188   4.054   5.580  1.0519  0.3538 -0.0712
   91SAPE  H15Y 8975   6.190   3.922   5.465 -2.1321  0.8552  0.8653
   91SAPE  C316 8976   6.381   4.024   5.503  1.0000  0.3264  0.2573
   91SAPE  H16X 8977   6.437   4.071   5.586  1.2296  0.3903  0.0678
   91SAPE  H16Y 8978   6.369   4.104   5.426  2.0464 -0.6153 -0.9319
   91SAPE  C317 8979   6.488   3.922   5.460  0.1495  0.0084  0.0792
   91SAPE  H17X 8980   6.489   3.843   5.538 -1.7617 -1.2295 -1.0594
   91SAPE  H17Y 8981   6.584   3.978   5.457  1.7043 -2.4894  0.5457
   91SAPE  C318 8982   6.474   3.871   5.315 -0.2145 -0.4331 -0.2725
   91SAPE  H18X 8983   6.387   3.802   5.313  1.5063 -2.7383 -2.3123
   91SAPE  H18Y 8984   6.566   3.818   5.284  0.4005  0.9515 -0.9261
   91SAPE  H18Z 8985   6.456   3.963   5.255 -1.3593  0.0625  0.7922
   92SAPE     N 8986   0.550   5.332   8.210  0.0237  0.2150 -0.3010
   92SAPE   HN1 8987   0.501   5.423   8.214 -1.2778 -0.5205  2.1749
   92SAPE   HN2 8988   0.473   5.272   8.247  2.2349 -1.3266  2.1081
   92SAPE   HN3 8989   0.629   5.334   8.277 -0.2172 -0.4466  0.0107
   92SAPE   C12 8990   0.581   5.291   8.067  0.5383 -0.3098 -0.5821
   92SAPE  H12A 8991   0.640   5.197   8.070 -1.9576 -1.9953 -1.3804
   92SAPE  H12B 8992   0.634   5.371   8.012 -3.1490  1.4957 -1.8683
   92SAPE   C11 8993   0.448   5.242   7.999  0.0037 -0.1925  0.2160
   92SAPE  H11A 8994   0.472   5.206   7.896 -0.6077  1.9063 -0.7063
   92SAPE  H11B 8995   0.386   5.332   7.982  0.0058 -0.2275  0.0211
   92SAPE     P 8996   0.365   5.003   8.058  0.5780  0.3169  0.1609
   92SAPE   O13 8997   0.494   4.940   8.089  0.4323  0.4578  0.5064
   92SAPE   O14 8998   0.254   4.963   8.145  0.2189 -0.4012 -0.5702
   92SAPE   O12 8999   0.381   5.152   8.081 -0.1778 -0.5643 -0.5381
   92SAPE   O11 9000   0.313   4.989   7.912 -0.5023  0.4986  0.0056
   92SAPE    C1 9001   0.234   5.081   7.840 -0.2620  1.0264  0.5456
   92SAPE    HA 9002   0.127   5.058   7.856  0.0228  0.8906  2.4501
   92SAPE    HB 9003   0.255   5.187   7.869 -0.7044  1.0304  0.8681
   92SAPE    C2 9004   0.259   5.068   7.687  0.7769  0.0687  0.4368
   92SAPE    HS 9005   0.264   5.170   7.643 -1.0244 -0.0430 -0.1146
   92SAPE   O21 9006   0.150   4.989   7.628 -0.3258 -0.2252  0.2129
   92SAPE   C21 9007   0.113   5.024   7.510 -0.3832  0.0582 -0.2913
   92SAPE   O22 9008   0.168   5.105   7.438  0.0908  0.2570 -0.2119
   92SAPE   C22 9009   0.006   4.933   7.452  0.5627  0.1172 -0.7064
   92SAPE   H2R 9010  -0.068   4.898   7.527 -1.1520 -3.5888 -3.7740
   92SAPE   H2S 9011  -0.052   4.994   7.380 -0.9331 -1.1253 -0.6149
   92SAPE    C3 9012   0.396   5.012   7.650 -0.4504  0.0174  0.5023
   92SAPE    HX 9013   0.386   4.904   7.675  1.1343  0.0334  1.3175
   92SAPE    HY 9014   0.485   5.057   7.699 -1.2567  1.1095  1.0208
   92SAPE   O31 9015   0.423   5.008   7.506 -0.0410  0.0527 -0.2273
   92SAPE   C31 9016   0.509   5.090   7.445 -0.1735  0.1111 -0.0609
   92SAPE   O32 9017   0.595   5.155   7.502 -0.5784  0.0728  0.4082
   92SAPE   C32 9018   0.501   5.079   7.287 -0.0126 -0.6511  1.3138
   92SAPE   H2X 9019   0.408   5.131   7.256 -0.4028 -2.0166  0.0883
   92SAPE   H2Y 9020   0.486   4.971   7.263  0.8191 -0.5781  0.3516
   92SAPE   C23 9021   0.077   4.810   7.398  0.2937 -0.1001  0.4261
   92SAPE   H3R 9022  -0.007   4.741   7.374  0.1625  0.4109 -0.6317
   92SAPE   H3S 9023   0.138   4.767   7.480 -1.5357  2.2497  3.2036
   92SAPE   C24 9024   0.151   4.834   7.262  0.6572  0.5369  0.6461
   92SAPE   H4R 9025   0.213   4.744   7.240  3.6487  2.8560 -1.3377
   92SAPE   H4S 9026   0.229   4.909   7.285 -0.0171  1.0662  1.2397
   92SAPE   C25 9027   0.052   4.874   7.151  0.6742 -0.0481  0.3585
   92SAPE   H5R 9028   0.002   4.970   7.170  0.9670 -0.0625  1.2622
   92SAPE   C26 9029   0.040   4.819   7.032 -0.0184  0.1392  0.5567
   92SAPE   H6R 9030  -0.020   4.870   6.956 -2.9724 -1.7539  1.4448
   92SAPE   C27 9031   0.102   4.696   6.978  0.0342  0.8659 -0.4653
   92SAPE   H7R 9032   0.036   4.666   6.893 -2.4920 -1.4723  2.0739
   92SAPE   H7S 9033   0.077   4.628   7.062 -2.1217  2.6006  0.4081
   92SAPE   C28 9034   0.257   4.695   6.958  0.3637  0.0641 -0.0310
   92SAPE   H8R 9035   0.327   4.663   7.037 -1.2514 -0.4172  1.2779
   92SAPE   C29 9036   0.300   4.708   6.832 -0.0086  0.0936 -0.2824
   92SAPE   H9R 9037   0.405   4.732   6.814  0.1992  0.7416  1.6051
   92SAPE  C210 9038   0.215   4.743   6.709  0.4030 -0.8673  1.2560
   92SAPE  H10R 9039   0.123   4.682   6.713  0.2274 -0.7269 -0.1965
   92SAPE  H10S 9040   0.260   4.711   6.613  2.4589  3.0726  0.6900
   92SAPE  C211 9041   0.177   4.892   6.701  0.2722 -0.1127  0.0442
   92SAPE  H11R 9042   0.246   4.967   6.742  1.3431 -0.0284 -1.7965
   92SAPE  C212 9043   0.093   4.951   6.614 -0.7250  0.7733  0.2831
   92SAPE  H12R 9044   0.073   5.059   6.614 -1.8047  0.6473 -2.2544
   92SAPE  C213 9045  -0.009   4.883   6.533 -0.2396  0.4936 -0.0845
   92SAPE  H13R 9046  -0.100   4.945   6.554 -0.8015 -0.3999  0.1884
   92SAPE  H13S 9047  -0.024   4.779   6.567 -0.0716  0.4736 -0.0728
   92SAPE  C214 9048   0.014   4.894   6.382  0.2850 -0.1112  0.4930
   92SAPE  H14R 9049   0.063   4.985   6.343 -2.0939  0.7424 -0.7274
   92SAPE  C215 9050  -0.030   4.812   6.291  0.4598  0.2909 -0.2360
   92SAPE  H15R 9051  -0.027   4.834   6.184  1.0275  0.1487 -0.2532
   92SAPE  C216 9052  -0.092   4.676   6.315  0.0629 -0.3277 -0.2834
   92SAPE  H16R 9053  -0.200   4.674   6.288  0.0943  0.4072 -0.4861
   92SAPE  H16S 9054  -0.071   4.653   6.422  3.3071  1.0006 -0.4986
   92SAPE  C217 9055  -0.025   4.566   6.229  0.4832 -0.2257  0.2968
   92SAPE  H17R 9056  -0.063   4.467   6.261  2.2326 -0.6805  1.1110
   92SAPE  H17S 9057   0.079   4.559   6.268  0.9975  5.5922  0.8619
   92SAPE  C218 9058  -0.028   4.588   6.078 -0.5170  1.1771 -0.0581
   92SAPE  H18R 9059   0.071   4.622   6.042  1.3089  0.7006  3.9680
   92SAPE  H18S 9060  -0.097   4.669   6.044 -1.3835  0.9069  1.0013
   92SAPE  C219 9061  -0.063   4.459   5.998  0.2659  0.5707  0.3293
   92SAPE  H19R 9062  -0.167   4.431   6.026  0.7707  0.1078  1.8869
   92SAPE  H19S 9063   0.006   4.376   6.027 -0.5897 -1.0520 -1.9905
   92SAPE  C220 9064  -0.058   4.485   5.845  0.4948 -0.5154  0.3190
   92SAPE  H20R 9065  -0.084   4.394   5.786  4.1314 -1.6046  0.1059
   92SAPE  H20S 9066   0.046   4.513   5.818  0.2344 -1.3574 -1.7499
   92SAPE  H20T 9067  -0.123   4.573   5.827  0.6467 -0.2585  0.9868
   92SAPE   C33 9068   0.624   5.138   7.212  0.0091  0.8994 -0.3849
   92SAPE   H3X 9069   0.715   5.104   7.266 -0.0073  0.1255 -0.8273
   92SAPE   H3Y 9070   0.627   5.247   7.233  1.4438  1.1492 -1.6724
   92SAPE   C34 9071   0.634   5.112   7.066  0.6631  0.4009 -0.0739
   92SAPE   H4X 9072   0.547   5.154   7.011  1.2137  0.6091 -0.8017
   92SAPE   H4Y 9073   0.620   5.002   7.060 -1.0407  0.5447  0.7929
   92SAPE   C35 9074   0.768   5.160   7.004 -0.9036  0.1734  0.8790
   92SAPE   H5X 9075   0.839   5.103   7.067  1.0034 -1.4172 -2.4495
   92SAPE   H5Y 9076   0.776   5.271   7.004  0.8827  0.1801 -2.1824
   92SAPE   C36 9077   0.780   5.105   6.858 -0.6688 -0.1218 -0.5408
   92SAPE   H6X 9078   0.736   5.003   6.864  1.7757 -1.2937 -1.3352
   92SAPE   H6Y 9079   0.884   5.100   6.820 -0.4853 -1.6527  0.1067
   92SAPE   C37 9080   0.706   5.183   6.751  0.6682  0.1083  0.1646
   92SAPE   H7X 9081   0.756   5.281   6.736  0.4295 -0.0432 -1.8568
   92SAPE   H7Y 9082   0.601   5.199   6.784  0.4395  1.0659 -0.9677
   92SAPE   C38 9083   0.706   5.117   6.611  0.5788  0.8449 -0.1827
   92SAPE   H8X 9084   0.811   5.085   6.593  0.2040 -0.9447  0.6030
   92SAPE   H8Y 9085   0.692   5.201   6.540  0.5116  1.3678  0.4417
   92SAPE   C39 9086   0.594   5.009   6.600 -0.4530  0.3179 -0.3436
   92SAPE   H9X 9087   0.503   5.072   6.615 -1.1862 -0.8954  0.4472
   92SAPE   H9Y 9088   0.608   4.927   6.673  1.5254  2.0736  1.3987
   92SAPE  C310 9089   0.588   4.959   6.458 -0.6607 -0.8363  0.5333
   92SAPE  H10X 9090   0.686   4.915   6.431 -0.6894 -0.1399 -0.7588
   92SAPE  H10Y 9091   0.562   5.043   6.390 -0.0544  0.0255  1.3370
   92SAPE  C311 9092   0.484   4.849   6.446 -0.5128  0.6147 -0.2590
   92SAPE  H11X 9093   0.387   4.883   6.486 -0.0852  1.1420  0.3522
   92SAPE  H11Y 9094   0.523   4.766   6.508 -1.3881 -1.6032 -2.5200
   92SAPE  C312 9095   0.465   4.799   6.308  0.1189  0.1480 -0.1043
   92SAPE  H12X 9096   0.563   4.761   6.271  0.0320 -0.5727  0.3713
   92SAPE  H12Y 9097   0.449   4.884   6.238 -0.5805 -1.5302 -2.0918
   92SAPE  C313 9098   0.364   4.688   6.292  0.7277 -0.5542  0.6443
   92SAPE  H13X 9099   0.257   4.714   6.309  1.1297  1.3284  0.5037
   92SAPE  H13Y 9100   0.398   4.596   6.345 -0.1664 -2.7315 -2.3160
   92SAPE  C314 9101   0.350   4.632   6.149  0.0673  0.2315  0.4256
   92SAPE  H14X 9102   0.269   4.558   6.133 -1.1053  1.2264  1.4883
   92SAPE  H14Y 9103   0.443   4.576   6.128 -0.1930  0.1310 -0.4916
   92SAPE  C315 9104   0.332   4.737   6.037  0.0921  0.2624 -0.1613
   92SAPE  H15X 9105   0.425   4.797   6.031  0.3419  0.0300  1.1179
   92SAPE  H15Y 9106   0.256   4.814   6.065  0.8985  1.5213 -1.3099
   92SAPE  C316 9107   0.312   4.674   5.898 -0.1594  0.1731 -0.7345
   92SAPE  H16X 9108   0.345   4.756   5.831 -2.3233  2.2264  0.5638
   92SAPE  H16Y 9109   0.207   4.656   5.866 -0.1418  0.7253 -1.1138
   92SAPE  C317 9110   0.400   4.549   5.876  0.2831 -0.5406  0.1701
   92SAPE  H17X 9111   0.344   4.469   5.928 -0.2298 -0.4409 -0.2180
   92SAPE  H17Y 9112   0.499   4.559   5.926  1.0820  2.0238 -1.7084
   92SAPE  C318 9113   0.386   4.503   5.727  0.5986 -0.1708  0.5970
   92SAPE  H18X 9114   0.416   4.396   5.730 -2.1415 -1.0601 -0.9284
   92SAPE  H18Y 9115   0.449   4.566   5.659  1.2943  1.2956  2.5052
   92SAPE  H18Z 9116   0.281   4.515   5.692  0.5747  0.8348  0.9617
   93SAPE     N 9117   4.452   2.556   7.883 -0.1143  0.6693  0.3185
   93SAPE   HN1 9118   4.360   2.591   7.916 -0.5045  0.8308 -0.8974
   93SAPE   HN2 9119   4.482   2.615   7.803 -3.0850  0.3949 -1.1506
   93SAPE   HN3 9120   4.430   2.463   7.842  1.4989  0.7305 -0.7495
   93SAPE   C12 9121   4.564   2.527   7.980 -0.2702  0.2319  0.4328
   93SAPE  H12A 9122   4.522   2.454   8.053 -0.0376 -0.2742  0.0622
   93SAPE  H12B 9123   4.586   2.618   8.040  2.5080  0.0357 -0.1650
   93SAPE   C11 9124   4.686   2.471   7.908 -0.0139 -0.3216 -0.6984
   93SAPE  H11A 9125   4.756   2.439   7.988  1.6435  0.8877 -1.5921
   93SAPE  H11B 9126   4.747   2.547   7.854 -1.6695  0.4966 -1.4956
   93SAPE     P 9127   4.673   2.213   7.855  0.1616 -0.0675  0.3730
   93SAPE   O13 9128   4.811   2.174   7.826  0.0327  0.4356  0.2277
   93SAPE   O14 9129   4.623   2.181   7.990  0.6900  0.3958  0.0229
   93SAPE   O12 9130   4.650   2.369   7.820  0.0031  0.1386 -0.2159
   93SAPE   O11 9131   4.587   2.134   7.750 -0.2770  0.0465 -0.1752
   93SAPE    C1 9132   4.446   2.136   7.772  0.3223 -0.6894 -0.3694
   93SAPE    HA 9133   4.413   2.037   7.811 -3.6542  0.4264 -0.4242
   93SAPE    HB 9134   4.410   2.220   7.835 -1.7690 -0.7721 -1.3456
   93SAPE    C2 9135   4.369   2.163   7.646  0.2208  0.1164  0.1896
   93SAPE    HS 9136   4.407   2.253   7.594  1.6084 -0.2996  0.4395
   93SAPE   O21 9137   4.230   2.172   7.667  0.1674 -0.2103  0.1833
   93SAPE   C21 9138   4.186   2.296   7.702  0.2759 -0.4728  0.7121
   93SAPE   O22 9139   4.256   2.379   7.751  0.3168  0.5823  0.4314
   93SAPE   C22 9140   4.037   2.319   7.663  0.1627  0.1921  0.6852
   93SAPE   H2R 9141   3.983   2.226   7.693 -0.3270  0.4114  0.4915
   93SAPE   H2S 9142   3.996   2.392   7.736  0.7225  1.8136 -0.5871
   93SAPE    C3 9143   4.392   2.051   7.550 -0.5941 -0.1515 -0.2947
   93SAPE    HX 9144   4.366   1.954   7.598  2.8562 -1.2803 -0.4365
   93SAPE    HY 9145   4.498   2.031   7.522 -0.6997  0.5838 -1.2370
   93SAPE   O31 9146   4.318   2.067   7.427  0.7476 -0.0735  0.0924
   93SAPE   C31 9147   4.318   1.965   7.346 -0.5233  0.3696 -0.0069
   93SAPE   O32 9148   4.374   1.861   7.371 -0.0657  0.1701  0.6506
   93SAPE   C32 9149   4.214   1.985   7.236  1.0810  0.2060  0.4365
   93SAPE   H2X 9150   4.209   2.092   7.207 -0.9226 -0.4022 -1.8237
   93SAPE   H2Y 9151   4.116   1.944   7.266 -0.2319  1.7430 -1.5053
   93SAPE   C23 9152   4.003   2.355   7.521  0.3537  0.2168 -0.0915
   93SAPE   H3R 9153   4.062   2.431   7.466 -2.8716  0.4445 -3.6823
   93SAPE   H3S 9154   3.903   2.404   7.523  0.7614  1.7411 -4.8087
   93SAPE   C24 9155   3.976   2.233   7.422 -0.5067  0.1223  0.1403
   93SAPE   H4R 9156   4.067   2.169   7.422 -0.6610 -0.1170 -1.0177
   93SAPE   H4S 9157   3.974   2.266   7.316  0.7581 -1.2100 -0.3307
   93SAPE   C25 9158   3.857   2.140   7.446  0.1849  0.3333  0.0927
   93SAPE   H5R 9159   3.829   2.136   7.552  1.9755 -0.6925  0.5774
   93SAPE   C26 9160   3.784   2.071   7.362  0.0630  0.1035  0.4370
   93SAPE   H6R 9161   3.694   2.016   7.395 -2.1695  3.2369  0.0092
   93SAPE   C27 9162   3.798   2.066   7.209 -0.3629 -0.1205 -0.2523
   93SAPE   H7R 9163   3.902   2.080   7.173 -0.5567  0.2244 -0.6866
   93SAPE   H7S 9164   3.735   2.151   7.173 -1.0329  1.0650  3.2987
   93SAPE   C28 9165   3.757   1.924   7.155 -0.7493 -0.4884  0.8117
   93SAPE   H8R 9166   3.820   1.843   7.194  2.4894 -0.2454 -3.2290
   93SAPE   C29 9167   3.677   1.902   7.048  0.0252 -0.1591 -0.1067
   93SAPE   H9R 9168   3.647   1.798   7.031  1.3796 -0.3711 -1.3812
   93SAPE  C210 9169   3.600   2.007   6.967 -0.2922 -0.5962  0.5178
   93SAPE  H10R 9170   3.585   2.100   7.026  1.1648  0.0468 -0.0653
   93SAPE  H10S 9171   3.506   1.957   6.937 -0.2951  0.4131 -1.3222
   93SAPE  C211 9172   3.668   2.059   6.842  0.0088 -0.1943 -0.1717
   93SAPE  H11R 9173   3.748   2.134   6.854  0.4389 -0.9274  2.0936
   93SAPE  C212 9174   3.649   2.012   6.715  0.7155  0.2541 -0.0386
   93SAPE  H12R 9175   3.707   2.049   6.629  0.7394  2.2174  0.7815
   93SAPE  C213 9176   3.547   1.910   6.659  0.0073  0.0763 -0.0632
   93SAPE  H13R 9177   3.463   1.874   6.721 -0.2793 -1.5612 -1.3434
   93SAPE  H13S 9178   3.610   1.824   6.628  0.7113  1.1168 -1.6557
   93SAPE  C214 9179   3.482   1.968   6.531 -0.1775  0.0831  0.1817
   93SAPE  H14R 9180   3.413   2.051   6.553 -0.1409 -0.1269  1.1236
   93SAPE  C215 9181   3.482   1.935   6.399  0.8494 -0.2109  0.3422
   93SAPE  H15R 9182   3.431   2.005   6.331  2.8002  1.8700  0.9118
   93SAPE  C216 9183   3.564   1.821   6.346  0.4465  0.0942  0.4545
   93SAPE  H16R 9184   3.674   1.825   6.359  0.4924 -0.2138  0.1787
   93SAPE  H16S 9185   3.547   1.820   6.236 -1.9840 -0.1370  0.7712
   93SAPE  C217 9186   3.510   1.680   6.386  0.1632 -0.3035 -0.5443
   93SAPE  H17R 9187   3.401   1.662   6.372 -0.0936 -0.2959  1.1855
   93SAPE  H17S 9188   3.537   1.665   6.493 -1.3181 -0.4249 -0.1625
   93SAPE  C218 9189   3.589   1.577   6.307  0.2276  0.3481 -0.1865
   93SAPE  H18R 9190   3.693   1.610   6.287 -0.2763  0.9934 -2.0088
   93SAPE  H18S 9191   3.549   1.578   6.203 -1.7386  0.6712  0.5324
   93SAPE  C219 9192   3.571   1.432   6.362 -0.1653  0.1313 -0.1300
   93SAPE  H19R 9193   3.618   1.421   6.462  0.3467 -2.2077 -0.5820
   93SAPE  H19S 9194   3.616   1.368   6.284 -1.1062 -0.2572 -0.3612
   93SAPE  C220 9195   3.430   1.386   6.389 -0.2573 -0.2017  0.0566
   93SAPE  H20R 9196   3.375   1.386   6.292 -0.2576  1.0024  0.0436
   93SAPE  H20S 9197   3.384   1.454   6.463  0.7626 -0.0899  0.6043
   93SAPE  H20T 9198   3.430   1.279   6.420 -0.6948  0.0090  0.8148
   93SAPE   C33 9199   4.266   1.914   7.111  1.2012  0.2308  0.2837
   93SAPE   H3X 9200   4.256   1.803   7.116  0.2893  0.1540 -2.0247
   93SAPE   H3Y 9201   4.370   1.948   7.094  1.1406  0.4515  0.3490
   93SAPE   C34 9202   4.173   1.952   6.992  0.2711  0.0302 -0.1239
   93SAPE   H4X 9203   4.150   2.059   6.977 -0.9761 -0.1113  0.6020
   93SAPE   H4Y 9204   4.071   1.911   7.004  0.5986 -0.9941 -0.7055
   93SAPE   C35 9205   4.226   1.911   6.852  0.3892 -0.0748 -0.3290
   93SAPE   H5X 9206   4.233   1.801   6.841  0.6044  0.0406 -1.4654
   93SAPE   H5Y 9207   4.330   1.952   6.854  1.3729 -2.3170 -1.7751
   93SAPE   C36 9208   4.158   1.968   6.727  0.8288  0.2338  0.2453
   93SAPE   H6X 9209   4.140   2.076   6.743  1.5881  0.3038  0.6856
   93SAPE   H6Y 9210   4.059   1.919   6.715  1.7112 -1.7606  0.5175
   93SAPE   C37 9211   4.239   1.955   6.598  0.3620  0.5438 -0.0320
   93SAPE   H7X 9212   4.251   1.848   6.570 -2.1268 -0.5638  2.6270
   93SAPE   H7Y 9213   4.341   1.994   6.613  0.9562 -0.6011 -0.9423
   93SAPE   C38 9214   4.196   2.048   6.487 -0.7224  0.4284  0.3676
   93SAPE   H8X 9215   4.206   2.150   6.529  1.5308  0.0846  0.8071
   93SAPE   H8Y 9216   4.087   2.042   6.469 -0.8553  0.2402  1.2150
   93SAPE   C39 9217   4.273   2.040   6.356  0.4184 -0.3038  0.3494
   93SAPE   H9X 9218   4.259   1.939   6.311  1.7150  0.4769 -1.9624
   93SAPE   H9Y 9219   4.381   2.061   6.375  0.2501 -0.5033  1.6357
   93SAPE  C310 9220   4.224   2.138   6.252 -0.4279  0.5914  0.4458
   93SAPE  H10X 9221   4.200   2.239   6.290 -0.6250  0.2885  1.1326
   93SAPE  H10Y 9222   4.129   2.087   6.226  0.7455 -1.1472 -0.6851
   93SAPE  C311 9223   4.309   2.152   6.127 -0.5309 -0.7302 -0.1776
   93SAPE  H11X 9224   4.294   2.059   6.068 -1.6940  0.8647 -2.5332
   93SAPE  H11Y 9225   4.415   2.175   6.149 -0.7046  0.2936 -0.3526
   93SAPE  C312 9226   4.276   2.278   6.041  0.6758  0.2072  0.2482
   93SAPE  H12X 9227   4.324   2.366   6.089 -1.7184  2.0504 -0.5740
   93SAPE  H12Y 9228   4.166   2.293   6.046  0.0023 -3.6792 -0.2021
   93SAPE  C313 9229   4.318   2.270   5.894 -0.3003  0.1678  0.0758
   93SAPE  H13X 9230   4.266   2.192   5.834 -2.3976  1.9109 -0.5104
   93SAPE  H13Y 9231   4.426   2.246   5.894 -0.1242  0.9274 -0.0678
   93SAPE  C314 9232   4.296   2.404   5.813  0.6578 -0.3613 -0.2824
   93SAPE  H14X 9233   4.197   2.442   5.847  0.9199 -0.7062  0.9297
   93SAPE  H14Y 9234   4.281   2.377   5.707  1.8169 -0.0597 -0.5397
   93SAPE  C315 9235   4.410   2.506   5.823 -0.4212  0.0308  0.7033
   93SAPE  H15X 9236   4.510   2.461   5.805 -0.6423 -0.2667  0.1705
   93SAPE  H15Y 9237   4.416   2.541   5.928  0.9389  0.2829  0.5469
   93SAPE  C316 9238   4.389   2.635   5.748 -0.4912 -0.3128 -0.9010
   93SAPE  H16X 9239   4.285   2.673   5.756 -0.9597 -1.7586  0.4195
   93SAPE  H16Y 9240   4.412   2.617   5.640  1.5089 -0.7036 -0.4583
   93SAPE  C317 9241   4.485   2.751   5.793 -0.0434  0.5978 -0.1410
   93SAPE  H17X 9242   4.502   2.737   5.902 -0.8949 -0.6183 -0.1340
   93SAPE  H17Y 9243   4.431   2.846   5.775 -0.0452  0.4091 -1.1654
   93SAPE  C318 9244   4.608   2.762   5.705 -0.6018 -0.3218  0.4598
   93SAPE  H18X 9245   4.675   2.674   5.704 -1.8780 -1.4028 -2.4487
   93SAPE  H18Y 9246   4.674   2.845   5.738 -1.1306  1.1663 -1.9283
   93SAPE  H18Z 9247   4.583   2.792   5.601 -0.4177 -0.5451  0.3499
   94SAPE     N 9248   2.171   6.430   8.101 -0.6846 -0.3019 -0.2181
   94SAPE   HN1 9249   2.083   6.376   8.106 -1.8419  1.3985 -1.2284
   94SAPE   HN2 9250   2.254   6.367   8.103 -0.9184 -0.8136  4.2428
   94SAPE   HN3 9251   2.177   6.496   8.182 -0.7775 -1.3284  0.6518
   94SAPE   C12 9252   2.192   6.500   7.962  0.2786  0.0095 -0.7348
   94SAPE  H12A 9253   2.298   6.531   7.950  0.5513 -0.0590  1.2225
   94SAPE  H12B 9254   2.130   6.591   7.977 -0.2545 -0.4499 -0.0820
   94SAPE   C11 9255   2.130   6.409   7.853  0.3155 -1.7107  0.6884
   94SAPE  H11A 9256   2.195   6.323   7.828  1.9832 -0.2922 -0.0676
   94SAPE  H11B 9257   2.128   6.467   7.758  1.5512  0.4897  1.9054
   94SAPE     P 9258   1.873   6.425   7.860 -0.2008  0.5819 -0.0368
   94SAPE   O13 9259   1.774   6.335   7.918  0.2568  0.2596  0.3213
   94SAPE   O14 9260   1.887   6.562   7.909  0.4227  0.1150 -0.1667
   94SAPE   O12 9261   2.005   6.351   7.894  0.1861  1.2400 -0.0634
   94SAPE   O11 9262   1.865   6.423   7.706  0.0658  0.3053  0.5840
   94SAPE    C1 9263   1.866   6.293   7.644 -0.4128  0.4909  0.1336
   94SAPE    HA 9264   1.968   6.253   7.625 -0.1483  0.4955  1.4244
   94SAPE    HB 9265   1.814   6.219   7.709  0.8762  0.4995  1.2087
   94SAPE    C2 9266   1.794   6.296   7.504 -0.4285  0.4386 -0.6380
   94SAPE    HS 9267   1.852   6.369   7.445 -1.4007  0.2416 -1.8835
   94SAPE   O21 9268   1.659   6.340   7.508 -0.5102 -0.0209  0.2738
   94SAPE   C21 9269   1.555   6.269   7.543 -0.4448 -0.5218  0.5429
   94SAPE   O22 9270   1.562   6.160   7.594 -0.2987  0.6133  0.3491
   94SAPE   C22 9271   1.430   6.342   7.494  0.3124  0.2431  0.0036
   94SAPE   H2R 9272   1.428   6.439   7.548  0.4821  0.9124 -1.1553
   94SAPE   H2S 9273   1.439   6.355   7.384 -2.3981 -2.5216 -0.6922
   94SAPE    C3 9274   1.824   6.165   7.420  0.4020 -0.1226  0.0017
   94SAPE    HX 9275   1.767   6.083   7.470 -0.0995  1.1355  1.5687
   94SAPE    HY 9276   1.931   6.137   7.422  0.4373  0.0595  0.6616
   94SAPE   O31 9277   1.778   6.182   7.283 -0.0886  1.1132 -0.0556
   94SAPE   C31 9278   1.683   6.102   7.243 -0.2646  0.3162  0.3370
   94SAPE   O32 9279   1.612   6.025   7.312 -0.4346 -0.6396  0.0158
   94SAPE   C32 9280   1.678   6.144   7.094 -0.3228  0.3553  0.0028
   94SAPE   H2X 9281   1.756   6.083   7.042 -0.4082 -0.2017  0.5183
   94SAPE   H2Y 9282   1.706   6.251   7.090  0.1735  0.1995 -1.2850
   94SAPE   C23 9283   1.307   6.252   7.503  0.4393  0.4257  0.2906
   94SAPE   H3R 9284   1.214   6.312   7.499  1.0348  1.3821  0.6183
   94SAPE   H3S 9285   1.310   6.202   7.602 -0.3432 -1.0895 -0.4039
   94SAPE   C24 9286   1.311   6.152   7.384 -0.0123 -0.5272 -0.4064
   94SAPE   H4R 9287   1.371   6.065   7.420  2.0189  0.6547 -0.7668
   94SAPE   H4S 9288   1.378   6.184   7.301 -0.2806 -0.5234 -0.6238
   94SAPE   C25 9289   1.177   6.117   7.327  0.0040 -0.8333  0.1586
   94SAPE   H5R 9290   1.110   6.054   7.388 -0.9552 -0.2979 -0.3113
   94SAPE   C26 9291   1.132   6.156   7.205  0.3211  0.0143  0.0601
   94SAPE   H6R 9292   1.041   6.107   7.166  0.0541 -0.7003  1.5183
   94SAPE   C27 9293   1.198   6.250   7.105  0.8678  0.0033  0.4712
   94SAPE   H7R 9294   1.279   6.201   7.046  0.9462  1.9100 -1.0793
   94SAPE   H7S 9295   1.243   6.338   7.155  0.2487  0.2477  0.6038
   94SAPE   C28 9296   1.096   6.302   7.002 -0.1340 -0.1614 -0.2653
   94SAPE   H8R 9297   1.037   6.389   7.035  1.9106  1.2903 -0.2761
   94SAPE   C29 9298   1.069   6.269   6.878  0.6873 -0.0244  0.6821
   94SAPE   H9R 9299   0.988   6.325   6.830 -0.3958 -0.6796  1.6906
   94SAPE  C210 9300   1.130   6.154   6.799  0.5683  0.0728 -0.2438
   94SAPE  H10R 9301   1.204   6.098   6.859  1.4788  0.8075 -0.6511
   94SAPE  H10S 9302   1.199   6.206   6.728 -1.9176  1.6376 -1.6624
   94SAPE  C211 9303   1.043   6.066   6.716 -0.1846  0.9608  0.5647
   94SAPE  H11R 9304   1.057   6.075   6.607  1.8752  0.8987  0.7861
   94SAPE  C212 9305   0.951   5.967   6.760 -0.5406 -0.4208  0.2289
   94SAPE  H12R 9306   0.907   5.899   6.687 -0.7742 -0.0632  0.0335
   94SAPE  C213 9307   0.917   5.948   6.905  0.0738 -0.1827 -0.4985
   94SAPE  H13R 9308   0.806   5.951   6.913 -0.1209  0.1022 -2.7272
   94SAPE  H13S 9309   0.943   6.033   6.971  1.7194 -0.7651 -0.3478
   94SAPE  C214 9310   0.971   5.828   6.966  0.2493  0.1914  0.0929
   94SAPE  H14R 9311   1.076   5.814   6.937  0.2180 -2.5214  0.9653
   94SAPE  C215 9312   0.915   5.739   7.054 -0.8725  0.0788 -0.4482
   94SAPE  H15R 9313   0.969   5.653   7.095 -4.6982 -2.5318 -0.3241
   94SAPE  C216 9314   0.778   5.752   7.115 -0.0727  0.1616 -0.6349
   94SAPE  H16R 9315   0.730   5.653   7.104  0.5293 -0.5145  1.9716
   94SAPE  H16S 9316   0.723   5.820   7.048 -1.2461  0.8353  0.9482
   94SAPE  C217 9317   0.764   5.812   7.255  0.4421 -0.0766  0.5893
   94SAPE  H17R 9318   0.791   5.920   7.257  0.8818  0.0074 -2.7659
   94SAPE  H17S 9319   0.839   5.766   7.322  1.6519  1.3671  0.3003
   94SAPE  C218 9320   0.621   5.803   7.320 -0.3409  0.3450  0.0038
   94SAPE  H18R 9321   0.608   5.712   7.381 -1.3644  1.0061  0.8150
   94SAPE  H18S 9322   0.543   5.797   7.240 -0.6393  2.2546  0.1041
   94SAPE  C219 9323   0.595   5.924   7.412 -0.4399 -0.4446  0.6503
   94SAPE  H19R 9324   0.577   6.014   7.350 -2.1912 -0.2166  1.4297
   94SAPE  H19S 9325   0.685   5.946   7.473  0.2273  0.1359 -0.4987
   94SAPE  C220 9326   0.480   5.895   7.509 -0.2560  0.0881 -0.2383
   94SAPE  H20R 9327   0.389   5.877   7.448  0.6079 -2.5146 -0.8816
   94SAPE  H20S 9328   0.470   5.975   7.586  0.8844 -1.4339  1.5804
   94SAPE  H20T 9329   0.507   5.801   7.561 -2.6952 -0.4378  0.2065
   94SAPE   C33 9330   1.545   6.117   7.023  0.1428 -0.0635  0.0724
   94SAPE   H3X 9331   1.482   6.206   7.047 -1.1046 -1.1632  1.0200
   94SAPE   H3Y 9332   1.502   6.024   7.066  0.9554 -0.8053 -0.6912
   94SAPE   C34 9333   1.543   6.076   6.875  0.2283 -0.8838  0.3747
   94SAPE   H4X 9334   1.452   6.016   6.854 -1.6821  2.0724 -0.2739
   94SAPE   H4Y 9335   1.629   6.009   6.853  1.4202  0.3711  1.0622
   94SAPE   C35 9336   1.561   6.186   6.768 -0.0042 -0.2393 -0.3274
   94SAPE   H5X 9337   1.659   6.237   6.776 -0.6937  0.9259  1.0021
   94SAPE   H5Y 9338   1.489   6.269   6.781 -1.9801 -1.4239 -2.7426
   94SAPE   C36 9339   1.528   6.145   6.620 -0.3365 -0.6173 -1.0132
   94SAPE   H6X 9340   1.420   6.143   6.592 -0.8996  1.3309  0.6784
   94SAPE   H6Y 9341   1.572   6.045   6.603 -0.3294 -0.4254 -2.1592
   94SAPE   C37 9342   1.599   6.231   6.508 -0.0616 -0.3499 -0.3252
   94SAPE   H7X 9343   1.576   6.187   6.409 -2.9744 -2.3246  1.0827
   94SAPE   H7Y 9344   1.710   6.230   6.515 -0.0014 -0.7203 -1.1823
   94SAPE   C38 9345   1.551   6.376   6.503 -0.6460  0.7311 -0.0551
   94SAPE   H8X 9346   1.574   6.435   6.595 -0.6318 -0.6917  0.8938
   94SAPE   H8Y 9347   1.441   6.361   6.497 -0.2411 -2.2040 -2.4955
   94SAPE   C39 9348   1.605   6.454   6.375  0.5579  1.3271 -0.5274
   94SAPE   H9X 9349   1.551   6.550   6.393 -1.6280  0.3258 -1.4457
   94SAPE   H9Y 9350   1.562   6.406   6.284  1.0512 -1.1367  0.4876
   94SAPE  C310 9351   1.757   6.470   6.374 -0.5005  0.0952  0.2248
   94SAPE  H10X 9352   1.800   6.375   6.335  2.9566  0.9696  1.5871
   94SAPE  H10Y 9353   1.811   6.489   6.469  0.6031  1.4112 -0.6278
   94SAPE  C311 9354   1.810   6.579   6.284  0.6451  0.3983 -0.5762
   94SAPE  H11X 9355   1.796   6.672   6.342 -0.7952 -0.1066 -0.0564
   94SAPE  H11Y 9356   1.759   6.583   6.185  1.8829 -2.7716 -1.4752
   94SAPE  C312 9357   1.964   6.570   6.248 -0.1244  0.3287 -0.4853
   94SAPE  H12X 9358   2.004   6.530   6.343 -1.5501  1.0715  0.4612
   94SAPE  H12Y 9359   2.006   6.672   6.257  0.3232  0.1383 -0.3670
   94SAPE  C313 9360   1.994   6.507   6.115  0.2942  0.6168 -0.3662
   94SAPE  H13X 9361   2.099   6.531   6.086  1.1588 -1.3141  0.9211
   94SAPE  H13Y 9362   1.928   6.567   6.050 -0.0003  2.0841  1.1952
   94SAPE  C314 9363   1.966   6.358   6.103  0.1673 -0.6061 -0.0477
   94SAPE  H14X 9364   2.001   6.327   6.002  0.7615 -0.5808  0.1445
   94SAPE  H14Y 9365   1.855   6.351   6.109 -0.0614  2.0395 -0.0827
   94SAPE  C315 9366   2.032   6.259   6.202  0.7737  0.0469 -0.7608
   94SAPE  H15X 9367   2.010   6.302   6.302 -1.0034 -0.1169 -1.0518
   94SAPE  H15Y 9368   2.143   6.255   6.196  1.1150  4.6165 -1.4407
   94SAPE  C316 9369   1.952   6.118   6.199  0.9224  0.7392 -0.6329
   94SAPE  H16X 9370   1.853   6.126   6.247  0.9007  0.7864 -0.6860
   94SAPE  H16Y 9371   2.018   6.051   6.258 -0.5914 -0.9860 -0.8180
   94SAPE  C317 9372   1.949   6.048   6.060  0.3794  0.4734  0.1106
   94SAPE  H17X 9373   1.906   6.113   5.981  2.2008 -0.5883 -1.8696
   94SAPE  H17Y 9374   1.895   5.951   6.066  3.5439 -1.3266  1.9408
   94SAPE  C318 9375   2.093   6.021   6.027  0.5343 -0.5110 -0.4910
   94SAPE  H18X 9376   2.144   5.957   6.103 -0.6777  0.0995  0.8939
   94SAPE  H18Y 9377   2.153   6.113   6.015  1.2590 -1.1165 -1.6624
   94SAPE  H18Z 9378   2.107   5.978   5.926  0.1985 -0.1157 -0.7068
   95SAPE     N 9379   0.211   3.055   8.345  0.9040 -0.6793  0.5587
   95SAPE   HN1 9380   0.269   2.985   8.295  0.9714  0.0677 -0.4487
   95SAPE   HN2 9381   0.215   3.049   8.448 -0.4298  1.6704  0.8129
   95SAPE   HN3 9382   0.114   3.027   8.321  1.3969 -1.0989 -1.1228
   95SAPE   C12 9383   0.248   3.190   8.309 -0.0039 -0.0289  0.3695
   95SAPE  H12A 9384   0.353   3.207   8.340 -0.1902  0.1105  0.9457
   95SAPE  H12B 9385   0.177   3.255   8.365 -3.3261 -0.1282 -3.2801
   95SAPE   C11 9386   0.231   3.206   8.156  0.2074  0.2744 -0.6053
   95SAPE  H11A 9387   0.277   3.305   8.134  2.6495 -0.8802 -0.9525
   95SAPE  H11B 9388   0.124   3.205   8.128 -0.7116  1.4108  2.4418
   95SAPE     P 9389   0.265   3.073   7.943  0.3167 -0.1708  0.6185
   95SAPE   O13 9390   0.348   2.974   7.877 -0.3809  0.3454  0.4068
   95SAPE   O14 9391   0.126   3.032   7.959 -0.5769 -0.3018 -0.0231
   95SAPE   O12 9392   0.310   3.098   8.098  0.1815  0.1150 -0.2819
   95SAPE   O11 9393   0.282   3.216   7.875  0.3202  0.3589  0.1970
   95SAPE    C1 9394   0.216   3.247   7.758  0.1953 -0.7883 -0.3135
   95SAPE    HA 9395   0.115   3.282   7.790  0.3770 -0.0842 -0.4908
   95SAPE    HB 9396   0.271   3.339   7.729 -0.3328 -0.1403  0.6481
   95SAPE    C2 9397   0.211   3.141   7.639  0.4653 -0.1365  0.1166
   95SAPE    HS 9398   0.137   3.062   7.662  1.7575 -1.3468  0.2015
   95SAPE   O21 9399   0.340   3.090   7.610 -0.0788 -0.3143 -0.7263
   95SAPE   C21 9400   0.351   2.976   7.546  0.1003 -0.4425  0.0853
   95SAPE   O22 9401   0.259   2.893   7.536  0.2300 -0.5903  0.1039
   95SAPE   C22 9402   0.491   2.966   7.492 -0.3379  1.1657  0.7500
   95SAPE   H2R 9403   0.548   3.061   7.495  1.3026  0.2275  0.2745
   95SAPE   H2S 9404   0.541   2.901   7.567 -0.3770  1.4711  1.0420
   95SAPE    C3 9405   0.154   3.201   7.506  0.2284 -0.4479  0.4489
   95SAPE    HX 9406   0.223   3.280   7.470 -0.8775  0.8976  1.1681
   95SAPE    HY 9407   0.059   3.252   7.530 -0.5582 -1.2653 -0.7728
   95SAPE   O31 9408   0.135   3.108   7.397 -0.4506  0.0179  0.2752
   95SAPE   C31 9409   0.020   3.040   7.402  0.0697 -0.0251  0.3298
   95SAPE   O32 9410  -0.052   3.031   7.499  0.5437 -0.9517 -0.1141
   95SAPE   C32 9411   0.001   2.972   7.259 -0.1589 -0.0781  0.1268
   95SAPE   H2X 9412   0.094   2.914   7.242 -0.5230 -0.8518  0.7273
   95SAPE   H2Y 9413  -0.005   3.057   7.188 -1.6758 -0.3075 -0.0417
   95SAPE   C23 9414   0.512   2.913   7.350  0.0420  0.3111 -0.7552
   95SAPE   H3R 9415   0.470   2.811   7.336 -0.5710 -0.0404  2.6816
   95SAPE   H3S 9416   0.619   2.896   7.327  0.2957  0.4331  0.2864
   95SAPE   C24 9417   0.450   2.986   7.231 -0.4269  0.2087 -0.5435
   95SAPE   H4R 9418   0.341   2.994   7.252 -0.2254 -0.2090  0.7541
   95SAPE   H4S 9419   0.470   2.931   7.137 -0.8603  1.1902 -1.2254
   95SAPE   C25 9420   0.502   3.125   7.206  0.4543  0.5524  0.0901
   95SAPE   H5R 9421   0.521   3.181   7.299 -2.0487  1.7702 -0.0553
   95SAPE   C26 9422   0.528   3.180   7.087  0.4423  0.1855  0.1461
   95SAPE   H6R 9423   0.553   3.287   7.091 -2.9627  1.0514  1.7088
   95SAPE   C27 9424   0.524   3.113   6.954  0.1637 -0.0577 -0.0132
   95SAPE   H7R 9425   0.539   3.201   6.889 -0.6433  1.9417  2.3593
   95SAPE   H7S 9426   0.423   3.071   6.935 -0.4505  1.2613  0.2126
   95SAPE   C28 9427   0.634   3.014   6.924 -0.1256 -0.0229 -0.3353
   95SAPE   H8R 9428   0.695   2.988   7.012 -0.2145 -0.9477 -0.5349
   95SAPE   C29 9429   0.653   2.960   6.800 -0.5364 -0.7818  0.0808
   95SAPE   H9R 9430   0.732   2.886   6.783 -1.6159 -1.8819 -0.2931
   95SAPE  C210 9431   0.564   2.985   6.684 -0.3921 -0.2893  0.3242
   95SAPE  H10R 9432   0.457   2.999   6.708 -0.0302  0.5439  1.5454
   95SAPE  H10S 9433   0.568   2.893   6.622  0.1349  1.7670 -2.9882
   95SAPE  C211 9434   0.619   3.099   6.604  0.1162  0.3330 -0.7924
   95SAPE  H11R 9435   0.565   3.194   6.619 -0.4239 -0.1082  0.1825
   95SAPE  C212 9436   0.719   3.086   6.517  0.5224 -0.4478  0.2499
   95SAPE  H12R 9437   0.746   3.169   6.450 -0.4290 -2.0731 -2.3021
   95SAPE  C213 9438   0.790   2.954   6.474 -0.2405  0.2184 -0.0311
   95SAPE  H13R 9439   0.776   2.953   6.364 -1.2822  1.7381  0.0465
   95SAPE  H13S 9440   0.736   2.863   6.507  0.1019 -0.2572 -0.7645
   95SAPE  C214 9441   0.930   2.949   6.531 -0.1113  0.0122 -0.0415
   95SAPE  H14R 9442   0.931   2.953   6.641 -0.8271  1.3458 -0.0601
   95SAPE  C215 9443   1.048   2.938   6.469  0.3136 -0.1914  0.1315
   95SAPE  H15R 9444   1.137   2.922   6.533 -0.8475 -3.9890  1.0781
   95SAPE  C216 9445   1.083   2.925   6.324 -0.4807 -0.4890 -0.3790
   95SAPE  H16R 9446   1.016   2.865   6.260  1.2297 -1.4010 -1.3777
   95SAPE  H16S 9447   1.175   2.865   6.311  0.1274  0.5360 -0.9163
   95SAPE  C217 9448   1.102   3.068   6.261 -0.4690 -0.4131  0.0276
   95SAPE  H17R 9449   1.153   3.128   6.338 -0.1607 -0.5948 -0.0333
   95SAPE  H17S 9450   1.006   3.110   6.225  0.9654  3.2590  0.1031
   95SAPE  C218 9451   1.212   3.059   6.149 -0.2522  0.6464  0.5212
   95SAPE  H18R 9452   1.207   2.955   6.110 -0.3833  0.7014  0.3918
   95SAPE  H18S 9453   1.308   3.070   6.204 -0.3738 -1.4063  1.2000
   95SAPE  C219 9454   1.199   3.175   6.047 -0.1477  0.8743 -0.9951
   95SAPE  H19R 9455   1.217   3.271   6.101  0.8720  0.3040 -0.2827
   95SAPE  H19S 9456   1.098   3.178   6.002  0.0076 -1.9280 -1.7101
   95SAPE  C220 9457   1.307   3.171   5.937  0.2311 -0.1252  0.0416
   95SAPE  H20R 9458   1.276   3.247   5.862  0.4748  1.5047  1.5296
   95SAPE  H20S 9459   1.302   3.070   5.890 -0.8214 -0.0180 -0.0967
   95SAPE  H20T 9460   1.404   3.198   5.985  1.8438 -2.3014 -1.7568
   95SAPE   C33 9461  -0.121   2.877   7.258 -0.8014  0.3034  0.1306
   95SAPE   H3X 9462  -0.127   2.800   7.339  1.2660  0.7926  0.8025
   95SAPE   H3Y 9463  -0.108   2.816   7.166  0.1017  1.2420 -0.3753
   95SAPE   C34 9464  -0.249   2.965   7.236 -0.2985 -0.0546 -0.8177
   95SAPE   H4X 9465  -0.236   3.045   7.161 -0.0060 -0.4472 -1.1963
   95SAPE   H4Y 9466  -0.292   3.013   7.326  1.1660  0.9143 -0.5929
   95SAPE   C35 9467  -0.360   2.894   7.148 -0.2252  0.0489  0.8526
   95SAPE   H5X 9468  -0.402   2.815   7.215  1.1042  0.0533  1.7468
   95SAPE   H5Y 9469  -0.309   2.852   7.059  0.8988 -0.3124  1.6367
   95SAPE   C36 9470  -0.476   2.982   7.098  0.3587  0.2178 -0.1223
   95SAPE   H6X 9471  -0.434   3.075   7.056  2.4767 -0.3386  0.6738
   95SAPE   H6Y 9472  -0.535   3.009   7.188  0.3492 -1.4491  0.4129
   95SAPE   C37 9473  -0.570   2.910   6.995  0.1436  0.1432 -0.4313
   95SAPE   H7X 9474  -0.666   2.965   6.991 -1.0665 -1.8186  0.4313
   95SAPE   H7Y 9475  -0.582   2.805   7.028 -0.5641  0.0586 -0.9444
   95SAPE   C38 9476  -0.504   2.903   6.857 -0.0004  0.3745  0.4126
   95SAPE   H8X 9477  -0.407   2.849   6.849 -0.1927  0.1242 -0.3679
   95SAPE   H8Y 9478  -0.464   3.000   6.821  0.8591 -0.5281 -1.2128
   95SAPE   C39 9479  -0.589   2.829   6.744  0.4763 -0.1824 -0.2888
   95SAPE   H9X 9480  -0.688   2.878   6.739  1.1487  1.4708  1.4469
   95SAPE   H9Y 9481  -0.608   2.723   6.771 -4.4488  0.6680  0.3925
   95SAPE  C310 9482  -0.527   2.850   6.603 -0.8323 -0.5056 -0.3144
   95SAPE  H10X 9483  -0.428   2.799   6.603 -1.3664 -1.5844 -1.4439
   95SAPE  H10Y 9484  -0.509   2.959   6.598 -0.3089 -0.3569  2.6470
   95SAPE  C311 9485  -0.613   2.804   6.491 -0.1708  0.1044 -0.3906
   95SAPE  H11X 9486  -0.578   2.847   6.395 -1.1369  0.3817 -0.6285
   95SAPE  H11Y 9487  -0.719   2.835   6.502 -0.8175 -2.7005  5.6045
   95SAPE  C312 9488  -0.618   2.651   6.478 -0.2320  0.5729 -0.5589
   95SAPE  H12X 9489  -0.640   2.617   6.581  4.1609  0.9574  0.7172
   95SAPE  H12Y 9490  -0.517   2.616   6.447 -1.3655 -1.7058 -1.9295
   95SAPE  C313 9491  -0.727   2.614   6.388 -0.0032  0.6165  0.4536
   95SAPE  H13X 9492  -0.815   2.670   6.428  0.0922  0.0222  1.5302
   95SAPE  H13Y 9493  -0.751   2.506   6.398 -1.3955  0.6017 -2.1664
   95SAPE  C314 9494  -0.699   2.636   6.236 -0.0012  0.1212 -0.1766
   95SAPE  H14X 9495  -0.621   2.561   6.211 -1.2259 -0.6934 -1.7383
   95SAPE  H14Y 9496  -0.661   2.737   6.212  0.0549  0.4133  1.0483
   95SAPE  C315 9497  -0.823   2.604   6.153  0.2427  0.1248 -0.0406
   95SAPE  H15X 9498  -0.898   2.685   6.160 -2.1632 -1.7892 -1.7590
   95SAPE  H15Y 9499  -0.868   2.510   6.190 -1.9752  0.7905 -0.9319
   95SAPE  C316 9500  -0.784   2.590   6.001  0.0055  0.7843 -0.2372
   95SAPE  H16X 9501  -0.685   2.540   5.996 -1.1713 -1.7461  0.2639
   95SAPE  H16Y 9502  -0.779   2.693   5.959  1.8631 -0.0274 -2.2015
   95SAPE  C317 9503  -0.882   2.514   5.920 -0.0388 -0.4199 -0.4105
   95SAPE  H17X 9504  -0.985   2.556   5.921  0.2894  0.4363 -0.9357
   95SAPE  H17Y 9505  -0.913   2.416   5.961 -0.0859  0.2014  1.0842
   95SAPE  C318 9506  -0.839   2.490   5.770 -0.1409  0.3717 -0.4287
   95SAPE  H18X 9507  -0.894   2.400   5.737  0.4294 -0.1787  0.0932
   95SAPE  H18Y 9508  -0.730   2.470   5.758 -0.1459  0.3775 -0.4896
   95SAPE  H18Z 9509  -0.862   2.588   5.721 -0.7583 -0.4671 -1.8809
   96SAPE     N 9510   1.802   6.799   7.982  0.1416  0.2149 -0.1325
   96SAPE   HN1 9511   1.708   6.767   8.014  1.4258 -1.7043  1.9560
   96SAPE   HN2 9512   1.777   6.873   7.913  0.8661  1.5095  0.9490
   96SAPE   HN3 9513   1.854   6.719   7.940 -1.1372 -1.2742  1.0181
   96SAPE   C12 9514   1.882   6.863   8.090 -0.2888 -0.2622 -0.5996
   96SAPE  H12A 9515   1.981   6.887   8.045  0.4095 -0.8031  0.6021
   96SAPE  H12B 9516   1.897   6.787   8.170 -0.1820  1.6885  1.3231
   96SAPE   C11 9517   1.820   6.991   8.152 -0.2083 -0.2658 -0.1127
   96SAPE  H11A 9518   1.866   7.014   8.251  1.0150  0.1835 -0.7631
   96SAPE  H11B 9519   1.713   6.976   8.175  0.3007 -0.9631  2.0435
   96SAPE     P 9520   1.766   7.238   8.114 -0.4000 -0.7100 -0.1048
   96SAPE   O13 9521   1.759   7.241   8.259  0.1442 -0.6966 -0.3222
   96SAPE   O14 9522   1.842   7.349   8.058  0.3144  0.5906  0.0151
   96SAPE   O12 9523   1.831   7.099   8.061  0.0392 -0.4885 -0.1568
   96SAPE   O11 9524   1.625   7.238   8.056  0.4342 -0.0900  0.2479
   96SAPE    C1 9525   1.570   7.140   7.963 -0.9637 -0.8842  0.3850
   96SAPE    HA 9526   1.619   7.042   7.984  0.3431 -0.4407 -0.5138
   96SAPE    HB 9527   1.462   7.125   7.988 -0.6709 -0.4391  2.0223
   96SAPE    C2 9528   1.590   7.180   7.815 -0.2424 -1.1277  0.6020
   96SAPE    HS 9529   1.561   7.096   7.748  1.3190  0.7787 -2.7159
   96SAPE   O21 9530   1.730   7.209   7.788 -0.4959  0.8280  0.7530
   96SAPE   C21 9531   1.811   7.117   7.781 -0.2021 -0.1077  0.1990
   96SAPE   O22 9532   1.791   6.997   7.792  0.5626 -0.0076 -0.4084
   96SAPE   C22 9533   1.956   7.163   7.767 -0.4381 -0.6959 -0.1661
   96SAPE   H2R 9534   1.952   7.271   7.742  0.9275 -0.8817 -1.3398
   96SAPE   H2S 9535   2.000   7.141   7.867 -1.7660 -3.4021 -0.0633
   96SAPE    C3 9536   1.509   7.310   7.780  0.0474 -0.3132 -0.4900
   96SAPE    HX 9537   1.559   7.387   7.844  2.6570 -2.1071 -0.1967
   96SAPE    HY 9538   1.408   7.314   7.827  0.9440  1.9297  1.4529
   96SAPE   O31 9539   1.501   7.339   7.636 -0.1707 -0.4688 -0.3215
   96SAPE   C31 9540   1.590   7.419   7.580 -0.1130  0.0017 -0.9322
   96SAPE   O32 9541   1.688   7.464   7.640  0.5625  0.8069  0.4969
   96SAPE   C32 9542   1.547   7.452   7.439 -0.3060 -0.2555  0.2379
   96SAPE   H2X 9543   1.503   7.554   7.446  0.5140  0.1513 -0.3698
   96SAPE   H2Y 9544   1.468   7.378   7.413 -1.1164 -0.1008  2.0581
   96SAPE   C23 9545   2.026   7.092   7.653 -0.4742  0.3063  0.1469
   96SAPE   H3R 9546   2.069   7.162   7.578 -0.6781  0.5901  0.2897
   96SAPE   H3S 9547   1.957   7.033   7.590 -0.0465  1.5159 -1.5106
   96SAPE   C24 9548   2.145   6.997   7.697  0.0144 -0.3103 -0.2733
   96SAPE   H4R 9549   2.228   7.051   7.749  1.2804 -2.0768 -0.3627
   96SAPE   H4S 9550   2.201   6.975   7.603 -0.2733 -1.9068 -0.1028
   96SAPE   C25 9551   2.108   6.864   7.766  0.4144 -0.1494 -1.2571
   96SAPE   H5R 9552   2.106   6.859   7.876  0.1554  2.5115 -1.0588
   96SAPE   C26 9553   2.072   6.757   7.694 -0.4523  0.2587  0.2388
   96SAPE   H6R 9554   2.052   6.669   7.756  0.5110  2.2335  3.6519
   96SAPE   C27 9555   2.072   6.735   7.541  0.2213 -0.1030 -0.4109
   96SAPE   H7R 9556   2.086   6.831   7.486 -1.2737  0.4933  0.1770
   96SAPE   H7S 9557   1.965   6.719   7.514 -0.1828  1.9977 -0.2689
   96SAPE   C28 9558   2.145   6.612   7.490  0.0092 -1.0051  0.5514
   96SAPE   H8R 9559   2.178   6.538   7.565  1.1590  1.0102  2.1101
   96SAPE   C29 9560   2.182   6.585   7.367 -1.0065 -0.0945  0.5559
   96SAPE   H9R 9561   2.219   6.486   7.336  0.6369 -0.0667  2.2397
   96SAPE  C210 9562   2.185   6.686   7.253 -0.4818 -0.1967 -0.3669
   96SAPE  H10R 9563   2.210   6.786   7.295  2.2648 -1.5573  1.5586
   96SAPE  H10S 9564   2.081   6.693   7.215 -0.0538  0.7833 -1.3904
   96SAPE  C211 9565   2.298   6.667   7.161 -0.3538 -0.5282  0.2833
   96SAPE  H11R 9566   2.387   6.622   7.207  0.1484  1.8181  1.7556
   96SAPE  C212 9567   2.297   6.680   7.027 -0.0985 -0.8977  0.1104
   96SAPE  H12R 9568   2.393   6.663   6.977  0.3781  0.8210  0.3721
   96SAPE  C213 9569   2.179   6.724   6.947  0.1222 -0.3313  1.0089
   96SAPE  H13R 9570   2.089   6.746   7.009  0.0510 -0.5134  0.9718
   96SAPE  H13S 9571   2.153   6.640   6.880 -1.6923  1.0078 -0.0512
   96SAPE  C214 9572   2.212   6.844   6.863  0.2725  0.2908  0.5515
   96SAPE  H14R 9573   2.309   6.895   6.875 -0.4020  1.7354  0.0777
   96SAPE  C215 9574   2.131   6.903   6.769 -0.5690 -0.1384 -0.2885
   96SAPE  H15R 9575   2.155   7.003   6.729  0.8842 -0.3423  0.0283
   96SAPE  C216 9576   1.991   6.855   6.738  0.1000  0.0791 -0.2715
   96SAPE  H16R 9577   1.966   6.767   6.801 -2.0791  0.0342 -1.1326
   96SAPE  H16S 9578   1.984   6.827   6.631 -1.1347  1.6026 -0.6219
   96SAPE  C217 9579   1.883   6.959   6.748 -0.0663 -0.1770  0.2475
   96SAPE  H17R 9580   1.900   7.050   6.687 -0.3582  0.7207  1.4531
   96SAPE  H17S 9581   1.890   6.988   6.856 -0.9846 -1.1894  0.6014
   96SAPE  C218 9582   1.746   6.899   6.724  0.1500  0.1681  0.0919
   96SAPE  H18R 9583   1.675   6.953   6.791 -3.1098 -1.6057 -1.6990
   96SAPE  H18S 9584   1.726   6.802   6.773  1.9805 -0.8792 -1.1368
   96SAPE  C219 9585   1.712   6.888   6.578  0.3556  0.2959 -0.0553
   96SAPE  H19R 9586   1.787   6.813   6.543  1.1546  0.2768  1.5936
   96SAPE  H19S 9587   1.718   6.987   6.528  1.4129  0.3655  0.1728
   96SAPE  C220 9588   1.578   6.828   6.541 -0.0947  0.1352  0.8448
   96SAPE  H20R 9589   1.498   6.896   6.577 -0.3848  1.5560 -2.1749
   96SAPE  H20S 9590   1.575   6.721   6.568  2.0357 -0.5694 -1.3148
   96SAPE  H20T 9591   1.568   6.830   6.430 -1.7881  1.4882  0.9764
   96SAPE   C33 9592   1.660   7.444   7.331 -0.2461 -0.3004 -0.2332
   96SAPE   H3X 9593   1.717   7.349   7.342  0.5982  0.2727  0.5420
   96SAPE   H3Y 9594   1.731   7.528   7.344 -0.1934 -0.5947  1.8053
   96SAPE   C34 9595   1.608   7.446   7.183  0.1350  0.0529 -0.5034
   96SAPE   H4X 9596   1.531   7.526   7.186  0.7338  0.6293  1.7052
   96SAPE   H4Y 9597   1.560   7.347   7.169 -0.7454 -0.0388  2.4179
   96SAPE   C35 9598   1.716   7.462   7.070 -0.3250 -0.2968  0.3531
   96SAPE   H5X 9599   1.797   7.389   7.088  1.1525  1.0101 -0.7571
   96SAPE   H5Y 9600   1.784   7.549   7.083  1.9569 -1.8650 -0.5592
   96SAPE   C36 9601   1.663   7.444   6.922 -0.2799 -0.3022 -0.2477
   96SAPE   H6X 9602   1.742   7.452   6.844  0.4158 -2.1775  0.1936
   96SAPE   H6Y 9603   1.598   7.534   6.918  0.4545  0.2371 -0.1715
   96SAPE   C37 9604   1.594   7.310   6.889 -0.0839  0.1692 -0.2397
   96SAPE   H7X 9605   1.504   7.316   6.955 -0.7633  0.2405 -1.1515
   96SAPE   H7Y 9606   1.668   7.229   6.904  0.4529 -0.2333 -4.1407
   96SAPE   C38 9607   1.543   7.296   6.742  0.5676 -0.9368 -0.2708
   96SAPE   H8X 9608   1.507   7.396   6.710 -1.1837 -2.2457 -2.7189
   96SAPE   H8Y 9609   1.467   7.217   6.729  0.1643 -0.4679 -0.8446
   96SAPE   C39 9610   1.660   7.261   6.645  0.0988  0.4197  0.5059
   96SAPE   H9X 9611   1.623   7.178   6.581 -0.0418 -0.6317  1.9189
   96SAPE   H9Y 9612   1.743   7.230   6.712 -1.2749 -2.4981  0.9903
   96SAPE  C310 9613   1.702   7.377   6.550 -0.0166  0.0465 -0.6050
   96SAPE  H10X 9614   1.731   7.466   6.611  0.3352  0.9270 -2.0031
   96SAPE  H10Y 9615   1.609   7.407   6.499 -0.8041 -1.5297 -0.1497
   96SAPE  C311 9616   1.810   7.348   6.440 -0.0647  0.7902 -0.1548
   96SAPE  H11X 9617   1.816   7.249   6.391  4.0249  0.8604 -0.1311
   96SAPE  H11Y 9618   1.912   7.370   6.480  0.5068  0.1533 -1.2214
   96SAPE  C312 9619   1.801   7.457   6.333  0.6434 -0.2131  0.1091
   96SAPE  H12X 9620   1.803   7.556   6.385  1.7459 -0.0813 -0.1757
   96SAPE  H12Y 9621   1.699   7.448   6.290  0.7632  2.7195 -1.0162
   96SAPE  C313 9622   1.893   7.441   6.212 -0.4062 -0.0298  0.8243
   96SAPE  H13X 9623   1.909   7.541   6.166 -0.0127 -0.2465  0.4775
   96SAPE  H13Y 9624   1.841   7.384   6.132 -0.1974  0.2012  0.5205
   96SAPE  C314 9625   2.034   7.396   6.249 -0.1550  0.1296 -0.1751
   96SAPE  H14X 9626   2.026   7.308   6.316 -0.2263  1.8638  2.1826
   96SAPE  H14Y 9627   2.081   7.476   6.309  1.0385 -0.6239 -0.0692
   96SAPE  C315 9628   2.125   7.379   6.125 -0.0554  0.3256 -0.0341
   96SAPE  H15X 9629   2.125   7.461   6.051  5.7373  0.3711 -0.3848
   96SAPE  H15Y 9630   2.087   7.289   6.071 -1.1187  0.0353  1.1426
   96SAPE  C316 9631   2.270   7.357   6.173 -0.2653  0.1652  1.1997
   96SAPE  H16X 9632   2.255   7.275   6.245 -0.4546 -0.5829  0.3290
   96SAPE  H16Y 9633   2.300   7.445   6.234  0.6965  1.1299 -0.5703
   96SAPE  C317 9634   2.371   7.313   6.063  0.1172 -0.3030  0.0350
   96SAPE  H17X 9635   2.333   7.223   6.011  0.0536 -1.2089  1.5763
   96SAPE  H17Y 9636   2.457   7.286   6.128  0.6095  2.5914  0.7381
   96SAPE  C318 9637   2.414   7.430   5.967 -0.5824 -0.0546  0.0479
   96SAPE  H18X 9638   2.423   7.516   6.036  0.8597  0.0431 -0.2362
   96SAPE  H18Y 9639   2.328   7.452   5.899 -0.2027  0.0099 -0.4178
   96SAPE  H18Z 9640   2.499   7.399   5.903 -0.9759 -0.4792 -0.2765
   97SAPE     N 9641   2.315   1.425   8.043 -0.3188  0.2608  0.3988
   97SAPE   HN1 9642   2.238   1.461   8.103 -0.9405  0.5225 -0.5266
   97SAPE   HN2 9643   2.322   1.470   7.949  0.1800 -2.1956 -0.8230
   97SAPE   HN3 9644   2.303   1.326   8.014  1.7817  0.0833 -0.0036
   97SAPE   C12 9645   2.450   1.447   8.118  0.1298  0.1732  0.2285
   97SAPE  H12A 9646   2.528   1.390   8.063 -1.7940 -0.8051 -1.6426
   97SAPE  H12B 9647   2.443   1.393   8.215 -1.0363 -1.1810 -0.5756
   97SAPE   C11 9648   2.498   1.591   8.142  0.2887 -0.1411  0.5379
   97SAPE  H11A 9649   2.601   1.591   8.183  0.1611  0.4269  0.8597
   97SAPE  H11B 9650   2.429   1.626   8.221  1.8165 -0.0208  1.8675
   97SAPE     P 9651   2.558   1.815   8.029 -0.3883 -0.0515  0.1580
   97SAPE   O13 9652   2.532   1.895   7.907  0.4798 -0.0698  0.2607
   97SAPE   O14 9653   2.533   1.887   8.158 -0.3479 -0.1664 -0.2924
   97SAPE   O12 9654   2.494   1.672   8.023 -0.1664  0.2341 -0.2259
   97SAPE   O11 9655   2.713   1.774   8.030  0.1950 -0.1421  0.0103
   97SAPE    C1 9656   2.777   1.690   7.943 -0.0599 -0.0871  0.4761
   97SAPE    HA 9657   2.866   1.653   7.997  0.3310  0.0479 -0.0703
   97SAPE    HB 9658   2.716   1.601   7.914 -0.2244  0.6832 -1.7194
   97SAPE    C2 9659   2.833   1.770   7.825 -0.1580  0.4272 -0.5095
   97SAPE    HS 9660   2.749   1.775   7.752 -0.8385  0.3504  0.2525
   97SAPE   O21 9661   2.941   1.697   7.778 -0.2188  0.4922  0.3701
   97SAPE   C21 9662   2.949   1.673   7.654  0.2799 -0.4898  0.7761
   97SAPE   O22 9663   2.873   1.721   7.569 -0.6682 -0.2277 -0.6207
   97SAPE   C22 9664   3.071   1.583   7.619  0.1981  0.1808 -0.3099
   97SAPE   H2R 9665   3.054   1.476   7.647  0.5708 -0.0372 -0.9057
   97SAPE   H2S 9666   3.072   1.582   7.508 -1.4705 -1.7232 -0.3785
   97SAPE    C3 9667   2.862   1.923   7.853 -0.2090  0.0160 -0.5682
   97SAPE    HX 9668   2.891   1.935   7.959  0.8166 -0.7961 -0.7384
   97SAPE    HY 9669   2.764   1.974   7.844 -1.2357 -1.6771  0.5048
   97SAPE   O31 9670   2.961   1.978   7.764 -0.2467  0.0301  0.3533
   97SAPE   C31 9671   3.087   1.978   7.803 -0.1336  0.0284 -0.7059
   97SAPE   O32 9672   3.133   1.924   7.902 -0.0968 -0.0064  0.2871
   97SAPE   C32 9673   3.168   2.052   7.691  0.6516  0.6095 -0.8669
   97SAPE   H2X 9674   3.146   2.160   7.700  1.4666  0.7657 -0.6647
   97SAPE   H2Y 9675   3.131   2.015   7.593 -1.0193  0.5139 -0.2418
   97SAPE   C23 9676   3.206   1.638   7.666  0.1851 -0.2258 -0.6376
   97SAPE   H3R 9677   3.191   1.666   7.772 -2.8116  0.9454 -1.2729
   97SAPE   H3S 9678   3.226   1.737   7.618 -0.9567 -0.4433 -1.6148
   97SAPE   C24 9679   3.315   1.538   7.652 -0.9571  0.5217 -0.6560
   97SAPE   H4R 9680   3.321   1.512   7.544  1.2670 -2.0317 -0.0314
   97SAPE   H4S 9681   3.275   1.449   7.705 -0.9291  0.8767 -0.0302
   97SAPE   C25 9682   3.455   1.574   7.709  0.1037 -1.0421  0.3191
   97SAPE   H5R 9683   3.466   1.582   7.819 -0.0606  1.6898  0.1950
   97SAPE   C26 9684   3.557   1.608   7.632 -0.3659 -0.7560  0.2338
   97SAPE   H6R 9685   3.651   1.627   7.687 -0.8443  0.3141  0.7060
   97SAPE   C27 9686   3.566   1.611   7.480 -0.3786  0.2184 -0.4471
   97SAPE   H7R 9687   3.499   1.529   7.445 -1.6226  0.8463  0.3753
   97SAPE   H7S 9688   3.670   1.583   7.455 -0.8672 -1.7670 -0.4281
   97SAPE   C28 9689   3.544   1.743   7.415 -0.5134  0.2664 -0.7655
   97SAPE   H8R 9690   3.581   1.829   7.472  0.0083  0.5367 -1.4902
   97SAPE   C29 9691   3.456   1.773   7.305 -0.5135  0.1821 -0.8159
   97SAPE   H9R 9692   3.445   1.880   7.283  0.6067  1.0341  2.2560
   97SAPE  C210 9693   3.392   1.660   7.226  0.3229  0.3463  0.2153
   97SAPE  H10R 9694   3.311   1.700   7.162 -0.3388  0.0414  0.8500
   97SAPE  H10S 9695   3.334   1.585   7.285  1.6084 -1.9688 -1.3157
   97SAPE  C211 9696   3.494   1.589   7.136 -0.0458  0.2944 -0.3057
   97SAPE  H11R 9697   3.592   1.577   7.185 -0.7096  2.0346  1.5760
   97SAPE  C212 9698   3.480   1.534   7.016 -0.3053  0.1580  0.4808
   97SAPE  H12R 9699   3.568   1.478   6.981 -0.4978 -0.9668  1.7363
   97SAPE  C213 9700   3.357   1.540   6.929  0.5137  1.0333 -0.0820
   97SAPE  H13R 9701   3.278   1.606   6.972  0.5902  0.1862  1.4522
   97SAPE  H13S 9702   3.313   1.438   6.934  0.1678  1.1996  0.3841
   97SAPE  C214 9703   3.397   1.560   6.786 -0.1218 -0.3454 -0.3742
   97SAPE  H14R 9704   3.502   1.537   6.762  0.1697  1.3982 -0.8630
   97SAPE  C215 9705   3.309   1.585   6.686  0.0742 -0.2979 -0.1278
   97SAPE  H15R 9706   3.345   1.611   6.586  2.6564 -0.0777  0.7949
   97SAPE  C216 9707   3.159   1.606   6.711  0.2090 -0.7556  0.0689
   97SAPE  H16R 9708   3.124   1.694   6.770 -0.0667 -0.3699 -0.6626
   97SAPE  H16S 9709   3.125   1.513   6.762  1.6458 -1.6101 -0.4866
   97SAPE  C217 9710   3.080   1.606   6.581  0.3596  0.2602  0.6967
   97SAPE  H17R 9711   3.112   1.678   6.502  0.1360 -1.9186 -1.4946
   97SAPE  H17S 9712   2.979   1.636   6.616  1.0255 -0.0035  2.9899
   97SAPE  C218 9713   3.062   1.470   6.512 -0.5038  0.1103  0.5419
   97SAPE  H18R 9714   3.005   1.402   6.577 -1.9170  2.5636  2.0269
   97SAPE  H18S 9715   3.153   1.410   6.489 -1.2654 -0.3475 -1.5387
   97SAPE  C219 9716   3.004   1.484   6.370  0.2816  0.4730  0.5900
   97SAPE  H19R 9717   3.082   1.517   6.298 -0.2778 -1.0100 -0.7542
   97SAPE  H19S 9718   2.910   1.544   6.367 -0.1277 -0.1941 -1.4001
   97SAPE  C220 9719   2.957   1.361   6.300 -0.5422  0.1400  0.8738
   97SAPE  H20R 9720   3.026   1.275   6.293 -1.8454 -0.9216  0.6356
   97SAPE  H20S 9721   2.924   1.386   6.197  3.2671  3.8591  0.3142
   97SAPE  H20T 9722   2.864   1.321   6.346 -2.3786  1.6496 -1.2814
   97SAPE   C33 9723   3.317   2.044   7.708  0.1203  0.6074 -0.2299
   97SAPE   H3X 9724   3.350   1.951   7.657  0.8331  0.2559  0.8329
   97SAPE   H3Y 9725   3.352   2.048   7.814  2.7092  0.9236 -1.0305
   97SAPE   C34 9726   3.397   2.162   7.646 -0.3286 -0.9891 -0.3317
   97SAPE   H4X 9727   3.502   2.163   7.683  0.3081  1.1634 -1.9946
   97SAPE   H4Y 9728   3.357   2.254   7.695 -0.3664 -0.6768 -0.9406
   97SAPE   C35 9729   3.386   2.154   7.497 -0.5094 -0.0547 -0.0039
   97SAPE   H5X 9730   3.284   2.130   7.460 -0.3630 -1.4928  0.4617
   97SAPE   H5Y 9731   3.454   2.074   7.461 -0.8545 -0.2211 -0.2966
   97SAPE   C36 9732   3.447   2.274   7.428  0.2725 -0.2765 -0.5684
   97SAPE   H6X 9733   3.554   2.285   7.457 -0.1213 -0.4345  1.0541
   97SAPE   H6Y 9734   3.404   2.362   7.480 -2.0499 -0.7621 -1.5135
   97SAPE   C37 9735   3.408   2.285   7.276  0.3795  0.2269  0.3944
   97SAPE   H7X 9736   3.298   2.278   7.264  0.3338 -1.4378  1.4490
   97SAPE   H7Y 9737   3.448   2.190   7.235 -0.2957 -0.1379  0.5655
   97SAPE   C38 9738   3.457   2.399   7.191  0.5226 -0.2000 -0.1688
   97SAPE   H8X 9739   3.566   2.396   7.172  0.5227  1.1051 -0.4555
   97SAPE   H8Y 9740   3.427   2.496   7.236 -1.5512 -1.3883  1.1700
   97SAPE   C39 9741   3.388   2.387   7.052 -0.5873  0.0524 -0.5906
   97SAPE   H9X 9742   3.280   2.402   7.073  0.0771  1.7461  2.1554
   97SAPE   H9Y 9743   3.397   2.284   7.011 -1.3651 -0.6372  0.8905
   97SAPE  C310 9744   3.433   2.506   6.963 -1.0866 -0.0195  0.0144
   97SAPE  H10X 9745   3.539   2.475   6.951 -1.7869 -3.5807  1.6670
   97SAPE  H10Y 9746   3.430   2.605   7.015 -0.8348  0.3660 -0.6984
   97SAPE  C311 9747   3.380   2.515   6.823 -0.3344  0.0728  0.0109
   97SAPE  H11X 9748   3.427   2.605   6.778  2.4082 -0.6980  1.1666
   97SAPE  H11Y 9749   3.274   2.545   6.808 -0.0109  1.5064  0.3665
   97SAPE  C312 9750   3.417   2.395   6.740  0.1059 -0.1766  0.4969
   97SAPE  H12X 9751   3.357   2.304   6.762  3.4909 -2.2698  2.0588
   97SAPE  H12Y 9752   3.521   2.356   6.749  1.4662  2.6132 -1.5923
   97SAPE  C313 9753   3.405   2.434   6.589  0.1731  0.1566  0.2462
   97SAPE  H13X 9754   3.486   2.510   6.578  1.0046 -0.5438  1.2690
   97SAPE  H13Y 9755   3.307   2.485   6.579 -0.6092 -0.8826  2.0799
   97SAPE  C314 9756   3.433   2.317   6.501 -0.5641 -0.3431 -0.4906
   97SAPE  H14X 9757   3.347   2.247   6.499 -0.7039 -0.2524 -3.5169
   97SAPE  H14Y 9758   3.517   2.262   6.547 -0.6489  1.9332  2.6796
   97SAPE  C315 9759   3.477   2.358   6.355 -0.2316 -0.4749  0.2218
   97SAPE  H15X 9760   3.525   2.267   6.313 -1.4545 -1.3230  0.6122
   97SAPE  H15Y 9761   3.549   2.436   6.389  0.3075 -0.6319 -0.5210
   97SAPE  C316 9762   3.378   2.418   6.263  0.3653  0.0860  0.6908
   97SAPE  H16X 9763   3.327   2.492   6.328 -3.1752 -2.0831  0.6464
   97SAPE  H16Y 9764   3.304   2.337   6.245  0.1240  0.1362  1.3915
   97SAPE  C317 9765   3.433   2.483   6.136  0.7864 -0.0677  0.5862
   97SAPE  H17X 9766   3.502   2.421   6.076 -0.5300 -0.5508 -0.5024
   97SAPE  H17Y 9767   3.482   2.578   6.168  0.9243  0.3684 -0.8338
   97SAPE  C318 9768   3.323   2.519   6.034 -0.7745  0.5668 -0.2538
   97SAPE  H18X 9769   3.366   2.518   5.931 -1.7363  0.3786 -0.6690
   97SAPE  H18Y 9770   3.272   2.616   6.051  0.8202  1.5055 -0.6551
   97SAPE  H18Z 9771   3.257   2.429   6.028  1.5306 -1.2553  0.0074
   98SAPE     N 9772   1.712   1.382   7.870  0.2563 -0.4920 -0.2106
   98SAPE   HN1 9773   1.789   1.449   7.889 -1.1050  0.7649  1.1358
   98SAPE   HN2 9774   1.640   1.398   7.944  0.7620  0.8833  0.0137
   98SAPE   HN3 9775   1.759   1.289   7.870  0.3864 -0.4287 -0.8636
   98SAPE   C12 9776   1.670   1.418   7.730 -0.2590  0.4072 -0.5995
   98SAPE  H12A 9777   1.614   1.340   7.673 -1.4105  0.7945 -0.0349
   98SAPE  H12B 9778   1.770   1.418   7.682  0.7916 -1.1766  1.4338
   98SAPE   C11 9779   1.608   1.553   7.726  0.0776  0.2122 -0.5310
   98SAPE  H11A 9780   1.573   1.582   7.624  1.0820 -1.4173 -1.3754
   98SAPE  H11B 9781   1.689   1.623   7.755  0.2159  0.0991 -0.6462
   98SAPE     P 9782   1.409   1.678   7.841  0.2259  0.1045 -0.0769
   98SAPE   O13 9783   1.331   1.648   7.958 -1.0700 -0.1502 -0.0968
   98SAPE   O14 9784   1.492   1.804   7.845 -0.2463  0.1651 -0.4097
   98SAPE   O12 9785   1.507   1.561   7.823  0.0235 -0.2244 -0.1966
   98SAPE   O11 9786   1.318   1.671   7.702  0.0018 -0.7385  0.6743
   98SAPE    C1 9787   1.248   1.543   7.706  0.3657 -0.1847  0.4404
   98SAPE    HA 9788   1.320   1.459   7.716  1.8722  0.7848 -1.5022
   98SAPE    HB 9789   1.171   1.536   7.785 -1.0339 -0.7802 -0.9133
   98SAPE    C2 9790   1.178   1.521   7.567 -0.1950 -0.1294  0.1558
   98SAPE    HS 9791   1.128   1.422   7.582  1.3849 -1.0258 -0.1994
   98SAPE   O21 9792   1.278   1.528   7.467  0.1855 -0.5267  0.5887
   98SAPE   C21 9793   1.352   1.417   7.446  0.3818  0.2086  0.0110
   98SAPE   O22 9794   1.333   1.307   7.499  0.4082 -0.2479  0.7593
   98SAPE   C22 9795   1.459   1.437   7.339  0.1463  1.1187 -0.0570
   98SAPE   H2R 9796   1.542   1.483   7.396  0.9268 -1.4192  1.0004
   98SAPE   H2S 9797   1.492   1.336   7.306 -0.5842  1.3714 -1.6587
   98SAPE    C3 9798   1.067   1.626   7.542 -0.2783  0.3740  0.3444
   98SAPE    HX 9799   1.111   1.727   7.558 -0.4008  0.4473  0.2212
   98SAPE    HY 9800   0.999   1.603   7.626 -1.1639  2.2600  0.1950
   98SAPE   O31 9801   1.001   1.622   7.415  0.3810  0.5572  0.4298
   98SAPE   C31 9802   1.060   1.689   7.310 -0.1299  0.1982 -0.1568
   98SAPE   O32 9803   1.169   1.740   7.315 -0.2573  0.0094 -0.2503
   98SAPE   C32 9804   0.962   1.682   7.191 -0.0694 -0.2150 -1.1015
   98SAPE   H2X 9805   0.898   1.773   7.202 -0.0158 -0.3276  0.2544
   98SAPE   H2Y 9806   0.899   1.591   7.197  0.3888 -0.4109  2.1004
   98SAPE   C23 9807   1.421   1.526   7.217 -0.3310 -0.2479 -0.4036
   98SAPE   H3R 9808   1.395   1.625   7.260 -1.5817  0.4285 -2.5568
   98SAPE   H3S 9809   1.341   1.495   7.146 -0.7663  2.2388 -1.0994
   98SAPE   C24 9810   1.546   1.538   7.140 -0.0010 -0.4057 -0.1957
   98SAPE   H4R 9811   1.640   1.552   7.198  0.8026  1.2521 -1.7774
   98SAPE   H4S 9812   1.536   1.633   7.084  2.2126  0.1232  0.1865
   98SAPE   C25 9813   1.576   1.430   7.045  0.6340  0.4524  0.2658
   98SAPE   H5R 9814   1.656   1.363   7.078 -1.0701 -1.0896  1.4751
   98SAPE   C26 9815   1.514   1.403   6.928 -0.5417  0.1686 -0.0213
   98SAPE   H6R 9816   1.543   1.315   6.870 -0.6106  0.1726 -0.0622
   98SAPE   C27 9817   1.397   1.479   6.872  0.1276  0.3896 -0.4039
   98SAPE   H7R 9818   1.401   1.485   6.761  2.6732  1.2363 -0.3209
   98SAPE   H7S 9819   1.405   1.580   6.917  1.5573 -0.4773  1.4163
   98SAPE   C28 9820   1.264   1.411   6.904  0.2437  0.2462 -0.0103
   98SAPE   H8R 9821   1.225   1.426   7.006  2.0355 -2.5337  1.2063
   98SAPE   C29 9822   1.195   1.329   6.816  0.3628  0.5612 -0.2125
   98SAPE   H9R 9823   1.110   1.269   6.852  0.4033  0.6927  0.1087
   98SAPE  C210 9824   1.239   1.291   6.682 -0.2746 -0.0627 -0.2966
   98SAPE  H10R 9825   1.179   1.201   6.656 -0.0137 -0.4894  0.5453
   98SAPE  H10S 9826   1.342   1.251   6.681 -0.6109 -0.9702 -1.4265
   98SAPE  C211 9827   1.224   1.399   6.573  0.2839  0.2575 -0.3581
   98SAPE  H11R 9828   1.151   1.477   6.598 -2.9092 -2.3677 -0.7539
   98SAPE  C212 9829   1.292   1.406   6.461 -0.1581  0.7764  0.3738
   98SAPE  H12R 9830   1.271   1.491   6.395 -2.5251  0.9246  1.2201
   98SAPE  C213 9831   1.393   1.302   6.436  0.3012 -0.0312 -0.1787
   98SAPE  H13R 9832   1.339   1.205   6.423  0.8964 -0.1073 -2.6687
   98SAPE  H13S 9833   1.466   1.291   6.519 -0.8245 -0.4601  0.7941
   98SAPE  C214 9834   1.466   1.319   6.310 -0.4553  1.0686 -0.6653
   98SAPE  H14R 9835   1.556   1.381   6.307  1.2787 -1.3299 -2.3687
   98SAPE  C215 9836   1.417   1.278   6.185  0.4631 -0.3092  0.2577
   98SAPE  H15R 9837   1.472   1.316   6.098  1.5478  1.2956  1.5786
   98SAPE  C216 9838   1.297   1.194   6.157 -0.3580 -0.1696 -1.1751
   98SAPE  H16R 9839   1.217   1.219   6.229 -1.4442 -0.0259 -2.3856
   98SAPE  H16S 9840   1.318   1.086   6.170 -1.1544 -0.1557  0.4379
   98SAPE  C217 9841   1.245   1.209   6.016  0.1358 -0.2494  0.6341
   98SAPE  H17R 9842   1.252   1.315   5.983 -0.7267 -0.4920 -0.3958
   98SAPE  H17S 9843   1.134   1.196   6.020  0.1432 -0.2014  1.0308
   98SAPE  C218 9844   1.329   1.116   5.921 -0.2069 -1.0673 -0.1652
   98SAPE  H18R 9845   1.355   1.025   5.979 -0.4965 -1.2543 -0.3262
   98SAPE  H18S 9846   1.428   1.166   5.914 -0.1169 -1.1406  0.4928
   98SAPE  C219 9847   1.265   1.084   5.786 -0.3814 -0.3291  0.0383
   98SAPE  H19R 9848   1.157   1.089   5.810 -0.1313  0.7826  1.0330
   98SAPE  H19S 9849   1.294   0.982   5.751 -0.0739 -0.3462  0.3350
   98SAPE  C220 9850   1.307   1.187   5.678 -0.0208  0.2520  0.3363
   98SAPE  H20R 9851   1.230   1.185   5.598 -0.4766 -1.3743  0.7575
   98SAPE  H20S 9852   1.408   1.156   5.644  0.0137  0.4232  0.2833
   98SAPE  H20T 9853   1.323   1.283   5.730 -2.6425  0.1478  1.4991
   98SAPE   C33 9854   1.039   1.689   7.062 -0.1409  0.1282  0.8041
   98SAPE   H3X 9855   1.105   1.600   7.059 -0.1333  0.1477  0.1595
   98SAPE   H3Y 9856   1.110   1.774   7.059  0.4900 -0.3875 -2.0323
   98SAPE   C34 9857   0.945   1.693   6.945 -0.3019  0.3145  0.3868
   98SAPE   H4X 9858   0.877   1.779   6.963  1.8797  1.6290  3.1188
   98SAPE   H4Y 9859   0.889   1.597   6.946  2.0126 -1.1026  1.5580
   98SAPE   C35 9860   1.017   1.722   6.811 -0.1411  0.3025  0.3935
   98SAPE   H5X 9861   1.107   1.657   6.812  1.3951  2.3258  1.0418
   98SAPE   H5Y 9862   1.060   1.822   6.835 -1.9551  0.8012  1.8191
   98SAPE   C36 9863   0.930   1.703   6.683 -0.0100 -0.1049 -0.7887
   98SAPE   H6X 9864   0.835   1.761   6.690  0.4355  1.7444 -6.0274
   98SAPE   H6Y 9865   0.897   1.597   6.685  0.9099 -0.3893 -0.0281
   98SAPE   C37 9866   1.012   1.738   6.555 -0.0449 -0.0211 -0.1359
   98SAPE   H7X 9867   1.094   1.665   6.542 -1.5230 -1.6848 -0.5469
   98SAPE   H7Y 9868   1.049   1.843   6.555 -1.6096  0.5615 -0.7429
   98SAPE   C38 9869   0.919   1.716   6.436 -0.4736  0.0569  0.5054
   98SAPE   H8X 9870   0.847   1.801   6.440 -0.8980 -0.2899  0.3545
   98SAPE   H8Y 9871   0.866   1.622   6.461 -1.6369  1.3873  3.4326
   98SAPE   C39 9872   0.990   1.716   6.301  0.0904  0.0621 -0.1676
   98SAPE   H9X 9873   0.931   1.645   6.240 -2.5874  0.4452  1.7967
   98SAPE   H9Y 9874   1.093   1.675   6.311  0.1280  0.5621  2.4215
   98SAPE  C310 9875   0.995   1.848   6.230 -0.4429 -0.4518  0.2372
   98SAPE  H10X 9876   1.060   1.922   6.281 -1.3159  0.8250 -0.4359
   98SAPE  H10Y 9877   0.891   1.888   6.226 -0.8230 -1.4084  0.4450
   98SAPE  C311 9878   1.049   1.842   6.084 -0.2867  0.0254  0.4505
   98SAPE  H11X 9879   0.983   1.772   6.029  0.5287 -0.3194 -0.1230
   98SAPE  H11Y 9880   1.152   1.799   6.083 -0.8793 -1.6236 -2.5947
   98SAPE  C312 9881   1.051   1.965   5.997 -0.1606  0.0212  0.1584
   98SAPE  H12X 9882   1.123   1.948   5.915  0.3588 -2.8589  1.0767
   98SAPE  H12Y 9883   1.086   2.049   6.062 -0.2180  1.1747 -1.2542
   98SAPE  C313 9884   0.916   2.005   5.933 -0.7257 -0.5936  0.3456
   98SAPE  H13X 9885   0.848   2.041   6.013  0.8103  1.7100  0.7463
   98SAPE  H13Y 9886   0.884   1.910   5.887  0.8559 -0.5371 -0.9483
   98SAPE  C314 9887   0.941   2.112   5.824 -0.6212  0.4062  0.6521
   98SAPE  H14X 9888   0.848   2.116   5.763 -1.5883  0.8355  2.0969
   98SAPE  H14Y 9889   1.023   2.083   5.754 -0.1454  2.2916  0.3669
   98SAPE  C315 9890   0.968   2.253   5.888 -0.2877  0.4096  0.4414
   98SAPE  H15X 9891   1.076   2.242   5.914 -0.1588 -2.1116 -0.8741
   98SAPE  H15Y 9892   0.898   2.264   5.973 -1.3761  1.5793 -0.5729
   98SAPE  C316 9893   0.963   2.358   5.786  0.5175 -0.3356  0.6427
   98SAPE  H16X 9894   0.863   2.371   5.739  1.1684 -0.3058 -0.7908
   98SAPE  H16Y 9895   1.027   2.320   5.703 -1.4673 -2.3080 -0.0925
   98SAPE  C317 9896   0.999   2.497   5.841  0.1413 -0.0422  0.2598
   98SAPE  H17X 9897   1.023   2.567   5.758 -1.1911 -0.6622 -0.6767
   98SAPE  H17Y 9898   1.099   2.487   5.889  1.0737 -0.3269 -1.6464
   98SAPE  C318 9899   0.889   2.562   5.924 -0.3369  0.0140  0.4861
   98SAPE  H18X 9900   0.798   2.588   5.865  0.3893  0.4143 -0.4716
   98SAPE  H18Y 9901   0.921   2.658   5.971  1.1997 -0.5370  0.6075
   98SAPE  H18Z 9902   0.843   2.485   5.989 -1.2213  0.8449  0.8883
   99SAPE     N 9903   2.834   0.022   8.295  0.1094  0.3233  0.6485
   99SAPE   HN1 9904   2.746  -0.027   8.273  1.4100 -0.8201 -2.5939
   99SAPE   HN2 9905   2.861  -0.007   8.391  1.3221  0.9651  0.5257
   99SAPE   HN3 9906   2.812   0.124   8.288  0.0709  0.3885  1.5967
   99SAPE   C12 9907   2.953  -0.019   8.200 -0.0774 -0.0906 -0.3529
   99SAPE  H12A 9908   3.041   0.026   8.250 -0.7693  0.4562  0.4097
   99SAPE  H12B 9909   2.940   0.019   8.096  3.0485 -1.1203 -1.2221
   99SAPE   C11 9910   2.966  -0.168   8.176 -0.3751 -0.2505 -0.0334
   99SAPE  H11A 9911   2.997  -0.206   8.276  0.6864  1.1464  0.1925
   99SAPE  H11B 9912   3.043  -0.196   8.102 -0.9058 -1.6170 -0.1001
   99SAPE     P 9913   2.795  -0.280   7.998 -0.6195  0.2053 -0.1553
   99SAPE   O13 9914   2.861  -0.410   7.972 -0.2975  0.4525 -0.1431
   99SAPE   O14 9915   2.650  -0.264   7.985 -0.4014 -0.5535 -0.0947
   99SAPE   O12 9916   2.843  -0.221   8.141  0.1578  0.0248 -0.5816
   99SAPE   O11 9917   2.852  -0.185   7.892  0.3882  0.3927  0.1205
   99SAPE    C1 9918   2.984  -0.187   7.839  0.3287  0.3038 -0.4131
   99SAPE    HA 9919   3.034  -0.089   7.859  2.4590 -0.6822 -0.5900
   99SAPE    HB 9920   3.047  -0.266   7.886 -1.0848 -0.2049  0.6915
   99SAPE    C2 9921   2.992  -0.188   7.681  0.9692 -0.1006 -1.1740
   99SAPE    HS 9922   3.098  -0.188   7.647  2.0271 -0.3474  1.8262
   99SAPE   O21 9923   2.900  -0.093   7.627  0.6110 -0.5292  0.3777
   99SAPE   C21 9924   2.937   0.032   7.607 -0.9371 -0.1043 -0.6857
   99SAPE   O22 9925   3.041   0.083   7.647  0.0528  0.0129 -0.6719
   99SAPE   C22 9926   2.832   0.098   7.519 -0.3954  0.6607 -0.1464
   99SAPE   H2R 9927   2.812   0.037   7.429  1.2470  0.2463 -0.2523
   99SAPE   H2S 9928   2.739   0.099   7.580  1.2053 -1.4434  2.5783
   99SAPE    C3 9929   2.937  -0.325   7.641 -0.5259  0.2476 -0.8767
   99SAPE    HX 9930   2.843  -0.335   7.701  0.0482  2.6674  0.5506
   99SAPE    HY 9931   3.005  -0.402   7.684 -2.7884 -0.4777  1.7653
   99SAPE   O31 9932   2.920  -0.346   7.500 -0.2681  0.2115 -0.3822
   99SAPE   C31 9933   2.811  -0.304   7.450  0.5399 -0.0672  0.5281
   99SAPE   O32 9934   2.714  -0.277   7.511 -0.2918 -0.1224 -0.0409
   99SAPE   C32 9935   2.826  -0.292   7.291  0.3528  0.5144  0.8297
   99SAPE   H2X 9936   2.913  -0.354   7.262 -0.7951 -0.4949 -0.5807
   99SAPE   H2Y 9937   2.853  -0.185   7.271  0.8310  0.6544  2.1518
   99SAPE   C23 9938   2.868   0.241   7.473 -0.4931 -0.2229 -0.6590
   99SAPE   H3R 9939   2.918   0.299   7.553 -2.4708  2.5368 -1.2971
   99SAPE   H3S 9940   2.770   0.292   7.463 -0.1714  0.0874 -2.6826
   99SAPE   C24 9941   2.944   0.251   7.339 -0.0277 -0.2967  0.6260
   99SAPE   H4R 9942   2.933   0.355   7.304  1.7954 -0.7922 -1.6524
   99SAPE   H4S 9943   2.894   0.186   7.264 -1.4173  0.8483  0.5191
   99SAPE   C25 9944   3.088   0.229   7.347  0.2147 -0.3390  0.3420
   99SAPE   H5R 9945   3.125   0.278   7.439 -1.5173 -0.8462  1.3622
   99SAPE   C26 9946   3.164   0.158   7.263  0.2287 -0.3223 -0.4245
   99SAPE   H6R 9947   3.273   0.152   7.278  0.0036 -2.9030  0.6260
   99SAPE   C27 9948   3.110   0.083   7.146  0.3287  0.0508  0.5193
   99SAPE   H7R 9949   3.025   0.014   7.169  2.3110 -3.1101 -0.9544
   99SAPE   H7S 9950   3.181   0.005   7.111  0.3629  0.1283  0.4154
   99SAPE   C28 9951   3.077   0.185   7.038  0.2841  0.7179 -0.3876
   99SAPE   H8R 9952   3.054   0.291   7.054  0.4460  0.7529 -0.3805
   99SAPE   C29 9953   3.092   0.153   6.906  0.6028 -0.0602  0.1950
   99SAPE   H9R 9954   3.071   0.229   6.830  0.1495 -3.5666 -3.5464
   99SAPE  C210 9955   3.136   0.020   6.845  0.7862  0.2507  0.1602
   99SAPE  H10R 9956   3.049  -0.046   6.823  2.0176 -1.5584  0.4734
   99SAPE  H10S 9957   3.199  -0.048   6.907 -2.5655 -1.7631  1.6951
   99SAPE  C211 9958   3.219   0.057   6.722  0.3624 -0.0167  0.1541
   99SAPE  H11R 9959   3.316   0.100   6.751  1.1461 -1.9124  0.5482
   99SAPE  C212 9960   3.198   0.021   6.591  0.6942 -0.5257  0.1247
   99SAPE  H12R 9961   3.268   0.067   6.520 -0.3753  0.4560 -0.3305
   99SAPE  C213 9962   3.076  -0.042   6.526  0.1637 -0.6948 -0.1996
   99SAPE  H13R 9963   3.025  -0.108   6.599 -0.2306  0.3288  0.4748
   99SAPE  H13S 9964   3.102  -0.108   6.441 -2.1339 -0.8038 -0.8581
   99SAPE  C214 9965   2.981   0.062   6.470 -0.3359 -0.1426 -0.1231
   99SAPE  H14R 9966   3.012   0.163   6.500 -1.8060  0.1312  0.5483
   99SAPE  C215 9967   2.886   0.031   6.380 -0.8385  0.1585 -0.5732
   99SAPE  H15R 9968   2.829   0.115   6.338  0.4195  0.4913 -1.6916
   99SAPE  C216 9969   2.841  -0.111   6.357  0.3579 -0.9563  0.6102
   99SAPE  H16R 9970   2.764  -0.136   6.433 -1.1511  1.6741  0.0634
   99SAPE  H16S 9971   2.922  -0.186   6.368  0.6771 -0.6074  0.6570
   99SAPE  C217 9972   2.763  -0.116   6.222  0.5080 -0.6059 -0.0011
   99SAPE  H17R 9973   2.678  -0.045   6.227 -0.4972 -1.6823 -1.0155
   99SAPE  H17S 9974   2.709  -0.213   6.209  0.6955 -0.7958  0.6111
   99SAPE  C218 9975   2.847  -0.103   6.095  0.0807 -0.4138 -0.1567
   99SAPE  H18R 9976   2.929  -0.179   6.099 -2.4114 -3.2973  0.1818
   99SAPE  H18S 9977   2.906  -0.010   6.105 -0.7464  0.0693  0.3548
   99SAPE  C219 9978   2.751  -0.099   5.973  0.5250  0.3305  0.4872
   99SAPE  H19R 9979   2.803  -0.051   5.887 -1.6753  2.3000  0.1483
   99SAPE  H19S 9980   2.662  -0.036   5.993 -0.3390 -0.7887  0.2118
   99SAPE  C220 9981   2.689  -0.235   5.926 -0.1295  0.2309  0.7623
   99SAPE  H20R 9982   2.776  -0.295   5.893 -0.3268 -0.3316  1.2459
   99SAPE  H20S 9983   2.616  -0.218   5.844  1.4502 -0.6535 -0.8927
   99SAPE  H20T 9984   2.638  -0.300   6.000  0.5264  0.3809  1.3594
   99SAPE   C33 9985   2.691  -0.341   7.219  0.2698  0.2186  0.4557
   99SAPE   H3X 9986   2.609  -0.275   7.254  0.7044  0.8763  0.2391
   99SAPE   H3Y 9987   2.674  -0.441   7.266 -0.4992  0.4246  0.6295
   99SAPE   C34 9988   2.691  -0.364   7.069  0.4849 -0.0254  0.3514
   99SAPE   H4X 9989   2.592  -0.403   7.037  0.6668  0.5698 -1.0253
   99SAPE   H4Y 9990   2.777  -0.429   7.041 -0.4682 -0.5944 -1.4651
   99SAPE   C35 9991   2.711  -0.231   6.992 -0.0314  0.3608 -0.3459
   99SAPE   H5X 9992   2.812  -0.201   7.030  0.3522  0.0877 -1.1359
   99SAPE   H5Y 9993   2.637  -0.157   7.028 -2.0272 -1.3451 -0.7426
   99SAPE   C36 9994   2.726  -0.243   6.838  0.4116  0.2785  0.2065
   99SAPE   H6X 9995   2.729  -0.142   6.792 -3.0057 -0.4981 -2.1050
   99SAPE   H6Y 9996   2.632  -0.277   6.789  1.9006 -1.3435 -1.6638
   99SAPE   C37 9997   2.844  -0.328   6.780 -1.0909  0.3866 -0.0098
   99SAPE   H7X 9998   2.853  -0.428   6.826  1.1195  0.9966  1.0092
   99SAPE   H7Y 9999   2.934  -0.264   6.794 -0.0182 -1.4924  2.1848
   99SAPE   C3810000   2.827  -0.355   6.630 -0.3723 -0.6759  0.1794
   99SAPE   H8X10001   2.826  -0.255   6.581 -1.3751 -0.5307  0.4758
   99SAPE   H8Y10002   2.734  -0.412   6.611 -0.8173 -0.7503  2.3353
   99SAPE   C3910003   2.925  -0.452   6.550  0.1252  0.9816 -0.6032
   99SAPE   H9X10004   2.949  -0.537   6.617 -1.6376 -0.5654 -1.8266
   99SAPE   H9Y10005   3.019  -0.396   6.533  0.8307  0.0101 -0.0136
   99SAPE  C31010006   2.868  -0.503   6.416 -0.6841 -0.0088 -0.3442
   99SAPE  H10X10007   2.837  -0.421   6.348 -0.5954 -0.8306 -1.4057
   99SAPE  H10Y10008   2.778  -0.564   6.439 -1.0339 -0.5918 -2.9354
   99SAPE  C31110009   2.954  -0.609   6.340  0.3854  0.2786 -0.3234
   99SAPE  H11X10010   2.936  -0.702   6.398 -0.5690  0.4553 -0.3151
   99SAPE  H11Y10011   3.060  -0.582   6.353  1.0166 -1.1134 -2.1167
   99SAPE  C31210012   2.906  -0.615   6.194  0.2897  0.5796 -0.2462
   99SAPE  H12X10013   2.804  -0.659   6.190 -0.2083  1.7640 -1.2671
   99SAPE  H12Y10014   2.966  -0.689   6.136 -0.8133 -0.5993  0.0639
   99SAPE  C31310015   2.925  -0.488   6.118  0.2601 -0.1627  0.5659
   99SAPE  H13X10016   2.997  -0.419   6.166  0.1175 -1.3848  2.6375
   99SAPE  H13Y10017   2.826  -0.438   6.119 -0.1278 -0.8024 -1.1320
   99SAPE  C31410018   2.963  -0.502   5.967 -0.1517  0.4009  0.4036
   99SAPE  H14X10019   2.942  -0.396   5.939  3.2517  0.4830 -2.5526
   99SAPE  H14Y10020   2.887  -0.560   5.911  1.3834 -1.0609 -0.2432
   99SAPE  C31510021   3.108  -0.547   5.934  0.0909  0.5778  0.2085
   99SAPE  H15X10022   3.117  -0.584   5.829 -0.6238  0.1733  0.2871
   99SAPE  H15Y10023   3.137  -0.637   5.992 -2.4382 -1.2294 -1.1418
   99SAPE  C31610024   3.217  -0.436   5.949 -0.5613 -0.3529  0.2877
   99SAPE  H16X10025   3.206  -0.392   6.051 -1.3236 -0.8333  0.4230
   99SAPE  H16Y10026   3.184  -0.364   5.871 -2.3822 -2.2918 -0.8372
   99SAPE  C31710027   3.362  -0.481   5.923  0.7902 -0.6105 -0.9120
   99SAPE  H17X10028   3.360  -0.499   5.813  1.0953  2.3797 -1.4995
   99SAPE  H17Y10029   3.376  -0.579   5.972 -1.4908 -1.2496 -1.4362
   99SAPE  C31810030   3.471  -0.380   5.957  0.6505  0.1879 -0.2126
   99SAPE  H18X10031   3.453  -0.280   5.912 -0.7060 -0.4252 -1.0929
   99SAPE  H18Y10032   3.567  -0.419   5.917  0.4094  1.8300 -2.6132
   99SAPE  H18Z10033   3.477  -0.358   6.066  1.3391  0.5791 -0.3232
  100SAPE     N10034   0.354   2.322   7.636  0.2506 -0.2114 -0.5648
  100SAPE   HN110035   0.258   2.324   7.676  0.2628 -1.1320 -0.4709
  100SAPE   HN210036   0.391   2.230   7.667 -0.3455 -0.2445  0.0814
  100SAPE   HN310037   0.399   2.406   7.676 -1.9193  1.4623 -1.4301
  100SAPE   C1210038   0.340   2.318   7.485 -0.0782 -0.6690 -0.0764
  100SAPE  H12A10039   0.428   2.279   7.429  1.5801  0.3521  1.7015
  100SAPE  H12B10040   0.309   2.420   7.453  0.4205 -0.4760  0.0395
  100SAPE   C1110041   0.215   2.234   7.458  0.7707 -0.3325  0.1447
  100SAPE  H11A10042   0.230   2.128   7.488 -0.1229 -1.2102 -2.2735
  100SAPE  H11B10043   0.199   2.218   7.350 -0.4202 -2.3342  0.5566
  100SAPE     P10044  -0.007   2.375   7.458 -0.0661 -0.2084 -0.1549
  100SAPE   O1310045  -0.138   2.354   7.526 -0.0030  0.0406 -0.4590
  100SAPE   O1410046   0.048   2.515   7.469 -0.2699  0.4182 -0.4915
  100SAPE   O1210047   0.098   2.278   7.530  0.0357 -0.3675  0.1467
  100SAPE   O1110048  -0.011   2.336   7.311 -0.4183 -0.3986  0.1074
  100SAPE    C110049  -0.005   2.405   7.192  0.1633  0.2748  0.1754
  100SAPE    HA10050   0.068   2.489   7.199 -0.3769  0.8593 -0.8761
  100SAPE    HB10051   0.026   2.333   7.113  1.3567 -1.1107  1.8395
  100SAPE    C210052  -0.128   2.473   7.143 -0.0927 -0.7680 -0.1581
  100SAPE    HS10053  -0.150   2.547   7.223 -0.4845  0.5565 -1.4471
  100SAPE   O2110054  -0.236   2.372   7.132  0.0319  0.0151 -0.3138
  100SAPE   C2110055  -0.354   2.418   7.149  0.4706 -0.1119  0.5375
  100SAPE   O2210056  -0.387   2.533   7.171 -0.3292  0.1530  0.0421
  100SAPE   C2210057  -0.451   2.303   7.152  0.3530  0.0727 -0.0227
  100SAPE   H2R10058  -0.415   2.213   7.098  1.9712  0.0656  0.9846
  100SAPE   H2S10059  -0.454   2.279   7.261 -1.0608  1.5677  0.3040
  100SAPE    C310060  -0.120   2.552   7.013 -0.2390  0.3549 -0.3257
  100SAPE    HX10061  -0.216   2.597   6.980  0.4761  1.8646 -0.4456
  100SAPE    HY10062  -0.101   2.466   6.947  0.0994 -1.1666  1.6632
  100SAPE   O3110063  -0.019   2.654   7.014  0.3545 -0.0308  0.1875
  100SAPE   C3110064   0.015   2.682   6.889  0.7230  0.1076 -0.7479
  100SAPE   O3210065  -0.028   2.630   6.787  0.3411  0.3013  0.2661
  100SAPE   C3210066   0.105   2.800   6.896 -0.0190  0.2804 -0.0358
  100SAPE   H2X10067   0.199   2.762   6.943 -0.0359  0.2831 -0.0003
  100SAPE   H2Y10068   0.063   2.873   6.968  3.2230 -0.9647  3.4910
  100SAPE   C2310069  -0.586   2.349   7.102  0.1795 -0.4817  0.0240
  100SAPE   H3R10070  -0.621   2.448   7.136 -0.0643 -1.1863  1.9442
  100SAPE   H3S10071  -0.660   2.273   7.135  1.8449 -2.3624 -0.3571
  100SAPE   C2410072  -0.600   2.351   6.946 -0.0915  0.2975 -0.2123
  100SAPE   H4R10073  -0.706   2.375   6.922 -0.0504  0.8628  0.1647
  100SAPE   H4S10074  -0.582   2.250   6.904  2.2856  0.1005  1.1465
  100SAPE   C2510075  -0.514   2.451   6.889 -0.3338 -0.2082 -0.1600
  100SAPE   H5R10076  -0.495   2.542   6.947  2.7189 -0.1061 -1.1419
  100SAPE   C2610077  -0.469   2.456   6.760  0.0184 -0.5422 -0.5940
  100SAPE   H6R10078  -0.405   2.536   6.720  1.1028 -0.7565  0.6530
  100SAPE   C2710079  -0.503   2.349   6.662  0.1319 -0.1070 -0.1061
  100SAPE   H7R10080  -0.606   2.373   6.627 -0.1037 -2.7120 -1.4134
  100SAPE   H7S10081  -0.503   2.247   6.704 -2.1861  0.1455  0.6440
  100SAPE   C2810082  -0.419   2.356   6.536  0.0264 -0.2474 -0.1119
  100SAPE   H8R10083  -0.328   2.417   6.545  0.8892 -1.4315 -0.4179
  100SAPE   C2910084  -0.453   2.301   6.419 -0.4712 -0.1989  0.1588
  100SAPE   H9R10085  -0.383   2.322   6.338 -0.6849  2.9090  0.6595
  100SAPE  C21010086  -0.585   2.236   6.383 -0.2476 -0.7353 -0.0545
  100SAPE  H10R10087  -0.652   2.304   6.325  1.5341  1.4951  0.3232
  100SAPE  H10S10088  -0.648   2.227   6.473  2.1193 -2.4334  1.5568
  100SAPE  C21110089  -0.566   2.107   6.306 -0.0845 -0.1434  0.1633
  100SAPE  H11R10090  -0.539   2.026   6.376  0.8038  1.3490  1.6093
  100SAPE  C21210091  -0.604   2.085   6.182 -0.4849 -0.5235  0.7042
  100SAPE  H12R10092  -0.573   1.990   6.137 -0.0064  0.9677 -2.3557
  100SAPE  C21310093  -0.655   2.188   6.086 -0.0760 -0.2411  0.1629
  100SAPE  H13R10094  -0.633   2.295   6.108 -0.0978 -0.0421 -0.7469
  100SAPE  H13S10095  -0.763   2.184   6.112  0.3046 -3.1552  1.7207
  100SAPE  C21410096  -0.643   2.156   5.936  0.7513 -0.5964 -0.0335
  100SAPE  H14R10097  -0.540   2.162   5.898  0.6209 -2.0174 -0.6536
  100SAPE  C21510098  -0.733   2.122   5.846  0.0928  0.1895  0.2508
  100SAPE  H15R10099  -0.701   2.113   5.741 -0.9918 -1.0102  0.0048
  100SAPE  C21610100  -0.880   2.115   5.871  0.3615  0.6948 -0.8604
  100SAPE  H16R10101  -0.916   2.190   5.945 -1.0129 -0.8305  0.0812
  100SAPE  H16S10102  -0.898   2.013   5.911 -0.8384  1.5313  0.8910
  100SAPE  C21710103  -0.972   2.113   5.744 -0.2056 -0.3572 -0.8195
  100SAPE  H17R10104  -0.916   2.054   5.668 -0.3890 -0.7132 -0.6808
  100SAPE  H17S10105  -0.983   2.207   5.687  0.1904 -0.3228 -0.8425
  100SAPE  C21810106  -1.109   2.044   5.768 -0.6173 -0.6149  0.0057
  100SAPE  H18R10107  -1.161   2.094   5.853 -1.0582  0.2121 -0.7366
  100SAPE  H18S10108  -1.083   1.938   5.792  0.8702 -0.6607 -1.5989
  100SAPE  C21910109  -1.202   2.030   5.644 -0.6805  0.0695 -0.0446
  100SAPE  H19R10110  -1.181   1.947   5.574 -1.8149  1.3573 -2.0047
  100SAPE  H19S10111  -1.193   2.127   5.590 -1.8256 -0.3156 -0.9522
  100SAPE  C22010112  -1.343   2.016   5.687  0.6240 -0.6335  0.6972
  100SAPE  H20R10113  -1.345   1.916   5.736  2.6846 -1.0855 -0.0191
  100SAPE  H20S10114  -1.415   2.018   5.603 -1.1863 -0.8284  2.1716
  100SAPE  H20T10115  -1.379   2.097   5.755  0.3319 -1.4187  1.5109
  100SAPE   C3310116   0.137   2.861   6.757 -0.6371 -0.5151  0.9079
  100SAPE   H3X10117   0.186   2.961   6.763  0.3136 -0.9402  0.2532
  100SAPE   H3Y10118   0.046   2.880   6.696 -0.5073 -0.1440  0.8244
  100SAPE   C3410119   0.243   2.783   6.671 -0.1234 -0.1436  0.9347
  100SAPE   H4X10120   0.211   2.680   6.643  2.6497 -0.6486 -0.6884
  100SAPE   H4Y10121   0.335   2.762   6.728 -0.9347 -1.6233  1.7646
  100SAPE   C3510122   0.277   2.838   6.530 -0.5817 -0.2014 -0.1662
  100SAPE   H5X10123   0.364   2.777   6.498 -2.9015 -3.4040 -0.8737
  100SAPE   H5Y10124   0.293   2.947   6.546 -1.3309 -0.1138  0.0367
  100SAPE   C3610125   0.165   2.806   6.436 -0.3780  0.4060  0.0602
  100SAPE   H6X10126   0.068   2.831   6.484 -0.4653 -1.4013  0.9192
  100SAPE   H6Y10127   0.168   2.698   6.410 -0.2168  1.4499 -5.3934
  100SAPE   C3710128   0.166   2.888   6.301  0.7379 -0.0521 -0.5424
  100SAPE   H7X10129   0.159   2.996   6.324  1.6829  0.1943 -1.3619
  100SAPE   H7Y10130   0.072   2.855   6.251 -0.0871 -0.5524  1.2546
  100SAPE   C3810131   0.292   2.879   6.205  0.4551 -0.1954 -0.1194
  100SAPE   H8X10132   0.380   2.908   6.266 -0.5393 -2.0220  2.3855
  100SAPE   H8Y10133   0.277   2.953   6.124  0.6610 -0.5650 -0.5002
  100SAPE   C3910134   0.310   2.739   6.133  0.4044 -0.0545 -0.5825
  100SAPE   H9X10135   0.216   2.714   6.080 -0.5993 -1.4343  1.6795
  100SAPE   H9Y10136   0.312   2.660   6.212 -1.3913 -0.2258 -0.6752
  100SAPE  C31010137   0.435   2.728   6.049  0.4992 -0.2134 -0.0233
  100SAPE  H10X10138   0.439   2.631   5.995  0.8408 -0.9780  1.3243
  100SAPE  H10Y10139   0.528   2.744   6.109  1.3840 -0.7573 -1.2222
  100SAPE  C31110140   0.442   2.830   5.931  0.0156  0.2842  0.8414
  100SAPE  H11X10141   0.524   2.806   5.860 -0.4287 -1.5282  0.9001
  100SAPE  H11Y10142   0.478   2.919   5.988  2.9529 -1.2417  1.5546
  100SAPE  C31210143   0.304   2.849   5.868 -0.3869  0.1799  0.0059
  100SAPE  H12X10144   0.234   2.896   5.940 -1.4476  0.1723 -0.9867
  100SAPE  H12Y10145   0.264   2.748   5.844 -0.6931 -0.2844  2.2566
  100SAPE  C31310146   0.301   2.937   5.743  0.3462 -0.0053  0.2066
  100SAPE  H13X10147   0.358   2.886   5.663  0.1642 -0.1891  0.1921
  100SAPE  H13Y10148   0.334   3.041   5.764 -0.9638  0.3711  0.4675
  100SAPE  C31410149   0.158   2.945   5.705  0.2493 -0.1896 -0.1354
  100SAPE  H14X10150   0.091   2.982   5.785  0.2329  2.4955 -1.2706
  100SAPE  H14Y10151   0.124   2.843   5.676  2.3826 -0.7808 -0.7147
  100SAPE  C31510152   0.131   3.056   5.594  0.0494 -0.0617 -0.2800
  100SAPE  H15X10153   0.212   3.056   5.518  0.3862 -1.9529  0.0061
  100SAPE  H15Y10154   0.132   3.157   5.640 -0.5483  0.1676 -0.7500
  100SAPE  C31610155  -0.004   3.045   5.533  0.5218 -0.1461 -0.0073
  100SAPE  H16X10156  -0.077   3.044   5.618 -0.0981 -0.4963 -0.5342
  100SAPE  H16Y10157  -0.021   2.943   5.491 -1.5346  0.0209  0.2766
  100SAPE  C31710158  -0.038   3.161   5.437  0.4640 -0.2489  0.2306
  100SAPE  H17X10159   0.035   3.155   5.354 -0.9118  0.2587 -1.0587
  100SAPE  H17Y10160  -0.016   3.250   5.501  0.1029 -0.5596  0.7975
  100SAPE  C31810161  -0.169   3.156   5.366  0.4636 -0.4131 -0.1610
  100SAPE  H18X10162  -0.254   3.164   5.436  0.3841 -1.5858 -0.1057
  100SAPE  H18Y10163  -0.182   3.071   5.296  3.1297 -0.1124 -1.1602
  100SAPE  H18Z10164  -0.172   3.253   5.311  1.0123  0.3491  1.1085
  101SAPE     N10165   2.466   0.826   8.111  0.0379 -0.3178  0.6824
  101SAPE   HN110166   2.493   0.765   8.031 -1.0844  2.5560 -2.1091
  101SAPE   HN210167   2.367   0.856   8.102  0.2940 -0.0395 -2.0865
  101SAPE   HN310168   2.534   0.903   8.105  0.7982 -1.0852 -2.0116
  101SAPE   C1210169   2.492   0.759   8.234  0.4637 -0.0059  0.1461
  101SAPE  H12A10170   2.415   0.680   8.251  2.6793 -2.1850  0.5943
  101SAPE  H12B10171   2.472   0.829   8.319 -1.0772  0.4576 -0.5497
  101SAPE   C1110172   2.632   0.709   8.251  0.2744 -0.0995  0.0542
  101SAPE  H11A10173   2.636   0.659   8.350  1.6888 -0.7219 -0.2944
  101SAPE  H11B10174   2.699   0.797   8.241 -2.4288  1.9891 -0.8726
  101SAPE     P10175   2.790   0.572   8.090 -0.0342 -0.3553  0.4476
  101SAPE   O1310176   2.862   0.489   8.187 -0.2160 -0.6601 -0.3129
  101SAPE   O1410177   2.761   0.510   7.958  0.4556 -0.4074 -0.0193
  101SAPE   O1210178   2.648   0.609   8.157 -0.7831  0.3272 -0.2812
  101SAPE   O1110179   2.851   0.714   8.072 -0.1909 -0.1934  0.2988
  101SAPE    C110180   2.984   0.739   8.110 -0.1706 -0.0190 -0.2659
  101SAPE    HA10181   2.982   0.844   8.145  0.3958 -0.5509  1.4689
  101SAPE    HB10182   3.018   0.676   8.195  0.7189 -0.8007 -1.1726
  101SAPE    C210183   3.092   0.733   7.994 -0.0429 -0.1828  0.2860
  101SAPE    HS10184   3.090   0.827   7.935  2.2695 -1.3849 -1.9213
  101SAPE   O2110185   3.094   0.612   7.922  0.3039  0.5339  0.0811
  101SAPE   C2110186   3.049   0.618   7.799  0.1403  0.1458  0.4951
  101SAPE   O2210187   3.009   0.720   7.749  0.0388 -1.2053 -0.0552
  101SAPE   C2210188   3.049   0.475   7.742 -0.1009 -0.2729 -0.3744
  101SAPE   H2R10189   3.029   0.411   7.830  1.8299  1.4243  1.4205
  101SAPE   H2S10190   2.967   0.483   7.667  0.8465  0.5704 -1.3480
  101SAPE    C310191   3.231   0.740   8.062 -0.3006  0.9766  0.6287
  101SAPE    HX10192   3.251   0.639   8.104 -0.3503  0.2977 -0.9076
  101SAPE    HY10193   3.215   0.821   8.137 -1.7380  0.9311  0.4041
  101SAPE   O3110194   3.339   0.786   7.976 -0.4296  0.0069 -0.2425
  101SAPE   C3110195   3.417   0.700   7.911  0.5289 -0.3125  0.0426
  101SAPE   O3210196   3.403   0.583   7.910 -0.1651  0.2022  0.2235
  101SAPE   C3210197   3.524   0.775   7.830 -0.4108 -0.3045 -0.0053
  101SAPE   H2X10198   3.627   0.767   7.872  0.1302  2.3277 -0.6205
  101SAPE   H2Y10199   3.495   0.882   7.834 -1.5838 -0.6312  1.7616
  101SAPE   C2310200   3.177   0.448   7.665  0.0334 -0.6156 -0.6644
  101SAPE   H3R10201   3.190   0.338   7.652  0.6622 -0.2142 -4.4319
  101SAPE   H3S10202   3.259   0.472   7.736 -1.4068  0.5948  0.6473
  101SAPE   C2410203   3.203   0.533   7.541  0.6286  0.0313  0.0969
  101SAPE   H4R10204   3.183   0.641   7.553 -2.4924 -0.2757 -1.4285
  101SAPE   H4S10205   3.132   0.501   7.462  0.0103  0.8674  0.3093
  101SAPE   C2510206   3.339   0.507   7.492  0.2572 -0.4636  0.0795
  101SAPE   H5R10207   3.393   0.438   7.559 -0.9116 -2.4911 -0.9495
  101SAPE   C2610208   3.388   0.532   7.371  0.3894 -0.1290 -0.2223
  101SAPE   H6R10209   3.493   0.510   7.348  0.0889 -1.8231 -0.1037
  101SAPE   C2710210   3.315   0.603   7.258 -0.6298  0.1463 -0.2569
  101SAPE   H7R10211   3.231   0.662   7.301 -1.2017 -1.2077  0.5375
  101SAPE   H7S10212   3.272   0.533   7.184  2.7803 -2.6966  0.1653
  101SAPE   C2810213   3.414   0.693   7.176  1.2066 -0.0091 -0.0439
  101SAPE   H8R10214   3.448   0.777   7.239 -3.3381  1.9596  0.1719
  101SAPE   C2910215   3.451   0.688   7.044 -0.1465 -0.0588 -0.0183
  101SAPE   H9R10216   3.513   0.767   7.000  2.2872 -1.3695  0.8299
  101SAPE  C21010217   3.412   0.584   6.935  0.0860 -0.0094 -0.3011
  101SAPE  H10R10218   3.338   0.636   6.871  0.1311 -0.1154 -0.4401
  101SAPE  H10S10219   3.361   0.498   6.982 -1.3220  0.7790 -0.3339
  101SAPE  C21110220   3.526   0.540   6.844 -0.2044 -0.2633 -0.7749
  101SAPE  H11R10221   3.572   0.620   6.784  0.1440 -0.0946 -0.2927
  101SAPE  C21210222   3.581   0.419   6.841 -0.0683  0.5916  0.1075
  101SAPE  H12R10223   3.655   0.407   6.760 -1.7266  0.1105 -1.3989
  101SAPE  C21310224   3.525   0.306   6.923  0.6066 -0.0535 -0.1334
  101SAPE  H13R10225   3.421   0.278   6.898  0.7891 -3.0243  1.9067
  101SAPE  H13S10226   3.509   0.329   7.030  1.3639 -0.8340  0.1593
  101SAPE  C21410227   3.611   0.184   6.926 -0.4577  0.4556  0.0793
  101SAPE  H14R10228   3.660   0.170   7.024  1.1309 -0.5115 -0.8040
  101SAPE  C21510229   3.635   0.096   6.827  0.2101 -0.5681  0.2996
  101SAPE  H15R10230   3.708   0.015   6.842  2.5610  1.3981  0.0604
  101SAPE  C21610231   3.578   0.110   6.687 -0.1640  0.3352 -0.7253
  101SAPE  H16R10232   3.496   0.183   6.672 -0.4672  0.1380 -0.0676
  101SAPE  H16S10233   3.535   0.011   6.663  1.9293 -1.1337  1.1608
  101SAPE  C21710234   3.677   0.149   6.577  0.2834 -0.5527  0.2803
  101SAPE  H17R10235   3.757   0.072   6.582 -1.8959 -3.0554 -0.7774
  101SAPE  H17S10236   3.716   0.252   6.592  0.8198 -0.3272 -2.1502
  101SAPE  C21810237   3.615   0.148   6.435 -0.2912 -0.2810  0.6617
  101SAPE  H18R10238   3.540   0.229   6.425 -2.9526 -2.7496 -1.1040
  101SAPE  H18S10239   3.561   0.054   6.410 -0.3048  0.3209 -1.7612
  101SAPE  C21910240   3.718   0.177   6.329 -0.1131 -0.0275  0.1970
  101SAPE  H19R10241   3.660   0.189   6.234 -1.3350 -2.0218  0.6137
  101SAPE  H19S10242   3.787   0.091   6.317 -1.8303 -1.7740  2.1401
  101SAPE  C22010243   3.787   0.309   6.342  0.3653  0.4095  0.1404
  101SAPE  H20R10244   3.830   0.340   6.245  0.4699  0.7806  0.3026
  101SAPE  H20S10245   3.866   0.296   6.419 -0.6372 -2.2129  0.8512
  101SAPE  H20T10246   3.716   0.386   6.380 -1.8786 -1.1736 -0.6374
  101SAPE   C3310247   3.529   0.740   7.680 -0.1265  0.0482  0.8231
  101SAPE   H3X10248   3.451   0.804   7.631  0.4544  0.4951  0.4720
  101SAPE   H3Y10249   3.501   0.634   7.661 -0.2242  0.1965  0.0910
  101SAPE   C3410250   3.669   0.757   7.616  1.0803 -0.2745 -0.5222
  101SAPE   H4X10251   3.741   0.681   7.650  1.7267  0.3192 -0.5521
  101SAPE   H4Y10252   3.719   0.848   7.655  4.4284 -1.3343 -1.9510
  101SAPE   C3510253   3.656   0.758   7.462  0.1394  0.2867  0.1693
  101SAPE   H5X10254   3.587   0.840   7.432 -0.8960 -1.2372 -1.9052
  101SAPE   H5Y10255   3.617   0.656   7.443  2.2966 -0.4471 -0.6449
  101SAPE   C3610256   3.793   0.765   7.396  0.1623 -0.2684 -0.6489
  101SAPE   H6X10257   3.852   0.680   7.437  2.1304  1.4092  0.1652
  101SAPE   H6Y10258   3.840   0.864   7.419 -1.8820  0.7361 -0.6050
  101SAPE   C3710259   3.770   0.746   7.249 -0.4406 -0.9001  0.5609
  101SAPE   H7X10260   3.697   0.822   7.213  0.9427  0.3829  0.3508
  101SAPE   H7Y10261   3.746   0.642   7.219 -0.3392 -1.2520  1.6654
  101SAPE   C3810262   3.906   0.777   7.178 -0.2346 -0.7330  0.3726
  101SAPE   H8X10263   3.970   0.696   7.219 -0.1490 -1.1258 -0.5226
  101SAPE   H8Y10264   3.941   0.874   7.219  0.2121 -0.9391  0.4809
  101SAPE   C3910265   3.902   0.793   7.028  0.1671 -0.5116 -0.0215
  101SAPE   H9X10266   3.978   0.863   6.986 -0.5696  0.3035 -0.0442
  101SAPE   H9Y10267   3.807   0.838   6.993  0.3045 -0.9611 -0.9976
  101SAPE  C31010268   3.930   0.668   6.959  0.4106 -0.1137 -0.1007
  101SAPE  H10X10269   3.868   0.592   7.011 -0.6850  0.5306 -0.4308
  101SAPE  H10Y10270   4.037   0.644   6.974 -0.1972 -1.5999  2.3848
  101SAPE  C31110271   3.905   0.673   6.813 -0.2901  0.7591  0.1816
  101SAPE  H11X10272   3.948   0.768   6.775  0.3320 -0.6510 -2.9093
  101SAPE  H11Y10273   3.797   0.676   6.788  0.2304 -0.8630 -2.6661
  101SAPE  C31210274   3.950   0.545   6.736  0.1098 -0.0293  0.5433
  101SAPE  H12X10275   3.884   0.461   6.768 -0.3135 -0.7682 -1.9923
  101SAPE  H12Y10276   4.056   0.517   6.752  1.2172  2.8319 -1.0974
  101SAPE  C31310277   3.940   0.556   6.584 -0.4559 -0.4410 -0.2028
  101SAPE  H13X10278   3.833   0.552   6.554 -0.6384  0.3930  0.2947
  101SAPE  H13Y10279   3.980   0.462   6.542 -3.9297 -1.5440 -1.3949
  101SAPE  C31410280   4.006   0.692   6.529  0.0792 -0.0057  0.0242
  101SAPE  H14X10281   4.109   0.712   6.564 -0.0157 -1.4070  1.2159
  101SAPE  H14Y10282   3.939   0.779   6.548 -0.3172 -0.5216  1.0950
  101SAPE  C31510283   4.030   0.688   6.371 -0.1108  0.6170 -0.2852
  101SAPE  H15X10284   4.091   0.595   6.361 -1.0371 -0.6798  3.9539
  101SAPE  H15Y10285   4.093   0.773   6.339 -0.6684  1.2349  0.2392
  101SAPE  C31610286   3.900   0.682   6.282 -0.0085 -0.4931  0.0689
  101SAPE  H16X10287   3.849   0.778   6.306  2.7765  0.9364  0.6475
  101SAPE  H16Y10288   3.828   0.600   6.306 -0.1573 -0.7939 -1.3579
  101SAPE  C31710289   3.926   0.671   6.127  0.5348  0.3857 -0.0735
  101SAPE  H17X10290   3.978   0.762   6.093 -0.5290  1.1586  0.3049
  101SAPE  H17Y10291   3.832   0.680   6.068  0.6162 -0.1734 -0.3002
  101SAPE  C31810292   3.997   0.538   6.083 -0.1974  0.6842 -0.1047
  101SAPE  H18X10293   3.929   0.452   6.063  1.2649 -1.0010  1.6984
  101SAPE  H18Y10294   4.066   0.514   6.167 -1.7415 -1.4089  0.6771
  101SAPE  H18Z10295   4.048   0.563   5.988  0.4655  1.0238  0.3301
  102SAPE     N10296   3.956   4.040   8.286 -0.0977  0.1468  0.0062
  102SAPE   HN110297   3.970   4.089   8.377 -0.0350  0.0314  0.0585
  102SAPE   HN210298   3.853   4.026   8.277 -0.2294  0.7004  0.5383
  102SAPE   HN310299   4.003   3.948   8.292 -0.8028 -0.1246  2.4662
  102SAPE   C1210300   4.002   4.112   8.166  0.1691 -0.8132  0.4189
  102SAPE  H12A10301   3.941   4.073   8.082  0.3841  0.6939 -0.4742
  102SAPE  H12B10302   4.112   4.114   8.157  0.0944  0.7276 -0.5737
  102SAPE   C1110303   3.969   4.261   8.182  0.0028 -0.2004 -0.5067
  102SAPE  H11A10304   4.019   4.314   8.097 -0.4055  0.3338 -0.4233
  102SAPE  H11B10305   4.027   4.297   8.270 -1.3244 -0.1844  0.3778
  102SAPE     P10306   3.772   4.428   8.139  0.3491  0.0275 -0.0771
  102SAPE   O1310307   3.647   4.472   8.200 -0.8342 -0.4798  0.5050
  102SAPE   O1410308   3.886   4.526   8.140 -0.0022 -0.3534  0.1926
  102SAPE   O1210309   3.831   4.287   8.198  0.6904  0.0643  0.1335
  102SAPE   O1110310   3.747   4.390   7.985 -0.1980 -0.1763 -0.4718
  102SAPE    C110311   3.751   4.250   7.947  0.7520 -0.2078  0.0079
  102SAPE    HA10312   3.857   4.223   7.928  0.8988  0.1824  0.2845
  102SAPE    HB10313   3.713   4.182   8.026  1.1031 -0.5121 -0.0812
  102SAPE    C210314   3.664   4.231   7.820  0.5918 -0.0395 -0.5774
  102SAPE    HS10315   3.665   4.125   7.787 -2.1042 -0.5883  0.8061
  102SAPE   O2110316   3.710   4.315   7.716 -0.2589 -0.0284  0.0720
  102SAPE   C2110317   3.835   4.286   7.671 -0.0382  0.7111  0.2815
  102SAPE   O2210318   3.891   4.177   7.680  0.3757 -0.3237 -0.1890
  102SAPE   C2210319   3.884   4.401   7.588  0.4208 -0.0354  0.3955
  102SAPE   H2R10320   3.797   4.462   7.555  0.8745  1.5865  1.9995
  102SAPE   H2S10321   3.935   4.478   7.651  2.8072 -2.8457  2.1285
  102SAPE    C310322   3.514   4.269   7.846  0.3517  0.1743  0.2174
  102SAPE    HX10323   3.511   4.380   7.859  0.3487  0.1212  0.7144
  102SAPE    HY10324   3.482   4.243   7.949 -1.2989  2.8829  0.4933
  102SAPE   O3110325   3.415   4.219   7.748  0.5261  0.0621  0.3425
  102SAPE   C3110326   3.348   4.107   7.791  0.3110 -0.0745  0.5085
  102SAPE   O3210327   3.386   4.027   7.877  0.7257 -0.3552  0.0454
  102SAPE   C3210328   3.240   4.071   7.691  0.7477  0.5166  0.1384
  102SAPE   H2X10329   3.162   4.150   7.700  1.8160  1.4917  1.2568
  102SAPE   H2Y10330   3.187   3.979   7.724  0.1024  0.3434 -1.2681
  102SAPE   C2310331   3.965   4.359   7.459 -0.2630 -0.0584 -0.4380
  102SAPE   H3R10332   3.917   4.267   7.419  1.1460 -1.5744  1.1899
  102SAPE   H3S10333   4.064   4.336   7.502 -2.0257 -0.1011  4.1164
  102SAPE   C2410334   3.992   4.473   7.353 -0.0143 -0.0894  0.2481
  102SAPE   H4R10335   4.047   4.548   7.413 -1.1219 -1.7178  3.5418
  102SAPE   H4S10336   3.895   4.521   7.329 -1.2664 -2.7497 -0.4152
  102SAPE   C2510337   4.066   4.425   7.231  0.4373  0.0993 -0.4982
  102SAPE   H5R10338   4.173   4.443   7.250  0.0222  0.6350  1.6101
  102SAPE   C2610339   4.021   4.368   7.119 -0.1184 -0.1741 -0.5680
  102SAPE   H6R10340   4.098   4.341   7.046 -1.0110  0.1627 -1.6624
  102SAPE   C2710341   3.881   4.350   7.079 -0.4168 -1.3661 -0.2820
  102SAPE   H7R10342   3.817   4.344   7.170 -1.1243 -0.6136 -0.7104
  102SAPE   H7S10343   3.867   4.250   7.033  0.6522 -1.2652 -0.8532
  102SAPE   C2810344   3.849   4.461   6.977  0.0687  0.1472 -0.3138
  102SAPE   H8R10345   3.806   4.555   7.014 -0.3307  0.4901 -1.6134
  102SAPE   C2910346   3.856   4.461   6.840  0.1185  0.8118 -0.5810
  102SAPE   H9R10347   3.812   4.550   6.792 -0.6937  1.0323  0.5265
  102SAPE  C21010348   3.895   4.340   6.766 -1.3969 -0.8133 -0.4042
  102SAPE  H10R10349   3.808   4.299   6.711 -2.2537  0.0594  0.2681
  102SAPE  H10S10350   3.932   4.260   6.833  1.3494  1.2005  0.7118
  102SAPE  C21110351   4.010   4.374   6.667  0.4258 -0.3491 -0.8085
  102SAPE  H11R10352   4.089   4.434   6.714  0.0299 -0.2510 -0.2620
  102SAPE  C21210353   4.021   4.348   6.532  1.0533 -0.3169 -0.8715
  102SAPE  H12R10354   4.113   4.384   6.484  2.8189 -3.7904 -0.3877
  102SAPE  C21310355   3.911   4.275   6.455 -0.3161 -0.8030  0.2651
  102SAPE  H13R10356   3.895   4.333   6.362  3.6021 -0.6006 -0.4230
  102SAPE  H13S10357   3.809   4.272   6.499  0.1388  0.3349  1.4615
  102SAPE  C21410358   3.943   4.125   6.432 -1.3533  0.6441  0.2625
  102SAPE  H14R10359   3.873   4.055   6.481  0.1187 -2.1560 -1.3461
  102SAPE  C21510360   4.049   4.077   6.357  0.3075 -0.5478 -0.9248
  102SAPE  H15R10361   4.059   3.967   6.360  0.2599 -0.5418  1.2846
  102SAPE  C21610362   4.146   4.155   6.274 -0.2221  0.1283 -0.6602
  102SAPE  H16R10363   4.246   4.107   6.284 -1.9220 -3.5218  0.5147
  102SAPE  H16S10364   4.143   4.262   6.305  0.0100 -0.0002 -0.1887
  102SAPE  C21710365   4.119   4.168   6.124 -0.7180  0.2854 -0.5161
  102SAPE  H17R10366   4.012   4.187   6.100 -0.1247  2.5741 -1.5736
  102SAPE  H17S10367   4.159   4.075   6.078  1.2937  0.6610  0.3822
  102SAPE  C21810368   4.194   4.287   6.058  0.2731 -0.5173 -0.3403
  102SAPE  H18R10369   4.147   4.376   6.104 -1.1032 -0.5920 -1.5511
  102SAPE  H18S10370   4.149   4.284   5.957 -0.4620  0.8849 -0.0766
  102SAPE  C21910371   4.342   4.306   6.068  0.4431 -0.1877 -0.0381
  102SAPE  H19R10372   4.386   4.309   6.170  1.5978 -1.0061 -0.4983
  102SAPE  H19S10373   4.368   4.402   6.020 -0.6192  1.2072  2.0406
  102SAPE  C22010374   4.418   4.198   5.998 -1.4285  0.0282  0.3266
  102SAPE  H20R10375   4.525   4.212   6.025 -1.4163  0.8287 -0.1172
  102SAPE  H20S10376   4.397   4.190   5.890  1.1861  0.1262 -0.2544
  102SAPE  H20T10377   4.399   4.099   6.044 -0.5320  0.1037  0.8802
  102SAPE   C3310378   3.297   4.072   7.541  0.8678 -0.6679 -1.1307
  102SAPE   H3X10379   3.369   4.154   7.519 -0.1278 -0.0891 -2.3249
  102SAPE   H3Y10380   3.216   4.091   7.468 -0.1169 -2.5146 -0.5801
  102SAPE   C3410381   3.364   3.935   7.504 -0.0880 -0.1513 -0.6199
  102SAPE   H4X10382   3.420   3.908   7.596  1.8547  0.7908 -1.4882
  102SAPE   H4Y10383   3.442   3.951   7.427 -0.1762 -0.0743 -0.6936
  102SAPE   C3510384   3.275   3.819   7.460  0.3457  0.3488 -0.0393
  102SAPE   H5X10385   3.223   3.850   7.367  0.4064  0.7411  0.0563
  102SAPE   H5Y10386   3.207   3.779   7.538  3.0558 -3.1653  0.8014
  102SAPE   C3610387   3.356   3.689   7.426  0.0014  0.1771  0.3813
  102SAPE   H6X10388   3.282   3.610   7.400 -1.0782  1.5689 -1.0444
  102SAPE   H6Y10389   3.409   3.661   7.519 -2.8310  1.8208  2.6898
  102SAPE   C3710390   3.437   3.694   7.293 -0.2414 -0.3579  0.0202
  102SAPE   H7X10391   3.511   3.776   7.283 -1.1151  0.2357 -1.9298
  102SAPE   H7Y10392   3.354   3.720   7.224 -0.1831  0.1320  0.1297
  102SAPE   C3810393   3.481   3.557   7.246 -0.4944  1.2086  0.2565
  102SAPE   H8X10394   3.395   3.487   7.244  1.2309 -0.9923 -1.2925
  102SAPE   H8Y10395   3.552   3.514   7.320 -0.3692 -0.3894 -0.7402
  102SAPE   C3910396   3.554   3.554   7.111  0.0422  0.5255  0.8229
  102SAPE   H9X10397   3.659   3.582   7.134 -0.2123  0.2845  2.3568
  102SAPE   H9Y10398   3.516   3.633   7.042 -1.1517 -0.2575  0.5553
  102SAPE  C31010399   3.542   3.415   7.044 -0.0186  0.4501  0.0731
  102SAPE  H10X10400   3.451   3.365   7.084  1.3324 -2.5748 -0.3641
  102SAPE  H10Y10401   3.623   3.343   7.071 -0.7024 -0.4976 -0.3329
  102SAPE  C31110402   3.526   3.419   6.893  0.3870  0.3663 -0.0603
  102SAPE  H11X10403   3.461   3.508   6.880  0.1657 -0.0898 -2.7044
  102SAPE  H11Y10404   3.476   3.331   6.848  0.2302  1.5863 -2.4322
  102SAPE  C31210405   3.655   3.461   6.823 -0.0648  0.4984 -0.2758
  102SAPE  H12X10406   3.734   3.391   6.859 -0.1237 -0.3222 -1.6706
  102SAPE  H12Y10407   3.696   3.557   6.863 -0.2872  0.9747 -1.1582
  102SAPE  C31310408   3.644   3.452   6.672  0.2735 -0.0116  0.0551
  102SAPE  H13X10409   3.569   3.521   6.628  0.1623 -0.5572 -0.6361
  102SAPE  H13Y10410   3.608   3.351   6.642  0.5786  0.1412 -0.8727
  102SAPE  C31410411   3.775   3.490   6.601  0.8570 -0.2891 -0.1610
  102SAPE  H14X10412   3.863   3.427   6.626  2.3771  1.1480 -1.5825
  102SAPE  H14Y10413   3.807   3.587   6.644 -1.9323  0.8096 -0.3064
  102SAPE  C31510414   3.759   3.504   6.443  0.0856  0.3998  0.2410
  102SAPE  H15X10415   3.701   3.599   6.437 -1.1300 -0.3107  0.3156
  102SAPE  H15Y10416   3.697   3.420   6.404  1.6531 -0.6768  0.0067
  102SAPE  C31610417   3.891   3.496   6.376 -0.2219  0.6835 -0.4170
  102SAPE  H16X10418   3.880   3.519   6.268  1.2973  1.7082 -0.3988
  102SAPE  H16Y10419   3.931   3.393   6.383 -0.9784  0.2981 -1.6021
  102SAPE  C31710420   3.999   3.592   6.432 -0.1830 -0.5450  0.6118
  102SAPE  H17X10421   4.029   3.566   6.536 -0.0291 -0.9293  0.4724
  102SAPE  H17Y10422   3.952   3.691   6.449  0.8474  0.5053 -2.1126
  102SAPE  C31810423   4.135   3.609   6.344  0.2748  0.4035 -0.1867
  102SAPE  H18X10424   4.112   3.670   6.255  0.3893 -1.2336 -1.3685
  102SAPE  H18Y10425   4.178   3.512   6.309  0.8901  0.4870  0.3056
  102SAPE  H18Z10426   4.215   3.654   6.407  0.2805 -0.3433  0.3602
  103SAPE     N10427   3.223   6.136   3.819  0.1542 -0.0803  0.5110
  103SAPE   HN110428   3.278   6.059   3.776  0.9735  0.8639 -0.1693
  103SAPE   HN210429   3.190   6.198   3.742 -1.8660 -0.8669  0.6758
  103SAPE   HN310430   3.290   6.188   3.879  0.5265 -3.5168  3.3853
  103SAPE   C1210431   3.108   6.075   3.889 -0.4235 -0.8638  0.3762
  103SAPE  H12A10432   3.093   6.146   3.973 -0.2065 -2.0943  1.4876
  103SAPE  H12B10433   3.143   5.981   3.936  0.6280 -0.4431  0.4848
  103SAPE   C1110434   2.987   6.084   3.790 -0.0682 -0.3165 -0.4931
  103SAPE  H11A10435   2.963   6.187   3.755  1.8264  0.1689 -0.4513
  103SAPE  H11B10436   2.902   6.057   3.856 -0.1468  2.4414  0.6639
  103SAPE     P10437   2.963   5.847   3.678 -0.2963 -0.0138  0.5506
  103SAPE   O1310438   2.818   5.829   3.667  0.3826  0.4292  0.5312
  103SAPE   O1410439   3.037   5.774   3.574 -0.0694  0.0262  0.2404
  103SAPE   O1210440   2.993   5.997   3.674  0.9265 -0.2935  0.8803
  103SAPE   O1110441   3.010   5.796   3.820  0.3346  0.0529 -0.1225
  103SAPE    C110442   2.933   5.690   3.880  0.2039  0.4057 -0.0758
  103SAPE    HA10443   2.828   5.722   3.898 -0.2814 -0.8693 -0.5251
  103SAPE    HB10444   2.926   5.601   3.815  1.9601 -0.9866  1.5221
  103SAPE    C210445   2.996   5.652   4.021 -0.5381 -0.0638 -0.0968
  103SAPE    HS10446   2.932   5.578   4.074 -0.4297  0.6039  1.0046
  103SAPE   O2110447   3.011   5.771   4.105  0.9783 -0.9374  0.3085
  103SAPE   C2110448   2.901   5.823   4.149  0.8253  0.2654  0.1005
  103SAPE   O2210449   2.792   5.772   4.146 -0.0945  0.2404 -0.0760
  103SAPE   C2210450   2.929   5.967   4.198 -0.2609 -0.5934 -0.8895
  103SAPE   H2R10451   3.036   5.984   4.222 -0.2919  2.2401 -2.3488
  103SAPE   H2S10452   2.910   6.032   4.111 -1.6838  0.1867 -0.0323
  103SAPE    C310453   3.130   5.588   4.020  0.1142 -0.5358 -0.4458
  103SAPE    HX10454   3.210   5.641   3.966 -0.9093 -0.1439 -1.6222
  103SAPE    HY10455   3.101   5.488   3.982  1.2960 -1.9712  2.1270
  103SAPE   O3110456   3.169   5.572   4.156  0.5102  0.0359 -0.4795
  103SAPE   C3110457   3.280   5.624   4.200  0.0699 -0.0263  0.6336
  103SAPE   O3210458   3.369   5.669   4.124  0.5399 -0.1452 -0.5148
  103SAPE   C3210459   3.284   5.610   4.353 -0.3781  0.4687  0.7704
  103SAPE   H2X10460   3.388   5.577   4.378 -0.0434  0.0812 -1.0402
  103SAPE   H2Y10461   3.204   5.539   4.382 -0.2605 -0.2865 -0.6882
  103SAPE   C2310462   2.841   6.012   4.314 -0.0061  0.1787 -0.1793
  103SAPE   H3R10463   2.736   6.032   4.282  0.3401 -0.0330 -1.5054
  103SAPE   H3S10464   2.868   6.117   4.338  0.6429 -0.1583  0.5915
  103SAPE   C2410465   2.860   5.925   4.437 -0.2090 -0.3384  0.4697
  103SAPE   H4R10466   2.968   5.903   4.455  0.5315  2.8655  0.5606
  103SAPE   H4S10467   2.820   5.825   4.411 -1.8158 -0.2788  2.4682
  103SAPE   C2510468   2.792   5.970   4.556  0.0486 -0.5316  0.5216
  103SAPE   H5R10469   2.682   5.966   4.558 -0.3102  2.3321 -3.0278
  103SAPE   C2610470   2.862   6.024   4.652  0.2660 -0.3838  0.9958
  103SAPE   H6R10471   2.810   6.047   4.747 -0.7614 -2.0124  0.8780
  103SAPE   C2710472   3.010   6.040   4.653  0.0627  0.3319 -0.1838
  103SAPE   H7R10473   3.045   6.111   4.575 -0.5562 -0.3895 -1.1458
  103SAPE   H7S10474   3.063   5.944   4.633  0.3508  0.1758  1.2304
  103SAPE   C2810475   3.050   6.093   4.789 -0.0721  0.3116  0.0238
  103SAPE   H8R10476   3.092   6.195   4.782 -0.8516  0.5692 -1.0293
  103SAPE   C2910477   3.027   6.043   4.914  0.0887 -0.9946  0.6697
  103SAPE   H9R10478   3.079   6.094   4.996  0.4833 -2.0364  1.0884
  103SAPE  C21010479   2.960   5.918   4.956  0.5058  0.2264 -0.1150
  103SAPE  H10R10480   3.032   5.866   5.023  0.4976 -0.1526 -0.3994
  103SAPE  H10S10481   2.945   5.851   4.869 -0.5694 -0.8072  0.8365
  103SAPE  C21110482   2.827   5.944   5.024  0.3499 -1.1613 -0.5106
  103SAPE  H11R10483   2.738   5.943   4.959  0.5997 -0.1855 -0.8834
  103SAPE  C21210484   2.819   5.962   5.155 -0.2534  0.1357 -0.7338
  103SAPE  H12R10485   2.722   5.970   5.205  1.0597  1.4065  1.8202
  103SAPE  C21310486   2.924   5.952   5.261  0.1158  0.5030 -0.2393
  103SAPE  H13R10487   3.012   5.889   5.237 -0.3812  0.3711 -1.7912
  103SAPE  H13S10488   2.880   5.893   5.344 -0.7139  1.1577 -0.1997
  103SAPE  C21410489   2.989   6.079   5.316  0.7237 -0.5375  0.7726
  103SAPE  H14R10490   3.038   6.142   5.240 -1.2492 -0.3905 -0.4463
  103SAPE  C21510491   2.999   6.123   5.446 -1.1509  0.6370 -1.2527
  103SAPE  H15R10492   3.055   6.211   5.481  1.1758 -0.6731 -1.5038
  103SAPE  C21610493   2.956   6.054   5.576  0.6118 -0.3124 -0.0828
  103SAPE  H16R10494   3.013   6.095   5.663 -1.3079  0.0547  1.0498
  103SAPE  H16S10495   2.994   5.949   5.569  1.6537  0.0438  0.0262
  103SAPE  C21710496   2.802   6.050   5.612  0.7174 -0.0674 -0.0126
  103SAPE  H17R10497   2.747   6.041   5.516 -1.2392 -2.3100  1.2151
  103SAPE  H17S10498   2.780   6.143   5.668  1.9545  1.3224 -1.7295
  103SAPE  C21810499   2.753   5.923   5.692 -0.2853 -0.5550  0.5836
  103SAPE  H18R10500   2.740   5.832   5.629 -2.6688 -0.1125  0.3494
  103SAPE  H18S10501   2.655   5.946   5.739  0.0387  1.3020  0.3957
  103SAPE  C21910502   2.840   5.901   5.814  0.2992 -0.1640  0.9686
  103SAPE  H19R10503   2.947   5.909   5.785  0.2020  0.6377  0.8190
  103SAPE  H19S10504   2.832   5.797   5.854  1.1004 -0.7510 -0.3287
  103SAPE  C22010505   2.802   5.999   5.928  0.1592  0.1469 -0.8695
  103SAPE  H20R10506   2.871   5.997   6.015  1.2587  0.7250 -1.6954
  103SAPE  H20S10507   2.699   5.982   5.965  1.1875 -1.1296  1.6860
  103SAPE  H20T10508   2.802   6.102   5.887 -2.0204 -0.0026 -1.3424
  103SAPE   C3310509   3.282   5.735   4.442  0.1382  0.6367  0.7115
  103SAPE   H3X10510   3.186   5.790   4.434 -0.1672  0.0611  0.3688
  103SAPE   H3Y10511   3.359   5.805   4.403  0.2110  0.7121  0.9873
  103SAPE   C3410512   3.319   5.717   4.587 -0.2788  0.9445 -0.2885
  103SAPE   H4X10513   3.408   5.651   4.602 -0.3823  0.9680  0.5035
  103SAPE   H4Y10514   3.226   5.675   4.632 -0.1833  0.9082 -0.1219
  103SAPE   C3510515   3.345   5.856   4.653  0.7986  0.6686  0.3375
  103SAPE   H5X10516   3.250   5.911   4.667  0.1998 -0.3784  0.5149
  103SAPE   H5Y10517   3.398   5.918   4.577 -0.7913  1.9074  0.2086
  103SAPE   C3610518   3.427   5.851   4.782 -0.2628 -0.5696  0.0638
  103SAPE   H6X10519   3.530   5.813   4.764  0.9219  2.8780 -1.3654
  103SAPE   H6Y10520   3.365   5.791   4.851 -3.9756  0.0833 -2.4389
  103SAPE   C3710521   3.427   5.986   4.854  0.1741 -0.2688 -0.5480
  103SAPE   H7X10522   3.322   6.013   4.875  0.6678  1.2840  0.1429
  103SAPE   H7Y10523   3.466   6.070   4.792  2.3985 -1.7762 -1.3273
  103SAPE   C3810524   3.489   5.985   4.993  0.8427  0.8420  0.5543
  103SAPE   H8X10525   3.502   6.092   5.021 -0.1055  0.7107  1.5786
  103SAPE   H8Y10526   3.585   5.929   4.999 -0.4814 -1.8715 -1.5199
  103SAPE   C3910527   3.404   5.925   5.102  0.4335  0.1684 -0.2715
  103SAPE   H9X10528   3.397   5.814   5.099 -2.1495  0.2781 -0.2119
  103SAPE   H9Y10529   3.298   5.958   5.091 -0.1996 -1.6893 -0.0041
  103SAPE  C31010530   3.456   5.962   5.237  1.3554 -0.0135  0.3567
  103SAPE  H10X10531   3.430   6.070   5.245  4.4261  1.0946 -2.2191
  103SAPE  H10Y10532   3.563   5.932   5.248  0.8539 -2.0373  0.1146
  103SAPE  C31110533   3.369   5.878   5.345  0.4000 -0.0008 -0.8651
  103SAPE  H11X10534   3.416   5.779   5.358  1.6654  0.8250  1.4174
  103SAPE  H11Y10535   3.262   5.870   5.315  0.3180 -1.8554 -0.1528
  103SAPE  C31210536   3.373   5.949   5.482  0.2185 -0.0161  0.3013
  103SAPE  H12X10537   3.309   6.038   5.467  0.1996 -0.0392  0.2480
  103SAPE  H12Y10538   3.477   5.979   5.509  0.2281  0.6220 -0.4261
  103SAPE  C31310539   3.308   5.865   5.596 -0.0663 -0.1847 -0.5043
  103SAPE  H13X10540   3.346   5.760   5.599  0.0085 -0.1580 -0.5116
  103SAPE  H13Y10541   3.198   5.863   5.585  0.0166 -0.8321 -1.3346
  103SAPE  C31410542   3.362   5.928   5.731  0.0272  0.1413 -0.1356
  103SAPE  H14X10543   3.336   6.036   5.733 -0.5218  0.0246 -0.7565
  103SAPE  H14Y10544   3.472   5.917   5.744 -0.0147  1.0303  1.1042
  103SAPE  C31510545   3.286   5.873   5.855 -0.4785 -0.2469  0.2308
  103SAPE  H15X10546   3.303   5.764   5.867  2.0695 -0.0066 -0.5242
  103SAPE  H15Y10547   3.177   5.880   5.834 -0.5761  0.7395  0.9920
  103SAPE  C31610548   3.328   5.947   5.988  0.2311  0.3421 -0.3546
  103SAPE  H16X10549   3.352   6.053   5.965  1.5377  0.1221 -0.0939
  103SAPE  H16Y10550   3.414   5.895   6.036 -0.3278  0.6876  1.0957
  103SAPE  C31710551   3.204   5.955   6.090 -0.2768  0.0649  0.2891
  103SAPE  H17X10552   3.116   6.011   6.051 -0.5325  1.4424  2.6807
  103SAPE  H17Y10553   3.224   6.026   6.173 -2.9195  1.0445  0.1819
  103SAPE  C31810554   3.175   5.821   6.143  0.2985  0.4740  0.5818
  103SAPE  H18X10555   3.101   5.823   6.225 -0.1681  1.0401  0.1551
  103SAPE  H18Y10556   3.273   5.788   6.183  1.5967  2.5075 -0.7112
  103SAPE  H18Z10557   3.147   5.751   6.062 -1.1487  0.9441  0.6476
  104SAPE     N10558   5.233   5.074   3.247  0.2873 -0.2219  0.2243
  104SAPE   HN110559   5.220   5.028   3.155 -0.6592  0.7725 -0.1597
  104SAPE   HN210560   5.332   5.104   3.253  0.1265  0.1377  1.4760
  104SAPE   HN310561   5.211   5.000   3.318  0.9482 -0.2003  0.4511
  104SAPE   C1210562   5.142   5.198   3.240 -0.6325  0.0261 -0.0672
  104SAPE  H12A10563   5.034   5.179   3.227 -0.7839  2.2662 -3.4055
  104SAPE  H12B10564   5.181   5.251   3.151  1.9134 -0.4026  0.7032
  104SAPE   C1110565   5.168   5.295   3.357 -0.1839  1.0334 -1.1286
  104SAPE  H11A10566   5.272   5.335   3.355  0.9489 -1.3330  2.1936
  104SAPE  H11B10567   5.150   5.227   3.443 -3.0643 -0.7409 -2.9486
  104SAPE     P10568   4.953   5.430   3.425  0.4470  0.4269 -0.3216
  104SAPE   O1310569   4.849   5.497   3.342 -0.0770  0.5762  0.5821
  104SAPE   O1410570   4.921   5.299   3.489 -0.1414 -0.1190  0.3263
  104SAPE   O1210571   5.083   5.403   3.347  0.3885 -0.1205 -0.0248
  104SAPE   O1110572   4.986   5.540   3.547 -0.1648 -0.2475  0.1534
  104SAPE    C110573   5.123   5.544   3.597  0.9692  0.7302  1.0250
  104SAPE    HA10574   5.199   5.545   3.516 -0.1748  0.1031 -0.1008
  104SAPE    HB10575   5.144   5.639   3.650 -1.7003  1.9321  0.1318
  104SAPE    C210576   5.140   5.425   3.697 -0.2801 -0.3931  0.2719
  104SAPE    HS10577   5.128   5.331   3.638  1.7123 -0.9626  0.7182
  104SAPE   O2110578   5.043   5.440   3.808  0.2678 -0.0147  0.5293
  104SAPE   C2110579   5.003   5.323   3.846  0.6886  1.1946 -0.6481
  104SAPE   O2210580   5.030   5.214   3.794  0.0496  0.5156  0.3663
  104SAPE   C2210581   4.917   5.351   3.971  0.1879 -0.3786  0.2891
  104SAPE   H2R10582   4.971   5.415   4.044 -2.3361  2.3852 -0.0892
  104SAPE   H2S10583   4.829   5.400   3.924 -0.7685 -1.8917  0.4193
  104SAPE    C310584   5.282   5.411   3.760 -0.5376 -0.2294 -0.7216
  104SAPE    HX10585   5.284   5.489   3.840 -0.8797 -1.2719  0.3457
  104SAPE    HY10586   5.355   5.437   3.680 -0.4488  0.9635 -0.2846
  104SAPE   O3110587   5.292   5.278   3.825  0.0081  0.1269 -0.4029
  104SAPE   C3110588   5.383   5.197   3.786  0.2944 -0.3459 -0.1543
  104SAPE   O3210589   5.474   5.228   3.708 -0.7427  0.1134 -0.7700
  104SAPE   C3210590   5.371   5.061   3.852  0.1732  0.1676  0.0050
  104SAPE   H2X10591   5.439   4.988   3.802 -1.3364 -0.6810 -0.9021
  104SAPE   H2Y10592   5.269   5.032   3.819 -0.3851  0.7126  1.1798
  104SAPE   C2310593   4.868   5.221   4.049  0.7774  0.0662  0.3174
  104SAPE   H3R10594   4.820   5.152   3.976 -1.4018 -0.5609  2.2276
  104SAPE   H3S10595   4.782   5.247   4.114  0.7110 -1.7577  1.0059
  104SAPE   C2410596   4.974   5.142   4.129 -0.2792 -0.0995 -0.4363
  104SAPE   H4R10597   5.025   5.206   4.203  1.8674 -2.6712  0.4524
  104SAPE   H4S10598   5.060   5.119   4.063 -1.0337  0.8590 -1.8235
  104SAPE   C2510599   4.920   5.013   4.181  0.8882 -0.7001 -0.5341
  104SAPE   H5R10600   4.862   4.948   4.114  2.5303 -0.9396 -1.8006
  104SAPE   C2610601   4.924   4.983   4.312 -0.3564 -0.9844 -0.4108
  104SAPE   H6R10602   4.885   4.884   4.339 -2.3597  0.1505  1.1550
  104SAPE   C2710603   4.993   5.067   4.420  0.6771  0.2888  0.3814
  104SAPE   H7R10604   4.953   5.040   4.520  0.4763 -2.1675 -0.2938
  104SAPE   H7S10605   4.966   5.175   4.413  0.6007  0.2050 -0.8652
  104SAPE   C2810606   5.144   5.048   4.430  0.2848 -0.6159  0.3036
  104SAPE   H8R10607   5.192   5.078   4.336  1.6185  2.5754  1.8712
  104SAPE   C2910608   5.223   5.000   4.527 -0.3603 -0.8002  0.2303
  104SAPE   H9R10609   5.330   4.995   4.499 -0.9726  0.2179 -2.6438
  104SAPE  C21010610   5.189   4.932   4.658 -0.1333  0.2292  0.7620
  104SAPE  H10R10611   5.278   4.870   4.683  0.8859  1.1543 -0.4809
  104SAPE  H10S10612   5.112   4.853   4.643  2.1332 -2.4529  2.2579
  104SAPE  C21110613   5.157   5.031   4.769 -0.3819 -0.5434 -0.1327
  104SAPE  H11R10614   5.075   5.104   4.756 -1.0794 -0.8612  2.0014
  104SAPE  C21210615   5.225   5.041   4.888 -0.4443 -0.6501 -0.2740
  104SAPE  H12R10616   5.197   5.119   4.961  1.8296 -0.8514  0.8771
  104SAPE  C21310617   5.340   4.955   4.936  0.2103  0.3682  0.1669
  104SAPE  H13R10618   5.426   5.024   4.937  0.9870 -0.5699 -0.3352
  104SAPE  H13S10619   5.369   4.875   4.864 -1.8441  0.0862 -0.4261
  104SAPE  C21410620   5.324   4.873   5.060  0.0551 -0.3040  0.0766
  104SAPE  H14R10621   5.228   4.824   5.078  0.3918 -0.0580  2.9784
  104SAPE  C21510622   5.414   4.871   5.160 -0.0035  0.3519 -0.8857
  104SAPE  H15R10623   5.394   4.797   5.240 -1.6577  1.0057 -0.6485
  104SAPE  C21610624   5.545   4.948   5.178 -0.1745  0.9444  0.1915
  104SAPE  H16R10625   5.569   4.990   5.078  0.9941  1.2399  0.5818
  104SAPE  H16S10626   5.627   4.880   5.212 -0.9501  0.7193  1.6842
  104SAPE  C21710627   5.540   5.061   5.281 -0.0791  0.3011  0.4134
  104SAPE  H17R10628   5.534   5.025   5.386 -2.9103 -0.1609  0.1668
  104SAPE  H17S10629   5.456   5.125   5.247  0.0943  0.4749  0.3117
  104SAPE  C21810630   5.657   5.162   5.272 -0.2135  0.0591  1.0358
  104SAPE  H18R10631   5.654   5.231   5.186  2.1797 -0.7490  0.2203
  104SAPE  H18S10632   5.739   5.098   5.233 -0.9469  2.2786 -5.2215
  104SAPE  C21910633   5.698   5.228   5.402  0.3262  0.9451 -0.9137
  104SAPE  H19R10634   5.617   5.291   5.444 -1.3244 -0.7034 -1.5032
  104SAPE  H19S10635   5.783   5.295   5.376  0.1486  1.3451 -0.4834
  104SAPE  C22010636   5.756   5.139   5.509  0.2674 -0.5442 -0.1599
  104SAPE  H20R10637   5.840   5.078   5.469  2.4383  1.9528  0.3150
  104SAPE  H20S10638   5.685   5.062   5.547  0.5728 -0.0613  1.4924
  104SAPE  H20T10639   5.783   5.208   5.592 -0.8685 -0.7854  0.4277
  104SAPE   C3310640   5.382   5.065   4.008 -0.3272 -0.7272 -0.0690
  104SAPE   H3X10641   5.370   4.959   4.040  0.7054 -0.9581 -0.3964
  104SAPE   H3Y10642   5.308   5.137   4.048 -2.0619 -1.0807 -2.4523
  104SAPE   C3410643   5.514   5.122   4.063 -0.0484 -0.3745 -0.7266
  104SAPE   H4X10644   5.535   5.231   4.061  2.1010 -0.7156  0.3353
  104SAPE   H4Y10645   5.594   5.078   3.999 -0.1453 -0.0407 -1.0789
  104SAPE   C3510646   5.531   5.081   4.209  0.1658  0.2387  0.4997
  104SAPE   H5X10647   5.533   4.970   4.208 -0.8574  0.1866 -1.9150
  104SAPE   H5Y10648   5.438   5.115   4.258  1.5056 -0.0297  3.4754
  104SAPE   C3610649   5.649   5.144   4.289 -0.0906  0.3968 -0.8203
  104SAPE   H6X10650   5.642   5.252   4.267  0.7167  1.3453  2.8768
  104SAPE   H6Y10651   5.753   5.111   4.265  0.1146  0.2066  0.2955
  104SAPE   C3710652   5.637   5.133   4.446 -0.7038 -0.2082  0.7735
  104SAPE   H7X10653   5.538   5.150   4.493 -0.5048 -0.3103  1.2294
  104SAPE   H7Y10654   5.702   5.213   4.486 -1.3420  1.2955 -1.0501
  104SAPE   C3810655   5.686   5.001   4.497  0.6366 -0.0999  0.2980
  104SAPE   H8X10656   5.774   4.960   4.443  1.0445 -0.2680  1.0798
  104SAPE   H8Y10657   5.599   4.936   4.472 -0.3842  1.0506  0.7602
  104SAPE   C3910658   5.712   4.998   4.650  0.6940  1.5211  0.3329
  104SAPE   H9X10659   5.746   4.894   4.672  1.3301  1.6125 -0.1791
  104SAPE   H9Y10660   5.617   5.012   4.705 -0.9366 -0.6260 -1.6836
  104SAPE  C31010661   5.825   5.081   4.695 -0.2863  0.3478  0.3002
  104SAPE  H10X10662   5.794   5.186   4.674 -1.7823 -0.5901 -2.7231
  104SAPE  H10Y10663   5.909   5.054   4.628 -0.9004  0.8637 -0.7035
  104SAPE  C31110664   5.864   5.081   4.844 -0.1564  0.4164  0.2443
  104SAPE  H11X10665   5.779   5.069   4.915 -0.4161  2.7576  0.4112
  104SAPE  H11Y10666   5.897   5.183   4.871  0.2541  0.4571 -0.4150
  104SAPE  C31210667   5.957   4.973   4.872  0.4640  0.0024  0.2559
  104SAPE  H12X10668   6.054   4.987   4.820  0.0043  1.4930 -0.2331
  104SAPE  H12Y10669   5.909   4.878   4.840  0.5495 -0.2318  0.8131
  104SAPE  C31310670   5.985   4.955   5.021  0.3332 -0.6402 -0.0178
  104SAPE  H13X10671   6.071   4.885   5.033 -0.8980 -1.9855  1.4499
  104SAPE  H13Y10672   5.905   4.896   5.071  0.7865  0.6524  2.4322
  104SAPE  C31410673   6.020   5.085   5.096  0.0346  0.6374 -0.1720
  104SAPE  H14X10674   5.932   5.152   5.087 -1.6416 -1.3679  0.4153
  104SAPE  H14Y10675   6.112   5.129   5.053  1.0438 -1.5180 -0.3135
  104SAPE  C31510676   6.051   5.072   5.247 -0.2116  0.5837 -0.3904
  104SAPE  H15X10677   6.137   5.002   5.258  0.1208  0.8376 -1.2631
  104SAPE  H15Y10678   5.966   5.023   5.300  1.0027 -0.9543  0.2196
  104SAPE  C31610679   6.096   5.211   5.298  0.3958  0.0572  0.4040
  104SAPE  H16X10680   6.013   5.281   5.277  1.4271  1.7058  1.6056
  104SAPE  H16Y10681   6.170   5.254   5.228 -2.2447  0.7223 -2.1380
  104SAPE  C31710682   6.142   5.216   5.450  0.0826  0.2739 -0.1490
  104SAPE  H17X10683   6.214   5.133   5.467  0.4348  0.8974  1.6407
  104SAPE  H17Y10684   6.058   5.167   5.504 -0.2030 -0.0851 -0.9078
  104SAPE  C31810685   6.178   5.347   5.507 -0.5828 -0.4731 -0.1521
  104SAPE  H18X10686   6.194   5.351   5.617  0.0738  1.5692 -0.2819
  104SAPE  H18Y10687   6.092   5.414   5.487 -0.3911 -0.0515  0.3887
  104SAPE  H18Z10688   6.266   5.380   5.449 -0.4293 -0.7594 -0.0832
  105SAPE     N10689   0.349   1.283   3.228 -0.4061  0.3266  0.0370
  105SAPE   HN110690   0.421   1.353   3.200 -0.5904  1.0472  1.2526
  105SAPE   HN210691   0.340   1.204   3.161  2.1742  0.9661 -1.1715
  105SAPE   HN310692   0.261   1.338   3.215 -0.2010  0.4634 -0.8076
  105SAPE   C1210693   0.364   1.258   3.375 -0.1459 -0.6876 -0.0212
  105SAPE  H12A10694   0.471   1.231   3.388  0.6084  1.6923 -0.6361
  105SAPE  H12B10695   0.290   1.181   3.405 -0.2730  0.1577  1.9820
  105SAPE   C1110696   0.329   1.391   3.450  1.1899  0.9015 -0.5213
  105SAPE  H11A10697   0.424   1.447   3.462  1.5282  0.3206 -0.4335
  105SAPE  H11B10698   0.300   1.372   3.555  0.7353  2.0020 -0.4406
  105SAPE     P10699   0.156   1.585   3.448  0.0539  0.0152  0.0683
  105SAPE   O1310700   0.238   1.709   3.449  0.7689 -0.4801 -0.3814
  105SAPE   O1410701   0.019   1.607   3.389  0.0384  0.0427 -0.1463
  105SAPE   O1210702   0.228   1.464   3.379  0.4545 -0.3082  0.0605
  105SAPE   O1110703   0.150   1.541   3.598 -0.3908  0.3976  0.5032
  105SAPE    C110704   0.044   1.452   3.634  0.2416  0.1661  0.0269
  105SAPE    HA10705  -0.051   1.509   3.628 -0.1411 -0.6192 -3.6770
  105SAPE    HB10706   0.045   1.364   3.567  2.3828  0.4282 -0.3602
  105SAPE    C210707   0.051   1.404   3.780  0.5217 -1.2344  0.4532
  105SAPE    HS10708  -0.028   1.327   3.795  0.9004 -2.4833 -3.0281
  105SAPE   O2110709   0.027   1.525   3.865 -0.0603 -0.2592 -0.0834
  105SAPE   C2110710  -0.026   1.499   3.989 -0.1195 -0.8674  0.6125
  105SAPE   O2210711  -0.086   1.397   4.017 -0.5332 -0.4506 -0.2594
  105SAPE   C2210712  -0.000   1.619   4.089 -0.3985 -0.6376  0.1994
  105SAPE   H2R10713   0.103   1.596   4.122 -0.0261 -1.2628 -1.3190
  105SAPE   H2S10714   0.015   1.713   4.031 -0.6841 -0.6919  0.0373
  105SAPE    C310715   0.189   1.340   3.812  1.0428  0.1971  0.6363
  105SAPE    HX10716   0.264   1.419   3.791  2.5703 -0.9820  1.4972
  105SAPE    HY10717   0.197   1.258   3.737 -2.8727  0.0901  0.1094
  105SAPE   O3110718   0.209   1.286   3.944  0.1253 -0.0169  0.5009
  105SAPE   C3110719   0.150   1.166   3.965  0.3639 -0.4135 -0.6371
  105SAPE   O3210720   0.101   1.099   3.874  0.4214  0.3711 -0.1921
  105SAPE   C3210721   0.158   1.127   4.116 -0.2940  0.3317 -0.7420
  105SAPE   H2X10722   0.127   1.215   4.176 -1.5481 -0.1834 -0.6136
  105SAPE   H2Y10723   0.259   1.091   4.143 -0.9470 -0.2716  1.0546
  105SAPE   C2310724  -0.104   1.639   4.203  0.0747 -0.2079  0.2601
  105SAPE   H3R10725  -0.076   1.572   4.288 -1.4408 -1.3952 -0.1242
  105SAPE   H3S10726  -0.202   1.596   4.171  0.2859 -0.2536 -0.3236
  105SAPE   C2410727  -0.106   1.783   4.261 -0.6949  0.5004 -0.0245
  105SAPE   H4R10728  -0.002   1.820   4.268 -0.1367 -0.6916 -1.4419
  105SAPE   H4S10729  -0.152   1.777   4.362  0.1606  2.0118  0.4729
  105SAPE   C2510730  -0.197   1.868   4.179 -0.2077 -0.9765 -0.0755
  105SAPE   H5R10731  -0.145   1.942   4.116  0.8927 -0.2669  1.5716
  105SAPE   C2610732  -0.331   1.889   4.210 -0.1070  0.1739 -0.1113
  105SAPE   H6R10733  -0.391   1.948   4.139  0.9239  0.7056 -0.5679
  105SAPE   C2710734  -0.414   1.803   4.307 -0.0724 -0.4616 -0.3538
  105SAPE   H7R10735  -0.366   1.709   4.342  2.4753  0.4657 -1.1641
  105SAPE   H7S10736  -0.508   1.788   4.250 -0.5946  1.9835 -0.2401
  105SAPE   C2810737  -0.444   1.893   4.420 -0.0112  0.5457 -0.6770
  105SAPE   H8R10738  -0.482   1.994   4.402 -0.4683  0.9246  2.0130
  105SAPE   C2910739  -0.426   1.862   4.554  0.6167 -0.3733  0.5702
  105SAPE   H9R10740  -0.466   1.933   4.627 -0.2114 -0.3007  0.0496
  105SAPE  C21010741  -0.374   1.736   4.615 -0.2873 -0.0840 -0.3598
  105SAPE  H10R10742  -0.336   1.671   4.533  0.1499  0.4048 -0.5463
  105SAPE  H10S10743  -0.461   1.693   4.670 -0.5188  1.2761  0.3888
  105SAPE  C21110744  -0.275   1.762   4.730  0.2002  0.6478  1.0513
  105SAPE  H11R10745  -0.237   1.865   4.732  5.0653 -0.6550 -3.0827
  105SAPE  C21210746  -0.216   1.669   4.811 -0.0506  0.6122  0.0111
  105SAPE  H12R10747  -0.144   1.695   4.890  0.0422 -0.9668  0.4720
  105SAPE  C21310748  -0.243   1.516   4.801 -0.2829  0.1489 -0.7446
  105SAPE  H13R10749  -0.159   1.470   4.856 -0.7348  0.5588  0.3166
  105SAPE  H13S10750  -0.236   1.483   4.695 -0.0540 -0.2633 -0.6015
  105SAPE  C21410751  -0.383   1.472   4.853 -0.9466 -0.8456 -0.3520
  105SAPE  H14R10752  -0.463   1.522   4.797  0.7918 -0.1766 -2.3412
  105SAPE  C21510753  -0.406   1.390   4.957 -0.5158 -0.6651  0.3930
  105SAPE  H15R10754  -0.512   1.374   4.980 -0.9071  0.3195 -0.6244
  105SAPE  C21610755  -0.301   1.319   5.035 -0.8507  0.4777 -0.3908
  105SAPE  H16R10756  -0.208   1.378   5.052  1.4650 -2.5006 -1.8827
  105SAPE  H16S10757  -0.270   1.230   4.977 -1.5301 -1.4178  1.9958
  105SAPE  C21710758  -0.359   1.253   5.169 -0.2470 -0.8918 -0.1860
  105SAPE  H17R10759  -0.379   1.342   5.232 -2.5508 -0.3524 -1.5653
  105SAPE  H17S10760  -0.287   1.192   5.227 -0.4239  0.1520  1.2000
  105SAPE  C21810761  -0.480   1.153   5.149  0.6103  0.4431  0.4326
  105SAPE  H18R10762  -0.452   1.056   5.103 -1.1705 -2.2847  4.4306
  105SAPE  H18S10763  -0.560   1.191   5.082  1.0061  0.8146  0.1725
  105SAPE  C21910764  -0.538   1.112   5.277 -0.4413 -0.4224  0.1448
  105SAPE  H19R10765  -0.633   1.057   5.257 -0.3187 -0.1322 -1.3414
  105SAPE  H19S10766  -0.572   1.209   5.320 -5.2477 -0.4629 -2.8412
  105SAPE  C22010767  -0.457   1.032   5.379 -0.2816  0.2163  0.1620
  105SAPE  H20R10768  -0.521   0.973   5.448  0.6745 -0.4043  0.5469
  105SAPE  H20S10769  -0.396   1.103   5.440 -0.0974  1.4156 -1.3647
  105SAPE  H20T10770  -0.398   0.957   5.323  0.9368  1.6671 -0.5665
  105SAPE   C3310771   0.062   1.012   4.151  0.7133  0.5282  0.0994
  105SAPE   H3X10772   0.077   0.924   4.084 -1.5430 -0.3187  0.6155
  105SAPE   H3Y10773  -0.041   1.045   4.125  0.9712  2.2908  1.1734
  105SAPE   C3410774   0.061   0.964   4.296 -0.1969  0.6031  0.1816
  105SAPE   H4X10775   0.162   0.932   4.330  0.0986  2.7660  1.4926
  105SAPE   H4Y10776  -0.014   0.883   4.303 -0.3099  0.7061  0.1686
  105SAPE   C3510777   0.005   1.067   4.393 -0.3740 -0.4911 -0.3613
  105SAPE   H5X10778  -0.089   1.117   4.360 -0.5016 -0.3844  0.1409
  105SAPE   H5Y10779   0.076   1.150   4.408 -1.2597  0.2486 -0.1399
  105SAPE   C3610780  -0.007   1.012   4.536  0.2698 -0.3209  0.6262
  105SAPE   H6X10781   0.089   0.973   4.576  2.0327  0.2735 -2.6615
  105SAPE   H6Y10782  -0.076   0.926   4.526 -0.4233  0.4390 -1.7443
  105SAPE   C3710783  -0.060   1.122   4.631  0.0927  0.0497  0.1011
  105SAPE   H7X10784  -0.132   1.185   4.574  0.6314 -0.3558 -1.0622
  105SAPE   H7Y10785   0.012   1.204   4.648 -0.9750  1.3594 -1.4010
  105SAPE   C3810786  -0.124   1.072   4.760 -0.2533 -0.6096 -0.7730
  105SAPE   H8X10787  -0.173   0.976   4.733 -0.6222 -0.2068 -1.5747
  105SAPE   H8Y10788  -0.195   1.143   4.807  1.8514  0.0602  1.6379
  105SAPE   C3910789  -0.008   1.054   4.862 -0.1734  0.6504  0.0638
  105SAPE   H9X10790   0.050   1.148   4.873  2.1713 -0.6828 -0.3529
  105SAPE   H9Y10791   0.061   0.975   4.825 -0.7379 -0.0297  0.4357
  105SAPE  C31010792  -0.058   1.013   5.008 -0.4166  0.8289  0.0399
  105SAPE  H10X10793  -0.092   0.908   4.992 -0.2026  0.8758 -0.7736
  105SAPE  H10Y10794  -0.145   1.077   5.033  0.6743  1.7375  1.6758
  105SAPE  C31110795   0.044   1.020   5.123  0.3146 -0.5974  0.0583
  105SAPE  H11X10796   0.090   1.121   5.125 -0.0835 -0.3378 -1.8373
  105SAPE  H11Y10797   0.122   0.946   5.095 -0.3890 -1.1358 -0.5476
  105SAPE  C31210798  -0.001   0.964   5.258  0.5262 -0.0901 -0.4628
  105SAPE  H12X10799  -0.021   0.855   5.249  1.1463 -0.4335  1.8065
  105SAPE  H12Y10800  -0.091   1.020   5.290  0.7473  0.0667 -0.1054
  105SAPE  C31310801   0.117   0.988   5.358 -0.0548 -0.3487  0.1511
  105SAPE  H13X10802   0.153   1.091   5.342  1.5051 -1.1263 -1.8459
  105SAPE  H13Y10803   0.202   0.925   5.324  1.0190  2.0802 -1.9741
  105SAPE  C31410804   0.078   0.954   5.502 -0.0206  0.5108 -0.1491
  105SAPE  H14X10805   0.032   0.853   5.512  1.3939 -0.1302  0.1917
  105SAPE  H14Y10806   0.008   1.026   5.550  2.4456  1.2205  2.7139
  105SAPE  C31510807   0.204   0.952   5.594  0.0305 -0.0951 -0.0826
  105SAPE  H15X10808   0.238   1.052   5.629 -2.6775  0.2536  1.9474
  105SAPE  H15Y10809   0.287   0.906   5.537  1.6927 -0.9380  2.7825
  105SAPE  C31610810   0.174   0.853   5.708  0.5626  0.6607 -0.3383
  105SAPE  H16X10811   0.141   0.750   5.683  1.1821  0.3511  0.0957
  105SAPE  H16Y10812   0.089   0.903   5.758 -1.1029  0.0926 -2.4451
  105SAPE  C31710813   0.285   0.831   5.809  0.3241  0.4128 -0.1095
  105SAPE  H17X10814   0.368   0.770   5.767  1.3094  1.4832  0.2446
  105SAPE  H17Y10815   0.234   0.772   5.888 -0.5641  1.0525 -0.1884
  105SAPE  C31810816   0.331   0.956   5.875 -0.3721 -0.0636 -0.3034
  105SAPE  H18X10817   0.253   1.011   5.931  1.6301  2.8188 -0.0895
  105SAPE  H18Y10818   0.366   1.027   5.797  0.1053  0.0486  0.0066
  105SAPE  H18Z10819   0.419   0.934   5.939 -1.2912 -0.5623  0.8113
  106SAPE     N10820   0.684   4.863   3.629  0.3105 -0.0013  0.7031
  106SAPE   HN110821   0.679   4.946   3.566  2.0208  1.5148  2.4518
  106SAPE   HN210822   0.767   4.805   3.603  1.6305  1.3243  1.7812
  106SAPE   HN310823   0.601   4.801   3.623  1.6090 -1.7063 -0.9756
  106SAPE   C1210824   0.712   4.920   3.767  0.4151 -0.0486  0.6051
  106SAPE  H12A10825   0.789   4.858   3.818  0.8048  1.1062  1.4698
  106SAPE  H12B10826   0.622   4.917   3.832  1.1487 -0.0970  1.6364
  106SAPE   C1110827   0.766   5.059   3.741 -0.3064 -0.2996  0.1838
  106SAPE  H11A10828   0.840   5.048   3.658 -1.4462 -0.3324 -0.8498
  106SAPE  H11B10829   0.811   5.105   3.832  0.3466  1.7241 -1.1063
  106SAPE     P10830   0.676   5.304   3.678 -0.1360 -0.1711 -0.0536
  106SAPE   O1310831   0.817   5.337   3.624 -0.0019  0.2907  0.2267
  106SAPE   O1410832   0.558   5.354   3.595  0.2058  0.5602 -0.1667
  106SAPE   O1210833   0.657   5.139   3.703 -0.4111 -0.2790  0.7742
  106SAPE   O1110834   0.665   5.370   3.817  0.0255  0.4171  0.0717
  106SAPE    C110835   0.555   5.332   3.899 -0.1516  0.2454  0.3196
  106SAPE    HA10836   0.465   5.374   3.850 -0.3048 -3.3773 -2.9460
  106SAPE    HB10837   0.551   5.221   3.895 -1.4695  0.3173 -3.1641
  106SAPE    C210838   0.564   5.383   4.051  0.1992 -0.1195  0.0667
  106SAPE    HS10839   0.463   5.365   4.094  0.9453  0.0529  1.9790
  106SAPE   O2110840   0.590   5.519   4.056 -0.4986 -0.4662 -0.5845
  106SAPE   C2110841   0.542   5.580   4.158 -0.3042  0.2816 -0.2990
  106SAPE   O2210842   0.457   5.532   4.237  0.1454  0.3022 -0.8072
  106SAPE   C2210843   0.596   5.722   4.169  0.9301  0.0665  0.2504
  106SAPE   H2R10844   0.701   5.728   4.134  1.0305 -0.1830  0.5070
  106SAPE   H2S10845   0.530   5.779   4.099 -0.3258 -0.8566  0.6378
  106SAPE    C310846   0.675   5.306   4.134 -0.0785  0.2622  0.7349
  106SAPE    HX10847   0.769   5.359   4.109 -0.1183  0.0800  0.1831
  106SAPE    HY10848   0.690   5.199   4.107 -0.4578 -0.0535  1.7182
  106SAPE   O3110849   0.644   5.301   4.269 -0.4986 -0.3336 -0.2845
  106SAPE   C3110850   0.727   5.367   4.348 -0.3502 -0.3611 -0.3376
  106SAPE   O3210851   0.823   5.434   4.309  0.4629 -0.2206 -0.5876
  106SAPE   C3210852   0.677   5.345   4.492 -0.2984 -0.0723 -0.6297
  106SAPE   H2X10853   0.566   5.350   4.503 -0.2140 -1.7672  1.7862
  106SAPE   H2Y10854   0.709   5.435   4.549  1.0734 -1.0260  0.1740
  106SAPE   C2310855   0.571   5.776   4.310 -0.6345  0.5952 -0.3647
  106SAPE   H3R10856   0.642   5.860   4.326 -0.3353  0.2414  0.2128
  106SAPE   H3S10857   0.604   5.709   4.392 -0.0043  1.2270 -0.0914
  106SAPE   C2410858   0.434   5.824   4.346  0.1913 -0.0483  0.3523
  106SAPE   H4R10859   0.439   5.858   4.452 -1.1573 -1.0136  0.7594
  106SAPE   H4S10860   0.371   5.732   4.343 -0.8680  0.6304  0.9125
  106SAPE   C2510861   0.366   5.923   4.262 -0.5824  0.3406 -0.7731
  106SAPE   H5R10862   0.297   5.876   4.191 -0.7181 -1.0665  0.2525
  106SAPE   C2610863   0.382   6.057   4.267 -0.4853  0.2115 -0.4185
  106SAPE   H6R10864   0.325   6.130   4.208 -2.2120 -1.0613 -0.3869
  106SAPE   C2710865   0.471   6.120   4.375  0.4424 -0.4021 -0.4208
  106SAPE   H7R10866   0.518   6.041   4.438  0.8789 -0.1167 -0.3905
  106SAPE   H7S10867   0.403   6.177   4.441  0.6849 -1.4290  0.7490
  106SAPE   C2810868   0.577   6.210   4.334  0.2889 -0.7088 -0.1868
  106SAPE   H8R10869   0.611   6.197   4.230 -1.9479 -2.0457 -0.8121
  106SAPE   C2910870   0.612   6.319   4.398 -0.5511 -0.8141 -0.9423
  106SAPE   H9R10871   0.688   6.379   4.344 -0.8451 -0.0574 -0.5378
  106SAPE  C21010872   0.577   6.373   4.534  0.0394  0.9751 -0.1858
  106SAPE  H10R10873   0.661   6.364   4.607 -1.6130 -1.3781  1.5894
  106SAPE  H10S10874   0.501   6.312   4.587  2.1264 -1.3184  0.4115
  106SAPE  C21110875   0.530   6.518   4.525 -0.0953  0.8166 -0.1338
  106SAPE  H11R10876   0.508   6.550   4.422 -5.9382 -2.2046 -0.2046
  106SAPE  C21210877   0.498   6.599   4.633  0.1344  0.0302  0.4129
  106SAPE  H12R10878   0.465   6.704   4.623 -0.4587  0.1583  2.9701
  106SAPE  C21310879   0.524   6.548   4.780  1.2732 -0.6705  0.1372
  106SAPE  H13R10880   0.520   6.630   4.855  0.3637 -1.9282  1.5321
  106SAPE  H13S10881   0.630   6.517   4.783  1.2207 -0.7978  1.7917
  106SAPE  C21410882   0.431   6.439   4.832 -0.8851  0.3944  0.2340
  106SAPE  H14R10883   0.355   6.394   4.765 -0.8387  1.6288 -0.6866
  106SAPE  C21510884   0.421   6.390   4.958 -0.8646  0.2624 -0.6717
  106SAPE  H15R10885   0.352   6.306   4.976 -1.5419  0.3303 -2.7439
  106SAPE  C21610886   0.493   6.447   5.077  0.2825 -0.5071 -0.0125
  106SAPE  H16R10887   0.422   6.483   5.154  0.2348 -0.5518 -0.0362
  106SAPE  H16S10888   0.549   6.538   5.046 -1.0716 -0.3457 -2.2102
  106SAPE  C21710889   0.596   6.353   5.151  0.2836  0.2001 -0.2237
  106SAPE  H17R10890   0.669   6.321   5.074 -0.1990 -1.8991  0.1485
  106SAPE  H17S10891   0.559   6.264   5.207  0.6232  1.1177  1.5522
  106SAPE  C21810892   0.678   6.424   5.250 -0.4039 -1.0005 -0.8129
  106SAPE  H18R10893   0.726   6.517   5.213  1.2852 -0.7381  1.7830
  106SAPE  H18S10894   0.766   6.360   5.274  0.0647 -0.3025 -0.6319
  106SAPE  C21910895   0.599   6.451   5.382  0.7170  0.1768 -0.2272
  106SAPE  H19R10896   0.557   6.350   5.401  1.8529 -0.1779  0.4991
  106SAPE  H19S10897   0.512   6.520   5.375  2.1302  2.3843  2.0732
  106SAPE  C22010898   0.685   6.497   5.507  0.4358  0.3636  0.4003
  106SAPE  H20R10899   0.625   6.485   5.599  0.9111  0.2266  0.6968
  106SAPE  H20S10900   0.705   6.606   5.504 -3.8047  1.3930  2.2396
  106SAPE  H20T10901   0.777   6.435   5.519  0.7272  0.4608 -1.1050
  106SAPE   C3310902   0.754   5.226   4.555  1.2034  0.1307 -0.1644
  106SAPE   H3X10903   0.863   5.230   4.534  1.5632 -0.7880  1.3929
  106SAPE   H3Y10904   0.709   5.131   4.521  1.5530 -0.0426 -0.1454
  106SAPE   C3410905   0.719   5.210   4.704  0.1009  0.3315  0.0552
  106SAPE   H4X10906   0.753   5.107   4.729  1.7680  0.1265 -2.6562
  106SAPE   H4Y10907   0.610   5.192   4.708  0.4096 -2.2794 -1.0099
  106SAPE   C3510908   0.762   5.323   4.802  0.0230 -0.2434  0.1584
  106SAPE   H5X10909   0.735   5.290   4.904 -1.7073  0.7654  0.0748
  106SAPE   H5Y10910   0.703   5.413   4.770  1.8643  1.7482  2.0828
  106SAPE   C3610911   0.904   5.360   4.807 -0.0073  0.2145  0.4935
  106SAPE   H6X10912   0.935   5.381   4.703 -0.3488 -0.9236  0.1522
  106SAPE   H6Y10913   0.962   5.274   4.846  0.5354  0.3577  0.0200
  106SAPE   C3710914   0.933   5.492   4.894 -0.2923 -0.2823 -0.1494
  106SAPE   H7X10915   0.874   5.572   4.845  0.3329  1.2305  1.4969
  106SAPE   H7Y10916   1.039   5.525   4.882 -0.4069  0.5172  1.0067
  106SAPE   C3810917   0.897   5.493   5.040  0.4161  0.3636 -0.7310
  106SAPE   H8X10918   0.934   5.406   5.098  1.7041  0.9483 -0.6433
  106SAPE   H8Y10919   0.787   5.486   5.049  0.5213  1.2034  1.7843
  106SAPE   C3910920   0.956   5.614   5.111 -0.2130  0.5675 -0.2160
  106SAPE   H9X10921   0.885   5.610   5.197 -1.5331 -2.9573 -1.2753
  106SAPE   H9Y10922   0.944   5.708   5.054 -0.0363  1.1495  0.6983
  106SAPE  C31010923   1.099   5.595   5.162  0.3643  0.0956  0.1681
  106SAPE  H10X10924   1.154   5.689   5.182 -0.6060  1.3251 -2.5296
  106SAPE  H10Y10925   1.151   5.552   5.074 -1.9338 -2.5947 -0.0260
  106SAPE  C31110926   1.103   5.499   5.276 -0.0885  0.0526  0.0776
  106SAPE  H11X10927   1.205   5.507   5.317 -0.1462  1.0283  0.0607
  106SAPE  H11Y10928   1.087   5.391   5.257 -1.3988 -0.2179  2.2915
  106SAPE  C31210929   1.020   5.533   5.394 -0.0532 -0.3524 -0.5551
  106SAPE  H12X10930   0.909   5.528   5.392 -0.0117 -1.2261 -1.0677
  106SAPE  H12Y10931   1.050   5.633   5.431 -1.0493 -0.8279  1.7693
  106SAPE  C31310932   1.062   5.443   5.517 -0.6658  0.6398 -0.5087
  106SAPE  H13X10933   1.010   5.488   5.604  0.3179  1.3578 -0.2711
  106SAPE  H13Y10934   1.172   5.450   5.531 -0.5273 -1.3081 -0.3726
  106SAPE  C31410935   1.030   5.293   5.492  0.3048 -0.2828 -0.3190
  106SAPE  H14X10936   1.106   5.254   5.422  0.4078  1.5888 -1.3106
  106SAPE  H14Y10937   0.924   5.297   5.459  0.7951  1.4148 -1.8681
  106SAPE  C31510938   1.035   5.212   5.626 -0.1760  0.0976 -0.7198
  106SAPE  H15X10939   0.972   5.264   5.702  1.3035  1.8349 -0.6076
  106SAPE  H15Y10940   1.142   5.217   5.655 -0.4853 -2.4349  1.1717
  106SAPE  C31610941   0.986   5.074   5.596  0.2851  0.7064 -0.4853
  106SAPE  H16X10942   1.051   5.022   5.521 -1.3617 -1.5339 -0.4672
  106SAPE  H16Y10943   0.893   5.078   5.536  0.3987 -0.0765 -0.7307
  106SAPE  C31710944   0.977   4.980   5.720 -0.4751  0.2625  0.0597
  106SAPE  H17X10945   0.906   5.026   5.792 -1.7364  0.8437 -1.4833
  106SAPE  H17Y10946   1.078   4.956   5.761 -1.2548 -2.1709  0.7019
  106SAPE  C31810947   0.929   4.843   5.677 -0.2808  0.5022 -0.1131
  106SAPE  H18X10948   0.954   4.777   5.764  2.6079  1.0056 -0.4775
  106SAPE  H18Y10949   0.985   4.807   5.589 -0.4275  2.0674 -0.8726
  106SAPE  H18Z10950   0.822   4.843   5.646 -0.3069 -1.8784 -0.2482
  107SAPE     N10951   2.505   3.138   3.504  0.6732 -0.2655 -0.1622
  107SAPE   HN110952   2.429   3.208   3.492  0.3832 -0.6111 -0.3869
  107SAPE   HN210953   2.521   3.099   3.409 -0.5120  0.9448 -0.8980
  107SAPE   HN310954   2.467   3.069   3.572 -2.5509  2.0121  0.6194
  107SAPE   C1210955   2.615   3.208   3.579 -0.0632 -0.4782 -0.3248
  107SAPE  H12A10956   2.640   3.299   3.521 -1.4397  0.4967  0.5707
  107SAPE  H12B10957   2.708   3.148   3.567  1.0048  0.8544  0.9999
  107SAPE   C1110958   2.590   3.245   3.727  0.4684 -0.3690  0.2446
  107SAPE  H11A10959   2.687   3.258   3.779 -0.0641  0.6941  1.0072
  107SAPE  H11B10960   2.544   3.165   3.790  0.6844  0.0614  0.9705
  107SAPE     P10961   2.369   3.396   3.741  0.5398  0.0009 -0.4484
  107SAPE   O1310962   2.317   3.359   3.604 -0.0511  0.0036  0.4625
  107SAPE   O1410963   2.320   3.336   3.862 -0.5496  0.2922 -0.3954
  107SAPE   O1210964   2.526   3.369   3.735 -0.3729 -0.0413  0.3592
  107SAPE   O1110965   2.352   3.555   3.756  0.1404 -0.5060  0.3876
  107SAPE    C110966   2.436   3.620   3.855 -0.2024  0.2692 -0.3033
  107SAPE    HA10967   2.543   3.592   3.850 -0.3889 -0.3322 -1.4527
  107SAPE    HB10968   2.438   3.729   3.833  0.2707 -0.3003 -3.6844
  107SAPE    C210969   2.389   3.616   4.003  0.3022 -0.3682  0.0807
  107SAPE    HS10970   2.382   3.508   4.025  1.1286 -1.1716 -3.0997
  107SAPE   O2110971   2.261   3.688   4.006 -0.5801 -0.4627 -0.2617
  107SAPE   C2110972   2.168   3.634   4.080 -0.1478  0.2038 -0.2430
  107SAPE   O2210973   2.174   3.526   4.140 -0.3509  0.3853 -0.5837
  107SAPE   C2210974   2.064   3.744   4.096 -0.1043  0.2629 -0.2036
  107SAPE   H2R10975   2.111   3.843   4.117  0.2862  0.0727 -0.1724
  107SAPE   H2S10976   2.003   3.769   4.006 -0.5504  1.8499  0.5083
  107SAPE    C310977   2.487   3.675   4.108  0.0215  0.6192 -0.1772
  107SAPE    HX10978   2.481   3.785   4.097 -1.1700  0.5649 -0.2344
  107SAPE    HY10979   2.585   3.640   4.070 -0.3036 -1.2758  0.5869
  107SAPE   O3110980   2.448   3.625   4.242  0.2625  0.3994 -0.2353
  107SAPE   C3110981   2.545   3.552   4.299  0.2266  0.0739  0.3901
  107SAPE   O3210982   2.660   3.548   4.263 -0.5612 -0.2339  0.2615
  107SAPE   C3210983   2.480   3.486   4.424  0.4049 -0.4212  0.4248
  107SAPE   H2X10984   2.473   3.379   4.395  0.7634 -0.1504 -0.7064
  107SAPE   H2Y10985   2.380   3.528   4.447  0.2882 -0.6700  0.3759
  107SAPE   C2310986   1.967   3.725   4.216 -0.7219  0.0451 -0.1861
  107SAPE   H3R10987   1.927   3.622   4.215  0.3079 -0.3661 -0.7928
  107SAPE   H3S10988   1.882   3.797   4.215 -0.0896  0.9494  2.5272
  107SAPE   C2410989   2.025   3.763   4.363 -0.6784  0.4312  0.7413
  107SAPE   H4R10990   1.939   3.771   4.433 -2.0200  1.6749 -0.9418
  107SAPE   H4S10991   2.078   3.860   4.351  2.0870 -1.2325 -2.0292
  107SAPE   C2510992   2.124   3.667   4.422  0.0165 -0.8397 -0.3454
  107SAPE   H5R10993   2.207   3.641   4.354  0.4531  1.3705 -0.7306
  107SAPE   C2610994   2.129   3.605   4.545 -0.6979 -0.8353 -0.7010
  107SAPE   H6R10995   2.212   3.534   4.558  0.6686  0.4939 -1.7402
  107SAPE   C2710996   2.037   3.645   4.652  0.3614  0.3458 -0.1463
  107SAPE   H7R10997   2.039   3.576   4.739 -0.0738  0.1863 -0.2634
  107SAPE   H7S10998   1.935   3.652   4.611  0.3927  0.2226 -0.2451
  107SAPE   C2810999   2.062   3.778   4.706  0.9535  0.0673 -0.4332
  107SAPE   H8R11000   1.995   3.852   4.659 -0.3878 -1.9717 -1.8773
  107SAPE   C2911001   2.154   3.828   4.797  0.3334 -0.0256 -0.1909
  107SAPE   H9R11002   2.144   3.935   4.820  1.8169 -0.0818  0.8738
  107SAPE  C21011003   2.275   3.758   4.857 -0.1454 -0.1912  0.4387
  107SAPE  H10R11004   2.361   3.828   4.860  0.5765 -1.0622  0.3557
  107SAPE  H10S11005   2.295   3.667   4.797 -0.2887  0.4964 -0.6778
  107SAPE  C21111006   2.230   3.720   4.993 -0.6184  0.1827 -0.2455
  107SAPE  H11R11007   2.125   3.690   5.003 -0.2972 -0.2282  2.7170
  107SAPE  C21211008   2.299   3.720   5.104 -0.2894  0.3038  0.1438
  107SAPE  H12R11009   2.253   3.682   5.196  0.9603 -0.7699  0.3633
  107SAPE  C21311010   2.447   3.751   5.127  0.2348  0.4966  0.2422
  107SAPE  H13R11011   2.450   3.826   5.209 -3.0224 -0.2452  1.1930
  107SAPE  H13S11012   2.492   3.797   5.037 -4.4093 -1.0904 -3.3119
  107SAPE  C21411013   2.527   3.621   5.159  0.1795 -0.1558 -0.4864
  107SAPE  H14R11014   2.478   3.527   5.131 -0.7672  0.2959 -0.4140
  107SAPE  C21511015   2.640   3.624   5.239  0.0138  0.1549 -0.4995
  107SAPE  H15R11016   2.711   3.540   5.241 -0.2426 -0.0598 -0.0583
  107SAPE  C21611017   2.706   3.750   5.293  0.3775  0.5392  0.6306
  107SAPE  H16R11018   2.651   3.840   5.258  0.0986  1.1677  2.5863
  107SAPE  H16S11019   2.811   3.771   5.264  0.5214  0.5805  1.1721
  107SAPE  C21711020   2.716   3.754   5.444  0.4889  0.2108 -0.7395
  107SAPE  H17R11021   2.620   3.736   5.496  0.6094  0.2206 -0.5096
  107SAPE  H17S11022   2.757   3.842   5.499  1.1864  0.4718 -1.6564
  107SAPE  C21811023   2.788   3.626   5.499  0.6197 -0.5430  0.1602
  107SAPE  H18R11024   2.890   3.610   5.458  0.7686  3.1698 -1.3746
  107SAPE  H18S11025   2.728   3.534   5.489  1.3347 -0.9745 -0.2486
  107SAPE  C21911026   2.796   3.628   5.652  0.6634  0.1710 -0.0145
  107SAPE  H19R11027   2.703   3.664   5.699  1.9625  1.6987  1.5118
  107SAPE  H19S11028   2.871   3.707   5.672  0.1991  1.0292 -1.4829
  107SAPE  C22011029   2.819   3.496   5.726 -0.6683 -0.1725 -0.2892
  107SAPE  H20R11030   2.909   3.443   5.689 -0.2088 -0.6182  1.3984
  107SAPE  H20S11031   2.732   3.431   5.702  0.1689 -2.1417  1.7048
  107SAPE  H20T11032   2.813   3.492   5.837 -1.1059 -2.4235 -0.3599
  107SAPE   C3311033   2.572   3.507   4.541  0.7071  0.8819 -0.3314
  107SAPE   H3X11034   2.675   3.469   4.526  0.5610 -0.1302  1.0143
  107SAPE   H3Y11035   2.536   3.452   4.630  0.3432  0.1099 -0.9416
  107SAPE   C3411036   2.560   3.647   4.601 -0.5321  0.1277 -0.7566
  107SAPE   H4X11037   2.464   3.671   4.651  0.6720  1.7831  0.8864
  107SAPE   H4Y11038   2.575   3.727   4.525  0.3535  0.0774 -0.6451
  107SAPE   C3511039   2.666   3.680   4.706 -0.3244  0.1276  0.4049
  107SAPE   H5X11040   2.659   3.603   4.785  1.2603 -0.8837 -0.3829
  107SAPE   H5Y11041   2.643   3.775   4.758  2.0437  1.0017  0.0019
  107SAPE   C3611042   2.803   3.696   4.639 -0.2358 -0.6872 -0.2309
  107SAPE   H6X11043   2.808   3.782   4.568 -0.6490 -1.5833 -1.3685
  107SAPE   H6Y11044   2.832   3.600   4.590 -1.0301 -0.2489 -1.6344
  107SAPE   C3711045   2.924   3.715   4.739  0.1739  0.1573  0.1880
  107SAPE   H7X11046   2.920   3.817   4.784  1.5556  0.3771 -0.1376
  107SAPE   H7Y11047   3.011   3.731   4.671 -0.7064  2.5673 -0.4847
  107SAPE   C3811048   2.945   3.611   4.846 -0.5526  0.7653 -0.1420
  107SAPE   H8X11049   2.972   3.522   4.785  0.2409  1.6279 -1.0921
  107SAPE   H8Y11050   2.851   3.597   4.904  0.7294  0.3312  1.9698
  107SAPE   C3911051   3.043   3.637   4.966  0.4025  0.0988  0.0754
  107SAPE   H9X11052   3.000   3.729   5.011 -0.5490  1.0037 -2.4729
  107SAPE   H9Y11053   3.143   3.668   4.930  0.0343  1.8260  0.4549
  107SAPE  C31011054   3.047   3.521   5.064  0.2536  0.4236  0.0227
  107SAPE  H10X11055   3.088   3.429   5.016  0.2304  0.4719 -0.0897
  107SAPE  H10Y11056   2.943   3.497   5.093 -0.2433  1.2851 -0.9824
  107SAPE  C31111057   3.132   3.539   5.190 -0.4300 -0.0605  0.9222
  107SAPE  H11X11058   3.081   3.609   5.259  1.8355  1.9809  0.6898
  107SAPE  H11Y11059   3.228   3.585   5.157 -0.9885 -0.5825 -1.6783
  107SAPE  C31211060   3.162   3.406   5.252  0.2909 -0.0107 -0.2607
  107SAPE  H12X11061   3.196   3.346   5.165 -0.0421  0.9843 -1.0976
  107SAPE  H12Y11062   3.079   3.340   5.284 -0.5194  0.1719 -1.8980
  107SAPE  C31311063   3.258   3.410   5.370 -0.2755 -0.0094  0.4274
  107SAPE  H13X11064   3.328   3.495   5.351 -1.7312  1.7620  2.4288
  107SAPE  H13Y11065   3.320   3.319   5.381  0.0893  0.3148  1.1651
  107SAPE  C31411066   3.193   3.440   5.516 -0.6508 -0.2272  1.3147
  107SAPE  H14X11067   3.125   3.528   5.517  0.0807  0.3410  2.4705
  107SAPE  H14Y11068   3.281   3.466   5.577  0.5160 -0.8300 -0.0495
  107SAPE  C31511069   3.118   3.327   5.582 -0.4237 -0.0444 -0.6381
  107SAPE  H15X11070   3.031   3.302   5.518  0.6610 -2.0896 -1.4230
  107SAPE  H15Y11071   3.082   3.376   5.675 -1.0396 -0.3743 -0.6970
  107SAPE  C31611072   3.196   3.199   5.601  0.1714  0.0355  0.3919
  107SAPE  H16X11073   3.292   3.234   5.646 -0.7761  1.8773  1.1032
  107SAPE  H16Y11074   3.229   3.152   5.506  0.9747  3.1499 -1.0005
  107SAPE  C31711075   3.131   3.103   5.698  0.8088 -0.4390  0.1082
  107SAPE  H17X11076   3.041   3.057   5.653  0.7771 -0.4742  0.2072
  107SAPE  H17Y11077   3.104   3.163   5.787 -0.2838  1.4428 -1.4135
  107SAPE  C31811078   3.216   2.980   5.731 -0.2573 -0.1969 -0.3349
  107SAPE  H18X11079   3.168   2.914   5.806  1.1693  0.3605  1.1073
  107SAPE  H18Y11080   3.313   3.014   5.771 -0.7679 -0.2998  1.0350
  107SAPE  H18Z11081   3.227   2.921   5.638  2.3529  1.2579 -1.0458
  108SAPE     N11082   1.964   3.297   3.510 -0.2864 -0.3719  0.0300
  108SAPE   HN111083   1.995   3.205   3.548 -1.4576 -0.4655  0.7763
  108SAPE   HN211084   1.888   3.274   3.443 -0.2623  0.6030 -0.3589
  108SAPE   HN311085   2.049   3.317   3.453  0.7437 -1.1116  1.2397
  108SAPE   C1211086   1.929   3.399   3.616  0.3632 -0.0475 -0.1316
  108SAPE  H12A11087   1.906   3.497   3.569  0.2828 -0.8804 -1.9249
  108SAPE  H12B11088   2.019   3.403   3.681  0.1972 -0.6836  0.1473
  108SAPE   C1111089   1.800   3.360   3.683  0.7741  0.3077  0.1479
  108SAPE  H11A11090   1.809   3.267   3.743  1.2367 -0.2911 -0.8328
  108SAPE  H11B11091   1.721   3.338   3.608  0.2545 -0.7444  0.9826
  108SAPE     P11092   1.849   3.515   3.882 -0.1220 -0.3912 -0.1694
  108SAPE   O1311093   1.920   3.407   3.948  0.4230 -0.4914  0.5439
  108SAPE   O1411094   1.926   3.621   3.820  0.0275 -0.0153  0.5641
  108SAPE   O1211095   1.745   3.458   3.769  0.5722  0.4260  0.3447
  108SAPE   O1111096   1.763   3.582   3.998 -0.0555  0.5548  0.3193
  108SAPE    C111097   1.630   3.539   4.029  0.4983 -0.3090  0.4878
  108SAPE    HA11098   1.583   3.625   4.081  1.3348 -0.3205  1.2779
  108SAPE    HB11099   1.568   3.530   3.937 -0.8386  0.0572  1.3275
  108SAPE    C211100   1.615   3.412   4.117 -0.1278 -0.5632 -0.1353
  108SAPE    HS11101   1.647   3.323   4.058 -0.3069 -1.7464  1.4872
  108SAPE   O2111102   1.483   3.405   4.171  0.3626  0.1409  0.2564
  108SAPE   C2111103   1.396   3.357   4.075 -0.3612  0.2068  0.0365
  108SAPE   O2211104   1.412   3.307   3.964  0.5471 -0.0074  1.1174
  108SAPE   C2211105   1.257   3.387   4.129 -1.1786  0.1345 -0.4994
  108SAPE   H2R11106   1.264   3.409   4.238 -1.7068 -2.4364  0.1258
  108SAPE   H2S11107   1.220   3.479   4.078 -0.9427  1.4334  1.5313
  108SAPE    C311108   1.720   3.413   4.236  0.1317 -0.0178 -0.0129
  108SAPE    HX11109   1.692   3.502   4.295 -0.0322  1.6386 -2.4654
  108SAPE    HY11110   1.816   3.428   4.182  0.7817  0.0789  1.1284
  108SAPE   O3111111   1.723   3.287   4.316  0.4566  0.6783 -0.4742
  108SAPE   C3111112   1.831   3.268   4.390  0.3759 -0.6902 -0.4468
  108SAPE   O3211113   1.932   3.333   4.393 -0.3506 -0.0725  0.3405
  108SAPE   C3211114   1.804   3.137   4.463 -0.8969 -0.4704 -0.0072
  108SAPE   H2X11115   1.901   3.084   4.454 -1.6028 -1.5922 -1.4326
  108SAPE   H2Y11116   1.728   3.080   4.406 -1.6183  1.7612 -1.3865
  108SAPE   C2311117   1.161   3.268   4.107  0.0726 -0.5562  0.1567
  108SAPE   H3R11118   1.183   3.174   4.162 -1.6540 -0.5324  0.9263
  108SAPE   H3S11119   1.162   3.239   4.000 -1.0530 -1.1079  0.2817
  108SAPE   C2411120   1.013   3.307   4.135  0.2809  0.3099 -0.3668
  108SAPE   H4R11121   0.943   3.228   4.101 -0.0965  0.6246 -0.3380
  108SAPE   H4S11122   0.993   3.396   4.072 -0.4998 -0.1401 -0.7640
  108SAPE   C2511123   0.990   3.344   4.279  0.2740  0.7045  0.1511
  108SAPE   H5R11124   1.011   3.449   4.305 -0.6274  0.6865  1.0342
  108SAPE   C2611125   0.967   3.253   4.374 -0.6661  0.3930 -0.7624
  108SAPE   H6R11126   0.954   3.293   4.476  1.4082  3.1341 -1.4431
  108SAPE   C2711127   0.958   3.102   4.354 -0.5159 -0.0720 -0.4006
  108SAPE   H7R11128   1.015   3.073   4.264  0.7305 -0.8382  0.5973
  108SAPE   H7S11129   0.851   3.079   4.333 -0.3494  0.0210 -1.3945
  108SAPE   C2811130   1.011   3.016   4.460 -0.2520  0.1554 -0.4762
  108SAPE   H8R11131   1.108   2.973   4.431  0.6148  0.9254  1.1223
  108SAPE   C2911132   0.975   3.009   4.592 -0.0376 -0.2016  0.2001
  108SAPE   H9R11133   1.031   2.937   4.653  4.6714  1.7458 -1.2919
  108SAPE  C21011134   0.855   3.074   4.652  0.5883 -0.0928  0.8495
  108SAPE  H10R11135   0.811   3.147   4.581  1.0640  0.1143  0.7618
  108SAPE  H10S11136   0.897   3.136   4.735 -0.1124  1.3425  0.1658
  108SAPE  C21111137   0.752   2.983   4.706 -0.1934  0.5967  0.7302
  108SAPE  H11R11138   0.673   2.971   4.631  2.4417  0.4672 -2.2196
  108SAPE  C21211139   0.759   2.912   4.820 -0.1347 -0.0830  0.1395
  108SAPE  H12R11140   0.684   2.838   4.853 -0.1773  0.5122  1.4099
  108SAPE  C21311141   0.875   2.912   4.923  0.6636  0.5935  1.2731
  108SAPE  H13R11142   0.857   2.979   5.009  0.0317  1.8245  0.2231
  108SAPE  H13S11143   0.965   2.960   4.880  0.6461 -1.4315 -1.3369
  108SAPE  C21411144   0.931   2.775   4.951 -0.2135 -0.0969 -0.6074
  108SAPE  H14R11145   0.976   2.726   4.863  0.0824 -2.0052  0.5275
  108SAPE  C21511146   0.968   2.719   5.065 -0.1640 -0.8076 -0.6236
  108SAPE  H15R11147   1.003   2.615   5.070  0.8651 -0.4566 -0.2241
  108SAPE  C21611148   0.938   2.770   5.196  0.4223  0.6226 -0.8037
  108SAPE  H16R11149   0.880   2.864   5.185  1.2463  1.4144  1.1961
  108SAPE  H16S11150   1.034   2.804   5.241 -0.7838  0.7531  1.8606
  108SAPE  C21711151   0.856   2.672   5.278  0.2842  0.2366  0.9464
  108SAPE  H17R11152   0.906   2.573   5.288  2.1092  0.7301 -2.1667
  108SAPE  H17S11153   0.751   2.657   5.246  0.3743 -0.1040  0.8017
  108SAPE  C21811154   0.831   2.733   5.417 -0.0783  1.1065 -0.9235
  108SAPE  H18R11155   0.800   2.839   5.406  0.0089  0.9524 -3.0874
  108SAPE  H18S11156   0.927   2.738   5.472  0.3148  2.2296 -1.6811
  108SAPE  C21911157   0.723   2.654   5.496 -0.9884  0.5078  0.6739
  108SAPE  H19R11158   0.755   2.548   5.508  0.0844  0.4087 -2.1205
  108SAPE  H19S11159   0.640   2.651   5.422  0.6728  0.7104 -1.3177
  108SAPE  C22011160   0.690   2.726   5.623 -0.4075  0.0924  0.1846
  108SAPE  H20R11161   0.628   2.671   5.697 -2.8847  1.0776 -1.0703
  108SAPE  H20S11162   0.640   2.822   5.600  0.1516 -0.1416 -2.1816
  108SAPE  H20T11163   0.785   2.754   5.674 -0.6226 -0.3389  0.8445
  108SAPE   C3311164   1.763   3.154   4.612  0.4401 -0.5608 -0.2381
  108SAPE   H3X11165   1.752   3.053   4.657  1.4257 -0.8216 -0.5574
  108SAPE   H3Y11166   1.669   3.213   4.619  1.0072  0.5928 -1.8018
  108SAPE   C3411167   1.868   3.224   4.700  0.2924  0.1566  0.6544
  108SAPE   H4X11168   1.912   3.316   4.655  0.7683  0.9632  2.6496
  108SAPE   H4Y11169   1.952   3.152   4.710 -0.9341 -1.3018  0.8076
  108SAPE   C3511170   1.819   3.245   4.844  0.5693  0.3237 -1.2138
  108SAPE   H5X11171   1.876   3.326   4.894 -1.2497  0.8991  0.0503
  108SAPE   H5Y11172   1.716   3.285   4.834  0.5926  1.2201  1.3379
  108SAPE   C3611173   1.809   3.116   4.924 -0.0591 -0.0011  0.5082
  108SAPE   H6X11174   1.906   3.064   4.938  1.4381  2.9697  2.2912
  108SAPE   H6Y11175   1.758   3.041   4.859  0.3064 -1.2683  1.6328
  108SAPE   C3711176   1.735   3.140   5.053  0.1195  0.0472 -0.3441
  108SAPE   H7X11177   1.726   3.039   5.098  1.0582 -0.6546 -1.6490
  108SAPE   H7Y11178   1.633   3.176   5.028  0.7855  1.7020 -0.7849
  108SAPE   C3811179   1.807   3.224   5.156 -0.5756 -0.3401  0.2627
  108SAPE   H8X11180   1.840   3.325   5.122  0.2305 -0.3474  0.9916
  108SAPE   H8Y11181   1.896   3.163   5.184 -0.7603  0.3462  2.5409
  108SAPE   C3911182   1.724   3.226   5.285 -0.1101  0.3319  0.5262
  108SAPE   H9X11183   1.713   3.122   5.322  3.3317  0.0326  1.0589
  108SAPE   H9Y11184   1.620   3.263   5.275 -0.4987 -0.7220  0.5538
  108SAPE  C31011185   1.791   3.305   5.404  0.1935  0.8173 -0.0138
  108SAPE  H10X11186   1.816   3.405   5.364  0.0600  0.8262 -0.0738
  108SAPE  H10Y11187   1.879   3.250   5.444 -1.0706 -2.1343 -0.9472
  108SAPE  C31111188   1.690   3.329   5.513  0.0932 -0.1517  0.2959
  108SAPE  H11X11189   1.665   3.232   5.560  1.1637 -1.0708 -0.9601
  108SAPE  H11Y11190   1.596   3.374   5.475  0.0934 -0.0863  0.3710
  108SAPE  C31211191   1.738   3.428   5.617  0.1629 -0.8176 -0.3803
  108SAPE  H12X11192   1.648   3.465   5.670  0.2816  0.3780 -0.9772
  108SAPE  H12Y11193   1.787   3.517   5.570 -1.6311  1.2554  1.4669
  108SAPE  C31311194   1.815   3.353   5.726  0.3590 -0.1451  0.3045
  108SAPE  H13X11195   1.857   3.266   5.672  0.4979  0.5707 -0.7788
  108SAPE  H13Y11196   1.738   3.321   5.799 -0.6355  2.9636  0.7960
  108SAPE  C31411197   1.932   3.435   5.794 -0.1743 -0.0793 -0.5003
  108SAPE  H14X11198   2.015   3.462   5.725 -0.0206 -0.1116 -0.3288
  108SAPE  H14Y11199   1.975   3.369   5.871 -0.4841 -0.3828 -0.5863
  108SAPE  C31511200   1.882   3.568   5.863  0.1041  0.2457  0.2496
  108SAPE  H15X11201   1.817   3.521   5.940  0.7920  0.0405  0.7162
  108SAPE  H15Y11202   1.830   3.632   5.789  1.1159  1.2934  0.4172
  108SAPE  C31611203   1.977   3.657   5.938  0.1252  0.7634  1.0220
  108SAPE  H16X11204   2.049   3.712   5.873 -1.0899 -0.0645 -1.1555
  108SAPE  H16Y11205   2.032   3.600   6.015  0.7031  2.1645  1.6826
  108SAPE  C31711206   1.908   3.777   6.004 -0.0514  1.0290 -0.1666
  108SAPE  H17X11207   1.980   3.837   6.063 -0.5079  0.9371  0.4994
  108SAPE  H17Y11208   1.836   3.744   6.082 -0.5813  3.0129  0.2321
  108SAPE  C31811209   1.825   3.870   5.918  0.4839 -0.1171 -0.0322
  108SAPE  H18X11210   1.778   3.951   5.979  1.3707  1.1067 -0.9294
  108SAPE  H18Y11211   1.752   3.816   5.854  0.0219  0.2473  0.1732
  108SAPE  H18Z11212   1.898   3.926   5.856 -2.0135  0.7973 -2.3535
  109SAPE     N11213   2.869   2.622   3.157 -0.6249 -0.1139  0.3742
  109SAPE   HN111214   2.860   2.679   3.244  1.0574  1.6381 -0.5368
  109SAPE   HN211215   2.910   2.689   3.090 -0.2844  0.3728  1.0568
  109SAPE   HN311216   2.776   2.611   3.112 -1.1270  1.5371  0.9483
  109SAPE   C1211217   2.958   2.496   3.164  0.1360 -0.3202  0.0770
  109SAPE  H12A11218   3.013   2.480   3.069  1.0435  2.0457  0.1552
  109SAPE  H12B11219   2.885   2.411   3.171  2.3680 -3.3575 -6.0014
  109SAPE   C1111220   3.049   2.484   3.277 -1.0341 -0.2104  0.3968
  109SAPE  H11A11221   3.096   2.584   3.294  0.8650 -1.2481  1.6025
  109SAPE  H11B11222   3.131   2.412   3.259  0.4051  1.4576 -0.0954
  109SAPE     P11223   3.046   2.464   3.536  0.2906  0.2927 -0.1251
  109SAPE   O1311224   3.028   2.604   3.583  0.3600  0.0056  0.3116
  109SAPE   O1411225   2.993   2.352   3.621 -0.2326  0.1017 -0.0495
  109SAPE   O1211226   2.973   2.448   3.393 -0.1476  0.1147  0.2646
  109SAPE   O1111227   3.195   2.439   3.501  0.9359  0.3876 -0.2270
  109SAPE    C111228   3.254   2.306   3.485  0.6321 -0.2804 -0.4348
  109SAPE    HA11229   3.191   2.234   3.429  0.5549 -1.9475  1.6740
  109SAPE    HB11230   3.348   2.323   3.427 -0.1004  2.9154 -0.8914
  109SAPE    C211231   3.295   2.249   3.622 -0.3238  0.7690 -0.3565
  109SAPE    HS11232   3.194   2.225   3.662  1.0578 -1.0747  2.2916
  109SAPE   O2111233   3.364   2.347   3.697  0.6220 -0.3387  0.1940
  109SAPE   C2111234   3.334   2.337   3.824 -0.0936 -0.0204  0.2183
  109SAPE   O2211235   3.270   2.249   3.881  0.4022 -0.3244  0.2899
  109SAPE   C2211236   3.413   2.450   3.894 -0.0483  0.1901  0.2070
  109SAPE   H2R11237   3.522   2.434   3.883 -0.0576  0.5885 -0.5495
  109SAPE   H2S11238   3.380   2.541   3.839 -0.1116  0.0204 -0.0355
  109SAPE    C311239   3.370   2.112   3.606  0.0375 -0.4027  0.6462
  109SAPE    HX11240   3.475   2.135   3.579  0.0644  0.6066  1.5402
  109SAPE    HY11241   3.324   2.076   3.512  0.5295  3.4028 -1.2361
  109SAPE   O3111242   3.350   2.027   3.718  0.0077  0.1326 -0.2710
  109SAPE   C3111243   3.444   1.995   3.801  0.2698  0.1666 -0.3659
  109SAPE   O3211244   3.555   2.050   3.808  0.1299  0.4367  0.9551
  109SAPE   C3211245   3.398   1.883   3.893  0.0493 -0.1768  0.4818
  109SAPE   H2X11246   3.481   1.809   3.902  0.5106  0.3592  0.6524
  109SAPE   H2Y11247   3.309   1.825   3.859 -0.7476  1.2144  0.1065
  109SAPE   C2311248   3.374   2.466   4.046  0.1785 -0.4894  0.0947
  109SAPE   H3R11249   3.264   2.458   4.055  0.2715  0.0844  2.2048
  109SAPE   H3S11250   3.386   2.573   4.074  1.4950 -1.0085  1.6898
  109SAPE   C2411251   3.447   2.375   4.144  0.3683  0.9473 -0.3227
  109SAPE   H4R11252   3.553   2.366   4.112 -0.1198 -0.0735 -1.7918
  109SAPE   H4S11253   3.389   2.282   4.125 -2.8245  2.5173  0.9152
  109SAPE   C2511254   3.425   2.407   4.292 -0.4238 -0.2174  0.0634
  109SAPE   H5R11255   3.326   2.381   4.332 -2.0002  1.3308 -2.5550
  109SAPE   C2611256   3.514   2.472   4.371  0.0296 -0.9557  0.0026
  109SAPE   H6R11257   3.487   2.490   4.476  1.3816  0.6503  0.1016
  109SAPE   C2711258   3.642   2.530   4.328  0.4807  0.4127  0.8125
  109SAPE   H7R11259   3.648   2.518   4.218  3.5844 -2.4987  1.1402
  109SAPE   H7S11260   3.728   2.466   4.358  0.8000  0.6613  0.4489
  109SAPE   C2811261   3.650   2.675   4.359 -0.1751  0.3239 -0.4722
  109SAPE   H8R11262   3.581   2.741   4.305  0.1307  1.8705  0.9426
  109SAPE   C2911263   3.740   2.733   4.439  0.6803 -0.2817  0.3486
  109SAPE   H9R11264   3.745   2.843   4.446 -1.0465 -0.2162  0.8952
  109SAPE  C21011265   3.841   2.663   4.528 -0.2457 -0.3533 -0.1249
  109SAPE  H10R11266   3.811   2.565   4.571  1.5554 -0.4473  1.0297
  109SAPE  H10S11267   3.865   2.729   4.614  0.4829  1.0848 -1.3893
  109SAPE  C21111268   3.974   2.643   4.467 -0.3602  0.2569  0.2088
  109SAPE  H11R11269   3.976   2.627   4.358 -2.1054  1.7107 -0.0726
  109SAPE  C21211270   4.095   2.646   4.531 -0.5583 -0.2099  0.5057
  109SAPE  H12R11271   4.182   2.627   4.467 -0.2371 -0.4101  0.9951
  109SAPE  C21311272   4.131   2.680   4.674  0.3912 -0.1005  0.6302
  109SAPE  H13R11273   4.241   2.669   4.685  0.5218  1.2206  0.8636
  109SAPE  H13S11274   4.073   2.611   4.738 -0.7250 -0.2597 -0.5066
  109SAPE  C21411275   4.084   2.816   4.724  0.7491  1.0943 -0.7818
  109SAPE  H14R11276   4.029   2.876   4.651 -2.1891 -0.7882 -0.3001
  109SAPE  C21511277   4.109   2.862   4.851  0.2540  0.5958 -0.9352
  109SAPE  H15R11278   4.054   2.948   4.893  2.4966  0.2305  3.3562
  109SAPE  C21611279   4.173   2.779   4.969  0.9825  0.3379  0.4399
  109SAPE  H16R11280   4.192   2.673   4.940  1.9444  0.2640  1.2757
  109SAPE  H16S11281   4.098   2.776   5.051  0.2754  0.6338 -0.1813
  109SAPE  C21711282   4.306   2.850   5.012  0.0812 -0.1338 -0.2387
  109SAPE  H17R11283   4.281   2.951   5.050 -0.4035  0.2863 -1.6381
  109SAPE  H17S11284   4.366   2.871   4.920  1.1789 -0.2298  0.4379
  109SAPE  C21811285   4.397   2.777   5.111  0.4004 -0.2748  0.6608
  109SAPE  H18R11286   4.488   2.838   5.096  0.2521 -0.5949 -2.2407
  109SAPE  H18S11287   4.428   2.680   5.068 -0.1616  0.3368 -1.2494
  109SAPE  C21911288   4.360   2.763   5.254 -0.2173 -0.1262 -0.6088
  109SAPE  H19R11289   4.418   2.678   5.296  0.2574  0.4094 -0.1516
  109SAPE  H19S11290   4.265   2.707   5.251 -0.2947  0.0077 -0.6886
  109SAPE  C22011291   4.351   2.889   5.338  0.3527  0.0240  0.1868
  109SAPE  H20R11292   4.452   2.935   5.348  1.4138 -1.7082 -1.8378
  109SAPE  H20S11293   4.309   2.880   5.441  0.0830  0.5994  0.1295
  109SAPE  H20T11294   4.287   2.964   5.287  0.3746  0.4745  0.8088
  109SAPE   C3311295   3.374   1.939   4.034 -0.6914  0.6898  0.4770
  109SAPE   H3X11296   3.431   2.032   4.055 -1.4931  1.6499 -1.3952
  109SAPE   H3Y11297   3.400   1.860   4.108  2.4347  2.7156  1.7438
  109SAPE   C3411298   3.230   1.961   4.060  1.1568 -0.1456 -0.6730
  109SAPE   H4X11299   3.174   1.867   4.039  0.8421 -0.1224  0.0398
  109SAPE   H4Y11300   3.191   2.028   3.981  2.1918  0.4437 -0.7027
  109SAPE   C3511301   3.211   2.020   4.203 -0.5556  0.0487  0.0007
  109SAPE   H5X11302   3.235   2.128   4.205  0.0647 -0.0942  0.8015
  109SAPE   H5Y11303   3.277   1.970   4.277 -2.4778 -1.9924  0.4540
  109SAPE   C3611304   3.069   2.002   4.250 -0.2397  0.7304  0.1076
  109SAPE   H6X11305   3.039   1.895   4.251  2.0285  0.0393  0.8169
  109SAPE   H6Y11306   2.998   2.053   4.183 -1.8536 -1.8350 -0.2627
  109SAPE   C3711307   3.041   2.049   4.396 -0.7218  0.2596  0.5708
  109SAPE   H7X11308   3.085   2.151   4.398 -0.6698  0.2292  0.9867
  109SAPE   H7Y11309   3.078   1.989   4.482 -0.7216  2.0353  1.8803
  109SAPE   C3811310   2.887   2.047   4.411  0.5916  0.1528 -0.3814
  109SAPE   H8X11311   2.838   1.953   4.379  2.1261 -0.9954  0.4722
  109SAPE   H8Y11312   2.849   2.128   4.346 -2.5733 -0.3463  0.6767
  109SAPE   C3911313   2.838   2.090   4.549 -0.4417 -0.4311 -0.9603
  109SAPE   H9X11314   2.822   2.198   4.568 -0.4366 -0.4932 -0.5888
  109SAPE   H9Y11315   2.922   2.073   4.620 -0.9934 -0.1212 -0.2243
  109SAPE  C31011316   2.721   2.011   4.605 -0.6697 -0.5160  0.2526
  109SAPE  H10X11317   2.765   1.911   4.626 -0.4771 -0.4652  0.0877
  109SAPE  H10Y11318   2.635   2.012   4.534 -0.1642 -0.4054 -0.3660
  109SAPE  C31111319   2.659   2.077   4.732 -0.5042  0.6032  0.2850
  109SAPE  H11X11320   2.567   2.023   4.762 -0.1809 -0.0388  0.1481
  109SAPE  H11Y11321   2.640   2.186   4.725  1.0511  0.8093 -1.6410
  109SAPE  C31211322   2.746   2.059   4.859 -0.1561  0.0280 -0.4230
  109SAPE  H12X11323   2.847   2.105   4.859 -0.8628  1.6513  0.6582
  109SAPE  H12Y11324   2.772   1.953   4.878  3.3499  0.4700 -1.9942
  109SAPE  C31311325   2.679   2.121   4.979  0.2907  0.4011  0.6577
  109SAPE  H13X11326   2.708   2.070   5.073  0.1581  0.3221  0.6558
  109SAPE  H13Y11327   2.569   2.111   4.967  0.6033 -0.6785 -1.9382
  109SAPE  C31411328   2.724   2.270   4.996 -0.3388  0.2005  0.2295
  109SAPE  H14X11329   2.719   2.338   4.909 -0.2520  0.5818  0.5186
  109SAPE  H14Y11330   2.829   2.280   5.031 -0.7280 -0.9685  1.8755
  109SAPE  C31511331   2.639   2.350   5.099  0.2482  0.0500 -0.0358
  109SAPE  H15X11332   2.535   2.355   5.062  0.3657  1.4231 -0.2468
  109SAPE  H15Y11333   2.682   2.453   5.105  0.8174 -0.2392  1.1148
  109SAPE  C31611334   2.635   2.291   5.241 -0.0468  0.7171 -0.5495
  109SAPE  H16X11335   2.613   2.183   5.233 -0.9435  0.8697 -0.2768
  109SAPE  H16Y11336   2.543   2.331   5.288 -0.6131 -0.3891 -0.6850
  109SAPE  C31711337   2.756   2.325   5.322  0.6146 -0.2536  0.2756
  109SAPE  H17X11338   2.846   2.336   5.257  0.7413  0.9754  0.6416
  109SAPE  H17Y11339   2.772   2.243   5.397 -1.4802 -0.0835  0.9747
  109SAPE  C31811340   2.733   2.461   5.393 -1.4374  0.0931  0.2579
  109SAPE  H18X11341   2.829   2.492   5.440 -0.1524 -1.4569 -1.2259
  109SAPE  H18Y11342   2.650   2.447   5.466 -0.7773 -0.9018  0.8434
  109SAPE  H18Z11343   2.694   2.530   5.315  2.8471  3.5389  0.8109
  110SAPE     N11344   4.199   5.570   3.547 -0.5529  0.2279  0.2033
  110SAPE   HN111345   4.252   5.504   3.487  1.6461 -0.6198  2.8693
  110SAPE   HN211346   4.241   5.578   3.642  0.4520  0.1480 -0.2200
  110SAPE   HN311347   4.107   5.522   3.556 -1.5683  0.9303 -4.1797
  110SAPE   C1211348   4.193   5.707   3.493  0.8740 -0.3609 -0.0742
  110SAPE  H12A11349   4.122   5.765   3.556  2.2010  1.1441  0.0892
  110SAPE  H12B11350   4.142   5.709   3.394 -0.1449  4.0536  0.3279
  110SAPE   C1111351   4.333   5.772   3.482  0.2236  0.5143 -0.4085
  110SAPE  H11A11352   4.337   5.874   3.439  2.2890  1.3666  1.6105
  110SAPE  H11B11353   4.399   5.707   3.421  1.1774  1.2544 -0.1760
  110SAPE     P11354   4.549   5.794   3.618  0.0471  0.2151  0.6183
  110SAPE   O1311355   4.626   5.671   3.632  0.3289  0.2739  0.0193
  110SAPE   O1411356   4.604   5.877   3.506 -0.6460  0.0092  0.0494
  110SAPE   O1211357   4.393   5.772   3.609 -0.4756  0.0639 -0.7198
  110SAPE   O1111358   4.559   5.879   3.748 -0.1271  0.5120  0.4105
  110SAPE    C111359   4.547   5.831   3.877  0.0727 -0.2607 -0.7061
  110SAPE    HA11360   4.446   5.842   3.922  0.8949 -1.5717  1.6685
  110SAPE    HB11361   4.569   5.723   3.892  0.2441  0.0495  1.7195
  110SAPE    C211362   4.640   5.902   3.975  0.4284  0.0459  0.1762
  110SAPE    HS11363   4.741   5.866   3.944  0.5257  0.8732 -0.5280
  110SAPE   O2111364   4.600   5.865   4.106 -0.2605  0.0385 -0.0384
  110SAPE   C2111365   4.701   5.829   4.189 -0.4134  0.6889 -0.2368
  110SAPE   O2211366   4.823   5.827   4.165  0.7914 -0.2771 -0.1853
  110SAPE   C2211367   4.638   5.775   4.320 -0.1909 -0.3570 -0.5676
  110SAPE   H2R11368   4.647   5.869   4.379  0.4029 -0.1088 -1.0384
  110SAPE   H2S11369   4.533   5.742   4.302  0.6036 -2.0566 -2.5205
  110SAPE    C311370   4.634   6.054   3.961  0.5100 -0.9373  0.5199
  110SAPE    HX11371   4.656   6.074   3.854  0.0560 -0.0024  0.5941
  110SAPE    HY11372   4.530   6.085   3.984  0.9951  1.7890 -0.5786
  110SAPE   O3111373   4.725   6.135   4.045 -0.1347 -0.2046  0.5624
  110SAPE   C3111374   4.851   6.139   3.999 -0.3315  0.3124  0.1061
  110SAPE   O3211375   4.892   6.079   3.899  0.1630  0.2470  0.3897
  110SAPE   C3211376   4.941   6.223   4.089  0.7178 -0.2492  0.2090
  110SAPE   H2X11377   4.888   6.317   4.115 -1.8607 -1.4411 -0.3603
  110SAPE   H2Y11378   5.037   6.239   4.035  2.1944 -1.2069  2.4322
  110SAPE   C2311379   4.729   5.671   4.392 -0.1285 -0.1418  0.2164
  110SAPE   H3R11380   4.680   5.645   4.489  0.0127  1.4181  0.7341
  110SAPE   H3S11381   4.829   5.710   4.418  0.4374 -1.4350  0.0166
  110SAPE   C2411382   4.758   5.548   4.297 -0.0911 -0.0321  0.1586
  110SAPE   H4R11383   4.814   5.467   4.349  0.2778 -1.1083 -1.7861
  110SAPE   H4S11384   4.818   5.567   4.205  0.2430  1.2036  0.6150
  110SAPE   C2511385   4.623   5.476   4.264  0.6612 -0.5123  0.5202
  110SAPE   H5R11386   4.581   5.494   4.164  1.2829  1.0958  0.5180
  110SAPE   C2611387   4.547   5.395   4.348  0.1756  0.3770  0.0628
  110SAPE   H6R11388   4.454   5.354   4.307 -2.2983  3.6322  1.9336
  110SAPE   C2711389   4.569   5.351   4.493 -0.4469 -0.3596 -0.7542
  110SAPE   H7R11390   4.511   5.257   4.500 -2.7903  1.0325 -0.3065
  110SAPE   H7S11391   4.533   5.430   4.562  1.0800 -1.3141  1.2493
  110SAPE   C2811392   4.710   5.302   4.533  0.3987 -0.3648 -0.6987
  110SAPE   H8R11393   4.764   5.259   4.448  0.8369 -0.8458 -0.1804
  110SAPE   C2911394   4.782   5.336   4.647  0.1298  0.8353 -0.2375
  110SAPE   H9R11395   4.887   5.305   4.647 -0.9090 -3.4080  1.4696
  110SAPE  C21011396   4.746   5.408   4.771 -0.6164  0.2320 -0.2231
  110SAPE  H10R11397   4.737   5.337   4.856 -0.6057  0.6632  0.1400
  110SAPE  H10S11398   4.644   5.441   4.740 -0.3404  1.1455 -0.1576
  110SAPE  C21111399   4.841   5.522   4.806 -0.1336 -0.1718  0.2570
  110SAPE  H11R11400   4.803   5.618   4.768 -3.0930 -0.1223  2.9352
  110SAPE  C21211401   4.938   5.512   4.901  0.3549  0.2845  0.4333
  110SAPE  H12R11402   5.003   5.600   4.916  2.7887 -1.2507 -0.3466
  110SAPE  C21311403   4.991   5.393   4.982  0.5636 -0.0530  0.3434
  110SAPE  H13R11404   5.083   5.428   5.035  1.8306 -0.7243 -1.3235
  110SAPE  H13S11405   5.021   5.312   4.912  0.0602  1.3112 -1.5552
  110SAPE  C21411406   4.896   5.332   5.076 -0.0745 -0.3882  0.4894
  110SAPE  H14R11407   4.841   5.243   5.043 -1.7647 -0.0629  2.2894
  110SAPE  C21511408   4.875   5.376   5.201 -1.0526  0.7835  0.0718
  110SAPE  H15R11409   4.812   5.315   5.268  3.1622 -4.8726 -0.3389
  110SAPE  C21611410   4.944   5.491   5.270 -0.9143 -0.0398 -0.0184
  110SAPE  H16R11411   4.996   5.562   5.202 -1.1511  0.1277 -0.0229
  110SAPE  H16S11412   5.025   5.441   5.327 -0.1365  3.0913  1.8597
  110SAPE  C21711413   4.839   5.557   5.362  0.3187 -0.3850  0.0743
  110SAPE  H17R11414   4.791   5.475   5.419  0.7876 -0.8121 -0.1403
  110SAPE  H17S11415   4.773   5.612   5.291  1.4739  0.2418 -0.5528
  110SAPE  C21811416   4.894   5.657   5.455  0.6851  0.2195 -0.1507
  110SAPE  H18R11417   4.810   5.706   5.509  0.0187 -3.0152  1.9998
  110SAPE  H18S11418   4.947   5.732   5.393  1.9654  0.2630  0.9535
  110SAPE  C21911419   4.996   5.595   5.548 -1.0901  0.2483 -0.0542
  110SAPE  H19R11420   5.092   5.581   5.493 -0.6153 -2.2667  1.2977
  110SAPE  H19S11421   4.948   5.506   5.593 -0.4580 -0.2761 -0.4003
  110SAPE  C22011422   5.027   5.696   5.657  0.5442  0.0369  0.6343
  110SAPE  H20R11423   5.090   5.778   5.617  0.7883 -1.3893 -2.1812
  110SAPE  H20S11424   5.076   5.647   5.744  1.7917  0.4687  0.2003
  110SAPE  H20T11425   4.935   5.749   5.690  1.6311  2.0574  0.5604
  110SAPE   C3311426   4.984   6.148   4.216 -0.3945 -0.5491 -1.4569
  110SAPE   H3X11427   5.061   6.211   4.266 -0.4562 -1.1459 -0.5925
  110SAPE   H3Y11428   5.031   6.049   4.199  2.8446  0.8726 -1.5306
  110SAPE   C3411429   4.877   6.148   4.331  0.4158 -0.4683 -0.1437
  110SAPE   H4X11430   4.786   6.105   4.285 -1.6375  0.9230  2.3418
  110SAPE   H4Y11431   4.840   6.248   4.363 -0.7967 -0.3872 -1.6623
  110SAPE   C3511432   4.937   6.084   4.458  0.0012 -0.4327 -0.9796
  110SAPE   H5X11433   5.026   6.147   4.482 -0.6534 -0.4789  2.0420
  110SAPE   H5Y11434   4.962   5.976   4.453 -1.2607 -0.8062  0.2095
  110SAPE   C3611435   4.841   6.088   4.581 -0.1137 -0.3195  0.0425
  110SAPE   H6X11436   4.755   6.023   4.554 -0.4170 -0.9971  2.3927
  110SAPE   H6Y11437   4.801   6.191   4.587 -0.9501 -0.6174 -0.2438
  110SAPE   C3711438   4.908   6.030   4.702 -0.3755 -0.0772  0.6046
  110SAPE   H7X11439   5.004   6.083   4.719 -1.6049  1.5051  3.2161
  110SAPE   H7Y11440   4.922   5.922   4.681 -0.0925  0.1888 -0.6852
  110SAPE   C3811441   4.823   6.069   4.830 -0.0356  0.4798  0.4857
  110SAPE   H8X11442   4.717   6.042   4.811  0.6815 -2.3162  0.0097
  110SAPE   H8Y11443   4.823   6.179   4.846 -1.6467  0.4920  0.4986
  110SAPE   C3911444   4.870   5.991   4.947  0.8174  0.7559  0.1386
  110SAPE   H9X11445   4.980   5.994   4.962  0.6410 -1.4207  2.6513
  110SAPE   H9Y11446   4.850   5.888   4.910  3.1929  0.1329  0.4293
  110SAPE  C31011447   4.809   6.024   5.081 -0.1041 -0.2842  0.0630
  110SAPE  H10X11448   4.698   6.028   5.072 -0.1604  3.9368  0.6096
  110SAPE  H10Y11449   4.839   6.130   5.096 -0.8628 -0.2125  1.1985
  110SAPE  C31111450   4.849   5.924   5.184  0.0559  0.1512 -0.4688
  110SAPE  H11X11451   4.952   5.883   5.189  0.0264 -0.3941 -2.9664
  110SAPE  H11Y11452   4.806   5.833   5.138  1.6460  0.0743 -1.9394
  110SAPE  C31211453   4.779   5.952   5.317 -0.0107 -0.4146  0.0561
  110SAPE  H12X11454   4.750   5.857   5.366 -0.7012  0.1756  0.8199
  110SAPE  H12Y11455   4.680   5.995   5.291  0.0606  0.7904  1.6096
  110SAPE  C31311456   4.856   6.038   5.413 -0.5291  0.7136  0.1992
  110SAPE  H13X11457   4.874   6.135   5.362 -1.9439  0.6336 -0.4978
  110SAPE  H13Y11458   4.953   5.988   5.433 -0.4378  0.5231 -0.6775
  110SAPE  C31411459   4.777   6.035   5.551 -0.2414  0.4232 -0.1328
  110SAPE  H14X11460   4.780   5.934   5.598  0.9461  0.6452  0.3062
  110SAPE  H14Y11461   4.671   6.057   5.528 -0.4551 -0.7426 -0.3505
  110SAPE  C31511462   4.821   6.147   5.650  0.2329 -0.0267 -0.5157
  110SAPE  H15X11463   4.836   6.246   5.603  2.1371  0.6063  1.2411
  110SAPE  H15Y11464   4.922   6.114   5.685  0.8902  0.1041 -2.2253
  110SAPE  C31611465   4.721   6.160   5.773 -0.3748  0.4485 -0.1587
  110SAPE  H16X11466   4.776   6.175   5.868  0.8240  0.1895 -0.7920
  110SAPE  H16Y11467   4.682   6.058   5.789  1.1431  0.1604  1.9227
  110SAPE  C31711468   4.608   6.261   5.769  0.1586  0.5161  0.0780
  110SAPE  H17X11469   4.563   6.239   5.670  0.5556 -0.1173  0.0273
  110SAPE  H17Y11470   4.651   6.363   5.774  1.2762  0.0681 -0.1437
  110SAPE  C31811471   4.518   6.243   5.893 -0.0635  0.1186 -0.4353
  110SAPE  H18X11472   4.448   6.328   5.912 -0.1993 -0.4473  1.8221
  110SAPE  H18Y11473   4.568   6.255   5.991  0.1716  0.6245 -0.6078
  110SAPE  H18Z11474   4.459   6.150   5.888 -1.1336  0.8149 -1.1397
  111SAPE     N11475   3.217   5.559   3.516  0.2628 -0.2522  0.3771
  111SAPE   HN111476   3.170   5.490   3.455  0.4498  1.5701 -1.9940
  111SAPE   HN211477   3.154   5.641   3.510  2.2260  1.2889 -0.4240
  111SAPE   HN311478   3.303   5.591   3.468  1.1843  0.2836  2.2687
  111SAPE   C1211479   3.251   5.526   3.660  1.0918 -0.2461 -0.2777
  111SAPE  H12A11480   3.325   5.443   3.663  0.5134 -0.7667  0.0662
  111SAPE  H12B11481   3.160   5.502   3.720  1.1868  0.1763  0.0385
  111SAPE   C1111482   3.319   5.647   3.728 -0.1603 -0.1166  0.3167
  111SAPE  H11A11483   3.365   5.618   3.825  0.9970 -0.6372 -0.3690
  111SAPE  H11B11484   3.234   5.716   3.747 -0.7818 -1.0893  1.1853
  111SAPE     P11485   3.487   5.842   3.678 -0.0008  0.3991 -0.2601
  111SAPE   O1311486   3.598   5.858   3.581  0.5448  0.8386  0.6625
  111SAPE   O1411487   3.384   5.952   3.677 -0.1711  0.0155  0.9089
  111SAPE   O1211488   3.417   5.700   3.643 -0.2773  0.4931  0.3092
  111SAPE   O1111489   3.548   5.826   3.824 -0.3956  0.5285 -0.1106
  111SAPE    C111490   3.615   5.706   3.867 -0.3387 -0.2755 -0.1310
  111SAPE    HA11491   3.550   5.640   3.929  1.3492 -1.5145  0.4059
  111SAPE    HB11492   3.652   5.646   3.781 -2.4256  0.4958 -1.6561
  111SAPE    C211493   3.737   5.735   3.955 -0.8134  0.2901 -0.0558
  111SAPE    HS11494   3.793   5.639   3.966  0.9356  1.3680  0.8543
  111SAPE   O2111495   3.693   5.787   4.085 -0.5122 -0.3505 -0.3138
  111SAPE   C2111496   3.755   5.736   4.188 -0.7958 -0.1524  1.1395
  111SAPE   O2211497   3.842   5.651   4.184 -0.0208  0.0260  1.1295
  111SAPE   C2211498   3.672   5.780   4.306 -0.0159  0.2949 -0.2710
  111SAPE   H2R11499   3.717   5.870   4.353  1.0737 -0.5962  0.4635
  111SAPE   H2S11500   3.566   5.803   4.285 -0.4534 -0.8758  0.5334
  111SAPE    C311501   3.828   5.841   3.893  0.0021 -0.0687  0.7005
  111SAPE    HX11502   3.762   5.928   3.872 -1.0399 -1.3078 -1.4314
  111SAPE    HY11503   3.865   5.802   3.796 -1.2198 -3.1352  1.3482
  111SAPE   O3111504   3.934   5.875   3.984 -0.2813  0.8195 -0.4541
  111SAPE   C3111505   4.031   5.789   4.004  0.1204 -0.7117  1.0505
  111SAPE   O3211506   4.046   5.682   3.939 -0.1968  0.4949 -0.0694
  111SAPE   C3211507   4.129   5.830   4.113 -0.3601 -0.5410 -0.1870
  111SAPE   H2X11508   4.124   5.940   4.129  2.1915 -0.4746  0.7456
  111SAPE   H2Y11509   4.231   5.809   4.075  0.2152 -0.2751  1.1216
  111SAPE   C2311510   3.681   5.660   4.412  0.2942  0.1339 -0.0374
  111SAPE   H3R11511   3.694   5.561   4.363 -0.4946  0.3433 -0.6942
  111SAPE   H3S11512   3.585   5.642   4.465  1.1076 -1.3114  1.0190
  111SAPE   C2411513   3.799   5.683   4.515 -0.8157  0.0204 -0.1323
  111SAPE   H4R11514   3.769   5.759   4.590 -0.9389  0.4025 -0.5662
  111SAPE   H4S11515   3.883   5.731   4.459 -1.2355 -0.1481 -0.9188
  111SAPE   C2511516   3.854   5.554   4.565  0.0142  0.1141  0.0837
  111SAPE   H5R11517   3.876   5.478   4.489  0.6800  0.1023  0.2815
  111SAPE   C2611518   3.879   5.524   4.695 -0.3720 -0.5524  0.1146
  111SAPE   H6R11519   3.907   5.421   4.724 -1.2538 -0.4961  1.2190
  111SAPE   C2711520   3.857   5.620   4.807  0.1334 -0.0979 -0.5609
  111SAPE   H7R11521   3.760   5.590   4.852 -0.0262  0.2816 -0.6383
  111SAPE   H7S11522   3.846   5.724   4.768 -2.8379 -0.3588 -0.6758
  111SAPE   C2811523   3.969   5.609   4.907 -0.5459 -0.3476  0.4749
  111SAPE   H8R11524   4.027   5.515   4.914 -1.2919 -0.9360 -0.7797
  111SAPE   C2911525   4.019   5.708   4.978  0.2101  0.1649 -0.1299
  111SAPE   H9R11526   4.100   5.687   5.050 -1.9923 -0.6322  2.2728
  111SAPE  C21011527   3.971   5.844   4.975 -0.6819  0.2387  0.3711
  111SAPE  H10R11528   3.860   5.849   4.967 -0.8051 -0.1643  1.5552
  111SAPE  H10S11529   4.019   5.898   4.890  1.4780  0.5135  1.7048
  111SAPE  C21111530   3.987   5.940   5.094 -0.4929 -0.5843 -0.6517
  111SAPE  H11R11531   4.032   6.037   5.071 -1.6298  0.4575  1.2166
  111SAPE  C21211532   3.965   5.921   5.226 -0.7688  1.1113  0.4730
  111SAPE  H12R11533   3.990   6.005   5.293 -0.4670  1.0889  0.3913
  111SAPE  C21311534   3.933   5.787   5.291 -0.7342 -0.1053 -0.2777
  111SAPE  H13R11535   3.983   5.780   5.390 -2.0553  0.5887  0.4659
  111SAPE  H13S11536   3.974   5.701   5.233 -1.9766 -0.1701 -1.1157
  111SAPE  C21411537   3.782   5.758   5.309 -0.8083 -0.0812 -0.5445
  111SAPE  H14R11538   3.722   5.775   5.218 -0.4072  1.8776 -0.5066
  111SAPE  C21511539   3.714   5.735   5.425  0.2395 -0.5014  0.7768
  111SAPE  H15R11540   3.604   5.726   5.430  0.1015  1.1831  3.7762
  111SAPE  C21611541   3.768   5.723   5.571  0.2722 -0.2371  0.4547
  111SAPE  H16R11542   3.733   5.813   5.627 -0.0474  0.1595 -0.3721
  111SAPE  H16S11543   3.878   5.738   5.575  0.2196  0.4478 -0.4519
  111SAPE  C21711544   3.706   5.605   5.647  0.0086  0.3596  0.2395
  111SAPE  H17R11545   3.599   5.595   5.618 -0.1469  2.6857 -0.1950
  111SAPE  H17S11546   3.710   5.636   5.753 -1.1254  3.1765 -0.4618
  111SAPE  C21811547   3.781   5.467   5.624 -0.5866 -0.2218  0.2680
  111SAPE  H18R11548   3.776   5.448   5.515 -1.0135 -1.4509  0.4895
  111SAPE  H18S11549   3.734   5.374   5.660  0.8112 -1.2726 -0.5291
  111SAPE  C21911550   3.931   5.471   5.672  0.2400 -0.0564 -0.2599
  111SAPE  H19R11551   3.977   5.545   5.604  1.9747  0.9821  1.8989
  111SAPE  H19S11552   3.972   5.369   5.663  2.1938  0.6935 -0.4323
  111SAPE  C22011553   3.953   5.519   5.818 -0.3409  0.8461  0.1209
  111SAPE  H20R11554   3.916   5.622   5.833  1.5963  1.5722  0.2293
  111SAPE  H20S11555   4.054   5.536   5.862 -1.7801  5.3112  2.1927
  111SAPE  H20T11556   3.900   5.459   5.895  1.9983  0.7930  1.8062
  111SAPE   C3311557   4.124   5.761   4.257 -0.1168 -0.1458  0.1842
  111SAPE   H3X11558   4.091   5.656   4.251 -0.5392  0.0567 -2.6937
  111SAPE   H3Y11559   4.046   5.820   4.309 -1.9992 -1.0206 -1.5116
  111SAPE   C3411560   4.260   5.752   4.333 -0.7619 -0.7246  0.2574
  111SAPE   H4X11561   4.305   5.853   4.322 -1.5275 -0.4873 -0.8907
  111SAPE   H4Y11562   4.337   5.684   4.291  2.0233  0.8823  2.3986
  111SAPE   C3511563   4.242   5.730   4.481 -0.1856  0.0102 -0.2044
  111SAPE   H5X11564   4.184   5.641   4.514 -0.2662  0.4203  0.7910
  111SAPE   H5Y11565   4.188   5.820   4.519  0.4724  0.6109 -0.6692
  111SAPE   C3611566   4.376   5.727   4.551  0.1973  0.1279  0.2107
  111SAPE   H6X11567   4.421   5.828   4.553 -1.1770  0.7469  1.4883
  111SAPE   H6Y11568   4.443   5.662   4.491 -0.2132 -1.2476  1.2079
  111SAPE   C3711569   4.376   5.680   4.695 -0.2551 -0.0890 -0.1740
  111SAPE   H7X11570   4.359   5.570   4.693  0.3912 -0.2178  0.9369
  111SAPE   H7Y11571   4.287   5.718   4.751 -0.6997  0.1485 -1.0256
  111SAPE   C3811572   4.507   5.712   4.770 -0.7115  0.2629 -0.3740
  111SAPE   H8X11573   4.522   5.822   4.773 -2.2071  0.4681  0.3247
  111SAPE   H8Y11574   4.594   5.671   4.714 -0.9301  0.7916 -1.1265
  111SAPE   C3911575   4.517   5.657   4.913 -0.6497  0.2125 -0.3161
  111SAPE   H9X11576   4.623   5.632   4.933 -0.4227  0.5031 -1.0889
  111SAPE   H9Y11577   4.459   5.562   4.913 -1.2104  0.5485 -0.6717
  111SAPE  C31011578   4.478   5.761   5.020  0.5277 -0.0497 -0.4843
  111SAPE  H10X11579   4.388   5.820   4.993  1.0586  0.1396 -1.9283
  111SAPE  H10Y11580   4.557   5.838   5.017 -0.3473  1.0289  1.8829
  111SAPE  C31111581   4.470   5.700   5.155  1.0859 -0.0448  0.7598
  111SAPE  H11X11582   4.566   5.650   5.181  1.3025  1.3024  2.7637
  111SAPE  H11Y11583   4.392   5.623   5.172  0.7147  0.1254 -0.0987
  111SAPE  C31211584   4.442   5.807   5.261  0.0794  0.0052 -0.6093
  111SAPE  H12X11585   4.348   5.852   5.223  0.6687 -0.8681 -3.2587
  111SAPE  H12Y11586   4.516   5.888   5.250  1.7217 -1.2634  0.5999
  111SAPE  C31311587   4.442   5.754   5.402  0.0577  0.4378 -0.0600
  111SAPE  H13X11588   4.542   5.705   5.411 -1.5472 -3.0823  0.3827
  111SAPE  H13Y11589   4.369   5.675   5.429  1.5481 -0.5629  1.2212
  111SAPE  C31411590   4.446   5.866   5.503 -0.2224  0.3410  0.0205
  111SAPE  H14X11591   4.356   5.931   5.492 -0.9263 -0.5060  0.7013
  111SAPE  H14Y11592   4.530   5.931   5.468  0.1346 -0.4803 -0.6871
  111SAPE  C31511593   4.464   5.843   5.658  0.0423 -1.3562 -0.2216
  111SAPE  H15X11594   4.472   5.946   5.699  0.0858  0.6006 -4.5560
  111SAPE  H15Y11595   4.567   5.804   5.669  0.7250  0.5312  0.4923
  111SAPE  C31611596   4.342   5.767   5.710 -0.9595 -0.6386 -0.4422
  111SAPE  H16X11597   4.357   5.744   5.818  0.0908 -1.5289 -0.7637
  111SAPE  H16Y11598   4.339   5.674   5.650 -1.7671  1.4686 -3.9454
  111SAPE  C31711599   4.204   5.842   5.696 -0.1423  0.4007  1.3052
  111SAPE  H17X11600   4.121   5.785   5.744 -1.6065  0.9615 -0.4289
  111SAPE  H17Y11601   4.182   5.854   5.588  1.0155  0.1154  1.0286
  111SAPE  C31811602   4.195   5.984   5.749  0.4602 -0.9871 -0.4513
  111SAPE  H18X11603   4.094   6.026   5.730  0.2640  1.7729  4.8725
  111SAPE  H18Y11604   4.274   6.050   5.708 -1.0860  0.7299 -0.8255
  111SAPE  H18Z11605   4.203   5.989   5.860  1.1038  2.3094 -0.5374
  112SAPE     N11606   0.629   0.005   3.883  0.3075  0.4192  0.3271
  112SAPE   HN111607   0.681  -0.072   3.930 -0.4778  0.8739  2.0208
  112SAPE   HN211608   0.609   0.071   3.961 -0.0692 -1.9668  2.3562
  112SAPE   HN311609   0.541  -0.037   3.846 -0.0198  0.2054  1.3315
  112SAPE   C1211610   0.712   0.078   3.779 -0.1983 -0.1143 -0.0851
  112SAPE  H12A11611   0.659   0.174   3.765 -1.8180 -0.6007  2.1400
  112SAPE  H12B11612   0.715   0.016   3.686 -0.4750  1.4708 -1.1998
  112SAPE   C1111613   0.852   0.092   3.843 -0.5112 -0.1209 -0.0337
  112SAPE  H11A11614   0.843   0.098   3.954 -1.2593 -4.2396  0.2682
  112SAPE  H11B11615   0.883   0.196   3.818 -0.6432  0.1005  0.6969
  112SAPE     P11616   0.948  -0.152   3.852 -0.5227 -0.1264  0.2839
  112SAPE   O1311617   0.817  -0.182   3.913  0.1583 -0.2119 -0.2155
  112SAPE   O1411618   1.004  -0.241   3.752  0.1062  0.5041 -0.5398
  112SAPE   O1211619   0.944  -0.001   3.800  0.5078  0.2936  0.7300
  112SAPE   O1111620   1.064  -0.123   3.957 -0.2556  0.5250  0.5235
  112SAPE    C111621   1.161  -0.223   3.981 -0.4460  0.1990 -0.1620
  112SAPE    HA11622   1.123  -0.326   3.999  1.5012 -0.7761 -1.2880
  112SAPE    HB11623   1.235  -0.219   3.899 -0.4141  2.3091 -0.0917
  112SAPE    C211624   1.239  -0.208   4.122 -0.0168 -0.5093 -0.4666
  112SAPE    HS11625   1.287  -0.308   4.130  0.3108 -0.3516 -0.4452
  112SAPE   O2111626   1.152  -0.173   4.233  0.2763 -0.5604  0.1338
  112SAPE   C2111627   1.071  -0.269   4.278 -0.2129  0.1752  0.7300
  112SAPE   O2211628   1.090  -0.389   4.257  0.6395 -0.3570  0.4157
  112SAPE   C2211629   0.951  -0.217   4.358 -0.3355  0.0009 -0.8569
  112SAPE   H2R11630   0.954  -0.106   4.362  1.8173 -0.0393  0.5629
  112SAPE   H2S11631   0.856  -0.244   4.308 -0.2982 -3.1572  0.5159
  112SAPE    C311632   1.350  -0.109   4.117  0.3515  0.8308  0.7498
  112SAPE    HX11633   1.312  -0.009   4.084  0.3612  0.3942 -0.6745
  112SAPE    HY11634   1.419  -0.142   4.036 -0.6949 -0.1384  0.2147
  112SAPE   O3111635   1.427  -0.103   4.239 -0.2079  0.4906  0.7250
  112SAPE   C3111636   1.388  -0.007   4.326  0.7758 -0.2687 -0.0930
  112SAPE   O3211637   1.300   0.077   4.295 -0.3736 -0.5240  0.2794
  112SAPE   C3211638   1.464  -0.013   4.454 -0.0465  0.3906 -0.2028
  112SAPE   H2X11639   1.574  -0.019   4.440 -0.3721 -2.1030 -2.3230
  112SAPE   H2Y11640   1.426  -0.100   4.513  2.3663 -1.5269 -1.3087
  112SAPE   C2311641   0.958  -0.279   4.497  0.1734  0.4375  0.2611
  112SAPE   H3R11642   0.976  -0.388   4.484 -1.2448  0.3718 -1.4551
  112SAPE   H3S11643   0.859  -0.267   4.547  0.2053  1.1805  0.1529
  112SAPE   C2411644   1.056  -0.217   4.588 -0.3536 -0.4514 -0.6444
  112SAPE   H4R11645   1.008  -0.133   4.642  0.4964 -1.1768  1.3422
  112SAPE   H4S11646   1.140  -0.171   4.531 -0.2306 -0.0434 -0.1384
  112SAPE   C2511647   1.121  -0.310   4.691 -0.0053  0.7287 -0.9443
  112SAPE   H5R11648   1.202  -0.370   4.647  1.0282 -0.9404  2.7750
  112SAPE   C2611649   1.091  -0.323   4.825 -0.4721  0.6845  0.5319
  112SAPE   H6R11650   1.143  -0.401   4.883 -0.0226  1.7729  1.6465
  112SAPE   C2711651   0.976  -0.259   4.896 -0.1990 -0.3572  0.1616
  112SAPE   H7R11652   0.886  -0.245   4.833 -0.2525 -2.0144 -0.1800
  112SAPE   H7S11653   1.005  -0.155   4.923 -0.6299  0.1477 -1.2429
  112SAPE   C2811654   0.938  -0.337   5.022 -0.2595 -0.7039 -0.6655
  112SAPE   H8R11655   0.840  -0.386   5.009 -2.5312  3.2197  0.1155
  112SAPE   C2911656   0.999  -0.334   5.145  0.4731  0.1736 -0.3995
  112SAPE   H9R11657   0.962  -0.397   5.227  4.6210 -1.3479  0.5230
  112SAPE  C21011658   1.126  -0.269   5.188  0.3254  0.2894  0.2798
  112SAPE  H10R11659   1.118  -0.161   5.214  2.4145  0.8902 -1.2808
  112SAPE  H10S11660   1.198  -0.274   5.104 -1.2596 -0.5474 -1.0961
  112SAPE  C21111661   1.193  -0.355   5.305 -0.5361 -0.7135 -0.3257
  112SAPE  H11R11662   1.268  -0.422   5.260 -0.3488  0.0683 -1.2113
  112SAPE  C21211663   1.171  -0.357   5.442  0.0497 -0.0515  0.8002
  112SAPE  H12R11664   1.237  -0.419   5.505  0.8215  0.4516  0.4948
  112SAPE  C21311665   1.062  -0.285   5.516  0.1087  0.0279 -0.1469
  112SAPE  H13R11666   1.009  -0.364   5.573  1.3191 -1.2779 -0.7670
  112SAPE  H13S11667   0.985  -0.238   5.450  2.2142 -0.2285 -2.9862
  112SAPE  C21411668   1.119  -0.166   5.587  0.1468 -0.2954 -0.7039
  112SAPE  H14R11669   1.179  -0.092   5.532  1.0627 -0.5292 -0.0454
  112SAPE  C21511670   1.094  -0.137   5.719 -0.0725  0.1666  0.0632
  112SAPE  H15R11671   1.152  -0.057   5.768 -0.5579  0.2424  0.5228
  112SAPE  C21611672   1.013  -0.228   5.810  0.0314  0.0452  0.4108
  112SAPE  H16R11673   1.074  -0.244   5.902  1.4559  2.3689 -0.0481
  112SAPE  H16S11674   0.999  -0.329   5.767 -0.6427 -0.3123  1.4308
  112SAPE  C21711675   0.874  -0.175   5.852  0.7425 -0.4583  0.0096
  112SAPE  H17R11676   0.820  -0.146   5.759 -0.0531  0.1640  0.6556
  112SAPE  H17S11677   0.881  -0.084   5.915  1.2568  0.3701 -1.2128
  112SAPE  C21811678   0.797  -0.284   5.933  0.8042  0.9265 -0.5991
  112SAPE  H18R11679   0.857  -0.326   6.017 -0.9495  1.3654  0.9329
  112SAPE  H18S11680   0.766  -0.363   5.861  1.8745  2.2534 -2.6108
  112SAPE  C21911681   0.675  -0.221   5.999 -0.0905 -0.9839 -0.2281
  112SAPE  H19R11682   0.622  -0.155   5.926  1.3019  0.2967 -0.1372
  112SAPE  H19S11683   0.717  -0.138   6.061 -0.3055  0.1374 -1.5229
  112SAPE  C22011684   0.589  -0.315   6.070  0.8677  0.3962  0.3062
  112SAPE  H20R11685   0.545  -0.386   5.997 -1.4573  1.1785  0.8626
  112SAPE  H20S11686   0.507  -0.274   6.133  1.1750  0.6457  0.5463
  112SAPE  H20T11687   0.665  -0.370   6.129  1.7734 -0.4044 -1.5428
  112SAPE   C3311688   1.436   0.117   4.533  0.4340 -0.5622  0.8507
  112SAPE   H3X11689   1.333   0.155   4.515  1.8144  3.1250 -0.3063
  112SAPE   H3Y11690   1.491   0.200   4.484 -2.7138  0.2313 -1.7254
  112SAPE   C3411691   1.450   0.101   4.683 -0.0045  1.5197  0.2857
  112SAPE   H4X11692   1.458   0.200   4.732  1.0427  0.8896  1.4666
  112SAPE   H4Y11693   1.547   0.055   4.710  0.1541  0.3438 -2.0498
  112SAPE   C3511694   1.335   0.032   4.763 -0.0288 -0.6595  0.5286
  112SAPE   H5X11695   1.331  -0.078   4.753  1.1682 -0.9616  2.7581
  112SAPE   H5Y11696   1.233   0.067   4.737  0.2439 -0.2189  0.0154
  112SAPE   C3611697   1.354   0.066   4.911 -0.2955  0.1204  0.6009
  112SAPE   H6X11698   1.262   0.023   4.956 -0.6050 -0.1972 -0.3155
  112SAPE   H6Y11699   1.365   0.176   4.924  1.9640  0.0254  0.0542
  112SAPE   C3711700   1.470  -0.014   4.982 -0.5865  0.3404  0.7672
  112SAPE   H7X11701   1.565   0.008   4.930  0.2173 -1.1171  1.5648
  112SAPE   H7Y11702   1.469  -0.124   4.996  1.6200  0.1685 -0.0732
  112SAPE   C3811703   1.467   0.024   5.122  0.1388 -0.4958 -0.0204
  112SAPE   H8X11704   1.370  -0.003   5.170 -0.2723  2.1279  0.7888
  112SAPE   H8Y11705   1.472   0.135   5.130 -1.0496 -0.5569  2.5482
  112SAPE   C3911706   1.581  -0.034   5.209 -0.0113 -1.1791 -0.2630
  112SAPE   H9X11707   1.678   0.007   5.173  1.1593 -1.0794  2.7638
  112SAPE   H9Y11708   1.582  -0.145   5.209 -0.4174 -1.2111  1.6001
  112SAPE  C31011709   1.570   0.004   5.359  0.0057 -0.5583  0.5934
  112SAPE  H10X11710   1.579   0.114   5.366 -0.4425 -0.1573 -2.9610
  112SAPE  H10Y11711   1.661  -0.032   5.412  0.0315  0.2712  1.1123
  112SAPE  C31111712   1.450  -0.043   5.436  0.0698  0.2242  0.3082
  112SAPE  H11X11713   1.425  -0.144   5.396  0.4345  0.3240 -0.1756
  112SAPE  H11Y11714   1.368   0.023   5.401  1.0098 -0.0233 -2.6795
  112SAPE  C31211715   1.459  -0.052   5.590 -0.3787 -0.0776 -0.4976
  112SAPE  H12X11716   1.561  -0.083   5.619 -0.3523 -0.6273 -1.1468
  112SAPE  H12Y11717   1.389  -0.134   5.616  0.6123 -0.5136  0.8739
  112SAPE  C31311718   1.437   0.082   5.661  0.0221 -0.2806 -0.4305
  112SAPE  H13X11719   1.331   0.115   5.666  0.1674  0.1150  0.2295
  112SAPE  H13Y11720   1.500   0.159   5.613  0.1311 -0.2869 -0.3006
  112SAPE  C31411721   1.499   0.079   5.806 -0.3333  0.8098  0.1948
  112SAPE  H14X11722   1.511   0.182   5.847  0.8093  1.8317 -2.4996
  112SAPE  H14Y11723   1.603   0.041   5.802 -0.3095  0.4066  2.8102
  112SAPE  C31511724   1.428  -0.024   5.896  0.1617  0.2953 -0.1024
  112SAPE  H15X11725   1.423  -0.124   5.848 -0.4853  0.2632  0.0248
  112SAPE  H15Y11726   1.324   0.015   5.908  0.7781  3.2198 -2.9103
  112SAPE  C31611727   1.499  -0.028   6.035  0.3117  0.4477 -0.1467
  112SAPE  H16X11728   1.505   0.076   6.073 -0.3862  1.5675 -2.8229
  112SAPE  H16Y11729   1.603  -0.066   6.027  0.6810  1.7164 -2.5631
  112SAPE  C31711730   1.417  -0.115   6.134  0.3205  0.3054  0.1157
  112SAPE  H17X11731   1.312  -0.079   6.141  1.1421  2.5625  2.6798
  112SAPE  H17Y11732   1.459  -0.100   6.235 -1.1050  1.4522  0.5765
  112SAPE  C31811733   1.401  -0.262   6.089 -0.6860 -0.1795  0.0622
  112SAPE  H18X11734   1.503  -0.305   6.081 -0.8015 -0.4654  0.0958
  112SAPE  H18Y11735   1.354  -0.269   5.988  0.3075  2.6662 -0.6887
  112SAPE  H18Z11736   1.348  -0.326   6.163 -0.7901 -0.7921 -0.5315
  113SAPE     N11737   1.795   4.038   3.806 -0.1978 -0.0477 -0.0236
  113SAPE   HN111738   1.751   4.109   3.868 -0.6183  0.4952 -0.9196
  113SAPE   HN211739   1.804   3.944   3.849 -0.0169  0.0212  0.0914
  113SAPE   HN311740   1.890   4.075   3.785  0.0244 -0.0636  0.8869
  113SAPE   C1211741   1.718   4.033   3.675 -0.3088  0.1726  0.4982
  113SAPE  H12A11742   1.769   3.969   3.601 -0.4838  0.4431  0.1429
  113SAPE  H12B11743   1.730   4.132   3.627  2.1329 -0.9518 -1.4023
  113SAPE   C1111744   1.570   3.996   3.699 -0.5865  0.1044  0.5270
  113SAPE  H11A11745   1.540   4.045   3.794  0.1192 -0.7234  1.1964
  113SAPE  H11B11746   1.579   3.885   3.709  1.7163  0.1364 -0.5635
  113SAPE     P11747   1.402   4.172   3.603  0.2133 -0.0316  0.1200
  113SAPE   O1311748   1.499   4.279   3.634 -0.3286  0.2070 -0.5452
  113SAPE   O1411749   1.324   4.189   3.479 -0.1385  0.3415  0.3371
  113SAPE   O1211750   1.487   4.033   3.584 -0.5955  0.1553 -0.4494
  113SAPE   O1111751   1.303   4.131   3.728  0.0117 -0.3799  0.1137
  113SAPE    C111752   1.211   4.024   3.731  0.2555 -0.3353 -0.7664
  113SAPE    HA11753   1.111   4.073   3.729  1.1377  1.6977  0.6655
  113SAPE    HB11754   1.224   3.958   3.642  0.8802  1.3703 -2.0100
  113SAPE    C211755   1.230   3.932   3.855  0.2280 -0.4926 -0.0129
  113SAPE    HS11756   1.323   3.875   3.834  1.4650  1.7351 -0.9473
  113SAPE   O2111757   1.117   3.841   3.865  0.5845 -0.4381 -0.0515
  113SAPE   C2111758   1.131   3.714   3.840  0.3992 -0.1470 -0.7570
  113SAPE   O2211759   1.232   3.659   3.798  0.1329  0.7161  0.1325
  113SAPE   C2211760   1.002   3.645   3.888  0.3053  0.0496  0.5379
  113SAPE   H2R11761   1.006   3.623   3.997 -0.7365 -1.6646  0.2591
  113SAPE   H2S11762   0.916   3.713   3.872 -0.7589 -1.2256  0.6620
  113SAPE    C311763   1.261   4.002   3.991  0.3743 -0.3819 -0.0568
  113SAPE    HX11764   1.174   4.070   3.998  0.0975 -0.5651 -1.3428
  113SAPE    HY11765   1.353   4.063   3.992  0.0448  0.1242 -0.3512
  113SAPE   O3111766   1.241   3.914   4.105  0.4935  0.0512  0.3918
  113SAPE   C3111767   1.352   3.849   4.132 -0.0383  0.2907  0.5280
  113SAPE   O3211768   1.451   3.852   4.065  0.7726  0.0891  0.7590
  113SAPE   C3211769   1.326   3.761   4.252 -0.0078  0.8035 -0.3768
  113SAPE   H2X11770   1.320   3.659   4.209  4.0009  0.7071 -1.0866
  113SAPE   H2Y11771   1.239   3.797   4.311 -1.6944 -1.2976 -1.4571
  113SAPE   C2311772   0.971   3.517   3.806  0.1482 -0.0938  0.7129
  113SAPE   H3R11773   1.057   3.448   3.823  0.0667 -0.1175  1.0340
  113SAPE   H3S11774   0.969   3.555   3.701 -0.7274 -0.4178  0.6089
  113SAPE   C2411775   0.837   3.453   3.846  0.4219  1.0371  0.2612
  113SAPE   H4R11776   0.804   3.468   3.951 -1.7697  0.9015 -0.3655
  113SAPE   H4S11777   0.854   3.344   3.832  0.2685  0.6358  2.7929
  113SAPE   C2511778   0.725   3.498   3.764  0.5036  0.4348 -0.2635
  113SAPE   H5R11779   0.758   3.535   3.666  0.2482 -0.4224 -0.6745
  113SAPE   C2611780   0.598   3.515   3.805 -0.5961  0.4480 -0.1351
  113SAPE   H6R11781   0.539   3.558   3.723  0.2359  0.2419 -0.8667
  113SAPE   C2711782   0.540   3.486   3.942  0.3074  0.1841  0.6600
  113SAPE   H7R11783   0.545   3.565   4.020 -1.2345 -1.5468  2.6414
  113SAPE   H7S11784   0.583   3.392   3.980  1.9222 -0.2171 -1.9227
  113SAPE   C2811785   0.394   3.456   3.933 -0.2100 -0.3762 -0.5928
  113SAPE   H8R11786   0.339   3.477   3.841 -1.8365 -1.6203  0.0486
  113SAPE   C2911787   0.312   3.406   4.029  0.1987 -0.4666 -0.7999
  113SAPE   H9R11788   0.207   3.387   4.003 -1.1540  0.9007  3.0004
  113SAPE  C21011789   0.352   3.345   4.155  0.3983 -1.3156 -0.6659
  113SAPE  H10R11790   0.266   3.320   4.221  1.1952  1.5028  1.6692
  113SAPE  H10S11791   0.391   3.425   4.222 -2.4439  0.9276 -1.4993
  113SAPE  C21111792   0.453   3.239   4.158  0.8863  0.2209 -0.1559
  113SAPE  H11R11793   0.495   3.207   4.061  1.0142 -2.2758  0.6569
  113SAPE  C21211794   0.503   3.174   4.265 -0.5157 -0.3368 -0.0651
  113SAPE  H12R11795   0.585   3.103   4.251 -0.8841 -0.6047 -0.9221
  113SAPE  C21311796   0.464   3.196   4.411  0.0647 -0.1330 -0.0915
  113SAPE  H13R11797   0.455   3.107   4.477  0.5423 -0.1303 -0.0177
  113SAPE  H13S11798   0.358   3.227   4.414  0.1974  0.3450 -0.3266
  113SAPE  C21411799   0.537   3.314   4.484  0.2802  0.2641  0.1526
  113SAPE  H14R11800   0.581   3.395   4.423  2.2600 -1.5954 -1.0366
  113SAPE  C21511801   0.549   3.327   4.614 -0.1113 -0.1667 -0.2292
  113SAPE  H15R11802   0.596   3.416   4.660  1.5774 -0.6339 -0.9672
  113SAPE  C21611803   0.491   3.230   4.719  0.5530  0.1931 -0.2389
  113SAPE  H16R11804   0.563   3.178   4.786 -1.6439 -2.7242  0.0954
  113SAPE  H16S11805   0.444   3.142   4.670  3.6090 -1.4487 -0.4800
  113SAPE  C21711806   0.381   3.301   4.793 -0.2566 -0.0517 -0.0183
  113SAPE  H17R11807   0.298   3.335   4.727 -0.5753 -0.9233 -0.0730
  113SAPE  H17S11808   0.425   3.389   4.845  1.5776 -0.4415 -0.8333
  113SAPE  C21811809   0.322   3.217   4.908  0.2622 -0.4698 -0.6597
  113SAPE  H18R11810   0.406   3.178   4.969 -0.8238 -0.0086  1.2129
  113SAPE  H18S11811   0.265   3.127   4.875 -3.0919  0.5221  1.8604
  113SAPE  C21911812   0.229   3.297   5.010  0.7942  0.4908 -0.4273
  113SAPE  H19R11813   0.151   3.353   4.954  1.2332  1.3104 -0.2460
  113SAPE  H19S11814   0.284   3.366   5.078 -0.1330 -1.4459  2.4643
  113SAPE  C22011815   0.156   3.205   5.097  0.4782  0.1323  0.4611
  113SAPE  H20R11816   0.124   3.117   5.037  0.8520  1.3154 -1.5341
  113SAPE  H20S11817   0.066   3.256   5.137  0.7514 -1.0863  2.8586
  113SAPE  H20T11818   0.221   3.174   5.182 -1.3860 -1.0139  1.5346
  113SAPE   C3311819   1.453   3.758   4.344 -0.0620 -0.2548 -0.2604
  113SAPE   H3X11820   1.465   3.862   4.382  1.6441 -0.6828  0.4571
  113SAPE   H3Y11821   1.544   3.755   4.280 -1.8024  0.3312 -2.9578
  113SAPE   C3411822   1.448   3.648   4.449  1.2007 -0.4062  0.3265
  113SAPE   H4X11823   1.496   3.557   4.406  0.9468  0.1133 -1.1011
  113SAPE   H4Y11824   1.344   3.618   4.472  1.0429 -1.5302 -1.6035
  113SAPE   C3511825   1.509   3.692   4.582  0.2705 -0.4761 -0.2981
  113SAPE   H5X11826   1.445   3.765   4.635 -1.1257 -1.5151 -0.5147
  113SAPE   H5Y11827   1.612   3.725   4.554 -0.3740  1.0079 -0.9722
  113SAPE   C3611828   1.517   3.573   4.672  0.0822  0.7323 -0.3330
  113SAPE   H6X11829   1.569   3.500   4.606  1.2562 -0.1698  1.5156
  113SAPE   H6Y11830   1.412   3.538   4.683  0.2576  0.3395  0.0953
  113SAPE   C3711831   1.575   3.603   4.806 -0.2676 -0.5101 -0.2689
  113SAPE   H7X11832   1.585   3.518   4.878  1.1472  0.0769  0.2674
  113SAPE   H7Y11833   1.495   3.663   4.855 -1.8586 -1.4180 -1.6722
  113SAPE   C3811834   1.709   3.681   4.798 -0.2665  0.2989 -0.0975
  113SAPE   H8X11835   1.767   3.618   4.727 -1.2933  0.7946 -1.4028
  113SAPE   H8Y11836   1.689   3.782   4.755 -0.2330 -0.4162 -1.8598
  113SAPE   C3911837   1.794   3.690   4.924  0.2082  0.3581 -0.0689
  113SAPE   H9X11838   1.886   3.751   4.912 -0.0350  0.4638 -1.6692
  113SAPE   H9Y11839   1.854   3.599   4.943  1.3582  1.0173 -0.4617
  113SAPE  C31011840   1.733   3.717   5.059 -0.0854  0.3313  0.3149
  113SAPE  H10X11841   1.648   3.649   5.081  0.8279 -1.2993 -0.9922
  113SAPE  H10Y11842   1.710   3.826   5.055 -0.7513  0.1544 -1.4346
  113SAPE  C31111843   1.849   3.705   5.163 -1.2442  0.5762  0.0618
  113SAPE  H11X11844   1.933   3.761   5.117  1.4319 -1.0201  2.6294
  113SAPE  H11Y11845   1.888   3.602   5.169  0.8422  1.3316  0.0688
  113SAPE  C31211846   1.823   3.777   5.296 -0.8729  0.4906 -0.4344
  113SAPE  H12X11847   1.762   3.705   5.354 -0.7109 -0.6294 -1.6243
  113SAPE  H12Y11848   1.793   3.883   5.276  0.0919  0.6107 -1.3425
  113SAPE  C31311849   1.964   3.796   5.366 -0.1623  0.0592 -0.0212
  113SAPE  H13X11850   2.036   3.866   5.318 -1.4234  0.8153 -0.8843
  113SAPE  H13Y11851   2.025   3.704   5.362  3.1964  2.1330  0.0132
  113SAPE  C31411852   1.957   3.833   5.517  0.0067 -0.2314 -0.0855
  113SAPE  H14X11853   1.896   3.757   5.571  0.6982 -1.6374 -1.2373
  113SAPE  H14Y11854   1.900   3.928   5.528 -0.1470 -0.2510 -0.7312
  113SAPE  C31511855   2.081   3.852   5.586  0.3267 -0.2252 -0.6445
  113SAPE  H15X11856   2.145   3.761   5.581 -2.2672 -2.1692 -0.3778
  113SAPE  H15Y11857   2.047   3.857   5.692 -1.6629 -1.8702 -1.1375
  113SAPE  C31611858   2.164   3.974   5.555  0.0897  0.6610 -0.2428
  113SAPE  H16X11859   2.176   4.029   5.651  1.1239  1.4281 -0.8005
  113SAPE  H16Y11860   2.112   4.051   5.494  0.5215  0.9410 -0.2614
  113SAPE  C31711861   2.298   3.942   5.489  0.0791 -0.0965 -0.5288
  113SAPE  H17X11862   2.276   3.882   5.398 -0.6041 -1.4152  0.4832
  113SAPE  H17Y11863   2.346   3.877   5.565 -1.8921  1.1453  1.9422
  113SAPE  C31811864   2.385   4.062   5.472 -0.1424 -0.5682 -0.3179
  113SAPE  H18X11865   2.413   4.108   5.569  1.9351  1.4136 -1.7675
  113SAPE  H18Y11866   2.329   4.135   5.410 -1.6147 -0.3347  1.2075
  113SAPE  H18Z11867   2.473   4.039   5.409  0.9951  1.2719  0.5355
  114SAPE     N11868   3.589   6.111   3.518  0.7727 -0.2234  0.3954
  114SAPE   HN111869   3.671   6.138   3.575 -0.7006 -0.8272  2.9668
  114SAPE   HN211870   3.510   6.172   3.548  1.2776  1.3398 -1.2791
  114SAPE   HN311871   3.573   6.009   3.529  1.4938 -0.4508 -0.5475
  114SAPE   C1211872   3.631   6.150   3.386  0.1750  0.1752 -0.5349
  114SAPE  H12A11873   3.544   6.202   3.340 -1.6438  0.7796  3.2300
  114SAPE  H12B11874   3.671   6.065   3.327  1.0683  0.6671 -0.6423
  114SAPE   C1111875   3.746   6.259   3.378  1.0665  0.5280  0.7565
  114SAPE  H11A11876   3.709   6.362   3.397 -0.0233  0.3169 -0.1445
  114SAPE  H11B11877   3.773   6.252   3.270 -1.8551 -2.4005  0.0655
  114SAPE     P11878   3.977   6.322   3.471 -0.2089  0.1643 -0.1919
  114SAPE   O1311879   4.086   6.243   3.528 -0.0707  0.2764 -0.4972
  114SAPE   O1411880   4.005   6.371   3.334  0.0912 -0.4945  0.6815
  114SAPE   O1211881   3.854   6.225   3.463  0.2266  1.0610  0.1853
  114SAPE   O1111882   3.924   6.431   3.572 -0.4747  0.4362  0.4650
  114SAPE    C111883   3.836   6.413   3.687  0.4718 -0.4908  0.9910
  114SAPE    HA11884   3.821   6.515   3.728  0.7753 -0.2338  0.4808
  114SAPE    HB11885   3.737   6.371   3.658 -0.2705  1.6990  0.1273
  114SAPE    C211886   3.905   6.324   3.795  0.0684  0.3841 -0.0576
  114SAPE    HS11887   3.913   6.221   3.753 -2.3785  1.0717 -2.4913
  114SAPE   O2111888   3.831   6.306   3.911 -0.4711 -0.3339  0.4855
  114SAPE   C2111889   3.730   6.229   3.902  0.6180 -0.5398  0.5386
  114SAPE   O2211890   3.688   6.168   3.803  0.3778  0.2673 -0.4366
  114SAPE   C2211891   3.658   6.231   4.032  0.1339  0.5434  0.5512
  114SAPE   H2R11892   3.685   6.325   4.084  0.8448  0.0835  1.0222
  114SAPE   H2S11893   3.548   6.223   4.013  0.7518 -1.9576 -2.9023
  114SAPE    C311894   4.054   6.368   3.824  0.2012 -0.0742  0.0444
  114SAPE    HX11895   4.052   6.477   3.844  0.7966  0.0215 -0.4187
  114SAPE    HY11896   4.102   6.341   3.727 -1.6508 -0.5770 -0.7813
  114SAPE   O3111897   4.107   6.299   3.934 -0.2639  0.6639 -0.4033
  114SAPE   C3111898   4.241   6.319   3.949  0.8080 -0.9056 -0.6567
  114SAPE   O3211899   4.309   6.382   3.868  0.3181 -0.3093 -0.4574
  114SAPE   C3211900   4.279   6.264   4.085  0.1886  0.7475 -0.3793
  114SAPE   H2X11901   4.296   6.158   4.060  0.6227  0.4456  1.0915
  114SAPE   H2Y11902   4.195   6.270   4.158 -0.7509 -1.8132 -1.1366
  114SAPE   C2311903   3.689   6.114   4.121 -0.1496 -0.0712 -0.1694
  114SAPE   H3R11904   3.664   6.025   4.061 -1.4731 -0.1031  0.4026
  114SAPE   H3S11905   3.628   6.108   4.214  0.6536 -2.9158  0.2698
  114SAPE   C2411906   3.836   6.107   4.171 -0.1231 -0.6989 -0.0107
  114SAPE   H4R11907   3.892   6.143   4.081 -1.1610  0.2235 -0.3176
  114SAPE   H4S11908   3.864   6.002   4.192 -1.1566 -1.0531 -0.3709
  114SAPE   C2511909   3.868   6.203   4.286 -0.1744 -0.2602  0.9976
  114SAPE   H5R11910   3.900   6.303   4.255  0.1306  0.0249  2.1831
  114SAPE   C2611911   3.904   6.176   4.411 -0.1049  0.3387  0.3379
  114SAPE   H6R11912   3.929   6.263   4.473 -1.3085  1.3249 -0.5272
  114SAPE   C2711913   3.896   6.040   4.490  0.4881 -0.0166  0.4526
  114SAPE   H7R11914   3.985   6.037   4.556 -0.3273  1.6883  1.7060
  114SAPE   H7S11915   3.891   5.951   4.424  1.9792  0.5658 -0.4790
  114SAPE   C2811916   3.775   6.030   4.578 -0.2332 -0.4207 -0.2547
  114SAPE   H8R11917   3.686   5.979   4.537 -0.5518  0.2794 -0.4494
  114SAPE   C2911918   3.774   6.072   4.705 -0.0821  0.2006  0.7352
  114SAPE   H9R11919   3.678   6.081   4.758  0.0287  0.6727  0.8590
  114SAPE  C21011920   3.885   6.140   4.783  0.1455  0.1952  0.0793
  114SAPE  H10R11921   3.981   6.140   4.727  0.0951  2.1520 -0.0896
  114SAPE  H10S11922   3.898   6.079   4.875  1.2979  2.1190  1.2568
  114SAPE  C21111923   3.859   6.285   4.824 -0.5152 -0.4168 -0.0897
  114SAPE  H11R11924   3.872   6.357   4.742 -1.7389 -0.1641 -0.0833
  114SAPE  C21211925   3.824   6.349   4.936  0.7269  0.5431 -0.1107
  114SAPE  H12R11926   3.801   6.455   4.953 -0.7802 -0.1785  3.4107
  114SAPE  C21311927   3.793   6.282   5.066 -0.2151  0.0457 -0.0746
  114SAPE  H13R11928   3.885   6.224   5.088 -2.0198 -2.2086  2.1594
  114SAPE  H13S11929   3.710   6.208   5.070 -0.3634  0.2641  1.8215
  114SAPE  C21411930   3.765   6.374   5.179 -0.5776  0.2765 -0.4156
  114SAPE  H14R11931   3.786   6.482   5.167 -1.8156  0.5736 -0.0370
  114SAPE  C21511932   3.704   6.340   5.298  0.0721  0.0951 -0.2879
  114SAPE  H15R11933   3.703   6.412   5.381  1.6378 -1.2139  0.9354
  114SAPE  C21611934   3.671   6.197   5.338 -0.3564  0.6456 -0.3566
  114SAPE  H16R11935   3.678   6.132   5.249 -2.2241  0.1086 -0.1608
  114SAPE  H16S11936   3.565   6.185   5.369 -0.3598  0.4711 -0.4363
  114SAPE  C21711937   3.756   6.142   5.452  0.2656 -0.1894 -0.8463
  114SAPE  H17R11938   3.866   6.155   5.452  0.1815  1.1878  1.3931
  114SAPE  H17S11939   3.726   6.035   5.452 -2.1469  0.3659  1.6771
  114SAPE  C21811940   3.717   6.195   5.589  0.2113 -0.1833 -0.6375
  114SAPE  H18R11941   3.606   6.198   5.589  0.2127  1.0644 -1.5311
  114SAPE  H18S11942   3.752   6.300   5.601  0.8584 -0.6104  1.7496
  114SAPE  C21911943   3.766   6.107   5.706 -0.1536 -0.2339  0.3492
  114SAPE  H19R11944   3.876   6.115   5.721 -0.2897 -0.3566  1.4586
  114SAPE  H19S11945   3.756   6.002   5.671 -1.7602 -0.1841  0.5891
  114SAPE  C22011946   3.694   6.133   5.843  0.5642  0.5587 -0.3922
  114SAPE  H20R11947   3.732   6.055   5.913 -0.7150 -1.5032 -1.8577
  114SAPE  H20S11948   3.585   6.115   5.830  0.4542  0.6091  0.4535
  114SAPE  H20T11949   3.722   6.236   5.872 -0.5126  0.5958  0.5496
  114SAPE   C3311950   4.416   6.313   4.149 -0.2691 -0.2094  0.0133
  114SAPE   H3X11951   4.418   6.416   4.191  0.4767  0.7774 -2.2245
  114SAPE   H3Y11952   4.501   6.316   4.077 -0.4833 -0.1517 -0.2377
  114SAPE   C3411953   4.470   6.222   4.267 -0.3142  0.2769  0.1535
  114SAPE   H4X11954   4.580   6.222   4.279 -0.2011  1.1038 -0.6851
  114SAPE   H4Y11955   4.432   6.120   4.244 -2.2198  1.5559 -3.3681
  114SAPE   C3511956   4.400   6.264   4.397  0.0266 -0.5284  0.3774
  114SAPE   H5X11957   4.289   6.264   4.390  0.0878 -1.4029 -1.1125
  114SAPE   H5Y11958   4.424   6.372   4.406 -4.1420  0.5009  1.0748
  114SAPE   C3611959   4.443   6.192   4.534  0.3842  0.2252  0.5150
  114SAPE   H6X11960   4.548   6.212   4.565  0.4461  0.5323  0.1086
  114SAPE   H6Y11961   4.436   6.083   4.514  0.3758  0.4485 -0.7924
  114SAPE   C3711962   4.358   6.217   4.656  0.0323  0.1894 -0.1921
  114SAPE   H7X11963   4.265   6.160   4.636  0.5182 -0.4042 -0.8248
  114SAPE   H7Y11964   4.334   6.326   4.657  2.9790  0.9419 -0.1285
  114SAPE   C3811965   4.412   6.179   4.799  0.5276  0.5913  0.1383
  114SAPE   H8X11966   4.515   6.220   4.808  0.5561  0.1104  2.6472
  114SAPE   H8Y11967   4.414   6.069   4.815  0.7819  0.6741  0.6964
  114SAPE   C3911968   4.331   6.242   4.908 -0.4928 -0.0627  0.3796
  114SAPE   H9X11969   4.221   6.223   4.915 -0.5853  0.5416  0.6960
  114SAPE   H9Y11970   4.345   6.350   4.888  1.4100 -0.4220 -0.4174
  114SAPE  C31011971   4.391   6.211   5.046  0.2585 -0.2079 -0.4198
  114SAPE  H10X11972   4.496   6.249   5.040  0.4598 -0.9298 -2.7385
  114SAPE  H10Y11973   4.385   6.102   5.066 -0.2676 -0.0439  0.3169
  114SAPE  C31111974   4.315   6.275   5.163  0.5677  0.2387 -0.3877
  114SAPE  H11X11975   4.207   6.269   5.138  0.6951 -0.5044 -0.8064
  114SAPE  H11Y11976   4.339   6.381   5.185 -1.4306  0.5005  0.7180
  114SAPE  C31211977   4.339   6.186   5.281  0.1908 -1.0297  0.6958
  114SAPE  H12X11978   4.444   6.152   5.281 -0.6800 -4.2783 -1.9103
  114SAPE  H12Y11979   4.274   6.099   5.259  0.3665 -0.3042 -3.3871
  114SAPE  C31311980   4.299   6.237   5.420 -0.3244  0.6206  0.0927
  114SAPE  H13X11981   4.362   6.320   5.457 -0.2274  0.1889  0.9337
  114SAPE  H13Y11982   4.304   6.150   5.489  1.9566 -1.5086 -2.4904
  114SAPE  C31411983   4.154   6.288   5.429  0.8391 -0.1521 -0.0560
  114SAPE  H14X11984   4.087   6.206   5.394  0.1186 -0.4064  1.7686
  114SAPE  H14Y11985   4.151   6.377   5.363  2.4980  0.8898  1.1917
  114SAPE  C31511986   4.111   6.322   5.575  0.5645  0.4374 -0.4705
  114SAPE  H15X11987   4.133   6.233   5.637 -0.2018  0.3727 -0.2732
  114SAPE  H15Y11988   4.001   6.338   5.584 -0.0435 -3.7514  3.3008
  114SAPE  C31611989   4.184   6.443   5.629  0.6973 -0.5666  0.2656
  114SAPE  H16X11990   4.166   6.535   5.570 -2.0143 -1.1773  0.0076
  114SAPE  H16Y11991   4.293   6.427   5.613  0.4008  0.2284 -3.2091
  114SAPE  C31711992   4.161   6.472   5.771  0.2438 -0.6551 -0.0772
  114SAPE  H17X11993   4.191   6.387   5.835 -0.8015  0.6491  2.2875
  114SAPE  H17Y11994   4.052   6.488   5.789 -0.3155 -3.1109 -0.8511
  114SAPE  C31811995   4.247   6.592   5.810 -0.1117  0.5237  0.3286
  114SAPE  H18X11996   4.353   6.560   5.811 -0.1659  0.2867 -0.4581
  114SAPE  H18Y11997   4.227   6.630   5.912  0.8445 -0.8491  1.0522
  114SAPE  H18Z11998   4.234   6.675   5.737  1.1982  1.3765  1.0325
  115SAPE     N11999   2.867   0.937   3.797  0.6716  0.1695 -0.1366
  115SAPE   HN112000   2.842   0.945   3.696  1.4649  0.5719 -0.3079
  115SAPE   HN212001   2.843   1.030   3.838  1.3174 -0.4199  1.6359
  115SAPE   HN312002   2.969   0.923   3.805  0.7800  1.2023  0.5010
  115SAPE   C1212003   2.786   0.814   3.856  0.8499 -0.5356 -0.3913
  115SAPE  H12A12004   2.851   0.731   3.891 -1.6723 -2.0264  1.1668
  115SAPE  H12B12005   2.720   0.778   3.774  0.0253 -2.4322  1.0308
  115SAPE   C1112006   2.691   0.870   3.958 -0.2232 -0.0414  0.1988
  115SAPE  H11A12007   2.749   0.924   4.036  2.3009  1.0716 -2.2972
  115SAPE  H11B12008   2.634   0.789   4.008  0.8105 -1.6185 -1.0551
  115SAPE     P12009   2.616   1.117   3.919  0.1779 -0.2291 -0.2029
  115SAPE   O1312010   2.750   1.159   3.880 -0.5207 -0.0690  0.1018
  115SAPE   O1412011   2.503   1.178   3.849  0.0704  0.0757  0.4027
  115SAPE   O1212012   2.602   0.963   3.901 -0.1604 -0.6275 -0.0221
  115SAPE   O1112013   2.610   1.138   4.076  0.5009  0.1655  0.1654
  115SAPE    C112014   2.538   1.070   4.175  0.0526  0.0803 -0.6821
  115SAPE    HA12015   2.490   0.980   4.130 -1.6957 -0.1579  1.4567
  115SAPE    HB12016   2.607   1.028   4.251 -1.2817  1.8256  1.6388
  115SAPE    C212017   2.422   1.149   4.244  0.1833  0.1075 -0.2856
  115SAPE    HS12018   2.413   1.244   4.188 -3.8208 -0.6470 -1.2644
  115SAPE   O2112019   2.454   1.162   4.384  0.0637 -0.3868  0.4567
  115SAPE   C2112020   2.378   1.244   4.453 -0.3942  1.0328  0.3660
  115SAPE   O2212021   2.306   1.335   4.411 -0.2848 -0.5237  0.4446
  115SAPE   C2212022   2.384   1.203   4.597  0.0621  0.1271  0.5392
  115SAPE   H2R12023   2.331   1.106   4.610  0.0152  0.2350  1.2171
  115SAPE   H2S12024   2.490   1.187   4.628  0.4771  3.2647  1.0227
  115SAPE    C312025   2.283   1.070   4.219  0.2296  0.3877  0.7115
  115SAPE    HX12026   2.280   1.074   4.108  2.1491  2.5518  0.6771
  115SAPE    HY12027   2.196   1.124   4.262 -1.0349 -0.4692 -0.6455
  115SAPE   O3112028   2.289   0.946   4.279 -0.2936  0.2677  0.3305
  115SAPE   C3112029   2.202   0.859   4.236  0.0703  0.4505 -0.3094
  115SAPE   O3212030   2.105   0.882   4.170 -0.5254 -0.9731 -0.6027
  115SAPE   C3212031   2.227   0.729   4.320  0.0335  0.3448  0.2958
  115SAPE   H2X12032   2.332   0.694   4.309  0.2739  0.4239  2.0339
  115SAPE   H2Y12033   2.162   0.647   4.286  1.1898 -1.1707  1.5651
  115SAPE   C2312034   2.327   1.320   4.691 -0.1967  0.4896 -0.2575
  115SAPE   H3R12035   2.319   1.275   4.792 -0.5013 -0.5029 -0.7065
  115SAPE   H3S12036   2.225   1.341   4.652 -0.0204 -0.9658 -1.6411
  115SAPE   C2412037   2.432   1.429   4.703  0.7409  0.6009  0.2387
  115SAPE   H4R12038   2.381   1.499   4.772 -1.2153 -1.7098  1.2794
  115SAPE   H4S12039   2.430   1.475   4.602 -2.3435  0.6977  0.2485
  115SAPE   C2512040   2.562   1.389   4.759 -0.4233 -0.1487 -0.3056
  115SAPE   H5R12041   2.645   1.384   4.688 -0.8346  0.6406 -0.8524
  115SAPE   C2612042   2.580   1.374   4.894  0.0159 -0.2086  0.4865
  115SAPE   H6R12043   2.679   1.341   4.928  0.4135 -0.7999 -1.1829
  115SAPE   C2712044   2.473   1.371   5.002  1.1557  0.0929  0.5972
  115SAPE   H7R12045   2.380   1.412   4.956  1.2257 -1.4697 -1.0539
  115SAPE   H7S12046   2.501   1.445   5.080  0.8577  0.8131  0.0373
  115SAPE   C2812047   2.437   1.235   5.045 -0.9142 -0.1081  0.2879
  115SAPE   H8R12048   2.402   1.171   4.963 -0.5777 -0.0592  0.1030
  115SAPE   C2912049   2.420   1.198   5.173  0.1481  0.2045 -0.0281
  115SAPE   H9R12050   2.401   1.090   5.180 -1.1917  0.4265  0.0118
  115SAPE  C21012051   2.462   1.290   5.289  0.0694 -0.2386 -0.0922
  115SAPE  H10R12052   2.522   1.380   5.264 -0.8766  0.6208  0.6391
  115SAPE  H10S12053   2.531   1.233   5.354  1.2619  0.8525 -0.3750
  115SAPE  C21112054   2.333   1.336   5.351  0.5809 -0.0327 -0.4255
  115SAPE  H11R12055   2.244   1.350   5.289  1.5119 -0.5458 -1.9184
  115SAPE  C21212056   2.318   1.375   5.482 -0.1828 -0.1882 -0.5144
  115SAPE  H12R12057   2.221   1.393   5.531  0.5962 -0.5992  1.2662
  115SAPE  C21312058   2.430   1.368   5.587  0.2426  0.3047  0.3687
  115SAPE  H13R12059   2.501   1.444   5.549 -0.2868  0.4375 -0.3745
  115SAPE  H13S12060   2.481   1.270   5.573  0.1235  0.0320  1.6601
  115SAPE  C21412061   2.391   1.396   5.733 -0.3669 -0.5843 -0.2263
  115SAPE  H14R12062   2.312   1.328   5.768  0.7437 -1.6696  0.2638
  115SAPE  C21512063   2.433   1.493   5.818 -0.5171 -0.6938 -0.5388
  115SAPE  H15R12064   2.384   1.504   5.916  0.2756 -1.4055 -0.0443
  115SAPE  C21612065   2.530   1.602   5.782 -0.0808  0.2151 -0.6555
  115SAPE  H16R12066   2.477   1.699   5.797  0.1770  0.5011 -1.5583
  115SAPE  H16S12067   2.552   1.591   5.674 -2.9666 -2.4233 -1.1276
  115SAPE  C21712068   2.657   1.591   5.870  0.2634 -0.6434 -0.9383
  115SAPE  H17R12069   2.732   1.664   5.831  3.1590 -2.2264  1.3158
  115SAPE  H17S12070   2.696   1.487   5.870 -0.4720 -0.9556  0.7892
  115SAPE  C21812071   2.624   1.646   6.011  0.3758  0.2983 -0.2161
  115SAPE  H18R12072   2.522   1.611   6.036  0.3507  0.2618 -0.3654
  115SAPE  H18S12073   2.609   1.756   6.010 -0.0063  0.2528  0.2516
  115SAPE  C21912074   2.726   1.627   6.124 -0.5241 -0.2045  0.3897
  115SAPE  H19R12075   2.769   1.525   6.131 -2.3138 -0.9423  1.4363
  115SAPE  H19S12076   2.668   1.628   6.219 -0.4920  1.6321  0.4146
  115SAPE  C22012077   2.849   1.721   6.115 -0.8110  0.0688 -0.5230
  115SAPE  H20R12078   2.833   1.831   6.123 -0.3603  0.0072  2.0083
  115SAPE  H20S12079   2.890   1.694   6.015 -2.4456 -0.4720 -1.0752
  115SAPE  H20T12080   2.926   1.688   6.188  0.1559 -0.3983 -1.7166
  115SAPE   C3312081   2.212   0.745   4.475 -0.3628 -0.4824  0.3451
  115SAPE   H3X12082   2.295   0.802   4.523  1.6829 -2.5677 -0.5401
  115SAPE   H3Y12083   2.200   0.649   4.529 -1.1010  0.1541  1.3736
  115SAPE   C3412084   2.074   0.807   4.499  0.8601  0.1267 -0.1308
  115SAPE   H4X12085   1.998   0.751   4.440  0.1353 -1.5182  2.2025
  115SAPE   H4Y12086   2.064   0.913   4.468  0.4470 -0.6563 -2.9533
  115SAPE   C3512087   2.033   0.797   4.648 -0.2391  0.0316  0.6128
  115SAPE   H5X12088   2.044   0.695   4.691  1.2337  0.7454  2.0163
  115SAPE   H5Y12089   1.924   0.818   4.651 -0.4922 -1.1231  0.1114
  115SAPE   C3612090   2.103   0.902   4.732  0.1798 -0.2781  0.4507
  115SAPE   H6X12091   2.078   1.004   4.695  0.4447 -1.4417 -3.4374
  115SAPE   H6Y12092   2.210   0.881   4.708  0.2935 -0.3473  1.0014
  115SAPE   C3712093   2.063   0.888   4.883 -0.7156  1.1667  0.7015
  115SAPE   H7X12094   2.146   0.926   4.945  0.1969 -2.3869  1.9197
  115SAPE   H7Y12095   2.070   0.778   4.898 -0.9232  1.1912  0.9850
  115SAPE   C3812096   1.921   0.934   4.918 -0.2252  0.1978  0.0789
  115SAPE   H8X12097   1.850   0.886   4.847  1.0774 -1.0454 -0.4278
  115SAPE   H8Y12098   1.910   1.042   4.893 -1.1092 -0.0608 -0.6948
  115SAPE   C3912099   1.892   0.922   5.063  0.2833 -0.4646 -0.2809
  115SAPE   H9X12100   1.835   0.830   5.087  0.9706 -0.3638  1.9255
  115SAPE   H9Y12101   1.827   1.011   5.081  1.6740  0.8217 -1.3160
  115SAPE  C31012102   2.020   0.942   5.150  0.3316 -0.5385  0.1777
  115SAPE  H10X12103   2.065   1.039   5.118  0.3192 -0.8223 -0.7145
  115SAPE  H10Y12104   2.094   0.859   5.147  0.0524 -0.7668 -1.5230
  115SAPE  C31112105   1.990   0.961   5.298  0.1328 -0.5454 -0.2033
  115SAPE  H11X12106   2.084   0.968   5.357 -2.0839 -0.1988  3.6660
  115SAPE  H11Y12107   1.933   0.875   5.340 -0.0860 -0.1677  0.2860
  115SAPE  C31212108   1.907   1.092   5.337 -0.6092 -0.7679 -0.1393
  115SAPE  H12X12109   1.802   1.071   5.307  0.0935 -2.1338 -1.8043
  115SAPE  H12Y12110   1.945   1.176   5.275 -2.3040  0.2504  0.1457
  115SAPE  C31312111   1.903   1.115   5.484 -0.1467 -0.2123 -0.1671
  115SAPE  H13X12112   1.845   1.207   5.510 -0.9044 -1.0423  1.1719
  115SAPE  H13Y12113   2.008   1.142   5.506 -0.4741  0.1438  1.0276
  115SAPE  C31412114   1.852   1.018   5.581 -0.3134  0.7796  1.1582
  115SAPE  H14X12115   1.862   0.912   5.549  1.7184  1.0145  0.8814
  115SAPE  H14Y12116   1.741   1.022   5.580 -0.4125 -0.4805 -1.3756
  115SAPE  C31512117   1.907   1.021   5.725  0.6827  0.2851 -0.1896
  115SAPE  H15X12118   2.016   1.004   5.720  0.5851 -0.6034  0.4437
  115SAPE  H15Y12119   1.856   0.947   5.791 -1.5557  0.4013 -1.6885
  115SAPE  C31612120   1.895   1.156   5.804 -0.2739  0.6742  0.6152
  115SAPE  H16X12121   1.948   1.238   5.751  0.3166  0.5825  1.0562
  115SAPE  H16Y12122   1.948   1.149   5.902 -0.8535 -0.2389  0.8724
  115SAPE  C31712123   1.750   1.190   5.821 -0.0025  0.1639  0.0433
  115SAPE  H17X12124   1.702   1.104   5.872  1.6680 -0.5610  0.4510
  115SAPE  H17Y12125   1.712   1.209   5.718  2.5573  1.4893 -0.7472
  115SAPE  C31812126   1.731   1.314   5.899  1.3528  0.6282 -0.6857
  115SAPE  H18X12127   1.767   1.395   5.832 -1.7791  1.5044 -1.4505
  115SAPE  H18Y12128   1.795   1.318   5.989 -0.0604  1.5454  0.3167
  115SAPE  H18Z12129   1.627   1.348   5.919  1.9534  2.0247  0.2439
  116SAPE     N12130   0.389   0.476   3.159 -0.0348 -0.4401  0.0142
  116SAPE   HN112131   0.467   0.524   3.208 -0.8030  1.8989 -0.9505
  116SAPE   HN212132   0.371   0.384   3.205  0.1927 -0.3238  0.3391
  116SAPE   HN312133   0.436   0.461   3.067  1.6410  0.1483  0.7478
  116SAPE   C1212134   0.280   0.580   3.155 -0.5120 -0.3272  0.2728
  116SAPE  H12A12135   0.184   0.527   3.133  0.4077 -2.1641  0.4477
  116SAPE  H12B12136   0.308   0.638   3.064  0.7227 -0.9876  0.2075
  116SAPE   C1112137   0.253   0.664   3.277 -0.1633  1.1888 -0.6668
  116SAPE  H11A12138   0.241   0.611   3.374  0.8888  3.1645  0.6065
  116SAPE  H11B12139   0.148   0.699   3.263 -0.7800 -0.3187 -0.0619
  116SAPE     P12140   0.487   0.758   3.349 -0.2300  0.0108  0.0899
  116SAPE   O1312141   0.546   0.631   3.296  0.4302  0.0390  0.1324
  116SAPE   O1412142   0.561   0.881   3.325 -0.0957 -0.4006 -0.2943
  116SAPE   O1212143   0.344   0.774   3.291  0.0782  0.7470  0.6117
  116SAPE   O1112144   0.460   0.742   3.499 -1.3129 -0.3964  0.2483
  116SAPE    C112145   0.357   0.804   3.576 -0.0460  0.6010 -0.3557
  116SAPE    HA12146   0.325   0.899   3.529 -0.0153  0.3518 -0.8924
  116SAPE    HB12147   0.275   0.730   3.587  0.4106  0.2038  0.4747
  116SAPE    C212148   0.392   0.842   3.721  0.0089  0.0238 -0.1738
  116SAPE    HS12149   0.295   0.854   3.774 -0.8400 -0.8945 -1.4285
  116SAPE   O2112150   0.474   0.960   3.725 -0.3917 -0.2906  0.7556
  116SAPE   C2112151   0.467   1.033   3.837  0.5699 -0.6418 -0.5152
  116SAPE   O2212152   0.389   1.010   3.926  0.0038  0.2730 -0.2664
  116SAPE   C2212153   0.555   1.154   3.832  0.3754 -0.3331  0.0389
  116SAPE   H2R12154   0.658   1.126   3.801  0.5914  0.1642  0.2988
  116SAPE   H2S12155   0.515   1.228   3.759 -0.2662 -0.9153 -0.2180
  116SAPE    C312156   0.476   0.717   3.773 -0.2793  0.1166  0.5031
  116SAPE    HX12157   0.570   0.727   3.715  0.2034  1.7553  1.4960
  116SAPE    HY12158   0.424   0.625   3.740  0.0493 -0.0113  0.3391
  116SAPE   O3112159   0.507   0.729   3.905 -0.0592 -0.2190 -0.2526
  116SAPE   C3112160   0.401   0.711   3.986 -0.9341  0.4395 -0.2152
  116SAPE   O3212161   0.288   0.682   3.946 -0.1657  0.3895 -0.6112
  116SAPE   C3212162   0.447   0.722   4.130  0.1940 -0.1317 -0.0563
  116SAPE   H2X12163   0.485   0.823   4.155  0.5631 -0.5323  1.0648
  116SAPE   H2Y12164   0.531   0.654   4.156  0.1868 -0.0464  0.1951
  116SAPE   C2312165   0.555   1.240   3.965  0.2819  0.1591 -1.2116
  116SAPE   H3R12166   0.459   1.281   4.002  1.5349 -0.1763  2.9237
  116SAPE   H3S12167   0.619   1.329   3.944 -0.8058  0.7885 -1.9255
  116SAPE   C2412168   0.622   1.172   4.088  0.3346 -1.0259  0.0480
  116SAPE   H4R12169   0.723   1.136   4.059 -0.1294 -2.6817  0.3941
  116SAPE   H4S12170   0.559   1.081   4.094 -2.9672  0.6071 -4.2453
  116SAPE   C2512171   0.633   1.253   4.215 -0.7621 -0.8030 -0.0957
  116SAPE   H5R12172   0.697   1.342   4.214 -0.3720 -1.0555  0.7504
  116SAPE   C2612173   0.580   1.210   4.332 -0.3585 -0.3765 -0.2590
  116SAPE   H6R12174   0.598   1.276   4.418 -2.6027 -0.1068  0.0642
  116SAPE   C2712175   0.482   1.101   4.364 -0.5045 -0.4042  0.0784
  116SAPE   H7R12176   0.532   1.019   4.420 -2.8432 -1.3542  0.9020
  116SAPE   H7S12177   0.441   1.048   4.275  1.9589 -3.6408  0.6707
  116SAPE   C2812178   0.372   1.161   4.443 -0.1887  0.9996  1.5835
  116SAPE   H8R12179   0.286   1.194   4.383  0.1150  1.5511  1.4409
  116SAPE   C2912180   0.368   1.165   4.579 -0.1605  0.6356 -0.0221
  116SAPE   H9R12181   0.292   1.221   4.635  0.2757 -1.7087  3.1794
  116SAPE  C21012182   0.476   1.111   4.668 -0.1575 -0.2636  0.3085
  116SAPE  H10R12183   0.564   1.073   4.611  0.4432  0.0284  1.0300
  116SAPE  H10S12184   0.440   1.020   4.721 -1.1286  1.2523  2.3477
  116SAPE  C21112185   0.523   1.225   4.757 -0.5498 -0.1990 -0.6359
  116SAPE  H11R12186   0.600   1.288   4.712 -2.2622  1.0321 -1.9674
  116SAPE  C21212187   0.491   1.239   4.891 -0.1157  0.2672  0.0109
  116SAPE  H12R12188   0.541   1.318   4.949  1.5812  0.4373 -1.5940
  116SAPE  C21312189   0.396   1.152   4.967  0.0238 -0.2565  0.0984
  116SAPE  H13R12190   0.436   1.049   4.971  0.0195 -0.2408  0.6574
  116SAPE  H13S12191   0.299   1.149   4.914 -1.3888 -0.5146  2.5153
  116SAPE  C21412192   0.367   1.201   5.109 -0.7050 -0.2976  0.6214
  116SAPE  H14R12193   0.298   1.287   5.110  0.7813  0.9525 -0.7153
  116SAPE  C21512194   0.413   1.156   5.229  0.4171  0.6750 -0.6730
  116SAPE  H15R12195   0.372   1.192   5.325  1.6920 -0.2783  0.2655
  116SAPE  C21612196   0.527   1.053   5.243  0.2839 -0.1050 -0.3214
  116SAPE  H16R12197   0.607   1.073   5.169  0.3681  1.4512  0.1505
  116SAPE  H16S12198   0.496   0.948   5.231  1.5184 -0.4991 -0.1814
  116SAPE  C21712199   0.585   1.056   5.384 -0.6743  0.0948 -0.4117
  116SAPE  H17R12200   0.507   1.050   5.463  0.1741  0.9166  0.5206
  116SAPE  H17S12201   0.642   1.151   5.396 -1.0465  0.1814  0.7449
  116SAPE  C21812202   0.687   0.948   5.417  0.3780  0.3520  0.0698
  116SAPE  H18R12203   0.764   0.960   5.338 -1.2424  1.6943 -1.4036
  116SAPE  H18S12204   0.631   0.852   5.420  1.0877 -0.0443  1.6645
  116SAPE  C21912205   0.757   0.960   5.552  0.5369 -0.3130  0.5172
  116SAPE  H19R12206   0.808   1.059   5.553 -1.3470  0.7253  2.3986
  116SAPE  H19S12207   0.826   0.874   5.555  0.7022 -0.2138 -0.2757
  116SAPE  C22012208   0.661   0.960   5.670 -0.0823 -0.6584 -0.0533
  116SAPE  H20R12209   0.709   0.949   5.770  0.7699 -1.1278 -0.4967
  116SAPE  H20S12210   0.603   0.865   5.672  0.4156 -0.9732 -0.4125
  116SAPE  H20T12211   0.588   1.043   5.675  2.2689  1.6157 -1.0416
  116SAPE   C3312212   0.326   0.704   4.225 -0.3940 -0.9534 -0.3224
  116SAPE   H3X12213   0.301   0.596   4.235 -3.2052 -0.2408  1.8059
  116SAPE   H3Y12214   0.232   0.754   4.192  0.4064 -0.1145 -1.3813
  116SAPE   C3412215   0.363   0.740   4.368  0.4150 -0.1097  0.0037
  116SAPE   H4X12216   0.370   0.849   4.388 -0.4113 -0.3026  1.4750
  116SAPE   H4Y12217   0.459   0.693   4.399  0.1421 -1.8064 -1.5437
  116SAPE   C3512218   0.254   0.688   4.467  0.4283 -0.4451  0.3262
  116SAPE   H5X12219   0.250   0.577   4.456 -0.6289 -0.1823 -3.3337
  116SAPE   H5Y12220   0.155   0.730   4.442  1.2104 -0.0657 -2.4419
  116SAPE   C3612221   0.302   0.727   4.609  0.3282  0.2770  0.1780
  116SAPE   H6X12222   0.279   0.833   4.630 -1.8492 -0.5128  2.2128
  116SAPE   H6Y12223   0.411   0.707   4.613  0.0364 -1.4170  0.3332
  116SAPE   C3712224   0.244   0.649   4.727  0.0553 -0.1426  0.0589
  116SAPE   H7X12225   0.297   0.552   4.730 -1.3701 -1.1289 -3.1864
  116SAPE   H7Y12226   0.136   0.625   4.718 -0.2934  0.4797  1.9482
  116SAPE   C3812227   0.266   0.727   4.857 -0.0764  0.7570  0.1196
  116SAPE   H8X12228   0.220   0.826   4.838 -2.0348 -0.0097  0.5461
  116SAPE   H8Y12229   0.375   0.723   4.877  0.1499 -0.0236 -1.1602
  116SAPE   C3912230   0.195   0.659   4.983 -0.2686 -0.1258  0.6668
  116SAPE   H9X12231   0.197   0.552   4.952  2.9044 -0.1276  0.4584
  116SAPE   H9Y12232   0.090   0.689   4.999  0.4339  1.9446  1.7416
  116SAPE  C31012233   0.275   0.686   5.114  0.2276 -0.4948  0.2353
  116SAPE  H10X12234   0.255   0.794   5.133 -0.6175 -0.2840 -1.6207
  116SAPE  H10Y12235   0.382   0.675   5.086 -0.7480 -1.7440 -3.5390
  116SAPE  C31112236   0.226   0.605   5.236  0.0195  0.8669  0.2183
  116SAPE  H11X12237   0.225   0.499   5.204  2.7008  0.5766  0.8905
  116SAPE  H11Y12238   0.122   0.635   5.261 -0.3560  0.4520 -0.7642
  116SAPE  C31212239   0.318   0.620   5.358 -0.3513 -0.0471 -0.7492
  116SAPE  H12X12240   0.348   0.725   5.382  1.1846 -1.1078  2.6349
  116SAPE  H12Y12241   0.408   0.558   5.341 -0.6893 -0.4913 -0.9240
  116SAPE  C31312242   0.248   0.586   5.489 -0.4171 -0.0353 -0.5496
  116SAPE  H13X12243   0.155   0.646   5.495  0.3537  1.3662 -1.8777
  116SAPE  H13Y12244   0.310   0.625   5.572 -0.9254  1.5250 -0.8737
  116SAPE  C31412245   0.215   0.439   5.506  0.1425 -0.3766 -0.2024
  116SAPE  H14X12246   0.288   0.359   5.480  1.6753  0.7600  0.4151
  116SAPE  H14Y12247   0.120   0.423   5.450  0.8003  0.7264 -1.7256
  116SAPE  C31512248   0.180   0.414   5.647  0.0771  0.1962  0.5791
  116SAPE  H15X12249   0.100   0.484   5.679 -1.5486 -0.6325 -1.4441
  116SAPE  H15Y12250   0.277   0.427   5.700  1.5822 -0.5251 -1.8311
  116SAPE  C31612251   0.120   0.276   5.667  0.1837  0.4974 -0.4081
  116SAPE  H16X12252   0.198   0.205   5.633  0.9897  2.3059 -2.5177
  116SAPE  H16Y12253   0.037   0.257   5.596  1.6337 -1.6875 -1.6266
  116SAPE  C31712254   0.086   0.241   5.809 -0.8969  0.4584 -0.5143
  116SAPE  H17X12255   0.012   0.317   5.842  0.8853  0.8996  2.8532
  116SAPE  H17Y12256   0.173   0.259   5.875 -0.4622 -2.3124 -0.2252
  116SAPE  C31812257   0.041   0.095   5.812  0.4319 -0.0747 -0.0678
  116SAPE  H18X12258   0.125   0.027   5.785  1.3456 -0.3465  3.0862
  116SAPE  H18Y12259  -0.038   0.077   5.737  1.7520 -0.0425 -1.5185
  116SAPE  H18Z12260   0.013   0.070   5.917 -1.8946  0.9546 -0.3850
  117SOPE     N12261   0.018   4.845   8.055 -0.1085 -0.2958  0.0646
  117SOPE   HN112262   0.012   4.765   8.122  2.7551 -1.1603 -0.5836
  117SOPE   HN212263   0.114   4.881   8.075  0.7544 -2.0960 -0.6318
  117SOPE   HN312264  -0.060   4.909   8.081 -0.8752 -1.8007  1.7143
  117SOPE   C1212265   0.005   4.778   7.921 -0.6396 -0.5109 -0.0379
  117SOPE  H12A12266  -0.013   4.859   7.848  0.4713  0.2245  0.4751
  117SOPE  H12B12267  -0.091   4.726   7.939 -1.0957  0.8599  1.7732
  117SOPE   C1112268   0.133   4.689   7.886  0.1737  0.7387  0.6050
  117SOPE  H11A12269   0.226   4.750   7.889  0.3026  0.5495  0.4722
  117SOPE  H11B12270   0.111   4.660   7.781 -0.2002 -1.6599  1.2860
  117SOPE     P12271   0.263   4.507   8.018 -0.2288 -0.0326  0.2851
  117SOPE   O1312272   0.212   4.380   8.083 -0.7162 -0.4919  0.6738
  117SOPE   O1412273   0.347   4.595   8.098 -0.7705  0.0955 -0.1510
  117SOPE   O1212274   0.133   4.572   7.969 -0.1240 -0.2260 -0.0063
  117SOPE   O1112275   0.343   4.473   7.887  0.8104  0.2478 -0.2149
  117SOPE    C112276   0.288   4.369   7.799 -0.4410 -0.7532 -0.3117
  117SOPE    HA12277   0.183   4.393   7.772 -0.4351  0.3130  0.5404
  117SOPE    HB12278   0.308   4.275   7.854  0.2991  0.5108  1.6847
  117SOPE    C212279   0.374   4.376   7.674  0.1860 -0.0678  0.5027
  117SOPE    HS12280   0.349   4.283   7.618 -0.8274 -0.7832  2.0680
  117SOPE   O2112281   0.517   4.394   7.710 -0.0395  0.2756  0.4201
  117SOPE   C2112282   0.560   4.285   7.757 -0.4414 -0.0943  0.4478
  117SOPE   O2212283   0.506   4.175   7.762 -0.1662  0.4609 -0.1828
  117SOPE   C2212284   0.705   4.310   7.802  0.7019 -0.7795 -0.0150
  117SOPE   H2R12285   0.714   4.289   7.910 -1.2967 -0.4505  0.2405
  117SOPE   H2S12286   0.738   4.414   7.785  1.1383 -0.5174  2.1692
  117SOPE    C312287   0.338   4.495   7.586  0.1194 -0.0340  0.3926
  117SOPE    HX12288   0.399   4.495   7.493 -0.0404 -0.0057  0.2867
  117SOPE    HY12289   0.350   4.587   7.646 -1.0379  0.0109  0.5730
  117SOPE   O3112290   0.200   4.486   7.555  0.0762 -0.2978 -0.2383
  117SOPE   C3112291   0.167   4.408   7.452 -0.9692  0.2565 -0.0244
  117SOPE   O3212292   0.248   4.343   7.387  0.5114  0.1587 -0.0512
  117SOPE   C3212293   0.013   4.407   7.441 -0.3510  0.5266  0.0644
  117SOPE   H2X12294  -0.028   4.508   7.421  0.9372  0.8007 -1.4267
  117SOPE   H2Y12295  -0.029   4.376   7.539 -0.8387 -0.8516 -0.5493
  117SOPE   C2312296   0.816   4.225   7.733 -0.6200  0.3979 -0.3780
  117SOPE   H3R12297   0.767   4.132   7.696  1.3818 -0.0167 -2.1909
  117SOPE   H3S12298   0.897   4.204   7.805 -1.2273  1.2179  0.5705
  117SOPE   C2412299   0.876   4.289   7.605  0.2069  0.1687 -0.6805
  117SOPE   H4R12300   0.790   4.312   7.539  1.0276  1.4973 -1.3485
  117SOPE   H4S12301   0.922   4.387   7.632 -1.1087  0.1903  1.8087
  117SOPE   C2512302   0.974   4.205   7.520 -0.1499  0.4008 -0.0048
  117SOPE   H5R12303   1.035   4.274   7.458  1.0856 -0.4373  0.2291
  117SOPE   H5S12304   1.041   4.149   7.589 -0.2521  1.1329  0.7121
  117SOPE   C2612305   0.899   4.102   7.438  0.6581 -0.0323  0.6125
  117SOPE   H6R12306   0.960   4.009   7.433  2.3047  0.9348  1.5686
  117SOPE   H6S12307   0.802   4.074   7.485 -0.3031 -0.1579 -1.3556
  117SOPE   C2712308   0.852   4.148   7.296 -1.0267 -0.3754  0.0146
  117SOPE   H7R12309   0.787   4.064   7.263 -0.5429 -1.8493  2.5617
  117SOPE   H7S12310   0.780   4.232   7.311 -0.9850 -0.3024 -0.1897
  117SOPE   C2812311   0.961   4.172   7.188 -0.8800 -0.2361  0.0265
  117SOPE   H8R12312   0.928   4.241   7.107 -1.3986  0.5113  0.8581
  117SOPE   H8S12313   1.048   4.228   7.228 -1.8909  1.4960 -0.0939
  117SOPE   C2912314   1.023   4.046   7.140 -0.0487  0.1239 -0.1663
  117SOPE   H9112315   1.058   3.981   7.222 -2.2323  0.3480  1.0005
  117SOPE  C21012316   1.047   4.001   7.016  0.8578 -0.3159 -0.3838
  117SOPE  H10112317   1.093   3.903   6.995  0.9851 -0.0447 -1.4489
  117SOPE  C21112318   1.010   4.073   6.893 -0.1860 -0.6594 -0.4591
  117SOPE  H11R12319   1.009   4.182   6.912  0.0739 -0.2319 -2.5767
  117SOPE  H11S12320   0.903   4.063   6.863 -0.4501  1.2922 -0.2983
  117SOPE  C21212321   1.099   4.052   6.770 -0.4251  0.0951  0.1355
  117SOPE  H12R12322   1.113   3.944   6.749  1.4449  0.4881 -0.8752
  117SOPE  H12S12323   1.205   4.081   6.787  0.4740 -1.9544 -1.5003
  117SOPE  C21312324   1.036   4.113   6.640 -0.5259 -0.0854 -0.6657
  117SOPE  H13R12325   1.074   4.216   6.628  2.5616 -1.0255 -0.0033
  117SOPE  H13S12326   0.927   4.122   6.656 -0.7231 -1.5712 -0.9693
  117SOPE  C21412327   1.076   4.050   6.510 -0.6156 -0.1360 -0.3909
  117SOPE  H14R12328   1.023   3.958   6.475  0.4765 -0.2282 -1.9020
  117SOPE  H14S12329   1.183   4.027   6.524 -1.1890 -2.0180  1.4133
  117SOPE  C21512330   1.064   4.145   6.390 -0.5228 -0.3040 -0.5086
  117SOPE  H15R12331   1.135   4.227   6.414 -0.0113 -1.0668  0.6515
  117SOPE  H15S12332   0.963   4.191   6.404 -0.1428  0.2524  0.4927
  117SOPE  C21612333   1.058   4.075   6.252  0.1286 -0.0166  0.0710
  117SOPE  H16R12334   0.986   3.990   6.257 -1.4452  1.0755 -1.9982
  117SOPE  H16S12335   1.159   4.038   6.224 -0.2686 -0.5166 -0.7449
  117SOPE  C21712336   0.996   4.160   6.145 -0.1771  0.1586  0.0142
  117SOPE  H17R12337   1.056   4.249   6.117  1.0329 -0.4574  0.5919
  117SOPE  H17S12338   0.896   4.187   6.185  0.1683 -1.7239  2.3106
  117SOPE  C21812339   0.959   4.070   6.028  0.0348  0.4131  1.2806
  117SOPE  H18R12340   1.051   4.022   5.987 -1.0904  0.1723 -1.1434
  117SOPE  H18S12341   0.930   4.126   5.936  0.4395  0.5707  1.2482
  117SOPE  H18T12342   0.884   3.990   6.047 -0.0269 -0.2885 -1.4951
  117SOPE   C3312343  -0.037   4.325   7.324  0.5767  0.1694 -0.2432
  117SOPE   H3X12344  -0.141   4.295   7.352  1.4540 -1.6465  1.3103
  117SOPE   H3Y12345   0.018   4.229   7.313 -1.4144 -1.4324  2.4708
  117SOPE   C3412346  -0.033   4.404   7.184  0.1181  0.3353  0.6970
  117SOPE   H4X12347   0.072   4.421   7.154 -0.2401 -1.8159 -2.0915
  117SOPE   H4Y12348  -0.074   4.503   7.215  0.9225  0.1655  2.4266
  117SOPE   C3512349  -0.106   4.330   7.069 -0.0241  0.4336 -0.2123
  117SOPE   H5X12350  -0.216   4.328   7.085  0.0542  1.1091  0.4419
  117SOPE   H5Y12351  -0.067   4.226   7.065 -1.5145 -0.1132 -1.4493
  117SOPE   C3612352  -0.083   4.387   6.924  0.1447 -0.6007  0.3901
  117SOPE   H6X12353   0.024   4.405   6.900 -0.0409  1.5504  0.9561
  117SOPE   H6Y12354  -0.135   4.485   6.918 -2.6558 -2.0527 -1.0000
  117SOPE   C3712355  -0.147   4.313   6.808  0.6545 -0.0430  0.0955
  117SOPE   H7X12356  -0.254   4.344   6.802  1.2293  1.8975 -1.0660
  117SOPE   H7Y12357  -0.141   4.203   6.821  0.2737 -0.1734 -0.7886
  117SOPE   C3812358  -0.080   4.344   6.671  0.1380 -0.0581 -0.4117
  117SOPE   H8X12359   0.023   4.304   6.681  0.0780  0.3400  2.4665
  117SOPE   H8Y12360  -0.078   4.450   6.638  0.3844  0.1615  0.2966
  117SOPE   C3912361  -0.160   4.271   6.559 -0.6792 -0.8947  0.2767
  117SOPE   H9X12362  -0.249   4.332   6.532  0.2501  0.9114  1.0806
  117SOPE   H9Y12363  -0.199   4.173   6.595 -0.5544 -0.5919  1.2656
  117SOPE  C31012364  -0.073   4.238   6.441  0.1352 -0.6973  0.1571
  117SOPE  H10X12365   0.006   4.166   6.472 -0.7892 -1.5272  0.6432
  117SOPE  H10Y12366  -0.025   4.328   6.396 -1.0569  0.9399  2.0213
  117SOPE  C31112367  -0.141   4.163   6.328 -0.0783  0.2266  0.0566
  117SOPE  H11X12368  -0.220   4.223   6.277 -2.0301 -1.7838  0.5802
  117SOPE  H11Y12369  -0.197   4.070   6.353 -1.8039  0.8688 -1.1788
  117SOPE  C31212370  -0.042   4.127   6.219  0.1258 -0.5600  0.0769
  117SOPE  H12X12371   0.043   4.068   6.259  0.7284 -0.7463 -1.4168
  117SOPE  H12Y12372   0.000   4.224   6.184 -2.1219  0.9461  1.2803
  117SOPE  C31312373  -0.103   4.072   6.090  0.5767  0.2404  0.1019
  117SOPE  H13X12374  -0.185   4.138   6.053 -1.0781 -1.9303 -0.2586
  117SOPE  H13Y12375  -0.151   3.973   6.100  0.2770  0.3628 -0.0929
  117SOPE  C31412376   0.008   4.076   5.987  0.3908  0.0109  0.7543
  117SOPE  H14X12377   0.082   3.996   6.010 -3.2586 -4.1983 -0.6383
  117SOPE  H14Y12378   0.057   4.175   5.991  1.4890 -0.4603 -0.3208
  117SOPE  C31512379  -0.038   4.068   5.845  0.1641 -0.5559 -0.4135
  117SOPE  H15X12380  -0.109   4.144   5.805  2.0858  1.6010  0.0535
  117SOPE  H15Y12381  -0.067   3.965   5.816  0.1045 -0.5534 -0.3610
  117SOPE  C31612382   0.089   4.102   5.755  0.3532 -0.4636 -0.0985
  117SOPE  H16X12383   0.179   4.044   5.785  1.8574  1.8172  0.0011
  117SOPE  H16Y12384   0.106   4.210   5.773  0.2202 -0.2559 -1.1347
  117SOPE  C31712385   0.070   4.067   5.600  0.6734  0.1328 -0.6788
  117SOPE  H17X12386  -0.004   4.142   5.564 -0.4229 -0.0878  1.0089
  117SOPE  H17Y12387   0.031   3.963   5.588 -0.8004  0.4039  1.2179
  117SOPE  C31812388   0.188   4.082   5.509  0.0607 -0.7422  0.4775
  117SOPE  H18X12389   0.271   4.011   5.530  2.0187  1.5512  1.0009
  117SOPE  H18Y12390   0.242   4.178   5.524 -0.9198 -0.2926  1.2346
  117SOPE  H18Z12391   0.158   4.075   5.403  0.5455  0.7102  0.2188
  118SOPE     N12392   5.471   0.101   8.574 -0.1750 -0.3551 -0.4774
  118SOPE   HN112393   5.447   0.036   8.652  3.0295  1.2527  2.0626
  118SOPE   HN212394   5.505   0.045   8.493  1.5694 -0.9997  0.6573
  118SOPE   HN312395   5.540   0.171   8.606 -1.1343  1.2070 -1.6946
  118SOPE   C1212396   5.338   0.174   8.539 -0.9235 -0.4492  0.1302
  118SOPE  H12A12397   5.362   0.277   8.506  1.4319 -1.3381 -1.1987
  118SOPE  H12B12398   5.286   0.186   8.637  0.4976  1.8320  0.6953
  118SOPE   C1112399   5.263   0.088   8.445 -0.2369  0.3355  0.2584
  118SOPE  H11A12400   5.323   0.085   8.352 -0.9279 -1.9486 -0.1760
  118SOPE  H11B12401   5.171   0.148   8.429 -2.2879 -2.7945 -0.6021
  118SOPE     P12402   5.230  -0.172   8.395  0.0068 -0.2601 -0.1815
  118SOPE   O1312403   5.154  -0.282   8.454 -0.3505 -0.3578  0.2787
  118SOPE   O1412404   5.369  -0.198   8.352 -0.1745 -0.2531  0.5949
  118SOPE   O1212405   5.237  -0.043   8.504  0.3415  0.2452  0.2076
  118SOPE   O1112406   5.148  -0.105   8.271  0.3205  0.0203 -0.0816
  118SOPE    C112407   5.005  -0.099   8.282 -0.2966 -0.4053 -0.7420
  118SOPE    HA12408   4.973  -0.004   8.233 -0.9521 -0.7279 -0.9536
  118SOPE    HB12409   4.964  -0.079   8.383 -0.5481 -0.8014 -0.7638
  118SOPE    C212410   4.928  -0.214   8.218  0.4982 -0.1919  0.2262
  118SOPE    HS12411   4.928  -0.300   8.289  0.5370 -0.3843 -0.0055
  118SOPE   O2112412   4.986  -0.266   8.097 -0.4773 -0.0815  0.4629
  118SOPE   C2112413   4.940  -0.386   8.063  0.3832  0.7095 -0.6364
  118SOPE   O2212414   4.873  -0.458   8.137  0.1881 -0.0036 -0.3593
  118SOPE   C2212415   4.987  -0.426   7.925 -0.5550 -0.1375  0.1821
  118SOPE   H2R12416   5.089  -0.467   7.942 -0.3583  0.4549  0.4610
  118SOPE   H2S12417   4.990  -0.337   7.858  1.2885  0.9951  1.6552
  118SOPE    C312418   4.778  -0.177   8.191  0.3754  0.1236  0.0752
  118SOPE    HX12419   4.740  -0.154   8.293 -0.4282 -0.4096 -0.1007
  118SOPE    HY12420   4.712  -0.263   8.169  0.5825  0.2721 -1.1844
  118SOPE   O3112421   4.758  -0.059   8.109 -1.0506  0.5475 -0.4913
  118SOPE   C3112422   4.707  -0.082   7.992 -0.2564  0.3250 -0.1533
  118SOPE   O3212423   4.675  -0.195   7.953  0.0397  0.1089 -0.1581
  118SOPE   C3212424   4.698   0.046   7.907 -0.4009  0.2057  0.5193
  118SOPE   H2X12425   4.785   0.114   7.918  0.3582 -0.8811  1.4642
  118SOPE   H2Y12426   4.601   0.095   7.932 -0.7377 -0.4253  0.4694
  118SOPE   C2312427   4.897  -0.540   7.860 -0.1167 -0.4024  0.0409
  118SOPE   H3R12428   4.791  -0.507   7.851 -0.4855 -1.4242  0.4760
  118SOPE   H3S12429   4.892  -0.629   7.925 -1.4713  0.4253  1.1391
  118SOPE   C2412430   4.943  -0.594   7.726  0.5008  0.2685 -0.1162
  118SOPE   H4R12431   5.050  -0.618   7.744  0.5813  0.3970 -0.4164
  118SOPE   H4S12432   4.899  -0.695   7.711  0.5295  0.0793  0.9794
  118SOPE   C2512433   4.921  -0.489   7.614  0.0889 -0.2902 -0.5033
  118SOPE   H5R12434   4.816  -0.455   7.624  0.6561  1.0871  1.2635
  118SOPE   H5S12435   4.981  -0.397   7.634  1.3602 -1.3767  0.9298
  118SOPE   C2612436   4.945  -0.533   7.468  0.6899 -0.3566  0.5606
  118SOPE   H6R12437   4.950  -0.644   7.465 -2.1764 -0.5334 -0.0899
  118SOPE   H6S12438   4.866  -0.507   7.395  2.2650 -0.7418 -1.3659
  118SOPE   C2712439   5.067  -0.467   7.422  0.0846  0.6052 -0.6316
  118SOPE   H7R12440   5.060  -0.359   7.448 -3.1814  0.2823  0.2650
  118SOPE   H7S12441   5.145  -0.510   7.487 -2.3024 -0.4920  1.6714
  118SOPE   C2812442   5.103  -0.486   7.272 -0.1886  0.6984 -0.1819
  118SOPE   H8R12443   5.036  -0.429   7.204 -1.4060 -2.2566 -1.6412
  118SOPE   H8S12444   5.204  -0.441   7.260  0.4952 -0.0192  2.2967
  118SOPE   C2912445   5.108  -0.634   7.242 -0.1631  0.4240  0.5503
  118SOPE   H9112446   5.146  -0.701   7.320  0.3075  0.9462  0.7701
  118SOPE  C21012447   5.062  -0.685   7.126  0.1131 -0.0335  0.0193
  118SOPE  H10112448   5.083  -0.789   7.097  0.4985  0.3820 -1.2346
  118SOPE  C21112449   5.006  -0.608   7.002 -0.4429  0.1800 -0.3228
  118SOPE  H11R12450   5.014  -0.499   7.023 -1.3019  0.3959 -1.0433
  118SOPE  H11S12451   4.903  -0.640   6.974 -0.8327  1.3027 -0.2107
  118SOPE  C21212452   5.101  -0.635   6.889 -0.2290  0.0303  0.3307
  118SOPE  H12R12453   5.101  -0.741   6.855 -0.7488  0.8262 -2.4605
  118SOPE  H12S12454   5.209  -0.621   6.910  0.1133  0.2913 -1.4374
  118SOPE  C21312455   5.071  -0.547   6.770  0.6139 -0.4728  0.2103
  118SOPE  H13R12456   5.075  -0.438   6.788 -2.2596 -0.1105 -0.8150
  118SOPE  H13S12457   4.973  -0.570   6.723 -0.2333  4.8461 -1.2099
  118SOPE  C21412458   5.181  -0.585   6.664  1.0954  0.1686  0.1442
  118SOPE  H14R12459   5.171  -0.692   6.636  0.9989  0.5412 -1.3456
  118SOPE  H14S12460   5.284  -0.558   6.695  0.4938  2.8335  0.0226
  118SOPE  C21512461   5.162  -0.509   6.532  0.3145  0.1225 -0.3010
  118SOPE  H15R12462   5.168  -0.400   6.555 -1.1335  0.1531  0.0229
  118SOPE  H15S12463   5.058  -0.518   6.495  0.8331 -3.6742 -1.2326
  118SOPE  C21612464   5.271  -0.537   6.421  0.0828  0.7142 -0.2356
  118SOPE  H16R12465   5.278  -0.646   6.400 -1.6794 -0.0118  2.3988
  118SOPE  H16S12466   5.368  -0.520   6.472 -0.4626  0.4596  0.9195
  118SOPE  C21712467   5.249  -0.457   6.294  0.8000  0.2444  0.7695
  118SOPE  H17R12468   5.224  -0.354   6.326 -3.3830  0.2860 -1.8625
  118SOPE  H17S12469   5.150  -0.488   6.256  1.8461 -2.0435 -0.2709
  118SOPE  C21812470   5.357  -0.466   6.184  0.2564  0.1561 -0.0976
  118SOPE  H18R12471   5.313  -0.411   6.098  0.2880 -0.2458 -0.3783
  118SOPE  H18S12472   5.380  -0.573   6.160  0.3159  0.2270 -0.3659
  118SOPE  H18T12473   5.453  -0.422   6.220  0.8403  0.0335 -1.4326
  118SOPE   C3312474   4.693   0.011   7.760  0.0430  0.3791 -0.7107
  118SOPE   H3X12475   4.661   0.098   7.700  1.5743  2.1186  0.8638
  118SOPE   H3Y12476   4.615  -0.066   7.742  0.0237 -0.4318  2.1961
  118SOPE   C3412477   4.829  -0.028   7.689  0.4864 -0.2581 -0.6969
  118SOPE   H4X12478   4.870  -0.119   7.739  2.5244 -0.1499 -2.0731
  118SOPE   H4Y12479   4.903   0.054   7.701 -1.0240  1.2430 -1.3468
  118SOPE   C3512480   4.811  -0.067   7.539  0.0639 -0.1115  0.0272
  118SOPE   H5X12481   4.745   0.006   7.486 -0.2540 -1.0425 -0.8928
  118SOPE   H5Y12482   4.758  -0.164   7.528  1.7226 -1.1949  1.2057
  118SOPE   C3612483   4.937  -0.077   7.456  0.1874 -0.1234  0.7729
  118SOPE   H6X12484   4.997  -0.162   7.493 -1.8635 -1.4883  1.1348
  118SOPE   H6Y12485   5.000   0.014   7.462 -1.7050  1.4463 -1.1535
  118SOPE   C3712486   4.908  -0.106   7.307  0.5511 -0.4396 -1.0380
  118SOPE   H7X12487   4.838  -0.033   7.260 -0.3246  0.7848  1.9674
  118SOPE   H7Y12488   4.866  -0.209   7.297 -0.2234 -0.0465 -2.1592
  118SOPE   C3812489   5.036  -0.108   7.217 -0.0509  0.4594 -0.9835
  118SOPE   H8X12490   5.108  -0.179   7.262 -2.1716 -1.9981 -1.2338
  118SOPE   H8Y12491   5.074  -0.004   7.220 -3.7065  1.9645 -0.9695
  118SOPE   C3912492   5.012  -0.158   7.068 -0.3514  0.5470 -0.4190
  118SOPE   H9X12493   4.969  -0.261   7.060  0.0679  0.4437 -1.4377
  118SOPE   H9Y12494   5.111  -0.163   7.019 -0.5005  0.2743 -0.7014
  118SOPE  C31012495   4.922  -0.069   6.990 -0.0945  0.3382  0.2440
  118SOPE  H10X12496   4.958   0.036   6.993 -0.0971  0.3210  0.9643
  118SOPE  H10Y12497   4.829  -0.087   7.049  0.2261 -0.9872  0.3795
  118SOPE  C31112498   4.893  -0.105   6.846  0.0901  0.1393  0.7875
  118SOPE  H11X12499   4.799  -0.055   6.817  0.0411  1.6800  3.2608
  118SOPE  H11Y12500   4.867  -0.213   6.833  1.2318  0.0045 -0.6524
  118SOPE  C31212501   5.010  -0.070   6.755 -0.8973 -0.3495  0.8565
  118SOPE  H12X12502   5.102  -0.132   6.770 -0.4886  0.1507  0.4738
  118SOPE  H12Y12503   5.042   0.035   6.768 -0.6594 -0.5862  2.3495
  118SOPE  C31312504   4.972  -0.099   6.614  0.1210  0.3322  0.0339
  118SOPE  H13X12505   4.889  -0.031   6.586  0.9191  0.0443 -3.4888
  118SOPE  H13Y12506   4.952  -0.207   6.598  3.6554 -0.5850  0.8429
  118SOPE  C31412507   5.077  -0.063   6.506 -0.1553 -0.3869 -0.8680
  118SOPE  H14X12508   5.177  -0.105   6.533 -0.9202 -1.5790  0.2425
  118SOPE  H14Y12509   5.081   0.047   6.490  0.4534 -0.2425  0.1830
  118SOPE  C31512510   5.049  -0.131   6.375  0.4937 -0.1612  0.2172
  118SOPE  H15X12511   5.061  -0.240   6.392  0.9157 -0.3938 -1.3919
  118SOPE  H15Y12512   5.136  -0.113   6.308  0.7845 -0.2948  0.5582
  118SOPE  C31612513   4.911  -0.113   6.316 -0.2602 -0.7156 -0.0956
  118SOPE  H16X12514   4.897  -0.004   6.296 -1.9567 -0.5057  1.8522
  118SOPE  H16Y12515   4.835  -0.144   6.391  0.4175  1.2132  1.4749
  118SOPE  C31712516   4.877  -0.199   6.191  0.2367  0.1662 -0.2176
  118SOPE  H17X12517   4.864  -0.303   6.229 -0.7655 -0.3749 -1.9466
  118SOPE  H17Y12518   4.962  -0.191   6.119  2.2706  2.8158  2.2140
  118SOPE  C31812519   4.749  -0.156   6.127  0.5937  0.1289 -0.0334
  118SOPE  H18X12520   4.739  -0.046   6.124  1.6298  0.2427  0.4366
  118SOPE  H18Y12521   4.670  -0.188   6.199  0.9493  1.0605  0.7895
  118SOPE  H18Z12522   4.732  -0.208   6.030 -0.6897  0.2599  0.0987
  119SOPE     N12523   3.013   4.993   8.434  0.4691  0.1642 -0.0026
  119SOPE   HN112524   3.040   4.895   8.411 -0.8628  0.2058 -2.0538
  119SOPE   HN212525   3.036   5.002   8.535  1.3476  1.0676 -0.2727
  119SOPE   HN312526   2.911   5.006   8.419 -0.0450 -3.3083 -0.3459
  119SOPE   C1212527   3.104   5.087   8.357  0.2083 -0.2247  0.4064
  119SOPE  H12A12528   3.210   5.081   8.389  1.5084  3.0782 -2.5339
  119SOPE  H12B12529   3.083   5.192   8.388  1.3201 -0.1422  0.9292
  119SOPE   C1112530   3.079   5.074   8.204 -0.0904  0.8908  0.4508
  119SOPE  H11A12531   2.969   5.072   8.193  0.1461 -0.4244 -2.6157
  119SOPE  H11B12532   3.112   4.971   8.178 -0.2028  0.1675  2.8686
  119SOPE     P12533   3.289   5.159   8.074 -0.0185  0.0898  0.2288
  119SOPE   O1312534   3.349   5.055   8.155 -0.0015  0.3285 -0.2516
  119SOPE   O1412535   3.349   5.293   8.077  0.5088  0.0838 -0.6054
  119SOPE   O1212536   3.136   5.174   8.125 -0.2051  0.0317 -0.3700
  119SOPE   O1112537   3.275   5.105   7.924 -0.8800 -0.0787  0.0814
  119SOPE    C112538   3.267   4.962   7.908  0.4369 -0.1286  0.5459
  119SOPE    HA12539   3.258   4.898   7.998 -0.1620 -0.9661 -0.0930
  119SOPE    HB12540   3.359   4.926   7.858  0.0166  1.2781 -1.3678
  119SOPE    C212541   3.163   4.938   7.792  0.5820  0.2535  0.1686
  119SOPE    HS12542   3.168   4.829   7.771 -1.2215 -0.0595  1.1900
  119SOPE   O2112543   3.200   5.018   7.676  0.0205 -0.0681  0.1887
  119SOPE   C2112544   3.303   4.975   7.599  0.4466  0.2733  0.1004
  119SOPE   O2212545   3.351   4.862   7.607  0.4145  0.0675  0.2984
  119SOPE   C2212546   3.342   5.073   7.502  0.6285  0.1799 -0.3699
  119SOPE   H2R12547   3.437   5.117   7.538 -0.1989  1.0811  0.7524
  119SOPE   H2S12548   3.269   5.156   7.508  1.2402  0.8239 -1.4489
  119SOPE    C312549   3.013   4.973   7.831  0.4960  0.4846 -0.3150
  119SOPE    HX12550   3.013   5.084   7.838  2.0554  0.4358  3.8357
  119SOPE    HY12551   3.008   4.928   7.933  0.1494 -1.0549 -0.9849
  119SOPE   O3112552   2.918   4.911   7.746  0.2968 -0.4985 -1.0969
  119SOPE   C3112553   2.878   4.985   7.652 -0.2423 -0.4980 -0.4673
  119SOPE   O3212554   2.915   5.098   7.623 -0.1396  0.4561  0.0238
  119SOPE   C3212555   2.779   4.908   7.570 -0.2684  0.1172 -0.2199
  119SOPE   H2X12556   2.763   4.958   7.472  2.0032  0.1794 -0.6264
  119SOPE   H2Y12557   2.678   4.912   7.616 -0.3275  3.6864 -0.3695
  119SOPE   C2312558   3.342   5.016   7.362 -0.0918  0.4615  0.0619
  119SOPE   H3R12559   3.242   5.016   7.314  0.0071  1.5967 -0.1814
  119SOPE   H3S12560   3.367   4.908   7.368 -0.3263  0.2187 -2.4258
  119SOPE   C2412561   3.432   5.087   7.265 -1.0257  0.3969 -0.5920
  119SOPE   H4R12562   3.411   5.195   7.282 -0.0356  0.5238 -0.0777
  119SOPE   H4S12563   3.538   5.072   7.292 -1.6439 -1.6681  0.9562
  119SOPE   C2512564   3.394   5.039   7.126 -0.3007  0.1753  0.1011
  119SOPE   H5R12565   3.391   4.929   7.116 -0.2821  0.1158  0.6846
  119SOPE   H5S12566   3.286   5.064   7.111 -0.5181 -0.5797  0.3659
  119SOPE   C2612567   3.476   5.094   7.004 -0.5798 -0.0300  0.7119
  119SOPE   H6R12568   3.486   5.204   7.010  1.2602 -0.0988 -0.3897
  119SOPE   H6S12569   3.577   5.047   7.008 -0.2482  0.6893  0.8790
  119SOPE   C2712570   3.401   5.054   6.873  0.2143  0.8970  0.0617
  119SOPE   H7R12571   3.361   4.952   6.885  2.4854 -0.0159  0.3515
  119SOPE   H7S12572   3.310   5.117   6.865 -0.1626  0.5133  1.1505
  119SOPE   C2812573   3.492   5.077   6.752  0.1902  0.1384 -0.1935
  119SOPE   H8R12574   3.434   5.074   6.657 -2.6485 -0.6313  1.4460
  119SOPE   H8S12575   3.538   5.178   6.766 -0.1422  0.4254 -1.0804
  119SOPE   C2912576   3.603   4.974   6.766  0.6701  0.3217 -0.2452
  119SOPE   H9112577   3.681   4.992   6.841  4.3782 -4.0303 -2.5582
  119SOPE  C21012578   3.622   4.867   6.679  0.2571 -0.4646 -1.1692
  119SOPE  H10112579   3.697   4.793   6.710 -0.9399 -1.1629  0.1844
  119SOPE  C21112580   3.534   4.822   6.569  0.8982  0.4582  0.4845
  119SOPE  H11R12581   3.437   4.876   6.569  0.4567 -0.3247  0.4682
  119SOPE  H11S12582   3.511   4.713   6.568 -2.0523  0.9305  2.8027
  119SOPE  C21212583   3.596   4.855   6.432 -0.4535  0.1213  0.0570
  119SOPE  H12R12584   3.688   4.795   6.419 -1.0531 -0.3470 -2.8469
  119SOPE  H12S12585   3.621   4.963   6.438  0.8197 -0.1717  0.2386
  119SOPE  C21312586   3.501   4.824   6.318  0.6640 -0.8914  0.5888
  119SOPE  H13R12587   3.419   4.899   6.315 -0.0083 -1.6555 -1.0505
  119SOPE  H13S12588   3.448   4.731   6.346  0.5051 -1.5321 -1.6978
  119SOPE  C21412589   3.568   4.808   6.175  0.4803  0.9075  0.4241
  119SOPE  H14R12590   3.483   4.792   6.105  1.1344 -1.1039  0.0228
  119SOPE  H14S12591   3.635   4.719   6.171 -0.5812  0.1149 -0.6094
  119SOPE  C21512592   3.649   4.932   6.138  0.5532 -0.3720 -0.4767
  119SOPE  H15R12593   3.750   4.941   6.183  1.6053 -0.4422 -2.7043
  119SOPE  H15S12594   3.583   5.018   6.163  1.3292  1.2755 -3.5569
  119SOPE  C21612595   3.674   4.943   5.988 -0.7819  0.0331  0.6079
  119SOPE  H16R12596   3.730   5.037   5.967 -2.1348  0.5794 -0.7719
  119SOPE  H16S12597   3.583   4.967   5.929 -0.0020 -0.0687 -0.6822
  119SOPE  C21712598   3.762   4.839   5.920 -0.5401  0.3850  0.0734
  119SOPE  H17R12599   3.839   4.793   5.986  0.2434 -0.4785 -1.3960
  119SOPE  H17S12600   3.831   4.879   5.843 -0.1515 -0.0616  0.1801
  119SOPE  C21812601   3.682   4.727   5.852  0.0333  0.4642  0.2826
  119SOPE  H18R12602   3.743   4.655   5.794 -1.4178 -1.0869  0.6063
  119SOPE  H18S12603   3.609   4.757   5.774 -1.7947 -1.9347  0.9586
  119SOPE  H18T12604   3.620   4.674   5.928 -0.4838  1.6498  0.7201
  119SOPE   C3312605   2.818   4.760   7.536  0.5354  0.1403 -0.6149
  119SOPE   H3X12606   2.729   4.721   7.481 -0.4423  1.1977  0.1779
  119SOPE   H3Y12607   2.831   4.705   7.631 -0.3484  0.8928 -0.0445
  119SOPE   C3412608   2.939   4.742   7.447  0.0317 -0.1990 -0.1566
  119SOPE   H4X12609   2.949   4.632   7.434  0.8262 -0.3564  1.4670
  119SOPE   H4Y12610   3.023   4.765   7.517 -0.7005  0.3337  0.5750
  119SOPE   C3512611   2.942   4.822   7.313  0.7966  0.1401  0.1678
  119SOPE   H5X12612   2.945   4.930   7.339 -1.4901  0.0678  0.9323
  119SOPE   H5Y12613   2.842   4.815   7.265 -0.1899  2.1935  1.7641
  119SOPE   C3612614   3.055   4.778   7.225 -0.3814 -0.1419  0.2212
  119SOPE   H6X12615   3.046   4.669   7.204 -1.8862  0.1399 -0.7735
  119SOPE   H6Y12616   3.153   4.794   7.276 -0.2046 -1.6152  0.3841
  119SOPE   C3712617   3.046   4.861   7.090  0.1957 -0.6380  0.4065
  119SOPE   H7X12618   3.088   4.962   7.111 -1.6738  0.1326  0.7214
  119SOPE   H7Y12619   2.939   4.864   7.060 -0.7004 -3.5046  2.8202
  119SOPE   C3812620   3.116   4.796   6.970 -0.2798 -0.1504 -0.1782
  119SOPE   H8X12621   3.088   4.689   6.970 -0.7462 -0.0320  0.6296
  119SOPE   H8Y12622   3.227   4.796   6.966 -0.2692  1.3691 -0.5623
  119SOPE   C3912623   3.077   4.869   6.841 -0.3948 -0.0536  0.3564
  119SOPE   H9X12624   3.112   4.974   6.836 -1.9683  0.4587 -1.5133
  119SOPE   H9Y12625   2.966   4.872   6.837 -0.4100 -0.9479 -0.2394
  119SOPE  C31012626   3.130   4.798   6.712  0.0273  0.1240 -0.4113
  119SOPE  H10X12627   3.173   4.698   6.736 -2.3439 -1.7139 -3.0563
  119SOPE  H10Y12628   3.214   4.863   6.683  0.2310  0.7331  1.4313
  119SOPE  C31112629   3.031   4.772   6.592 -0.5119 -0.6102 -0.4510
  119SOPE  H11X12630   2.979   4.865   6.562 -1.1159 -1.2384 -1.4052
  119SOPE  H11Y12631   2.950   4.704   6.625  0.8608 -1.4926  1.2644
  119SOPE  C31212632   3.101   4.692   6.476 -0.0245  0.0003 -0.0017
  119SOPE  H12X12633   3.015   4.626   6.454  1.3488 -2.1443  0.7870
  119SOPE  H12Y12634   3.189   4.636   6.513  1.2166  1.7282 -0.2150
  119SOPE  C31312635   3.142   4.777   6.350 -0.0775  0.2406 -0.3177
  119SOPE  H13X12636   3.207   4.857   6.390 -0.3464  0.0128  0.6022
  119SOPE  H13Y12637   3.057   4.833   6.304  0.9605  2.0135 -0.1635
  119SOPE  C31412638   3.205   4.687   6.243  0.2058 -0.6321  0.0299
  119SOPE  H14X12639   3.292   4.629   6.282  1.5780  0.7421 -0.8387
  119SOPE  H14Y12640   3.250   4.743   6.158  1.1930 -2.3056 -0.5971
  119SOPE  C31512641   3.092   4.610   6.171 -1.3907  1.1971 -1.1353
  119SOPE  H15X12642   3.036   4.562   6.254 -0.0387  0.9655 -0.3296
  119SOPE  H15Y12643   3.142   4.530   6.113 -0.6147  1.4750 -0.8634
  119SOPE  C31612644   3.003   4.677   6.063 -0.7125 -0.4592  0.9707
  119SOPE  H16X12645   3.048   4.675   5.961 -1.0066 -2.6009  0.8448
  119SOPE  H16Y12646   2.996   4.785   6.088 -0.2913 -0.0740 -0.4945
  119SOPE  C31712647   2.873   4.606   6.053  0.6173 -0.7170 -0.0152
  119SOPE  H17X12648   2.810   4.675   5.992  2.3746 -0.4694 -1.6321
  119SOPE  H17Y12649   2.820   4.599   6.150 -0.9387 -3.9024 -0.9574
  119SOPE  C31812650   2.880   4.460   5.998 -0.1300 -0.8295  0.0480
  119SOPE  H18X12651   2.946   4.398   6.063  0.0921  0.3016  0.9345
  119SOPE  H18Y12652   2.923   4.470   5.897  0.4629 -2.5235  0.1078
  119SOPE  H18Z12653   2.779   4.413   6.000  0.2818 -1.7230  0.9536
  120SOPE     N12654   1.814   0.676   7.858 -0.2883  0.0746  0.0091
  120SOPE   HN112655   1.790   0.659   7.758  2.1355 -0.2794 -0.5574
  120SOPE   HN212656   1.800   0.597   7.924  2.1480 -1.4399 -1.1410
  120SOPE   HN312657   1.768   0.760   7.900 -0.6486  0.1565 -0.5442
  120SOPE   C1212658   1.965   0.707   7.856 -0.4576  0.2915 -0.3451
  120SOPE  H12A12659   2.022   0.629   7.800 -0.6692  0.2213 -0.4650
  120SOPE  H12B12660   1.996   0.698   7.962  0.1167  0.5113 -0.4928
  120SOPE   C1112661   2.000   0.840   7.784  0.4341  0.5374 -0.5595
  120SOPE  H11A12662   1.996   0.815   7.676  1.1292 -1.1662 -0.2299
  120SOPE  H11B12663   2.107   0.865   7.796  0.6235  0.2569 -1.5306
  120SOPE     P12664   1.964   1.064   7.909 -0.1896  0.4937 -0.1031
  120SOPE   O1312665   2.010   0.993   8.026 -0.2237  0.6575  0.1611
  120SOPE   O1412666   1.858   1.167   7.928 -0.2830 -0.2823 -0.3379
  120SOPE   O1212667   1.905   0.948   7.815 -0.0713  0.4701  0.0213
  120SOPE   O1112668   2.089   1.104   7.831 -0.4085  0.2695  0.4561
  120SOPE    C112669   2.094   1.214   7.740 -0.0787 -0.7222  0.3929
  120SOPE    HA12670   2.193   1.264   7.743 -0.0776 -0.7859  2.2617
  120SOPE    HB12671   2.019   1.288   7.774 -0.7150 -1.8244  1.4528
  120SOPE    C212672   2.079   1.165   7.589  0.2813 -0.5388 -1.4670
  120SOPE    HS12673   2.052   1.255   7.529 -0.0981 -0.2068 -0.8166
  120SOPE   O2112674   1.984   1.062   7.574 -0.3056  0.7201 -0.2141
  120SOPE   C2112675   1.862   1.104   7.558 -0.0056  0.2544 -0.3188
  120SOPE   O2212676   1.829   1.218   7.556 -0.8877 -1.0636  0.6076
  120SOPE   C2212677   1.769   0.980   7.546 -0.1817 -0.4560 -0.0392
  120SOPE   H2R12678   1.738   0.965   7.652  1.4231  0.0399  0.5454
  120SOPE   H2S12679   1.824   0.894   7.502  1.0410 -1.3341  2.9100
  120SOPE    C312680   2.214   1.121   7.549  0.5333 -0.4187  0.4723
  120SOPE    HX12681   2.236   1.028   7.606 -2.4426 -0.7753  1.2355
  120SOPE    HY12682   2.283   1.201   7.581  0.7548 -0.1334 -0.6907
  120SOPE   O3112683   2.235   1.097   7.412 -0.3219  0.5299 -0.4562
  120SOPE   C3112684   2.366   1.063   7.392  0.0060 -0.1155 -0.6567
  120SOPE   O3212685   2.452   1.060   7.481  0.1563  0.2906  0.1851
  120SOPE   C3212686   2.388   1.001   7.251  0.0052 -0.1635 -0.1398
  120SOPE   H2X12687   2.346   0.898   7.239  0.9282 -0.3869 -1.7666
  120SOPE   H2Y12688   2.498   0.988   7.236  0.4870  0.7802  2.2031
  120SOPE   C2312689   1.643   1.007   7.459  0.5898  0.4652  0.2576
  120SOPE   H3R12690   1.609   1.111   7.476  1.7357  0.6078  1.8731
  120SOPE   H3S12691   1.565   0.934   7.489 -0.2430  1.7748  1.3684
  120SOPE   C2412692   1.655   0.999   7.299 -0.2826 -0.0798  0.0027
  120SOPE   H4R12693   1.735   1.068   7.264  0.4511 -1.6337 -1.5541
  120SOPE   H4S12694   1.684   0.898   7.261  1.1272  0.2723  0.1246
  120SOPE   C2512695   1.520   1.018   7.240 -0.1356  0.2592 -0.3572
  120SOPE   H5R12696   1.455   0.932   7.267  0.0036 -0.1032 -1.1460
  120SOPE   H5S12697   1.464   1.098   7.293 -0.7293 -1.1327  1.2210
  120SOPE   C2612698   1.510   1.057   7.085  0.2989 -0.1447  0.6641
  120SOPE   H6R12699   1.407   1.054   7.043  0.9813 -1.6110 -1.0279
  120SOPE   H6S12700   1.554   1.157   7.063  1.1049 -0.9279 -1.4624
  120SOPE   C2712701   1.564   0.952   6.998 -0.0703 -0.2139  0.1331
  120SOPE   H7R12702   1.662   0.916   7.037  0.4350 -1.0641 -1.7748
  120SOPE   H7S12703   1.503   0.859   7.002 -0.1979 -0.0852  2.6802
  120SOPE   C2812704   1.577   1.003   6.856 -0.0774  0.4855  0.1162
  120SOPE   H8R12705   1.477   1.046   6.832  1.2741  3.3019 -0.7776
  120SOPE   H8S12706   1.637   1.096   6.854  0.2346  0.3152  1.1427
  120SOPE   C2912707   1.627   0.899   6.756 -0.0804  0.6625  0.6395
  120SOPE   H9112708   1.734   0.875   6.758 -0.5646 -1.8193  0.4912
  120SOPE  C21012709   1.548   0.834   6.673 -0.0269 -0.0558 -0.3838
  120SOPE  H10112710   1.592   0.775   6.592 -0.8486  2.7720 -3.0797
  120SOPE  C21112711   1.402   0.858   6.655  0.0148 -0.2005 -0.3889
  120SOPE  H11R12712   1.378   0.965   6.634  1.0962  0.3002  0.7588
  120SOPE  H11S12713   1.340   0.826   6.742 -0.4211 -1.9020 -1.2878
  120SOPE  C21212714   1.336   0.776   6.538  0.5596 -0.4406 -0.1095
  120SOPE  H12R12715   1.227   0.773   6.554  0.7717 -1.3606  1.3276
  120SOPE  H12S12716   1.361   0.668   6.536  1.3507 -0.2621 -1.7242
  120SOPE  C21312717   1.373   0.831   6.397 -0.1249  0.3817  0.7001
  120SOPE  H13R12718   1.483   0.823   6.385 -0.0631  0.3081  1.3012
  120SOPE  H13S12719   1.355   0.940   6.397  0.7630  0.5390  0.4018
  120SOPE  C21412720   1.294   0.761   6.285  0.4087 -0.8901  0.0931
  120SOPE  H14R12721   1.323   0.654   6.280  0.1781 -1.0080  1.1994
  120SOPE  H14S12722   1.331   0.808   6.192  0.3806  0.9612  0.9817
  120SOPE  C21512723   1.140   0.787   6.281  0.4698  0.1849  0.4646
  120SOPE  H15R12724   1.116   0.894   6.297 -0.0546 -0.2527  2.9508
  120SOPE  H15S12725   1.083   0.736   6.361  0.4468 -4.0453 -1.9524
  120SOPE  C21612726   1.072   0.729   6.156  0.5060 -0.2900  0.2284
  120SOPE  H16R12727   0.966   0.720   6.185  1.2015  1.9050  4.1072
  120SOPE  H16S12728   1.120   0.631   6.131 -0.1534  0.0296 -2.6962
  120SOPE  C21712729   1.076   0.814   6.029  0.1847 -0.6640  0.2651
  120SOPE  H17R12730   1.182   0.841   6.010  0.4900  0.0152  2.5806
  120SOPE  H17S12731   1.026   0.912   6.047 -0.0743 -1.1006  2.0888
  120SOPE  C21812732   1.007   0.752   5.910  0.4805  0.7502 -0.4072
  120SOPE  H18R12733   1.023   0.813   5.819  0.3979  0.2023 -0.7869
  120SOPE  H18S12734   0.898   0.756   5.929  0.4084 -2.3911  0.2351
  120SOPE  H18T12735   1.035   0.647   5.892 -0.6520  0.4605 -0.5175
  120SOPE   C3312736   2.344   1.098   7.138 -0.1018  0.0303  0.0023
  120SOPE   H3X12737   2.235   1.119   7.151 -0.4481 -1.0278 -0.9254
  120SOPE   H3Y12738   2.360   1.042   7.043  0.4722  1.0459 -0.5171
  120SOPE   C3412739   2.405   1.232   7.122  0.0662 -0.1038  0.3611
  120SOPE   H4X12740   2.374   1.305   7.200 -0.1446 -1.0413  1.1754
  120SOPE   H4Y12741   2.364   1.276   7.029  2.2809 -1.1322 -1.1957
  120SOPE   C3512742   2.557   1.233   7.118  0.3561  0.0620 -0.2817
  120SOPE   H5X12743   2.599   1.204   7.217 -1.5595 -0.3918  0.4505
  120SOPE   H5Y12744   2.595   1.336   7.101  0.4353  0.1003  0.1075
  120SOPE   C3612745   2.622   1.153   7.003  0.8046 -0.0506 -0.2567
  120SOPE   H6X12746   2.560   1.170   6.913 -1.9011  1.1858  1.6955
  120SOPE   H6Y12747   2.617   1.044   7.024  1.1397 -0.4318 -1.9841
  120SOPE   C3712748   2.773   1.188   6.983  0.0583 -0.2122  0.4068
  120SOPE   H7X12749   2.829   1.145   7.069  0.5511  2.0164  1.2494
  120SOPE   H7Y12750   2.789   1.297   6.992  0.0760 -0.3279  2.0380
  120SOPE   C3812751   2.838   1.130   6.859 -0.4884  0.3211  0.4630
  120SOPE   H8X12752   2.785   1.159   6.766  0.9073 -0.0766 -0.4909
  120SOPE   H8Y12753   2.840   1.020   6.868  2.4520  0.1407 -1.2432
  120SOPE   C3912754   2.989   1.163   6.844  0.0745 -0.2916  0.2512
  120SOPE   H9X12755   3.055   1.133   6.928 -0.2677 -0.7922  0.3469
  120SOPE   H9Y12756   3.008   1.269   6.817  1.6750 -0.0380  2.2035
  120SOPE  C31012757   3.057   1.091   6.728 -0.0972 -0.3595  0.5553
  120SOPE  H10X12758   2.992   1.130   6.647  0.2138 -0.7990  0.0912
  120SOPE  H10Y12759   3.050   0.980   6.727 -1.4409 -0.3016 -1.4385
  120SOPE  C31112760   3.199   1.138   6.703 -0.9036 -0.8665  0.2876
  120SOPE  H11X12761   3.245   1.161   6.802 -0.6277 -0.5878  0.0952
  120SOPE  H11Y12762   3.197   1.235   6.649  0.3574 -1.3956 -0.7618
  120SOPE  C31212763   3.281   1.040   6.619  0.5913  0.0142  0.2916
  120SOPE  H12X12764   3.277   0.943   6.673 -2.0194  0.3446  0.8213
  120SOPE  H12Y12765   3.387   1.074   6.613  1.0156 -1.3565 -0.2922
  120SOPE  C31312766   3.218   1.005   6.483  0.4540 -0.1833 -0.4699
  120SOPE  H13X12767   3.174   1.095   6.436 -1.1403 -0.3962  0.5364
  120SOPE  H13Y12768   3.131   0.936   6.495  0.2097 -0.1638 -1.9301
  120SOPE  C31412769   3.306   0.938   6.381  0.4479 -0.2097 -0.9416
  120SOPE  H14X12770   3.380   1.010   6.339  0.3729 -1.6743 -3.8287
  120SOPE  H14Y12771   3.244   0.903   6.296  2.3250 -2.8719 -1.3512
  120SOPE  C31512772   3.389   0.822   6.437  0.4349  0.4808  0.5297
  120SOPE  H15X12773   3.328   0.761   6.508  1.8910 -1.1801  0.4365
  120SOPE  H15Y12774   3.472   0.859   6.500  2.0917 -0.7951 -0.7960
  120SOPE  C31612775   3.442   0.726   6.326  0.3812  0.3900 -0.4191
  120SOPE  H16X12776   3.502   0.793   6.261 -2.3314  2.2065 -1.2499
  120SOPE  H16Y12777   3.364   0.684   6.259 -0.2672 -0.8155  1.0320
  120SOPE  C31712778   3.534   0.615   6.382 -0.1100 -0.7761 -0.6467
  120SOPE  H17X12779   3.626   0.657   6.429  0.1980 -1.9467 -0.1706
  120SOPE  H17Y12780   3.570   0.557   6.294 -1.1493  1.1752 -2.4211
  120SOPE  C31812781   3.465   0.531   6.488  0.0277 -0.5518  0.6005
  120SOPE  H18X12782   3.471   0.585   6.585  1.5077 -0.0973  0.2759
  120SOPE  H18Y12783   3.506   0.429   6.506 -0.5265 -0.4616  2.6826
  120SOPE  H18Z12784   3.364   0.510   6.447  1.7688 -1.8269 -3.5480
  121SOPE     N12785   1.811   6.084   8.022 -0.1084 -0.3244 -0.1153
  121SOPE   HN112786   1.741   6.026   7.972  1.2194 -4.2268  2.1552
  121SOPE   HN212787   1.784   6.101   8.121  0.0053 -0.0168 -0.1371
  121SOPE   HN312788   1.817   6.181   7.984  1.3347  0.4939  1.9626
  121SOPE   C1212789   1.947   6.020   8.011  0.0651 -0.2027 -1.0132
  121SOPE  H12A12790   1.959   5.956   8.101  0.2970  2.8757  1.3365
  121SOPE  H12B12791   2.028   6.096   8.011  0.1598 -0.3036 -1.4628
  121SOPE   C1112792   1.959   5.942   7.875  0.0858  1.1955 -0.1831
  121SOPE  H11A12793   2.051   5.880   7.869 -0.9358 -0.3581 -0.7139
  121SOPE  H11B12794   1.971   6.002   7.783 -0.6581 -0.2754 -1.2817
  121SOPE     P12795   1.843   5.705   7.882 -0.2304  0.5860 -0.1040
  121SOPE   O1312796   1.723   5.655   7.956  0.4055  0.1495  0.4956
  121SOPE   O1412797   1.970   5.667   7.948  0.2077 -0.0364 -0.4845
  121SOPE   O1212798   1.839   5.862   7.865 -0.0680  0.2028  0.5168
  121SOPE   O1112799   1.833   5.661   7.731 -0.1759  0.0324 -0.3253
  121SOPE    C112800   1.954   5.634   7.664  0.1605  0.2790 -0.7668
  121SOPE    HA12801   1.988   5.533   7.692 -0.1994  0.2777 -0.3216
  121SOPE    HB12802   2.035   5.705   7.690  2.1746 -2.2731  0.3449
  121SOPE    C212803   1.934   5.635   7.513 -0.4168  0.1140  0.3782
  121SOPE    HS12804   1.897   5.736   7.487 -2.0168 -0.3924  0.5550
  121SOPE   O2112805   1.836   5.529   7.483 -0.3020 -0.7033 -0.0776
  121SOPE   C2112806   1.763   5.541   7.374  0.1837 -0.3900 -0.0301
  121SOPE   O2212807   1.756   5.635   7.301 -0.2662 -0.1007 -0.4747
  121SOPE   C2212808   1.665   5.412   7.374 -0.1993 -0.3953 -0.1601
  121SOPE   H2R12809   1.567   5.439   7.418  0.4882 -0.8621  1.7301
  121SOPE   H2S12810   1.716   5.333   7.433  1.9833 -0.0837 -1.4958
  121SOPE    C312811   2.066   5.606   7.430  0.0308  0.2716 -0.6908
  121SOPE    HX12812   2.106   5.504   7.446  0.1134  0.5259  0.8281
  121SOPE    HY12813   2.146   5.676   7.463  0.3945  0.4530 -1.9069
  121SOPE   O3112814   2.046   5.624   7.289 -0.5259 -0.4345 -0.4599
  121SOPE   C3112815   2.022   5.746   7.237 -0.6815  0.2247 -0.3464
  121SOPE   O3212816   2.028   5.851   7.300 -0.4077 -0.1180  0.5234
  121SOPE   C3212817   2.006   5.732   7.092 -0.1651 -0.2059  0.7804
  121SOPE   H2X12818   1.957   5.639   7.056  2.4427 -1.9906  1.5159
  121SOPE   H2Y12819   2.107   5.723   7.046 -1.1757 -2.0122 -1.3147
  121SOPE   C2312820   1.644   5.357   7.233 -0.3340  0.2191  0.2180
  121SOPE   H3R12821   1.602   5.439   7.171 -1.4316  0.7015  1.5412
  121SOPE   H3S12822   1.562   5.282   7.243 -0.0003 -0.1648  0.1204
  121SOPE   C2412823   1.770   5.306   7.170 -0.6273  0.1434  0.2380
  121SOPE   H4R12824   1.859   5.362   7.205  0.1804 -0.2344 -1.1247
  121SOPE   H4S12825   1.777   5.195   7.180 -1.2278 -0.1666 -2.0458
  121SOPE   C2512826   1.786   5.336   7.014  0.2447 -0.2287  0.6540
  121SOPE   H5R12827   1.721   5.270   6.954 -0.4761 -0.3841  1.5748
  121SOPE   H5S12828   1.759   5.443   6.999  0.4014 -0.1584  0.8591
  121SOPE   C2612829   1.941   5.330   6.981 -0.1222  0.0804  0.4031
  121SOPE   H6R12830   1.996   5.388   7.059 -1.5637  2.1637 -0.0366
  121SOPE   H6S12831   1.978   5.226   6.986  1.5165  0.4958 -1.6173
  121SOPE   C2712832   1.974   5.403   6.844  0.0459  0.0749  0.0821
  121SOPE   H7R12833   1.948   5.338   6.758  0.4514 -0.9218  0.7018
  121SOPE   H7S12834   1.920   5.500   6.836  1.8197  1.0695 -0.2388
  121SOPE   C2812835   2.121   5.422   6.833 -0.2532 -0.5995 -0.2101
  121SOPE   H8R12836   2.133   5.506   6.761  1.3230 -1.6172 -1.1670
  121SOPE   H8S12837   2.153   5.476   6.925 -0.6209 -0.3095 -0.2478
  121SOPE   C2912838   2.212   5.310   6.803 -0.3793  0.6128  0.4572
  121SOPE   H9112839   2.233   5.239   6.885  2.9102 -0.7237 -1.3436
  121SOPE  C21012840   2.272   5.284   6.681  0.5640 -0.0126 -0.3035
  121SOPE  H10112841   2.325   5.189   6.663 -0.2595 -0.2701 -1.4295
  121SOPE  C21112842   2.260   5.368   6.555 -0.3298  0.1806 -0.2246
  121SOPE  H11R12843   2.348   5.349   6.491  1.0321 -0.4027  1.7379
  121SOPE  H11S12844   2.278   5.474   6.584  0.9503 -0.6913  2.4247
  121SOPE  C21212845   2.125   5.347   6.488 -0.7661  0.3760  0.7995
  121SOPE  H12R12846   2.040   5.385   6.548 -0.2450  3.2900 -0.1730
  121SOPE  H12S12847   2.115   5.240   6.459 -2.9487 -0.0624  2.8380
  121SOPE  C21312848   2.113   5.442   6.366 -0.3077  0.3386 -0.3020
  121SOPE  H13R12849   2.122   5.546   6.405  1.4135  0.1461 -0.0800
  121SOPE  H13S12850   2.016   5.428   6.314 -0.7586 -0.2487  0.6664
  121SOPE  C21412851   2.228   5.434   6.263 -0.0284 -0.3313 -0.3493
  121SOPE  H14R12852   2.325   5.446   6.315 -1.1218 -0.8916  1.9689
  121SOPE  H14S12853   2.233   5.522   6.195 -0.5956 -0.3509 -0.4181
  121SOPE  C21512854   2.225   5.307   6.180 -0.3726  0.1043 -0.0916
  121SOPE  H15R12855   2.130   5.286   6.127  0.6040 -1.0744 -1.4489
  121SOPE  H15S12856   2.236   5.217   6.244  0.6141 -0.5117 -1.0844
  121SOPE  C21612857   2.331   5.309   6.068  0.1053  0.1079 -0.5581
  121SOPE  H16R12858   2.431   5.333   6.111  0.2488  0.3847 -1.0432
  121SOPE  H16S12859   2.302   5.386   5.994 -0.3692  0.6450  0.1690
  121SOPE  C21712860   2.340   5.175   5.988 -0.3109 -0.2805 -0.1721
  121SOPE  H17R12861   2.240   5.128   5.979 -0.4927  0.2347 -0.9256
  121SOPE  H17S12862   2.413   5.109   6.040  1.5817  0.9068 -1.2042
  121SOPE  C21812863   2.384   5.194   5.841  0.1912 -0.5864  0.3343
  121SOPE  H18R12864   2.385   5.093   5.795  0.3953 -2.6344  4.3545
  121SOPE  H18S12865   2.482   5.245   5.836 -0.3606  0.7173  1.9745
  121SOPE  H18T12866   2.308   5.253   5.785 -1.1852 -0.7049  2.0038
  121SOPE   C3312867   1.952   5.857   7.022  0.1548 -0.6771  0.0799
  121SOPE   H3X12868   2.019   5.946   7.019 -1.6579  0.9949  3.3443
  121SOPE   H3Y12869   1.867   5.891   7.085  0.4207 -0.2484  0.2162
  121SOPE   C3412870   1.890   5.828   6.888  0.6301  0.2246 -0.2087
  121SOPE   H4X12871   1.852   5.923   6.845 -1.2125 -0.9727 -1.3168
  121SOPE   H4Y12872   1.807   5.755   6.901 -0.1517  0.8793 -1.4122
  121SOPE   C3512873   1.998   5.782   6.788 -0.5064  0.0713 -0.2633
  121SOPE   H5X12874   2.056   5.695   6.827 -1.2741 -0.1584  0.3790
  121SOPE   H5Y12875   2.070   5.860   6.755 -0.4713 -0.4787 -1.5554
  121SOPE   C3612876   1.929   5.734   6.655  0.2408 -0.2642  0.3184
  121SOPE   H6X12877   1.841   5.674   6.688  1.0805 -2.7838 -1.6929
  121SOPE   H6Y12878   1.997   5.666   6.600  1.2710 -0.0511  1.2944
  121SOPE   C3712879   1.885   5.854   6.564 -0.9873  0.0906 -0.2737
  121SOPE   H7X12880   1.977   5.891   6.514 -1.6404  0.7246 -1.0284
  121SOPE   H7Y12881   1.837   5.930   6.629  0.4788  0.6726  0.1594
  121SOPE   C3812882   1.794   5.810   6.452 -0.6110  0.2843 -0.3088
  121SOPE   H8X12883   1.758   5.897   6.393  1.3890  0.9959 -0.5531
  121SOPE   H8Y12884   1.700   5.757   6.478  0.2564 -1.3644 -0.4133
  121SOPE   C3912885   1.872   5.715   6.358 -0.8632 -0.6574  0.3164
  121SOPE   H9X12886   1.912   5.627   6.413  0.6854 -0.9193 -1.1275
  121SOPE   H9Y12887   1.970   5.767   6.343 -1.4680  0.8547  1.3988
  121SOPE  C31012888   1.801   5.701   6.222  0.5186 -0.0509 -0.1597
  121SOPE  H10X12889   1.865   5.656   6.143  0.6346 -0.0498 -0.0662
  121SOPE  H10Y12890   1.787   5.802   6.176  1.0855  0.7718  1.3926
  121SOPE  C31112891   1.669   5.629   6.243 -0.2371 -0.0575  0.9013
  121SOPE  H11X12892   1.606   5.663   6.329 -1.9078 -2.3441  0.6751
  121SOPE  H11Y12893   1.693   5.521   6.246 -1.1939 -0.5087 -2.8920
  121SOPE  C31212894   1.584   5.632   6.109 -0.3024 -0.3557  0.4567
  121SOPE  H12X12895   1.639   5.577   6.030  0.9863  0.3881  0.8005
  121SOPE  H12Y12896   1.570   5.736   6.072 -0.5567 -0.4889  0.1701
  121SOPE  C31312897   1.438   5.574   6.116 -0.1396 -0.9411  0.0074
  121SOPE  H13X12898   1.397   5.634   6.201 -0.0478  1.5180 -1.5840
  121SOPE  H13Y12899   1.444   5.471   6.157  1.6337 -0.5561  0.8235
  121SOPE  C31412900   1.357   5.600   5.987 -0.1499  0.2431 -0.2421
  121SOPE  H14X12901   1.406   5.542   5.906 -0.0341  0.4869 -0.3480
  121SOPE  H14Y12902   1.358   5.707   5.959  0.8441 -0.0960 -1.6276
  121SOPE  C31512903   1.215   5.552   6.000 -0.0820 -0.4302  0.1262
  121SOPE  H15X12904   1.167   5.604   6.085  1.1558 -2.0534  1.9059
  121SOPE  H15Y12905   1.217   5.446   6.033  1.4570 -0.9063 -1.2994
  121SOPE  C31612906   1.142   5.558   5.865  0.1386  0.6845  0.7136
  121SOPE  H16X12907   1.039   5.523   5.887 -0.0555  1.5585  1.2718
  121SOPE  H16Y12908   1.192   5.492   5.792 -0.0366  2.6523 -1.2836
  121SOPE  C31712909   1.125   5.690   5.801 -0.3967 -0.0410  0.5930
  121SOPE  H17X12910   1.046   5.686   5.722 -2.0430  0.6513  2.1240
  121SOPE  H17Y12911   1.219   5.721   5.752  0.1674 -0.5685  1.3237
  121SOPE  C31812912   1.080   5.789   5.903  0.6238  0.4156  0.0302
  121SOPE  H18X12913   1.051   5.883   5.851 -2.5627  0.6862  2.0386
  121SOPE  H18Y12914   1.168   5.822   5.962  2.1215 -0.8689 -1.3754
  121SOPE  H18Z12915   0.993   5.757   5.963  0.5782 -1.1823 -0.8413
  122SOPE     N12916   4.540   4.472   7.877  0.2360  0.2824  0.8702
  122SOPE   HN112917   4.495   4.488   7.784 -1.5756  0.8274  1.7999
  122SOPE   HN212918   4.633   4.431   7.859  0.6912  1.8442 -0.6288
  122SOPE   HN312919   4.476   4.405   7.925  1.1641 -1.1449  0.1723
  122SOPE   C1212920   4.562   4.607   7.934  0.1111  0.5425  0.2501
  122SOPE  H12A12921   4.666   4.634   7.905  0.0467 -2.1682 -3.2425
  122SOPE  H12B12922   4.548   4.611   8.044 -0.2642  1.0528  0.1854
  122SOPE   C1112923   4.474   4.706   7.855  0.4517  0.1107  0.2532
  122SOPE  H11A12924   4.493   4.710   7.745  0.0402 -1.2212  0.1135
  122SOPE  H11B12925   4.495   4.807   7.895 -1.4972  0.5324  0.3508
  122SOPE     P12926   4.229   4.778   7.867  0.3092  0.4476 -0.1313
  122SOPE   O1312927   4.257   4.886   7.959 -0.5228 -0.0505  0.3363
  122SOPE   O1412928   4.093   4.716   7.865  0.1687 -0.3887 -0.2549
  122SOPE   O1212929   4.335   4.668   7.884 -0.4328 -0.3554 -0.2090
  122SOPE   O1112930   4.270   4.820   7.719  0.7962 -0.4189  0.3311
  122SOPE    C112931   4.235   4.744   7.610  0.2942 -0.3680  0.2950
  122SOPE    HA12932   4.175   4.654   7.633  0.4590 -0.8531 -1.0513
  122SOPE    HB12933   4.326   4.709   7.557 -0.4914 -1.1032 -0.6132
  122SOPE    C212934   4.135   4.821   7.519 -0.2992 -0.3455 -1.0996
  122SOPE    HS12935   4.095   4.757   7.437 -2.6168  0.5778 -0.7826
  122SOPE   O2112936   4.207   4.934   7.476  0.0719  0.3961  0.1415
  122SOPE   C2112937   4.288   4.921   7.371  0.5304 -0.4054  0.6913
  122SOPE   O2212938   4.320   4.819   7.314 -0.2973 -0.0002 -0.2104
  122SOPE   C2212939   4.333   5.061   7.323  0.1225 -0.0327 -0.4575
  122SOPE   H2R12940   4.418   5.055   7.251 -0.8074 -0.9561 -1.5200
  122SOPE   H2S12941   4.364   5.124   7.409 -0.1203  1.4352 -1.4073
  122SOPE    C312942   4.001   4.864   7.591 -0.4203  0.0261  0.0721
  122SOPE    HX12943   4.029   4.952   7.652  1.8670 -1.3790  1.1614
  122SOPE    HY12944   3.969   4.782   7.659  3.7793  0.5152  2.9997
  122SOPE   O3112945   3.909   4.892   7.480  0.9236  0.3564  0.1429
  122SOPE   C3112946   3.807   4.801   7.469 -0.2708 -0.4826 -1.3260
  122SOPE   O3212947   3.787   4.702   7.534  0.3300 -0.2213 -0.2884
  122SOPE   C3212948   3.711   4.843   7.351 -0.8766 -0.6207 -0.2088
  122SOPE   H2X12949   3.646   4.919   7.400 -0.5297 -0.8022  0.5416
  122SOPE   H2Y12950   3.643   4.763   7.315  0.4965 -0.3826 -3.7732
  122SOPE   C2312951   4.219   5.145   7.262  0.2734  0.0142 -0.4562
  122SOPE   H3R12952   4.126   5.138   7.323 -1.2550  0.2470 -2.6328
  122SOPE   H3S12953   4.186   5.106   7.164 -0.1841  0.0011 -0.3002
  122SOPE   C2412954   4.246   5.297   7.250  0.3274 -0.1239 -0.2939
  122SOPE   H4R12955   4.160   5.366   7.232 -0.0916 -0.6663 -0.3937
  122SOPE   H4S12956   4.291   5.326   7.347 -2.2893 -0.7853  1.1955
  122SOPE   C2512957   4.346   5.334   7.144 -0.3158 -0.2544 -0.1229
  122SOPE   H5R12958   4.368   5.441   7.164 -2.0040  0.2502 -0.8263
  122SOPE   H5S12959   4.437   5.271   7.161 -1.6177 -2.7777 -1.9067
  122SOPE   C2612960   4.308   5.311   6.998 -1.2447 -0.2380  0.0392
  122SOPE   H6R12961   4.257   5.213   6.990 -1.8495  0.0367  0.4160
  122SOPE   H6S12962   4.230   5.384   6.967 -0.1994  0.3208 -1.4002
  122SOPE   C2712963   4.436   5.327   6.907  0.3660 -0.2413  0.1692
  122SOPE   H7R12964   4.479   5.429   6.917  0.5241 -0.2504 -0.3572
  122SOPE   H7S12965   4.508   5.247   6.932  2.1830  1.7580  1.7203
  122SOPE   C2812966   4.396   5.327   6.755  0.5925  0.2904 -0.4379
  122SOPE   H8R12967   4.361   5.223   6.738 -0.1142  0.4260  0.1672
  122SOPE   H8S12968   4.316   5.403   6.750  1.1493  0.8524 -1.1041
  122SOPE   C2912969   4.505   5.370   6.659 -1.0967  0.2226 -0.0089
  122SOPE   H9112970   4.589   5.300   6.651 -1.7965 -0.7982  1.1876
  122SOPE  C21012971   4.503   5.480   6.576  0.2448  0.9280 -0.0434
  122SOPE  H10112972   4.587   5.499   6.508  0.5233 -1.2093 -0.3658
  122SOPE  C21112973   4.390   5.573   6.559  0.2644  0.2787  0.0667
  122SOPE  H11R12974   4.398   5.663   6.624  2.8577 -1.0377  1.7344
  122SOPE  H11S12975   4.291   5.527   6.582  1.4766 -3.0173 -0.7874
  122SOPE  C21212976   4.383   5.618   6.414 -0.2980  0.0737  0.1026
  122SOPE  H12R12977   4.481   5.653   6.376 -1.0019 -0.9129 -2.8829
  122SOPE  H12S12978   4.301   5.692   6.402  1.2583  1.6937 -1.2105
  122SOPE  C21312979   4.334   5.496   6.316  0.3512  0.2102 -0.5120
  122SOPE  H13R12980   4.234   5.457   6.343 -0.2077  0.6434 -1.8574
  122SOPE  H13S12981   4.400   5.408   6.333 -0.2342  0.1001  1.4624
  122SOPE  C21412982   4.342   5.541   6.166  0.2386  0.3256 -0.8903
  122SOPE  H14R12983   4.434   5.601   6.152  1.0407 -0.5301  0.4291
  122SOPE  H14S12984   4.255   5.600   6.130  0.4830  0.8161 -0.6859
  122SOPE  C21512985   4.339   5.418   6.073 -0.0855 -0.7356  0.4555
  122SOPE  H15R12986   4.418   5.344   6.097 -0.5924 -0.8977  1.6872
  122SOPE  H15S12987   4.348   5.453   5.968 -0.4462 -1.3796  0.2089
  122SOPE  C21612988   4.197   5.351   6.075  0.1275 -0.1315  1.0896
  122SOPE  H16R12989   4.119   5.424   6.045  0.0670 -0.6588 -0.1096
  122SOPE  H16S12990   4.179   5.316   6.179  1.0926  1.4082  1.8030
  122SOPE  C21712991   4.194   5.238   5.971  0.4822 -0.2077 -0.1163
  122SOPE  H17R12992   4.269   5.159   5.991 -1.2263 -1.9754 -0.3987
  122SOPE  H17S12993   4.219   5.291   5.876 -0.8956  1.8658  0.6068
  122SOPE  C21812994   4.064   5.168   5.962  1.1010  0.2502 -0.2214
  122SOPE  H18R12995   4.031   5.125   6.058  1.7716  0.7639  0.2449
  122SOPE  H18S12996   4.066   5.089   5.883  1.4622  0.7706 -0.7376
  122SOPE  H18T12997   3.982   5.234   5.925  1.0352 -0.4263 -1.3457
  122SOPE   C3312998   3.783   4.918   7.240  0.4582 -0.1968 -0.0801
  122SOPE   H3X12999   3.848   4.996   7.285  0.7521 -1.4936  1.8916
  122SOPE   H3Y13000   3.712   4.968   7.170  2.5450  0.4577 -1.8464
  122SOPE   C3413001   3.871   4.827   7.152  0.8851 -0.5940  0.4322
  122SOPE   H4X13002   3.806   4.750   7.104  0.6781 -1.4346  1.9976
  122SOPE   H4Y13003   3.922   4.761   7.226  0.5464 -1.2264  0.1165
  122SOPE   C3513004   3.958   4.894   7.051 -0.0926  0.2602  0.2749
  122SOPE   H5X13005   4.006   4.986   7.091  1.3845  0.2385 -1.3049
  122SOPE   H5Y13006   3.895   4.930   6.967  0.1961 -1.1477 -0.5764
  122SOPE   C3613007   4.071   4.804   7.008  0.7030  0.0631 -0.3688
  122SOPE   H6X13008   4.022   4.725   6.947 -2.6462  1.5156  0.2058
  122SOPE   H6Y13009   4.110   4.758   7.101 -1.6986 -0.2699  0.5303
  122SOPE   C3713010   4.187   4.882   6.938  0.0491 -0.0225  0.1142
  122SOPE   H7X13011   4.277   4.820   6.922 -0.1649 -0.1964 -0.4763
  122SOPE   H7Y13012   4.227   4.959   7.007  2.8388 -0.3850 -0.9953
  122SOPE   C3813013   4.139   4.960   6.811  0.0628 -0.1776  0.1169
  122SOPE   H8X13014   4.227   5.015   6.770  0.6458  0.4950  2.1524
  122SOPE   H8Y13015   4.061   5.037   6.825  2.0017  1.7278  1.0080
  122SOPE   C3913016   4.096   4.863   6.702  0.5186 -0.3228  0.5400
  122SOPE   H9X13017   4.018   4.790   6.732 -0.0764 -0.4584 -1.2090
  122SOPE   H9Y13018   4.189   4.803   6.691  1.5339  1.5266 -2.2497
  122SOPE  C31013019   4.070   4.921   6.563  0.3528 -0.6464  0.7762
  122SOPE  H10X13020   4.159   4.974   6.523 -0.8012  0.8678  0.0740
  122SOPE  H10Y13021   3.996   5.002   6.579  0.8745  0.3070 -1.2332
  122SOPE  C31113022   4.012   4.823   6.461  0.0400  0.5732 -0.0417
  122SOPE  H11X13023   3.921   4.785   6.513 -0.3451  1.5518  0.0104
  122SOPE  H11Y13024   4.078   4.734   6.461 -1.7418 -0.9583  3.2483
  122SOPE  C31213025   3.973   4.881   6.327 -0.1832  0.2906  0.1445
  122SOPE  H12X13026   3.903   4.968   6.326  1.1102  1.3489 -1.0869
  122SOPE  H12Y13027   3.904   4.812   6.273  1.1882 -0.7897 -0.2834
  122SOPE  C31313028   4.088   4.873   6.220 -0.2880  0.3445  0.5670
  122SOPE  H13X13029   4.172   4.943   6.238  1.2551 -0.1690 -3.4789
  122SOPE  H13Y13030   4.037   4.898   6.124  0.1394 -0.4710  0.1098
  122SOPE  C31413031   4.147   4.729   6.194 -0.4863 -0.4872  0.5230
  122SOPE  H14X13032   4.066   4.652   6.186 -0.3626 -1.0500  3.5582
  122SOPE  H14Y13033   4.209   4.696   6.280 -0.1725 -1.5798 -0.1081
  122SOPE  C31513034   4.231   4.737   6.069  0.4160 -0.5546 -0.1427
  122SOPE  H15X13035   4.316   4.667   6.078 -1.4588 -2.6401  2.7553
  122SOPE  H15Y13036   4.275   4.839   6.060 -1.2933  0.1371 -1.1142
  122SOPE  C31613037   4.156   4.706   5.936 -0.1210 -0.1451  0.5568
  122SOPE  H16X13038   4.098   4.799   5.920  0.4478  0.0865 -0.2384
  122SOPE  H16Y13039   4.080   4.628   5.958 -2.1055  1.1856 -1.1144
  122SOPE  C31713040   4.248   4.669   5.821  0.9503 -0.8393  0.7695
  122SOPE  H17X13041   4.333   4.603   5.849  2.9911  0.7186 -1.4505
  122SOPE  H17Y13042   4.302   4.757   5.780 -1.3560  0.2066 -0.2340
  122SOPE  C31813043   4.160   4.628   5.703  0.0659  0.4882 -0.2206
  122SOPE  H18X13044   4.107   4.531   5.718 -1.2043  0.8574 -2.0140
  122SOPE  H18Y13045   4.218   4.613   5.610  1.1894 -0.1856  0.5586
  122SOPE  H18Z13046   4.081   4.703   5.680  0.5321  1.2196  0.4725
  123SOPE     N13047   4.554   1.522   3.471  0.6480 -1.1011 -0.2113
  123SOPE   HN113048   4.483   1.580   3.421  0.3693  0.9794  2.3608
  123SOPE   HN213049   4.645   1.572   3.467 -0.0748  0.2265 -0.7215
  123SOPE   HN313050   4.557   1.419   3.454  0.5424 -1.4972  1.9183
  123SOPE   C1213051   4.527   1.538   3.616 -0.3812 -0.1485 -0.0658
  123SOPE  H12A13052   4.507   1.645   3.638  0.1787  0.2316 -1.3558
  123SOPE  H12B13053   4.626   1.508   3.659 -0.7441 -0.7821  0.3609
  123SOPE   C1113054   4.418   1.442   3.661  0.1834  0.0553  0.7473
  123SOPE  H11A13055   4.398   1.447   3.770  0.7609  1.6013  0.7962
  123SOPE  H11B13056   4.455   1.339   3.640 -0.3219 -0.3213  1.6621
  123SOPE     P13057   4.209   1.605   3.621  0.2848  0.4630 -0.0760
  123SOPE   O1313058   4.084   1.587   3.547 -0.2560 -0.2975  0.9747
  123SOPE   O1413059   4.290   1.726   3.597  0.1337  0.2258 -0.2879
  123SOPE   O1213060   4.295   1.472   3.596  0.3545 -0.0474 -0.0539
  123SOPE   O1113061   4.177   1.598   3.780 -0.1772  0.4976  0.4824
  123SOPE    C113062   4.110   1.490   3.846  0.2692 -0.1826 -0.4338
  123SOPE    HA13063   4.174   1.401   3.865  1.1448 -0.5882 -4.4593
  123SOPE    HB13064   4.019   1.457   3.791 -0.8103  2.3534 -0.3245
  123SOPE    C213065   4.065   1.546   3.984  0.1140  0.1791  0.5389
  123SOPE    HS13066   4.030   1.459   4.044 -1.0882  1.3676  1.6242
  123SOPE   O2113067   3.959   1.642   3.974 -0.0701 -0.0882 -0.6237
  123SOPE   C2113068   3.875   1.659   4.076  0.2494  0.5202 -0.2005
  123SOPE   O2213069   3.880   1.599   4.183 -0.1285 -0.0514  0.6642
  123SOPE   C2213070   3.756   1.748   4.032  0.4668 -0.2208 -0.5945
  123SOPE   H2R13071   3.665   1.684   4.033  0.0602  0.2858 -2.5021
  123SOPE   H2S13072   3.771   1.778   3.926 -2.7183 -1.9843 -1.6796
  123SOPE    C313073   4.187   1.609   4.059 -0.0039  0.2964 -0.5126
  123SOPE    HX13074   4.215   1.708   4.016 -0.3382  1.4088  1.6493
  123SOPE    HY13075   4.277   1.550   4.032  1.1864  0.6719  2.2639
  123SOPE   O3113076   4.166   1.611   4.201 -0.6944  0.5795  0.1225
  123SOPE   C3113077   4.156   1.730   4.257  0.1157 -0.0839  0.2979
  123SOPE   O3213078   4.176   1.835   4.199  0.2143 -0.1222  0.0706
  123SOPE   C3213079   4.106   1.705   4.395 -0.2468  0.0174 -0.0133
  123SOPE   H2X13080   4.177   1.641   4.452 -0.7950  0.6528  1.4280
  123SOPE   H2Y13081   4.009   1.652   4.408  0.4722 -1.2176  0.5761
  123SOPE   C2313082   3.743   1.871   4.122  0.5565 -0.4246  0.3056
  123SOPE   H3R13083   3.681   1.945   4.067  1.5239  0.2815  0.1334
  123SOPE   H3S13084   3.839   1.927   4.126 -1.1554  2.6482  2.3823
  123SOPE   C2413085   3.677   1.837   4.253 -0.1744  0.0955  0.8502
  123SOPE   H4R13086   3.588   1.774   4.233  1.2432 -1.8773  0.4049
  123SOPE   H4S13087   3.745   1.788   4.326 -0.8978  1.1808  2.3129
  123SOPE   C2513088   3.654   1.961   4.333 -0.0969  0.1710 -0.1222
  123SOPE   H5R13089   3.752   2.006   4.360 -0.5127  0.5940  0.7283
  123SOPE   H5S13090   3.595   2.035   4.275  1.1093  1.6013  0.4027
  123SOPE   C2613091   3.572   1.956   4.461 -0.4315 -0.1197  0.2104
  123SOPE   H6R13092   3.475   1.916   4.424 -0.4638  0.1577 -0.0193
  123SOPE   H6S13093   3.619   1.882   4.529  0.1607 -1.8112 -1.9260
  123SOPE   C2713094   3.551   2.091   4.529  0.4558 -0.2076  0.9878
  123SOPE   H7R13095   3.655   2.130   4.534  0.4436  0.1410 -0.8257
  123SOPE   H7S13096   3.482   2.155   4.470  0.6586 -1.7811 -1.0742
  123SOPE   C2813097   3.495   2.070   4.672  0.3074  0.4362 -0.3157
  123SOPE   H8R13098   3.531   1.966   4.690  0.5317  0.2164 -1.8673
  123SOPE   H8S13099   3.553   2.135   4.740 -1.8101  1.7445  0.3215
  123SOPE   C2913100   3.346   2.070   4.688  0.2922  0.1779 -0.0579
  123SOPE   H9113101   3.304   2.010   4.606  0.7704  1.1512 -1.0474
  123SOPE  C21013102   3.259   2.125   4.774  0.5581  0.2735 -0.1122
  123SOPE  H10113103   3.152   2.102   4.762  0.9574 -1.2175 -1.1990
  123SOPE  C21113104   3.296   2.180   4.907 -0.6555 -0.4526  0.3007
  123SOPE  H11R13105   3.265   2.286   4.898  0.9324 -0.0954 -1.4770
  123SOPE  H11S13106   3.403   2.172   4.933 -0.2485 -2.4152 -1.6414
  123SOPE  C21213107   3.220   2.107   5.024  0.2375  0.8726  0.2373
  123SOPE  H12R13108   3.238   1.998   5.011 -1.2281  0.5926  0.4950
  123SOPE  H12S13109   3.113   2.135   5.027 -0.0264 -0.0917  0.2116
  123SOPE  C21313110   3.283   2.148   5.164 -0.6928  0.1681  0.3159
  123SOPE  H13R13111   3.305   2.256   5.154  0.9665 -0.3309 -2.7660
  123SOPE  H13S13112   3.380   2.096   5.177  0.7031  2.9043  1.7063
  123SOPE  C21413113   3.179   2.112   5.280 -0.0681 -0.1163 -0.2002
  123SOPE  H14R13114   3.157   2.004   5.268  2.6059 -0.5148 -2.3666
  123SOPE  H14S13115   3.082   2.158   5.250  0.6886  0.5155 -1.7888
  123SOPE  C21513116   3.235   2.164   5.417 -0.1826  0.2231 -0.1159
  123SOPE  H15R13117   3.263   2.270   5.398 -2.7720  1.2115  1.0129
  123SOPE  H15S13118   3.322   2.099   5.438 -1.5928 -1.8279 -0.3369
  123SOPE  C21613119   3.133   2.153   5.525 -0.5290 -0.2432 -0.5922
  123SOPE  H16R13120   3.040   2.192   5.478 -0.3353 -1.4534 -2.0725
  123SOPE  H16S13121   3.147   2.210   5.619 -0.2028 -4.5331  2.2472
  123SOPE  C21713122   3.107   2.007   5.579 -0.1077  0.7218  0.7008
  123SOPE  H17R13123   3.189   1.983   5.650 -0.0775 -0.4358  0.2948
  123SOPE  H17S13124   3.120   1.934   5.496  1.8891  0.7278  0.9554
  123SOPE  C21813125   2.964   1.996   5.640 -0.5368 -0.2145 -0.1498
  123SOPE  H18R13126   2.976   1.978   5.749  0.0463  0.9180 -0.0142
  123SOPE  H18S13127   2.914   1.913   5.585  0.8451 -0.9198 -0.3970
  123SOPE  H18T13128   2.910   2.092   5.626  0.5818  0.2049 -1.7844
  123SOPE   C3313129   4.099   1.832   4.479 -0.3510  0.3838 -0.1877
  123SOPE   H3X13130   4.031   1.902   4.426  1.6466  1.7702 -1.0667
  123SOPE   H3Y13131   4.198   1.882   4.479  0.4709 -1.1971 -0.5511
  123SOPE   C3413132   4.062   1.812   4.628 -0.1486 -0.0760  0.7107
  123SOPE   H4X13133   4.076   1.907   4.684  0.6177  0.4274 -0.3089
  123SOPE   H4Y13134   4.131   1.738   4.674  0.1368 -0.2246  0.0433
  123SOPE   C3513135   3.917   1.788   4.643 -0.2428  1.0523  0.0245
  123SOPE   H5X13136   3.891   1.684   4.613 -2.6060  1.6239 -0.0775
  123SOPE   H5Y13137   3.860   1.868   4.592 -1.6874  0.1794  0.2207
  123SOPE   C3613138   3.857   1.778   4.781 -0.2085  0.6530 -0.6449
  123SOPE   H6X13139   3.912   1.693   4.827  1.7059  1.9047 -0.4764
  123SOPE   H6Y13140   3.749   1.754   4.779  0.2209 -1.3935 -0.9248
  123SOPE   C3713141   3.869   1.902   4.872 -1.0196  0.1889 -0.4205
  123SOPE   H7X13142   3.807   1.981   4.827 -1.2777  0.4343  0.3471
  123SOPE   H7Y13143   3.975   1.935   4.877 -1.0664  0.2101  0.9291
  123SOPE   C3813144   3.827   1.862   5.018  0.2903  0.2236  0.2852
  123SOPE   H8X13145   3.888   1.772   5.041  1.0125 -0.6485 -4.0489
  123SOPE   H8Y13146   3.719   1.838   5.025  0.1083  0.1655 -1.9875
  123SOPE   C3913147   3.860   1.971   5.120 -0.5265  0.6970  0.1812
  123SOPE   H9X13148   3.826   2.074   5.098 -3.2525 -0.2035 -0.1668
  123SOPE   H9Y13149   3.971   1.978   5.129 -0.5209  1.8603 -0.5786
  123SOPE  C31013150   3.806   1.929   5.251 -0.3462 -0.6856  0.0417
  123SOPE  H10X13151   3.810   1.818   5.263  1.4640 -0.6802 -0.2025
  123SOPE  H10Y13152   3.698   1.950   5.264 -0.2624  0.3474 -0.8209
  123SOPE  C31113153   3.879   1.980   5.374  0.4624 -0.3699 -0.4512
  123SOPE  H11X13154   3.892   2.089   5.355 -2.4113  0.1669  0.2462
  123SOPE  H11Y13155   3.978   1.930   5.368  0.7963 -0.1339  2.1364
  123SOPE  C31213156   3.806   1.953   5.506  0.5260 -0.0738 -0.0082
  123SOPE  H12X13157   3.809   1.842   5.517  1.3245 -0.2372 -1.5867
  123SOPE  H12Y13158   3.707   2.001   5.500  0.7888  0.5778  0.6461
  123SOPE  C31313159   3.881   2.015   5.630 -0.1913  0.2974  0.2010
  123SOPE  H13X13160   3.850   2.122   5.629 -2.0608 -0.1812 -1.9158
  123SOPE  H13Y13161   3.989   1.991   5.625 -0.5475 -1.3885  0.0865
  123SOPE  C31413162   3.841   1.924   5.752 -0.5549 -0.0954 -0.3419
  123SOPE  H14X13163   3.875   1.820   5.732  0.6721  0.5871 -2.0170
  123SOPE  H14Y13164   3.730   1.914   5.755 -0.5836  0.4403  0.4859
  123SOPE  C31513165   3.882   1.987   5.883  0.2919  0.6342 -0.6078
  123SOPE  H15X13166   3.811   2.071   5.900 -0.5956 -0.3385  0.6745
  123SOPE  H15Y13167   3.984   2.029   5.872  0.3195  0.0730 -3.1362
  123SOPE  C31613168   3.864   1.895   6.002 -0.0362 -0.3459  0.0881
  123SOPE  H16X13169   3.955   1.831   6.007  0.8974  0.9945  0.8374
  123SOPE  H16Y13170   3.778   1.825   5.991 -0.3928 -0.1803  1.6917
  123SOPE  C31713171   3.854   1.972   6.131  0.3277 -0.6953 -0.1616
  123SOPE  H17X13172   3.752   2.008   6.157 -0.5856 -3.5183  0.4718
  123SOPE  H17Y13173   3.913   2.066   6.127  1.3169 -1.2930  0.0051
  123SOPE  C31813174   3.921   1.906   6.256  0.0150  0.5997  0.2344
  123SOPE  H18X13175   3.919   1.975   6.343  1.4825  1.9642 -0.7668
  123SOPE  H18Y13176   4.024   1.876   6.230 -0.6713 -0.2803 -1.6225
  123SOPE  H18Z13177   3.857   1.816   6.268 -0.3823  1.0624  1.8302
  124SOPE     N13178   2.997   4.151   3.687  0.8578 -0.4320 -0.1407
  124SOPE   HN113179   3.081   4.167   3.627  0.9788 -0.9203 -0.1024
  124SOPE   HN213180   2.978   4.049   3.686  0.4044 -0.3699  1.0401
  124SOPE   HN313181   2.919   4.197   3.636  0.2215 -0.4318  0.8075
  124SOPE   C1213182   3.006   4.207   3.827  0.3925  0.1663 -0.1197
  124SOPE  H12A13183   3.058   4.305   3.828  2.0249 -0.6505  1.8282
  124SOPE  H12B13184   3.052   4.128   3.890 -1.3255 -0.7781  0.0323
  124SOPE   C1113185   2.865   4.220   3.885 -0.0911  0.2249 -0.4191
  124SOPE  H11A13186   2.871   4.268   3.985 -0.1116  0.1319 -0.3734
  124SOPE  H11B13187   2.823   4.120   3.908  1.9119 -0.0144  2.8731
  124SOPE     P13188   2.795   4.451   3.784  0.1631  0.1715 -0.2045
  124SOPE   O1313189   2.681   4.503   3.707  0.4971 -1.0524  0.1776
  124SOPE   O1413190   2.925   4.488   3.729 -0.7971  0.5594 -0.3573
  124SOPE   O1213191   2.782   4.295   3.793 -0.0685 -0.4549  0.6808
  124SOPE   O1113192   2.777   4.494   3.935  0.6902  0.4624  0.4706
  124SOPE    C113193   2.832   4.614   3.982  0.0453 -0.7679 -0.1440
  124SOPE    HA13194   2.769   4.651   4.066  0.5188  1.0936 -0.5524
  124SOPE    HB13195   2.841   4.699   3.911  1.5854  0.4201  1.3890
  124SOPE    C213196   2.970   4.600   4.028  0.2477  0.0388  0.1570
  124SOPE    HS13197   3.027   4.552   3.946 -0.7065 -3.7016  1.5037
  124SOPE   O2113198   2.965   4.520   4.152  0.0919  0.2152 -0.2336
  124SOPE   C2113199   3.065   4.442   4.160 -0.9715  0.6570  0.3168
  124SOPE   O2213200   3.141   4.412   4.068 -0.3174 -0.3363 -0.2595
  124SOPE   C2213201   3.052   4.382   4.297  0.1678 -0.3051 -0.0720
  124SOPE   H2R13202   2.951   4.340   4.314 -0.4271  0.9506 -0.4631
  124SOPE   H2S13203   3.058   4.471   4.363  0.6667  0.9615 -1.7557
  124SOPE    C313204   3.050   4.731   4.044  0.8873  0.2404 -0.8549
  124SOPE    HX13205   3.047   4.795   3.954 -1.1795  3.5411  1.3382
  124SOPE    HY13206   3.157   4.705   4.057  1.0567  0.5101 -1.6613
  124SOPE   O3113207   2.998   4.807   4.155 -0.0650  0.0976  0.0935
  124SOPE   C3113208   3.037   4.799   4.277 -0.6340  0.8304  0.7070
  124SOPE   O3213209   3.131   4.729   4.314 -0.0058  0.6006  0.4117
  124SOPE   C3213210   2.960   4.901   4.356  0.3720  0.3912 -0.1165
  124SOPE   H2X13211   2.859   4.859   4.376  0.8207 -0.8979 -0.4257
  124SOPE   H2Y13212   2.949   4.993   4.294 -0.5596  0.0545 -0.4617
  124SOPE   C2313213   3.157   4.284   4.351 -0.0519 -0.2583 -0.1438
  124SOPE   H3R13214   3.253   4.338   4.336 -0.1597 -0.3042 -1.0488
  124SOPE   H3S13215   3.161   4.194   4.287  0.4212 -1.0293  0.9396
  124SOPE   C2413216   3.159   4.254   4.505 -0.2350 -0.5401  0.2948
  124SOPE   H4R13217   3.248   4.193   4.531  0.2077  0.1532  0.4345
  124SOPE   H4S13218   3.176   4.349   4.561 -1.8476 -0.7446  1.1816
  124SOPE   C2513219   3.029   4.193   4.546 -0.3101  0.1028  0.2866
  124SOPE   H5R13220   2.957   4.275   4.564  0.7230  1.3026 -0.8465
  124SOPE   H5S13221   2.991   4.112   4.479 -0.9182  0.4157  0.2395
  124SOPE   C2613222   3.053   4.120   4.683 -0.5168  0.3051  0.7984
  124SOPE   H6R13223   2.959   4.068   4.712  1.0782 -2.3329  1.5784
  124SOPE   H6S13224   3.134   4.045   4.672  0.8288  1.8468 -0.3090
  124SOPE   C2713225   3.086   4.226   4.794  1.0052 -0.1654 -0.0040
  124SOPE   H7R13226   3.160   4.304   4.766  1.0063 -0.4065 -0.6998
  124SOPE   H7S13227   2.996   4.285   4.822  0.8264 -0.3618 -0.1536
  124SOPE   C2813228   3.140   4.146   4.917  0.0987 -0.3678  0.2996
  124SOPE   H8R13229   3.239   4.107   4.885  1.2554  1.4633  1.4087
  124SOPE   H8S13230   3.155   4.214   5.003  0.6377  0.1822 -0.2126
  124SOPE   C2913231   3.046   4.036   4.970 -0.0111  0.3580 -0.1943
  124SOPE   H9113232   3.026   3.951   4.903  3.5415 -0.6716 -0.1808
  124SOPE  C21013233   2.974   4.048   5.084  0.0175 -0.2247 -0.5314
  124SOPE  H10113234   2.917   3.960   5.116 -2.0327  1.5816  1.0338
  124SOPE  C21113235   2.960   4.159   5.181  0.0396  0.5678  0.0424
  124SOPE  H11R13236   2.853   4.162   5.211  0.1473 -0.4955  0.5962
  124SOPE  H11S13237   2.991   4.259   5.147  1.8063  0.2897  0.7209
  124SOPE  C21213238   3.053   4.139   5.303  1.1519  0.5764 -0.5943
  124SOPE  H12R13239   3.018   4.200   5.389  0.3901  1.6909 -1.6728
  124SOPE  H12S13240   3.156   4.167   5.274  1.0827  0.3788 -1.0410
  124SOPE  C21313241   3.045   3.994   5.364 -0.7098  0.6584 -0.0915
  124SOPE  H13R13242   3.113   3.933   5.302 -1.1992  0.3464 -0.3225
  124SOPE  H13S13243   2.947   3.943   5.372  0.6833 -2.1290  0.4885
  124SOPE  C21413244   3.101   4.001   5.511  0.0761 -0.0266 -0.1628
  124SOPE  H14R13245   3.028   4.053   5.576  2.7850  2.1550  1.3695
  124SOPE  H14S13246   3.193   4.064   5.507  0.6189 -0.7923 -0.1292
  124SOPE  C21513247   3.147   3.866   5.560  0.4118  0.7458 -0.2387
  124SOPE  H15R13248   3.231   3.841   5.492 -0.1333  0.3237 -0.7722
  124SOPE  H15S13249   3.075   3.784   5.535  0.7304  0.9784 -2.0017
  124SOPE  C21613250   3.191   3.850   5.708  0.8531 -0.1076  0.0942
  124SOPE  H16R13251   3.100   3.871   5.768 -0.1964 -1.6922 -0.8647
  124SOPE  H16S13252   3.269   3.922   5.742 -0.4417  0.9890  0.8026
  124SOPE  C21713253   3.227   3.703   5.736 -0.5221 -0.2895  0.1280
  124SOPE  H17R13254   3.321   3.689   5.678 -0.1504  1.4472  0.2495
  124SOPE  H17S13255   3.151   3.638   5.687 -0.9822  2.6397 -3.5546
  124SOPE  C21813256   3.243   3.660   5.885  0.4344 -0.0738  0.2922
  124SOPE  H18R13257   3.297   3.563   5.883 -2.7370 -1.9925 -0.5557
  124SOPE  H18S13258   3.142   3.627   5.917  0.2706  2.1476  2.2926
  124SOPE  H18T13259   3.285   3.742   5.946 -0.7573 -0.8308  2.2427
  124SOPE   C3313260   3.028   4.948   4.487 -0.4593  0.1983  0.2142
  124SOPE   H3X13261   3.121   5.004   4.461 -0.8611  0.5096 -0.5468
  124SOPE   H3Y13262   3.058   4.860   4.548 -0.7414 -0.3675 -0.4542
  124SOPE   C3413263   2.938   5.041   4.572  0.9785 -0.1860 -0.3026
  124SOPE   H4X13264   2.836   5.000   4.587  1.2145 -0.8186 -0.4238
  124SOPE   H4Y13265   2.919   5.135   4.516 -0.8311  0.1308  0.7450
  124SOPE   C3513266   2.989   5.077   4.713  0.5371 -0.0007  0.3363
  124SOPE   H5X13267   3.035   4.987   4.760  1.5751 -0.5250 -1.5563
  124SOPE   H5Y13268   2.907   5.115   4.777  0.2848  0.0689 -0.0256
  124SOPE   C3613269   3.109   5.175   4.707  0.6429 -0.7738 -0.7250
  124SOPE   H6X13270   3.081   5.270   4.657  2.1180 -0.1868 -0.5037
  124SOPE   H6Y13271   3.191   5.131   4.647  1.3594  1.2822 -1.3515
  124SOPE   C3713272   3.173   5.195   4.845 -0.1751  0.2856  0.8478
  124SOPE   H7X13273   3.095   5.248   4.904 -1.8005 -0.2629 -0.7155
  124SOPE   H7Y13274   3.267   5.252   4.831 -0.9040  1.1962 -0.5414
  124SOPE   C3813275   3.211   5.068   4.919 -0.5894 -0.1367 -0.5315
  124SOPE   H8X13276   3.263   5.004   4.844 -3.8928 -1.1043 -2.1954
  124SOPE   H8Y13277   3.111   5.025   4.942 -0.9451  0.1511 -1.4731
  124SOPE   C3913278   3.300   5.085   5.042 -0.2188  0.3128 -0.0456
  124SOPE   H9X13279   3.392   5.144   5.025 -0.4593  0.7702  0.2257
  124SOPE   H9Y13280   3.336   4.987   5.081  0.1100  0.8070  0.9374
  124SOPE  C31013281   3.221   5.144   5.161  0.2708  0.3635  0.3880
  124SOPE  H10X13282   3.113   5.136   5.134 -0.2511  4.2228  0.8011
  124SOPE  H10Y13283   3.243   5.252   5.174 -1.4155  0.6891  0.9215
  124SOPE  C31113284   3.246   5.068   5.285 -1.2483  0.1557  0.4037
  124SOPE  H11X13285   3.206   4.964   5.285  0.6026 -0.6017 -1.1056
  124SOPE  H11Y13286   3.189   5.122   5.364 -1.1256  1.1941 -0.2006
  124SOPE  C31213287   3.395   5.073   5.337  0.1894  0.4330  0.4020
  124SOPE  H12X13288   3.447   5.169   5.316 -0.1158  0.4221 -0.4541
  124SOPE  H12Y13289   3.451   4.993   5.283  0.8579  1.3007 -0.2224
  124SOPE  C31313290   3.404   5.028   5.481  0.9812  0.5660  0.0164
  124SOPE  H13X13291   3.330   4.947   5.495  2.2726 -0.3322  1.9819
  124SOPE  H13Y13292   3.380   5.117   5.543  1.1626  1.2041 -0.8041
  124SOPE  C31413293   3.538   4.967   5.526 -0.9730 -0.8099 -0.0507
  124SOPE  H14X13294   3.559   4.884   5.456  0.4491  0.1115 -0.7462
  124SOPE  H14Y13295   3.543   4.934   5.632 -2.4635 -0.6315  0.0956
  124SOPE  C31513296   3.661   5.055   5.503 -0.7640 -0.4753  0.2699
  124SOPE  H15X13297   3.675   5.132   5.582 -1.3600  1.1221 -1.1100
  124SOPE  H15Y13298   3.650   5.103   5.403 -3.0390 -1.6947 -0.1424
  124SOPE  C31613299   3.792   4.972   5.520 -0.3247 -0.2979  0.2889
  124SOPE  H16X13300   3.802   4.895   5.441  1.8063  0.7207 -0.5130
  124SOPE  H16Y13301   3.794   4.914   5.615  0.0693  1.5164  1.4437
  124SOPE  C31713302   3.921   5.050   5.510 -0.2791 -0.2202  0.3212
  124SOPE  H17X13303   3.895   5.144   5.564 -1.3072 -0.2092 -0.1627
  124SOPE  H17Y13304   3.940   5.078   5.404  1.2915 -1.5064  0.2360
  124SOPE  C31813305   4.042   4.986   5.577 -0.0797 -0.8271 -0.5960
  124SOPE  H18X13306   4.060   4.885   5.535  0.0101 -0.7572 -0.7268
  124SOPE  H18Y13307   4.010   4.975   5.682 -1.3194 -1.6725 -1.0349
  124SOPE  H18Z13308   4.131   5.052   5.566  0.6807 -1.3422  1.9253
  125SOPE     N13309   1.910   5.126   3.866  0.1344  0.0259 -0.6264
  125SOPE   HN113310   1.873   5.120   3.769  0.7368 -0.1206 -0.8501
  125SOPE   HN213311   1.954   5.033   3.882  0.5473  0.0426 -1.5850
  125SOPE   HN313312   1.839   5.135   3.941 -0.7098  2.7387 -1.6130
  125SOPE   C1213313   1.993   5.252   3.881  0.3548 -0.5505  0.3159
  125SOPE  H12A13314   2.045   5.275   3.786  1.4749 -0.6501  0.8931
  125SOPE  H12B13315   2.066   5.233   3.962 -1.4890  0.5871  2.3633
  125SOPE   C1113316   1.908   5.366   3.923  0.6082 -0.0419 -0.4001
  125SOPE  H11A13317   1.973   5.455   3.934 -1.5707  1.5682  0.1228
  125SOPE  H11B13318   1.879   5.349   4.029  0.5136 -0.0971 -0.4343
  125SOPE     P13319   1.677   5.482   3.865  0.2464 -0.5260  0.2158
  125SOPE   O1313320   1.568   5.450   3.771 -0.6073  0.0909  0.6794
  125SOPE   O1413321   1.714   5.627   3.874  0.2425  0.0774 -0.1491
  125SOPE   O1213322   1.803   5.396   3.831  0.0327 -0.9985  0.1495
  125SOPE   O1113323   1.634   5.428   4.008 -0.2329  0.1969  0.0032
  125SOPE    C113324   1.543   5.509   4.087  0.9672  0.3438 -0.1943
  125SOPE    HA13325   1.444   5.466   4.064  1.3526 -0.7194  0.0444
  125SOPE    HB13326   1.532   5.616   4.062 -1.9680  0.5113  1.3946
  125SOPE    C213327   1.574   5.500   4.239 -0.2455  0.3162  0.2126
  125SOPE    HS13328   1.576   5.392   4.265 -1.3992 -0.2738 -1.8863
  125SOPE   O2113329   1.460   5.560   4.301 -0.1656  0.3011 -0.2584
  125SOPE   C2113330   1.367   5.480   4.353 -0.8965 -0.7356 -0.1042
  125SOPE   O2213331   1.363   5.360   4.330 -0.2845 -0.2699  0.8998
  125SOPE   C2213332   1.286   5.570   4.445  1.1845  0.0098 -0.4272
  125SOPE   H2R13333   1.207   5.621   4.387  0.8794  0.3528  0.2838
  125SOPE   H2S13334   1.361   5.639   4.490  0.9629 -1.0555  1.6863
  125SOPE    C313335   1.706   5.559   4.275 -0.8995  0.1043 -0.1387
  125SOPE    HX13336   1.710   5.650   4.212  1.8988  1.0027  1.1732
  125SOPE    HY13337   1.773   5.474   4.251 -1.8239 -0.5301 -0.5650
  125SOPE   O3113338   1.720   5.597   4.413 -0.1804 -0.2229  0.7846
  125SOPE   C3113339   1.845   5.635   4.444  0.4312 -0.2890  0.3524
  125SOPE   O3213340   1.942   5.619   4.375 -0.2859 -0.5216  0.4698
  125SOPE   C3213341   1.844   5.702   4.581 -0.0490 -0.7046 -0.1479
  125SOPE   H2X13342   1.805   5.805   4.567  3.4311  0.6987 -0.6947
  125SOPE   H2Y13343   1.953   5.720   4.599 -0.0381 -0.2178 -0.6893
  125SOPE   C2313344   1.227   5.476   4.551 -0.4893 -0.1266  0.0346
  125SOPE   H3R13345   1.151   5.410   4.506 -0.0756  0.0342 -0.9154
  125SOPE   H3S13346   1.169   5.534   4.626 -2.2912 -2.5294  0.5799
  125SOPE   C2413347   1.320   5.401   4.643 -0.4133  0.2644 -0.4416
  125SOPE   H4R13348   1.356   5.306   4.599  0.1441 -0.4229  1.3892
  125SOPE   H4S13349   1.409   5.465   4.659 -2.3412  3.1000 -0.4552
  125SOPE   C2513350   1.273   5.379   4.790 -0.1434 -0.2069 -0.1796
  125SOPE   H5R13351   1.284   5.477   4.841  1.9536 -1.6069  2.3168
  125SOPE   H5S13352   1.168   5.343   4.793 -0.0535 -0.5238 -0.7169
  125SOPE   C2613353   1.342   5.260   4.870 -0.5888 -0.5732  0.2705
  125SOPE   H6R13354   1.311   5.159   4.835  1.1149 -1.4039  1.0309
  125SOPE   H6S13355   1.451   5.274   4.856 -0.9321  2.2971 -0.1452
  125SOPE   C2713356   1.308   5.268   5.020 -0.0072 -0.1912 -0.2304
  125SOPE   H7R13357   1.360   5.359   5.056  0.4090 -0.5540  0.1054
  125SOPE   H7S13358   1.198   5.277   5.034 -0.0834  2.1822 -1.7940
  125SOPE   C2813359   1.381   5.156   5.102 -0.0833 -0.6503 -0.1052
  125SOPE   H8R13360   1.491   5.165   5.108 -0.1463 -0.0123  0.1400
  125SOPE   H8S13361   1.363   5.183   5.208  1.6861 -0.5896  0.2025
  125SOPE   C2913362   1.343   5.017   5.062  0.0546  0.7158  0.0716
  125SOPE   H9113363   1.404   4.979   4.978  0.5859 -1.0148  1.1847
  125SOPE  C21013364   1.283   4.927   5.144 -0.3458 -0.0197 -0.0165
  125SOPE  H10113365   1.273   4.824   5.105 -0.7955  0.4563 -1.1643
  125SOPE  C21113366   1.230   4.944   5.280 -0.1806 -0.5231 -0.5040
  125SOPE  H11R13367   1.127   4.903   5.278  0.3549 -1.8839 -1.2971
  125SOPE  H11S13368   1.234   5.052   5.307  0.1556 -0.6758  0.0843
  125SOPE  C21213369   1.299   4.875   5.401  0.5880 -0.4994  0.2800
  125SOPE  H12R13370   1.250   4.931   5.483 -1.3215  0.3952 -1.3731
  125SOPE  H12S13371   1.407   4.902   5.401  0.1250  1.5591  1.2539
  125SOPE  C21313372   1.298   4.725   5.397 -0.4247  0.0320 -0.1484
  125SOPE  H13R13373   1.315   4.688   5.294 -2.3925 -1.1428 -0.1121
  125SOPE  H13S13374   1.192   4.702   5.422 -0.5625 -1.5227 -1.9033
  125SOPE  C21413375   1.399   4.661   5.511  0.2397 -0.3845 -0.2542
  125SOPE  H14R13376   1.507   4.683   5.500  0.5943  0.5755  3.6382
  125SOPE  H14S13377   1.384   4.551   5.508  0.1932 -0.3655 -1.9977
  125SOPE  C21513378   1.362   4.704   5.655 -0.4510  0.7195 -0.5152
  125SOPE  H15R13379   1.251   4.710   5.660 -0.5665 -1.0303 -0.6404
  125SOPE  H15S13380   1.411   4.801   5.681  2.5310 -0.6958 -0.4478
  125SOPE  C21613381   1.406   4.583   5.750 -0.7915  0.2625  0.6826
  125SOPE  H16R13382   1.514   4.563   5.732 -0.6081  1.1993  0.6933
  125SOPE  H16S13383   1.353   4.487   5.732 -0.8905  0.1967  1.2947
  125SOPE  C21713384   1.389   4.608   5.898  0.4838 -0.7051 -1.2463
  125SOPE  H17R13385   1.456   4.690   5.931 -1.4525  1.3461 -2.1366
  125SOPE  H17S13386   1.398   4.516   5.959 -2.8770 -0.5662 -0.3600
  125SOPE  C21813387   1.250   4.669   5.929  0.4033 -0.0778 -0.0305
  125SOPE  H18R13388   1.238   4.689   6.038  0.4621 -1.9384  0.3533
  125SOPE  H18S13389   1.176   4.588   5.912 -0.2253  0.6766 -0.9474
  125SOPE  H18T13390   1.229   4.762   5.872  2.1032  0.2071 -0.2236
  125SOPE   C3313391   1.784   5.611   4.694 -0.1986 -0.0138 -0.0434
  125SOPE   H3X13392   1.790   5.503   4.668 -1.2362  0.2592 -1.5524
  125SOPE   H3Y13393   1.678   5.645   4.701 -0.6170 -0.8384 -1.7226
  125SOPE   C3413394   1.857   5.627   4.828  0.4202  0.4067 -0.1752
  125SOPE   H4X13395   1.865   5.727   4.875 -1.0975  0.0545  0.8836
  125SOPE   H4Y13396   1.960   5.587   4.812 -0.4158 -1.1265 -2.3422
  125SOPE   C3513397   1.808   5.536   4.942  0.3187  0.5967 -0.2258
  125SOPE   H5X13398   1.813   5.434   4.898 -2.2434  1.3166 -2.4503
  125SOPE   H5Y13399   1.703   5.556   4.973  0.8646  0.6036  1.7641
  125SOPE   C3613400   1.900   5.566   5.064  0.4805 -0.4558 -0.1086
  125SOPE   H6X13401   1.869   5.666   5.102 -0.3932 -0.3121 -1.1556
  125SOPE   H6Y13402   2.001   5.595   5.028 -0.0109  1.3213 -0.1668
  125SOPE   C3713403   1.920   5.463   5.179  0.8279 -0.7693 -0.3461
  125SOPE   H7X13404   1.973   5.503   5.268  0.3575 -0.2293 -0.2979
  125SOPE   H7Y13405   1.990   5.394   5.128  2.4799  1.3142 -1.0705
  125SOPE   C3813406   1.799   5.391   5.234  0.5059  0.7827 -0.4230
  125SOPE   H8X13407   1.834   5.313   5.305 -0.9808  0.4863  0.0101
  125SOPE   H8Y13408   1.745   5.331   5.157 -1.9350  1.5250  0.6194
  125SOPE   C3913409   1.712   5.479   5.314 -0.2199 -0.4348  0.3758
  125SOPE   H9X13410   1.674   5.564   5.252 -1.9227 -0.2214  1.6417
  125SOPE   H9Y13411   1.770   5.514   5.402 -1.8491 -2.8567  2.5522
  125SOPE  C31013412   1.581   5.414   5.365 -0.7391  0.0466 -0.3034
  125SOPE  H10X13413   1.540   5.357   5.279  0.5018 -1.4716  0.0693
  125SOPE  H10Y13414   1.516   5.495   5.406 -0.7736  0.0394 -0.3444
  125SOPE  C31113415   1.616   5.319   5.482  0.2932 -0.4476 -0.3175
  125SOPE  H11X13416   1.642   5.383   5.570  0.9438  0.1726 -0.9435
  125SOPE  H11Y13417   1.707   5.259   5.461  0.7971 -0.1109  0.7999
  125SOPE  C31213418   1.494   5.227   5.511  0.1232 -0.4371  1.1757
  125SOPE  H12X13419   1.495   5.148   5.433 -4.5315 -0.0017  0.3815
  125SOPE  H12Y13420   1.393   5.270   5.493  1.2532  0.5794 -4.3523
  125SOPE  C31313421   1.515   5.160   5.648  0.5071 -0.0069 -0.2397
  125SOPE  H13X13422   1.620   5.129   5.668 -0.7030 -4.8890 -0.0345
  125SOPE  H13Y13423   1.473   5.059   5.629  1.2639 -0.0927 -1.6211
  125SOPE  C31413424   1.446   5.220   5.768 -0.5539  0.7981 -0.5237
  125SOPE  H14X13425   1.348   5.264   5.740 -2.2601 -1.7138  1.0341
  125SOPE  H14Y13426   1.520   5.296   5.800 -0.8788  0.6500  0.6278
  125SOPE  C31513427   1.418   5.125   5.885 -0.7859 -0.0158 -0.2522
  125SOPE  H15X13428   1.512   5.089   5.932 -1.8463 -1.4747  0.8176
  125SOPE  H15Y13429   1.366   5.031   5.856 -1.7297 -0.1889  1.8685
  125SOPE  C31613430   1.338   5.198   5.992  0.0879  0.3905  0.4584
  125SOPE  H16X13431   1.231   5.212   5.964  0.2330  1.5067  0.4117
  125SOPE  H16Y13432   1.380   5.299   6.010  0.7106  0.1488  0.3789
  125SOPE  C31713433   1.322   5.126   6.127 -0.7969 -0.3322 -0.0421
  125SOPE  H17X13434   1.274   5.208   6.185 -0.2387  0.3642 -0.5566
  125SOPE  H17Y13435   1.420   5.105   6.174  0.4349 -0.1016 -2.3867
  125SOPE  C31813436   1.239   5.001   6.125  0.3841  0.4399  0.6119
  125SOPE  H18X13437   1.289   4.908   6.090 -3.9991 -2.3908  1.1034
  125SOPE  H18Y13438   1.147   5.023   6.067 -0.6533 -1.0582  1.6001
  125SOPE  H18Z13439   1.214   4.966   6.228  0.0674 -2.3040 -0.3152
  126SOPE     N13440   3.912   3.345   3.634  0.0598  0.4252  0.2028
  126SOPE   HN113441   3.910   3.257   3.579 -1.4256 -0.6789  1.8930
  126SOPE   HN213442   3.814   3.362   3.664 -0.2410 -1.1349  0.1841
  126SOPE   HN313443   3.936   3.428   3.576 -0.7927  0.4075 -0.1837
  126SOPE   C1213444   4.009   3.333   3.744  0.5367 -0.7817  0.4755
  126SOPE  H12A13445   3.998   3.411   3.823 -0.1263  0.6571 -0.9719
  126SOPE  H12B13446   4.107   3.351   3.694 -0.1745  1.2737 -0.2944
  126SOPE   C1113447   4.007   3.207   3.821  0.4322  0.0731 -0.2070
  126SOPE  H11A13448   3.901   3.194   3.852  0.8439  0.3024  1.3820
  126SOPE  H11B13449   4.073   3.219   3.910 -2.2534 -2.2827  2.3129
  126SOPE     P13450   4.202   3.036   3.753  0.4691  0.1475 -0.3128
  126SOPE   O1313451   4.302   3.134   3.704  0.0275 -0.1601 -0.1185
  126SOPE   O1413452   4.201   2.914   3.677 -0.2669 -0.0277  0.9078
  126SOPE   O1213453   4.062   3.108   3.726 -0.5298 -0.1392 -0.1482
  126SOPE   O1113454   4.218   3.017   3.907  0.1790 -0.2676  0.2508
  126SOPE    C113455   4.152   2.914   3.974  0.0168  0.1095 -0.9708
  126SOPE    HA13456   4.202   2.815   3.961 -0.0102  0.1733 -1.5826
  126SOPE    HB13457   4.047   2.905   3.940 -0.3722  0.2429  0.1534
  126SOPE    C213458   4.150   2.933   4.130  0.1504 -0.0601  0.1013
  126SOPE    HS13459   4.130   2.835   4.178  1.9643 -0.5431 -0.0463
  126SOPE   O2113460   4.052   3.037   4.164 -0.6581 -0.0615  0.0435
  126SOPE   C2113461   3.924   3.000   4.144 -0.4739  0.7753  0.2326
  126SOPE   O2213462   3.888   2.885   4.124  0.1110  0.0859  0.2022
  126SOPE   C2213463   3.840   3.126   4.133  0.6977  0.5140 -0.5264
  126SOPE   H2R13464   3.783   3.122   4.038  1.0659  2.0861 -0.8401
  126SOPE   H2S13465   3.899   3.219   4.147  0.4293  0.7306 -0.8226
  126SOPE    C313466   4.283   2.973   4.185 -0.6963 -0.5310  0.7168
  126SOPE    HX13467   4.304   3.082   4.177 -1.3724 -0.3617  1.1704
  126SOPE    HY13468   4.356   2.938   4.108 -1.0416 -0.3855  0.3222
  126SOPE   O3113469   4.302   2.925   4.320  0.1244 -0.0831 -0.5207
  126SOPE   C3113470   4.407   2.973   4.387  0.5830  0.4855  0.7657
  126SOPE   O3213471   4.486   3.051   4.341 -0.1339  0.3599 -0.0705
  126SOPE   C3213472   4.407   2.928   4.524 -0.4214  0.4329 -0.1373
  126SOPE   H2X13473   4.398   2.817   4.530  1.5674  0.2720  0.3823
  126SOPE   H2Y13474   4.319   2.967   4.580  1.6164  0.2944  3.4287
  126SOPE   C2313475   3.719   3.114   4.224  0.1634 -0.1289  0.0500
  126SOPE   H3R13476   3.682   3.009   4.219 -2.4309  0.7613 -1.1802
  126SOPE   H3S13477   3.628   3.170   4.194 -0.2403  0.6095  2.4169
  126SOPE   C2413478   3.745   3.169   4.369  0.6508 -0.0171  0.4224
  126SOPE   H4R13479   3.754   3.279   4.354 -0.3524 -0.2901 -2.7659
  126SOPE   H4S13480   3.659   3.143   4.434  0.3843  0.4079  0.2425
  126SOPE   C2513481   3.873   3.138   4.440  0.0945  0.2427  0.7115
  126SOPE   H5R13482   3.905   3.032   4.440 -1.3396 -0.2137  0.5063
  126SOPE   H5S13483   3.957   3.176   4.379 -0.4947 -2.6372 -2.1833
  126SOPE   C2613484   3.883   3.193   4.587 -0.3187 -0.4270 -0.0718
  126SOPE   H6R13485   3.988   3.160   4.605 -0.1320 -0.2719 -0.8337
  126SOPE   H6S13486   3.871   3.304   4.589  0.5534 -0.3131 -0.5977
  126SOPE   C2713487   3.793   3.109   4.682  0.1925 -0.2675 -0.8371
  126SOPE   H7R13488   3.686   3.139   4.670 -0.7548 -2.8928  0.2902
  126SOPE   H7S13489   3.801   3.000   4.664  0.2651 -0.3461 -0.3423
  126SOPE   C2813490   3.840   3.125   4.828  0.0440 -0.9963  0.4571
  126SOPE   H8R13491   3.792   3.041   4.884 -0.9860  0.1333  1.3121
  126SOPE   H8S13492   3.951   3.115   4.838  0.1146 -2.3208 -1.1420
  126SOPE   C2913493   3.810   3.261   4.887  0.0182 -0.2858 -0.2476
  126SOPE   H9113494   3.804   3.344   4.814 -2.1019  0.3545  0.5873
  126SOPE  C21013495   3.803   3.298   5.015 -0.3423 -0.8263 -0.5429
  126SOPE  H10113496   3.780   3.404   5.037 -1.4499 -0.5659 -2.7135
  126SOPE  C21113497   3.820   3.196   5.128  0.2763 -0.6000 -0.7646
  126SOPE  H11R13498   3.757   3.106   5.111  1.3229 -1.4233 -0.3688
  126SOPE  H11S13499   3.783   3.250   5.218  0.3816 -0.1492 -0.9882
  126SOPE  C21213500   3.965   3.151   5.161 -0.0869 -0.4745  0.5990
  126SOPE  H12R13501   4.025   3.244   5.162 -0.6416 -0.1200  1.1371
  126SOPE  H12S13502   4.014   3.080   5.090  0.9867 -0.7345  1.5743
  126SOPE  C21313503   3.971   3.089   5.303 -0.0253  0.0619 -0.0906
  126SOPE  H13R13504   3.905   3.155   5.363  0.7045 -0.0842  0.8853
  126SOPE  H13S13505   4.074   3.090   5.344 -0.0316 -4.4201  0.4777
  126SOPE  C21413506   3.921   2.942   5.304 -0.1682 -0.6801 -0.6569
  126SOPE  H14R13507   3.988   2.885   5.237  0.4927  0.1438 -0.7212
  126SOPE  H14S13508   3.819   2.927   5.264 -0.3307  0.6130 -0.7942
  126SOPE  C21513509   3.925   2.884   5.449 -0.1699  0.2862  0.9457
  126SOPE  H15R13510   3.872   2.947   5.524 -0.9135 -0.8767  1.4203
  126SOPE  H15S13511   4.032   2.897   5.478  0.8169  2.7708 -3.0518
  126SOPE  C21613512   3.863   2.747   5.462 -0.3963  0.1191 -0.5260
  126SOPE  H16R13513   3.876   2.703   5.361  2.8834 -0.9961  0.2736
  126SOPE  H16S13514   3.753   2.749   5.480 -0.2809  0.3590  0.1994
  126SOPE  C21713515   3.932   2.645   5.566  0.2297 -0.5407  0.0845
  126SOPE  H17R13516   3.878   2.551   5.543  0.5519 -1.0590  1.3274
  126SOPE  H17S13517   3.904   2.672   5.671  0.0554 -2.2169  0.4934
  126SOPE  C21813518   4.083   2.626   5.549 -0.1305 -0.7295  0.4660
  126SOPE  H18R13519   4.134   2.546   5.607  1.5991 -0.7370 -0.9768
  126SOPE  H18S13520   4.133   2.719   5.583 -1.5679 -0.4263  1.8699
  126SOPE  H18T13521   4.104   2.613   5.441 -2.5793  0.0670 -0.1650
  126SOPE   C3313522   4.533   2.986   4.600 -0.7446  0.3875  0.6340
  126SOPE   H3X13523   4.502   3.013   4.704 -3.7704 -2.1239  0.5586
  126SOPE   H3Y13524   4.574   3.085   4.571  0.9743 -0.5782 -0.3606
  126SOPE   C3413525   4.658   2.890   4.593  0.1124 -0.0043 -0.9879
  126SOPE   H4X13526   4.754   2.943   4.575  0.6331 -1.1238 -1.5943
  126SOPE   H4Y13527   4.637   2.825   4.506 -0.3011 -2.5002  0.8518
  126SOPE   C3513528   4.664   2.797   4.712  0.1224 -0.8129  0.0705
  126SOPE   H5X13529   4.740   2.721   4.686 -0.7654 -1.5304 -0.5023
  126SOPE   H5Y13530   4.563   2.755   4.730 -0.2336  0.2479  0.6336
  126SOPE   C3613531   4.706   2.876   4.841  0.2329  0.2619  0.1104
  126SOPE   H6X13532   4.613   2.927   4.875  1.1108  1.2954  1.0253
  126SOPE   H6Y13533   4.786   2.949   4.818  0.6333 -0.5696 -1.2637
  126SOPE   C3713534   4.740   2.780   4.956 -0.0746 -0.6471 -0.1459
  126SOPE   H7X13535   4.829   2.717   4.934  0.5938 -0.4512  1.8113
  126SOPE   H7Y13536   4.656   2.716   4.988 -2.9153  2.8183 -0.0695
  126SOPE   C3813537   4.768   2.866   5.080  0.1375 -0.3489  0.0777
  126SOPE   H8X13538   4.682   2.927   5.113  1.2832  1.0806  0.5365
  126SOPE   H8Y13539   4.848   2.938   5.053 -0.4766 -0.9101 -3.7164
  126SOPE   C3913540   4.807   2.778   5.198 -0.1018  0.0420 -0.5236
  126SOPE   H9X13541   4.896   2.718   5.171  1.1965  0.4376  2.5421
  126SOPE   H9Y13542   4.721   2.712   5.222 -0.0456 -0.2894 -1.2074
  126SOPE  C31013543   4.831   2.865   5.326  0.3910  0.6318 -0.4619
  126SOPE  H10X13544   4.731   2.904   5.353  1.4388  1.4442  2.6328
  126SOPE  H10Y13545   4.905   2.945   5.304  0.1615  0.6421 -1.2301
  126SOPE  C31113546   4.880   2.780   5.443  0.8020  0.2837 -0.1861
  126SOPE  H11X13547   4.811   2.695   5.457  1.0599 -0.1106 -1.2256
  126SOPE  H11Y13548   4.877   2.845   5.533  0.1286 -0.0513  0.0405
  126SOPE  C31213549   5.023   2.725   5.451  0.6202 -0.9612  0.0066
  126SOPE  H12X13550   5.093   2.807   5.420  0.0265 -0.7453 -0.8075
  126SOPE  H12Y13551   5.042   2.653   5.368 -0.3069 -1.8685  0.5681
  126SOPE  C31313552   5.063   2.655   5.584 -0.2079 -0.2040  0.2780
  126SOPE  H13X13553   4.982   2.584   5.613 -0.0530 -0.3449  0.3615
  126SOPE  H13Y13554   5.077   2.731   5.664 -0.7881  0.3207 -0.1108
  126SOPE  C31413555   5.197   2.576   5.564 -0.3457 -0.2560 -0.7959
  126SOPE  H14X13556   5.194   2.514   5.471  1.6044 -0.5263 -0.7245
  126SOPE  H14Y13557   5.202   2.510   5.653  0.1078 -1.7326 -1.8610
  126SOPE  C31513558   5.312   2.671   5.539 -0.4281  0.2092 -0.1075
  126SOPE  H15X13559   5.300   2.769   5.590  1.8066 -0.2078  1.3729
  126SOPE  H15Y13560   5.325   2.698   5.433 -1.3870  0.7949 -0.0789
  126SOPE  C31613561   5.453   2.615   5.590  0.2709  0.3778 -0.9176
  126SOPE  H16X13562   5.440   2.582   5.695 -0.2600 -0.7890 -1.3314
  126SOPE  H16Y13563   5.530   2.694   5.581  0.5491 -0.0468 -2.5155
  126SOPE  C31713564   5.489   2.493   5.509 -0.3147  0.0409  0.0203
  126SOPE  H17X13565   5.498   2.529   5.404  0.1473 -0.5521 -0.1502
  126SOPE  H17Y13566   5.416   2.409   5.510  1.5818 -1.7238 -0.9999
  126SOPE  C31813567   5.614   2.425   5.564 -0.2514 -0.2479 -0.7801
  126SOPE  H18X13568   5.635   2.327   5.517  0.3801 -0.6036  0.2148
  126SOPE  H18Y13569   5.582   2.412   5.670  0.5899  1.9735 -0.1909
  126SOPE  H18Z13570   5.705   2.488   5.570 -1.0849  0.8632  1.1093
  127SOPE     N13571   5.323   3.999   3.448  0.7488 -0.0132 -0.3776
  127SOPE   HN113572   5.305   4.096   3.480  0.2548 -0.3831  0.5260
  127SOPE   HN213573   5.379   4.008   3.361  2.2638 -1.6881  0.3627
  127SOPE   HN313574   5.230   3.965   3.415  0.5977 -1.3868  1.2885
  127SOPE   C1213575   5.384   3.894   3.541 -1.1912 -0.4388 -0.1958
  127SOPE  H12A13576   5.411   3.798   3.491  0.1978 -0.8325  1.2054
  127SOPE  H12B13577   5.307   3.874   3.619 -1.8940  1.1757 -0.4380
  127SOPE   C1113578   5.519   3.955   3.589  0.4818 -0.4711 -0.2461
  127SOPE  H11A13579   5.562   3.880   3.659  2.7444  0.6027 -0.3979
  127SOPE  H11B13580   5.499   4.051   3.641 -2.7528 -0.2155 -1.7664
  127SOPE     P13581   5.731   3.865   3.457 -0.2644  0.1547  0.3064
  127SOPE   O1313582   5.821   3.941   3.375 -1.0351 -0.1924  0.0882
  127SOPE   O1413583   5.699   3.728   3.403 -0.2405 -0.0287 -0.6570
  127SOPE   O1213584   5.610   3.965   3.483  0.4958 -0.3723  0.6109
  127SOPE   O1113585   5.806   3.847   3.593 -0.1904  0.1537 -0.4645
  127SOPE    C113586   5.858   3.965   3.653  0.4892 -0.0071  0.4892
  127SOPE    HA13587   5.779   4.044   3.655 -2.9093 -3.1163  2.5911
  127SOPE    HB13588   5.946   4.005   3.599  0.1838  1.6071  1.1260
  127SOPE    C213589   5.896   3.954   3.802  0.4304  0.4883 -0.0558
  127SOPE    HS13590   5.970   3.873   3.798 -0.6390 -0.5185 -0.0264
  127SOPE   O2113591   5.782   3.914   3.886 -0.7754 -0.0459  0.3714
  127SOPE   C2113592   5.792   3.810   3.956 -0.0012  0.0411 -0.0514
  127SOPE   O2213593   5.894   3.748   3.974  0.5629  0.3779 -0.0333
  127SOPE   C2213594   5.657   3.773   4.011 -0.2856 -0.0678  0.7364
  127SOPE   H2R13595   5.611   3.722   3.924 -1.1818  1.1648  0.4701
  127SOPE   H2S13596   5.587   3.854   4.037  0.6997  0.6257  1.2992
  127SOPE    C313597   5.951   4.085   3.850  0.3675  0.3224 -0.5650
  127SOPE    HX13598   5.877   4.167   3.837 -1.0493 -1.0561 -1.4951
  127SOPE    HY13599   6.040   4.107   3.788  2.0044 -1.1974  1.1252
  127SOPE   O3113600   6.000   4.080   3.988 -0.8987 -0.4035  0.1278
  127SOPE   C3113601   5.934   4.126   4.090  0.0765  0.2919  0.1020
  127SOPE   O3213602   5.810   4.146   4.089  0.0863  0.4696  0.2967
  127SOPE   C3213603   6.026   4.138   4.214  0.7551 -0.0632  0.6988
  127SOPE   H2X13604   6.074   4.238   4.212 -2.9402  1.9114 -2.7943
  127SOPE   H2Y13605   6.106   4.063   4.199 -0.0109 -0.7087 -0.2992
  127SOPE   C2313606   5.661   3.675   4.133  0.5035 -0.2015 -0.9070
  127SOPE   H3R13607   5.714   3.731   4.213 -0.2492 -1.4055  0.4810
  127SOPE   H3S13608   5.719   3.584   4.109 -0.5795 -1.2102  0.2086
  127SOPE   C2413609   5.521   3.638   4.183  0.2543  0.1047  0.0601
  127SOPE   H4R13610   5.456   3.725   4.205 -0.4795 -0.6061  0.7769
  127SOPE   H4S13611   5.468   3.568   4.116  0.3021 -0.7959  0.9276
  127SOPE   C2513612   5.540   3.549   4.314  0.4696  0.0620  0.0507
  127SOPE   H5R13613   5.588   3.451   4.295  4.0555  1.7911 -0.6283
  127SOPE   H5S13614   5.616   3.608   4.370 -0.6094  0.0811  1.5403
  127SOPE   C2613615   5.409   3.544   4.399 -0.1758  0.1003  0.1854
  127SOPE   H6R13616   5.362   3.644   4.408  0.3667  0.2871  1.0670
  127SOPE   H6S13617   5.334   3.477   4.352 -0.1885  0.9543 -1.0599
  127SOPE   C2713618   5.439   3.483   4.536  0.3673 -0.4979  0.0903
  127SOPE   H7R13619   5.344   3.439   4.573 -0.5943  1.2049 -0.2418
  127SOPE   H7S13620   5.511   3.399   4.529 -1.4686 -2.1291 -0.2581
  127SOPE   C2813621   5.492   3.594   4.631  0.1086  0.6827  0.5083
  127SOPE   H8R13622   5.583   3.644   4.591 -0.1127 -0.0191 -0.9017
  127SOPE   H8S13623   5.406   3.663   4.646 -0.9587 -0.2599 -1.0005
  127SOPE   C2913624   5.530   3.521   4.761  0.5325 -0.0455 -0.5939
  127SOPE   H9113625   5.606   3.443   4.747  1.4292  0.3165  1.8339
  127SOPE  C21013626   5.457   3.508   4.879 -0.0828  0.5554 -0.4414
  127SOPE  H10113627   5.504   3.448   4.958  0.7481  0.8678 -0.6866
  127SOPE  C21113628   5.337   3.588   4.915 -0.8816  0.3840 -0.9158
  127SOPE  H11R13629   5.250   3.538   4.866 -1.1725  0.6834 -0.7151
  127SOPE  H11S13630   5.348   3.690   4.871  0.5924  0.6592  0.0498
  127SOPE  C21213631   5.313   3.602   5.067  0.4964 -0.5519 -0.1623
  127SOPE  H12R13632   5.409   3.623   5.119  1.7613 -0.8796 -2.2551
  127SOPE  H12S13633   5.260   3.513   5.107  1.6865 -1.8206 -1.3153
  127SOPE  C21313634   5.212   3.717   5.098  0.0353 -0.1086  0.3707
  127SOPE  H13R13635   5.120   3.697   5.040  0.5875 -2.4489  0.1939
  127SOPE  H13S13636   5.259   3.813   5.067 -0.4176 -0.6397 -2.1909
  127SOPE  C21413637   5.166   3.723   5.250 -0.2535  0.4872 -0.3382
  127SOPE  H14R13638   5.144   3.619   5.282  3.3782  0.6861  3.7813
  127SOPE  H14S13639   5.073   3.783   5.260 -0.5291 -0.1961  1.7134
  127SOPE  C21513640   5.282   3.778   5.341  0.3253  0.0558 -0.3354
  127SOPE  H15R13641   5.306   3.881   5.307 -2.4403  0.2275 -2.0956
  127SOPE  H15S13642   5.369   3.709   5.332  1.9702  1.7031  1.9192
  127SOPE  C21613643   5.249   3.777   5.490 -0.2137 -0.7524  0.3529
  127SOPE  H16R13644   5.232   3.670   5.513 -1.4358 -0.9857 -1.4413
  127SOPE  H16S13645   5.153   3.831   5.510 -0.6638 -2.0269  1.7883
  127SOPE  C21713646   5.362   3.849   5.572 -0.1001 -0.4931  0.2463
  127SOPE  H17R13647   5.347   3.956   5.551  1.6897 -0.5161 -1.3928
  127SOPE  H17S13648   5.466   3.830   5.537  0.0124  1.1819 -0.4008
  127SOPE  C21813649   5.349   3.832   5.731 -0.3332  0.4011  0.0403
  127SOPE  H18R13650   5.376   3.924   5.789  0.9957  1.3078 -1.9134
  127SOPE  H18S13651   5.419   3.748   5.753  0.9474  2.0543  2.9078
  127SOPE  H18T13652   5.248   3.801   5.764 -0.2715  0.0178 -0.1243
  127SOPE   C3313653   5.959   4.130   4.356  0.2629 -0.4491 -0.5855
  127SOPE   H3X13654   5.927   4.026   4.378 -0.6922 -0.2419 -0.9883
  127SOPE   H3Y13655   5.883   4.208   4.378  2.0555  0.6046  2.5632
  127SOPE   C3413656   6.062   4.139   4.475  0.7460 -0.8577  1.1519
  127SOPE   H4X13657   6.120   4.232   4.460 -0.0083 -0.7401 -1.4308
  127SOPE   H4Y13658   6.144   4.067   4.459  1.8835  0.5730  0.3006
  127SOPE   C3513659   6.010   4.125   4.615 -0.4187  0.4392  0.1636
  127SOPE   H5X13660   5.960   4.028   4.632  0.0649  0.3016  0.8461
  127SOPE   H5Y13661   5.930   4.203   4.612  0.6794  1.5972 -1.6561
  127SOPE   C3613662   6.116   4.148   4.724 -0.1630 -0.6703 -0.3312
  127SOPE   H6X13663   6.196   4.207   4.676 -0.7990  1.0384  0.6196
  127SOPE   H6Y13664   6.148   4.042   4.734 -1.2002 -0.9548  0.1181
  127SOPE   C3713665   6.064   4.211   4.859 -0.2277  0.3932 -0.1005
  127SOPE   H7X13666   5.977   4.162   4.908 -1.0808 -1.0655 -2.8891
  127SOPE   H7Y13667   6.046   4.321   4.856 -2.0272  0.1550  0.8093
  127SOPE   C3813668   6.178   4.207   4.972  0.9233 -0.0740 -0.0480
  127SOPE   H8X13669   6.261   4.270   4.933  0.6029  1.2192  1.2940
  127SOPE   H8Y13670   6.206   4.100   4.983  0.7621 -0.1415 -0.2870
  127SOPE   C3913671   6.124   4.259   5.105 -0.2192  0.7014 -0.1661
  127SOPE   H9X13672   6.186   4.223   5.190 -0.9683 -0.7091 -0.1835
  127SOPE   H9Y13673   6.026   4.211   5.124  1.1111 -1.1671  2.7116
  127SOPE  C31013674   6.113   4.409   5.128  0.2579  0.0656  1.2363
  127SOPE  H10X13675   6.110   4.452   5.026 -0.5258  0.6511  1.4933
  127SOPE  H10Y13676   6.203   4.445   5.182  0.0469  3.4725 -0.4131
  127SOPE  C31113677   5.987   4.458   5.214 -0.8660  1.0141  0.1800
  127SOPE  H11X13678   5.995   4.423   5.319  0.7628  1.2687  0.1619
  127SOPE  H11Y13679   5.892   4.414   5.176 -0.0362 -1.6682  0.9654
  127SOPE  C31213680   5.982   4.613   5.213  0.4746 -0.3062 -0.2799
  127SOPE  H12X13681   5.996   4.657   5.112  0.3936  2.7376  0.9273
  127SOPE  H12Y13682   6.073   4.643   5.270  1.1577 -1.8512 -0.5069
  127SOPE  C31313683   5.852   4.666   5.280  1.1133  0.4845 -0.3180
  127SOPE  H13X13684   5.762   4.642   5.220  0.2833  3.1489 -0.2759
  127SOPE  H13Y13685   5.848   4.777   5.282 -0.7908  0.4428  0.4076
  127SOPE  C31413686   5.825   4.609   5.423  0.3946  1.0461 -0.0642
  127SOPE  H14X13687   5.916   4.606   5.488  0.0530  1.4876  0.4459
  127SOPE  H14Y13688   5.790   4.503   5.420  0.4907  0.9541  1.2285
  127SOPE  C31513689   5.709   4.686   5.503  0.4124  0.0375  0.9659
  127SOPE  H15X13690   5.740   4.789   5.529  0.0627  0.3461  0.1763
  127SOPE  H15Y13691   5.705   4.634   5.602  1.4744 -1.9192  0.0492
  127SOPE  C31613692   5.572   4.660   5.451 -0.0611  0.1351 -0.0707
  127SOPE  H16X13693   5.546   4.553   5.434  0.2379 -0.5651  3.1004
  127SOPE  H16Y13694   5.565   4.707   5.351 -1.3728 -2.5574 -1.3393
  127SOPE  C31713695   5.453   4.725   5.532  0.2624 -0.4059  0.0082
  127SOPE  H17X13696   5.356   4.717   5.480 -0.1787  1.4999  0.4524
  127SOPE  H17Y13697   5.465   4.836   5.531  0.0853 -0.3888 -0.2387
  127SOPE  C31813698   5.439   4.672   5.680 -0.0368 -0.8033  0.6239
  127SOPE  H18X13699   5.532   4.692   5.738 -1.6007  0.8252  2.6993
  127SOPE  H18Y13700   5.400   4.568   5.679 -0.8299 -0.5451  2.1302
  127SOPE  H18Z13701   5.365   4.736   5.733  0.7812 -0.5400  1.4727
  128SOPE     N13702   2.115   3.247   4.004 -0.7431 -0.0894  0.3204
  128SOPE   HN113703   2.178   3.279   3.928 -0.5595  0.6733  0.7805
  128SOPE   HN213704   2.021   3.285   3.980 -0.5105  0.3206  0.0492
  128SOPE   HN313705   2.153   3.297   4.087  2.5493  1.0396 -1.6551
  128SOPE   C1213706   2.093   3.104   4.015 -0.2979  0.6808 -0.2710
  128SOPE  H12A13707   2.033   3.066   3.931 -1.0163  1.1608  0.0188
  128SOPE  H12B13708   2.044   3.089   4.114 -0.2640  0.5896 -0.2678
  128SOPE   C1113709   2.217   3.016   4.030  0.2076  0.3601  0.4246
  128SOPE  H11A13710   2.178   2.912   4.037 -2.7935  1.2531 -1.0859
  128SOPE  H11B13711   2.267   3.051   4.123  1.6404 -1.3023  0.3208
  128SOPE     P13712   2.297   2.932   3.790 -0.1917 -0.1699 -0.0873
  128SOPE   O1313713   2.362   2.995   3.673 -0.2184 -0.0132 -0.6126
  128SOPE   O1413714   2.167   2.869   3.770  0.5761  0.4569 -0.0175
  128SOPE   O1213715   2.304   3.024   3.923 -0.1467  0.3676  0.1227
  128SOPE   O1113716   2.394   2.819   3.843  0.0595 -0.2614 -0.0864
  128SOPE    C113717   2.533   2.838   3.869  0.6568  0.2336 -0.0519
  128SOPE    HA13718   2.567   2.944   3.872 -0.4707  0.6037  0.1087
  128SOPE    HB13719   2.596   2.777   3.800 -0.9164 -1.8420  0.2642
  128SOPE    C213720   2.577   2.779   4.005 -0.3495  0.2206  0.4850
  128SOPE    HS13721   2.532   2.678   4.007  0.9173 -0.4106 -0.8997
  128SOPE   O2113722   2.555   2.864   4.118  0.7293 -0.3590 -0.5730
  128SOPE   C2113723   2.449   2.834   4.187  0.0087 -0.1376 -0.1110
  128SOPE   O2213724   2.366   2.746   4.161  0.1964 -0.0289  0.7095
  128SOPE   C2213725   2.440   2.919   4.308  0.3316 -0.3820  0.1248
  128SOPE   H2R13726   2.455   3.023   4.274 -1.1430 -0.3470 -0.4949
  128SOPE   H2S13727   2.527   2.893   4.372  1.6022  0.4568 -1.2331
  128SOPE    C313728   2.728   2.750   4.026 -0.1319  0.4918  0.2093
  128SOPE    HX13729   2.783   2.844   4.048 -0.6625  0.4735  1.6970
  128SOPE    HY13730   2.770   2.700   3.936 -0.3018 -0.2293  0.5276
  128SOPE   O3113731   2.758   2.669   4.141 -0.0028 -0.3720 -0.1699
  128SOPE   C3113732   2.875   2.612   4.160 -0.2567 -0.0839 -0.0782
  128SOPE   O3213733   2.970   2.612   4.082  0.3100  0.0794 -0.1112
  128SOPE   C3213734   2.878   2.528   4.290 -0.0088  0.5523 -0.5318
  128SOPE   H2X13735   2.805   2.444   4.288  1.5620 -1.0595  2.6489
  128SOPE   H2Y13736   2.842   2.590   4.375 -1.4284  0.2045 -0.8418
  128SOPE   C2313737   2.304   2.908   4.384  0.8223 -0.6794 -0.2636
  128SOPE   H3R13738   2.274   2.806   4.417 -1.5204 -0.2943 -1.0135
  128SOPE   H3S13739   2.226   2.931   4.309  4.8807  1.0673 -4.4003
  128SOPE   C2413740   2.290   3.008   4.498  0.0493  0.7732  0.4446
  128SOPE   H4R13741   2.326   3.109   4.468  0.5623  0.3234 -0.4988
  128SOPE   H4S13742   2.179   3.016   4.502  0.0247  1.7159 -1.1475
  128SOPE   C2513743   2.348   2.958   4.631  0.1636  0.3199 -0.0477
  128SOPE   H5R13744   2.301   2.859   4.650 -0.8339  0.3346 -2.1469
  128SOPE   H5S13745   2.453   2.923   4.624 -0.7407 -2.6178 -0.1810
  128SOPE   C2613746   2.334   3.044   4.758  0.6569  0.4231  0.5721
  128SOPE   H6R13747   2.232   3.032   4.800  0.6731 -0.0327  0.4854
  128SOPE   H6S13748   2.395   2.996   4.837  0.5116  0.9397  1.0062
  128SOPE   C2713749   2.379   3.184   4.734  0.5421  0.3142 -0.1380
  128SOPE   H7R13750   2.488   3.184   4.710  0.4740 -0.7199 -0.5104
  128SOPE   H7S13751   2.319   3.225   4.650 -3.2542 -2.1607  1.1080
  128SOPE   C2813752   2.358   3.275   4.862  0.0982 -0.0536  0.6425
  128SOPE   H8R13753   2.424   3.229   4.939  1.7767  0.9960 -0.1290
  128SOPE   H8S13754   2.391   3.378   4.838 -4.3824  1.4585  0.0931
  128SOPE   C2913755   2.210   3.288   4.918  0.5264 -0.4377 -0.4160
  128SOPE   H9113756   2.146   3.358   4.863  0.8792  2.1919  2.2801
  128SOPE  C21013757   2.161   3.234   5.033 -0.3578 -0.8495  0.7622
  128SOPE  H10113758   2.056   3.250   5.062 -0.3343  0.3335  0.2549
  128SOPE  C21113759   2.233   3.141   5.127 -1.0828 -0.0422 -0.0364
  128SOPE  H11R13760   2.311   3.075   5.083 -0.0378 -0.0144  1.6625
  128SOPE  H11S13761   2.162   3.077   5.184  0.4665 -0.3599  1.6201
  128SOPE  C21213762   2.308   3.214   5.238  0.3919 -1.1202  0.6815
  128SOPE  H12R13763   2.399   3.267   5.204 -0.4835  0.7876  1.1472
  128SOPE  H12S13764   2.346   3.130   5.299 -2.2587 -3.0918 -0.1862
  128SOPE  C21313765   2.227   3.316   5.316 -0.5410 -0.2302 -0.1011
  128SOPE  H13R13766   2.141   3.262   5.362 -0.6774  0.0613 -0.0097
  128SOPE  H13S13767   2.173   3.375   5.239 -1.0067 -0.8496 -0.2603
  128SOPE  C21413768   2.298   3.395   5.426 -0.1404  0.6237 -0.1902
  128SOPE  H14R13769   2.219   3.464   5.461 -2.4663 -1.9694 -0.0236
  128SOPE  H14S13770   2.394   3.443   5.397  0.1370 -1.3488 -2.9661
  128SOPE  C21513771   2.344   3.301   5.538 -0.2334 -0.2641  0.6922
  128SOPE  H15R13772   2.410   3.235   5.478  0.6021  1.8561 -0.8335
  128SOPE  H15S13773   2.258   3.242   5.577 -1.4626  0.3477 -0.9912
  128SOPE  C21613774   2.413   3.365   5.649 -0.0318 -0.9933 -0.2613
  128SOPE  H16R13775   2.518   3.398   5.633 -0.7094  2.0113  0.8517
  128SOPE  H16S13776   2.428   3.302   5.740  0.4454  0.2379  0.5325
  128SOPE  C21713777   2.349   3.497   5.696  0.3613  0.0354  1.0757
  128SOPE  H17R13778   2.242   3.473   5.712  0.1354 -0.0572 -0.4595
  128SOPE  H17S13779   2.355   3.567   5.610 -2.2303 -1.9802 -0.8961
  128SOPE  C21813780   2.404   3.549   5.825  0.3281 -0.1635 -0.4922
  128SOPE  H18R13781   2.510   3.582   5.822  0.8520 -1.4750  1.3023
  128SOPE  H18S13782   2.400   3.470   5.903 -0.9251  1.7512  1.5014
  128SOPE  H18T13783   2.332   3.627   5.857 -1.0926 -1.8018  0.5108
  128SOPE   C3313784   3.019   2.467   4.322 -0.2604  0.8950 -0.0500
  128SOPE   H3X13785   3.108   2.532   4.313  2.1456 -2.0720  0.8444
  128SOPE   H3Y13786   3.029   2.387   4.246 -1.3949  2.0219 -1.4553
  128SOPE   C3413787   3.025   2.413   4.466  0.3968  0.1525 -0.0609
  128SOPE   H4X13788   3.122   2.360   4.476 -1.1242 -2.9839 -0.8298
  128SOPE   H4Y13789   2.948   2.334   4.478  0.5145  0.1766  0.9883
  128SOPE   C3513790   3.006   2.508   4.578 -0.1661 -0.4824 -0.8086
  128SOPE   H5X13791   2.898   2.536   4.578  0.3279  1.7786  1.6101
  128SOPE   H5Y13792   3.068   2.597   4.557 -0.0708 -0.7849 -1.8629
  128SOPE   C3613793   3.029   2.451   4.713 -0.0216 -0.5322 -1.0034
  128SOPE   H6X13794   3.128   2.404   4.735 -0.0749  0.3598  1.5103
  128SOPE   H6Y13795   2.953   2.379   4.748  0.1664 -0.0300  0.5253
  128SOPE   C3713796   3.018   2.561   4.821  0.3548 -0.4371  0.4017
  128SOPE   H7X13797   2.912   2.593   4.826 -0.1635 -2.1721  1.5304
  128SOPE   H7Y13798   3.068   2.656   4.791  1.7254 -1.4819 -0.7585
  128SOPE   C3813799   3.060   2.517   4.964 -0.2972  0.0832 -0.5487
  128SOPE   H8X13800   3.170   2.504   4.956 -0.1987  0.2288  0.4790
  128SOPE   H8Y13801   3.007   2.422   4.986 -0.6720 -0.3335 -3.0255
  128SOPE   C3913802   3.044   2.613   5.086 -0.4433  0.6086 -0.0404
  128SOPE   H9X13803   2.937   2.625   5.114 -1.2140 -2.4159 -1.3221
  128SOPE   H9Y13804   3.079   2.715   5.062 -0.4669  0.4792 -0.6308
  128SOPE  C31013805   3.124   2.550   5.207  0.2377 -0.4058  0.9935
  128SOPE  H10X13806   3.234   2.546   5.191  0.1520  0.8206 -0.0347
  128SOPE  H10Y13807   3.086   2.445   5.207 -2.3862  0.4796  0.2165
  128SOPE  C31113808   3.104   2.620   5.339 -0.5638  0.9092  0.0242
  128SOPE  H11X13809   2.997   2.647   5.335 -0.6459  0.4916 -0.9147
  128SOPE  H11Y13810   3.169   2.710   5.339  0.2042  0.4010 -1.3126
  128SOPE  C31213811   3.134   2.522   5.456 -0.7914  0.0822 -0.1067
  128SOPE  H12X13812   3.239   2.485   5.463 -0.3665  1.5107  2.0282
  128SOPE  H12Y13813   3.066   2.434   5.451 -0.2560 -0.3271 -0.3210
  128SOPE  C31313814   3.142   2.588   5.596  0.5012 -0.5044 -0.8146
  128SOPE  H13X13815   3.205   2.680   5.604 -0.0203 -0.1520 -0.7135
  128SOPE  H13Y13816   3.181   2.512   5.667  0.7571 -1.6145 -2.1094
  128SOPE  C31413817   3.002   2.620   5.662 -0.4413 -0.6227 -0.1944
  128SOPE  H14X13818   2.925   2.542   5.645 -1.4262  0.0297  1.1277
  128SOPE  H14Y13819   2.965   2.709   5.605  0.1089 -0.1826  0.1251
  128SOPE  C31513820   3.009   2.630   5.811 -0.3606  0.6310  0.5343
  128SOPE  H15X13821   3.061   2.720   5.851 -0.4171 -0.1705  2.5263
  128SOPE  H15Y13822   3.056   2.543   5.861 -2.9881 -0.8244  0.6558
  128SOPE  C31613823   2.869   2.623   5.875  0.1256  0.3340 -0.0273
  128SOPE  H16X13824   2.822   2.527   5.842  0.9399  0.4027 -1.4828
  128SOPE  H16Y13825   2.797   2.701   5.843 -2.5966 -1.6345  0.8756
  128SOPE  C31713826   2.864   2.619   6.030 -0.7952  0.8878  0.5155
  128SOPE  H17X13827   2.908   2.520   6.057 -0.5309  1.1260  0.9721
  128SOPE  H17Y13828   2.758   2.618   6.064 -0.8402  0.4351  0.3587
  128SOPE  C31813829   2.962   2.720   6.099  0.0028  0.0308 -0.2241
  128SOPE  H18X13830   2.945   2.826   6.071  1.0353  0.0927 -0.6446
  128SOPE  H18Y13831   3.068   2.698   6.075 -0.3790  0.4022 -2.4587
  128SOPE  H18Z13832   2.942   2.728   6.208 -1.4565  1.9820 -0.5847
  129OSM      N13833   6.627   5.947   8.363 -0.2262  0.6208  0.5734
  129OSM    C1513834   6.559   6.056   8.452 -0.4073  0.8186  0.2804
  129OSM   H15A13835   6.531   6.014   8.547  1.1538 -2.8817 -0.6924
  129OSM   H15B13836   6.461   6.065   8.409 -1.2449  1.6717  2.2684
  129OSM   H15C13837   6.599   6.155   8.463 -1.1949  1.1178  0.4908
  129OSM    C1413838   6.738   5.879   8.446  0.0208 -0.1044 -0.0599
  129OSM   H14A13839   6.687   5.819   8.520  1.7905 -1.9964 -0.2766
  129OSM   H14B13840   6.810   5.950   8.484 -0.0012  0.6238 -1.2878
  129OSM   H14C13841   6.802   5.817   8.384  2.2462  3.1657 -1.3298
  129OSM    C1313842   6.528   5.852   8.313  0.0789  0.1072  0.5989
  129OSM   H13A13843   6.484   5.810   8.402 -1.9352  1.4231  0.2862
  129OSM   H13B13844   6.563   5.765   8.259 -0.8876 -0.9012  1.5375
  129OSM   H13C13845   6.449   5.894   8.254  0.9972 -0.3322 -0.9998
  129OSM    C1213846   6.679   6.016   8.232  0.3617 -0.0037 -0.9524
  129OSM   H12A13847   6.599   6.081   8.199  0.1017  0.9788  1.4019
  129OSM   H12B13848   6.708   5.932   8.171  1.6495 -1.1836  1.1639
  129OSM    C1113849   6.801   6.105   8.240 -0.1243 -0.0445  1.0246
  129OSM   H11A13850   6.849   6.096   8.141 -1.3555  2.0965  0.1672
  129OSM   H11B13851   6.875   6.065   8.312  0.7995  0.8965  0.6155
  129OSM      P13852   6.793   6.335   8.367  0.5927 -0.0711 -0.0002
  129OSM    O1313853   6.667   6.369   8.436 -0.3817  0.2076 -0.3670
  129OSM    O1413854   6.895   6.284   8.458 -0.1193 -1.2114  0.0050
  129OSM    O1113855   6.838   6.458   8.279 -0.0993 -0.2283  0.3368
  129OSM    O1213856   6.754   6.233   8.257  0.3101  0.2425  0.6118
  129OSM    C1S13857   6.960   6.456   8.197 -0.1126 -0.3447 -0.8647
  129OSM    H1S13858   7.012   6.358   8.204  0.3370 -0.0901 -0.6891
  129OSM    H1T13859   7.033   6.529   8.237 -0.8954 -0.6579  1.2491
  129OSM     NF13860   7.051   6.443   7.964  0.0211  0.5726  0.2613
  129OSM    HNF13861   7.106   6.519   7.931  1.7211 -0.1329  1.3953
  129OSM    C2S13862   6.935   6.476   8.044  1.0398  0.2776 -0.1964
  129OSM    H2S13863   6.856   6.406   8.011  0.6994  0.1324  0.8942
  129OSM    C3S13864   6.880   6.629   8.025  0.0694  0.1767 -0.2887
  129OSM    H3S13865   6.964   6.698   8.046 -0.5908  1.2704 -1.1163
  129OSM     O313866   6.767   6.657   8.106 -0.3866  0.0449 -0.1068
  129OSM    HO313867   6.787   6.599   8.180 -0.3535 -2.1248 -1.7273
  129OSM    C4S13868   6.849   6.665   7.882 -0.0152  0.2350  0.0419
  129OSM    H4S13869   6.937   6.704   7.829  0.8459 -0.0312  1.2301
  129OSM    C5S13870   6.746   6.627   7.802  0.6920  0.5767 -0.7600
  129OSM    H5S13871   6.658   6.574   7.843  0.8455  1.0374  0.1981
  129OSM    C6S13872   6.729   6.639   7.658  0.9415 -0.4483  0.3753
  129OSM    H6S13873   6.651   6.710   7.624  0.5744 -1.4320 -0.8996
  129OSM    H6T13874   6.687   6.545   7.617 -2.0813  1.3105 -0.8984
  129OSM    C7S13875   6.861   6.662   7.592 -0.6944 -0.2037  0.5072
  129OSM    H7S13876   6.935   6.586   7.626 -0.4857  0.4063  1.4491
  129OSM    H7T13877   6.910   6.757   7.621 -1.7585 -0.0211  1.8256
  129OSM    C8S13878   6.851   6.665   7.435 -0.6988 -0.1400 -0.3154
  129OSM    H8S13879   6.812   6.764   7.407 -0.2063 -0.0234 -0.6015
  129OSM    H8T13880   6.800   6.572   7.402  0.9275 -0.5850 -1.7945
  129OSM    C9S13881   6.991   6.650   7.366 -0.2565  0.3442  1.2639
  129OSM    H9S13882   7.044   6.565   7.414 -2.7361 -0.9415  1.9058
  129OSM    H9T13883   7.040   6.749   7.377  1.2502 -0.0383 -1.2524
  129OSM   C10S13884   6.966   6.642   7.209 -0.1679 -0.2732 -0.6781
  129OSM   H10S13885   6.879   6.706   7.182 -1.9797 -2.3421 -0.0154
  129OSM   H10T13886   6.935   6.535   7.202 -0.1751 -0.2591 -0.8688
  129OSM   C11S13887   7.090   6.652   7.113 -1.2252 -0.2355  0.2770
  129OSM   H11S13888   7.155   6.566   7.141 -0.3475 -0.5067 -2.2921
  129OSM   H11T13889   7.140   6.749   7.136  1.5883 -1.4943 -0.1135
  129OSM   C12S13890   7.050   6.628   6.970  0.3943 -0.3253 -0.6357
  129OSM   H12S13891   6.988   6.718   6.950  0.4132 -0.4329 -1.1732
  129OSM   H12T13892   6.997   6.531   6.963 -1.5798  0.6048  0.6284
  129OSM   C13S13893   7.165   6.630   6.867 -0.7579  0.5232 -0.4200
  129OSM   H13S13894   7.224   6.536   6.872  1.8556  2.1560  2.3063
  129OSM   H13T13895   7.241   6.709   6.885  0.5910 -0.6286 -0.8926
  129OSM   C14S13896   7.115   6.628   6.721 -0.4125 -0.2028 -0.1981
  129OSM   H14S13897   7.071   6.730   6.716 -0.9031 -0.1091  3.4304
  129OSM   H14T13898   7.028   6.566   6.690 -1.2027  1.5765 -1.7281
  129OSM   C15S13899   7.223   6.615   6.611  0.8490  0.8200  0.4352
  129OSM   H15S13900   7.317   6.651   6.658  1.6682 -0.0971 -0.4509
  129OSM   H15T13901   7.192   6.691   6.536 -1.1822  0.9913  1.3750
  129OSM   C16S13902   7.215   6.474   6.545  0.0082  0.0377 -0.1132
  129OSM   H16S13903   7.220   6.388   6.615  1.0085  0.3640  0.2326
  129OSM   H16T13904   7.318   6.466   6.504  0.0282 -1.6036  0.2143
  129OSM   C17S13905   7.104   6.459   6.430 -0.8159 -0.0867 -0.2134
  129OSM   H17S13906   7.105   6.554   6.372  0.1736 -0.4422 -0.8149
  129OSM   H17T13907   7.013   6.442   6.492 -0.7693  0.0859 -0.0932
  129OSM   C18S13908   7.142   6.339   6.339 -0.1412  0.2456  0.0696
  129OSM   H18S13909   7.069   6.348   6.257  0.2252  1.1793 -0.1790
  129OSM   H18T13910   7.136   6.246   6.399  0.7121  0.5435  0.6501
  129OSM   H18U13911   7.245   6.326   6.299 -0.9356 -0.1558 -1.9007
  129OSM    C1F13912   7.105   6.320   7.936  0.9695  0.3108 -0.2698
  129OSM     OF13913   7.039   6.223   7.972 -0.5139  0.0969 -0.5480
  129OSM    C2F13914   7.234   6.318   7.860  0.1842  0.6893 -0.4447
  129OSM    H2F13915   7.308   6.374   7.921 -0.3950  1.8566 -0.7848
  129OSM    H2G13916   7.220   6.364   7.760  1.4727 -0.6154 -1.2761
  129OSM    C3F13917   7.295   6.175   7.868  0.0828  0.4841  0.1524
  129OSM    H3F13918   7.226   6.110   7.810  2.5010 -0.7486 -1.5883
  129OSM    H3G13919   7.300   6.145   7.975 -3.7994 -2.3265 -0.2645
  129OSM    C4F13920   7.436   6.162   7.804  0.6087  0.4643 -0.3718
  129OSM    H4F13921   7.445   6.177   7.694  0.0981 -0.0940 -0.4979
  129OSM    H4G13922   7.458   6.053   7.814  0.6696  0.4022 -1.1207
  129OSM    C5F13923   7.550   6.236   7.870  0.4761 -0.5864 -0.4382
  129OSM    H5F13924   7.574   6.174   7.960  0.2897 -1.3407 -0.8987
  129OSM    H5G13925   7.528   6.335   7.914 -2.7307 -1.6935  0.7682
  129OSM    C6F13926   7.682   6.253   7.793  0.3365  0.0675 -0.3278
  129OSM    H6F13927   7.732   6.154   7.788 -0.1392 -0.1932  0.0372
  129OSM    H6G13928   7.751   6.320   7.848 -0.6989  0.7347  0.2100
  129OSM    C7F13929   7.665   6.330   7.663  0.1956 -0.0610  0.5047
  129OSM    H7F13930   7.592   6.412   7.657  0.7603  0.3401 -2.5113
  129OSM    H7G13931   7.627   6.246   7.601 -1.9256  1.0688  0.1960
  129OSM    C8F13932   7.799   6.374   7.602  0.2668 -0.5591 -0.1409
  129OSM    H8F13933   7.855   6.280   7.581  0.9321 -0.4508  1.0595
  129OSM    H8G13934   7.849   6.448   7.667  0.2638  0.0309 -0.7954
  129OSM    C9F13935   7.786   6.447   7.469  0.0274  1.2140 -0.2186
  129OSM    H9F13936   7.709   6.397   7.408  0.0343  0.7534  0.1423
  129OSM   C10F13937   7.854   6.546   7.410  0.1040  0.0599  0.6642
  129OSM   H10F13938   7.832   6.585   7.309  1.8272 -0.4567  0.0522
  129OSM   C11F13939   7.964   6.617   7.483 -0.1550 -0.0208 -0.1620
  129OSM   H11F13940   8.021   6.553   7.553 -0.5474  1.2501  1.3749
  129OSM   H11G13941   7.923   6.690   7.556 -2.1836 -0.7311 -0.5160
  129OSM   C12F13942   8.068   6.683   7.390  0.7519  0.4565  0.5755
  129OSM   H12F13943   8.152   6.710   7.458  1.4165  1.1630 -0.5015
  129OSM   H12G13944   8.020   6.772   7.342  0.5606 -0.3921 -0.8574
  129OSM   C13F13945   8.135   6.591   7.279  0.0919  0.2770 -0.1135
  129OSM   H13F13946   8.072   6.594   7.188  1.4611 -0.9131 -1.1648
  129OSM   H13G13947   8.130   6.483   7.303  1.6068  0.3321  0.5958
  129OSM   C14F13948   8.270   6.627   7.221  0.5214 -0.7420 -0.4226
  129OSM   H14F13949   8.337   6.626   7.310 -0.7751 -1.0005  0.5841
  129OSM   H14G13950   8.282   6.728   7.177  0.2751 -0.6324 -0.2434
  129OSM   C15F13951   8.306   6.527   7.103  0.6106 -0.1084  0.1688
  129OSM   H15F13952   8.222   6.507   7.034  1.0879 -0.9050 -0.1972
  129OSM   H15G13953   8.333   6.431   7.154  0.8105  1.2959  2.8988
  129OSM   C16F13954   8.424   6.570   7.016 -0.8599 -0.9804 -0.2144
  129OSM   H16F13955   8.398   6.651   6.944  0.6743 -0.3054 -0.0560
  129OSM   H16G13956   8.452   6.488   6.948 -3.0840 -1.8727 -0.1341
  129OSM   C17F13957   8.546   6.620   7.095 -0.3570 -0.2609  0.2252
  129OSM   H17F13958   8.519   6.702   7.164  0.3963  0.2662 -0.0928
  129OSM   H17G13959   8.618   6.665   7.024 -1.8440 -1.5194 -2.1895
  129OSM   C18F13960   8.615   6.517   7.186  0.7303  0.3671 -0.0464
  129OSM   H18F13961   8.683   6.578   7.249 -0.6820  2.2635 -0.2668
  129OSM   H18G13962   8.674   6.455   7.115  1.7496  3.0240 -1.7034
  129OSM   H18H13963   8.543   6.463   7.250  0.0359  0.6519 -0.5788
  130OSM      N13964   0.721   6.114   8.384  0.0728  0.6267 -0.1409
  130OSM    C1513965   0.835   6.188   8.440  0.2260  0.3682  0.4961
  130OSM   H15A13966   0.806   6.217   8.540  0.1168  1.1128  0.2542
  130OSM   H15B13967   0.854   6.273   8.376 -1.9613  1.1966  0.8608
  130OSM   H15C13968   0.924   6.126   8.440 -1.4193 -2.0939  0.3583
  130OSM    C1413969   0.761   6.047   8.260 -0.1069 -0.6529  0.1869
  130OSM   H14A13970   0.821   5.958   8.269 -0.4224 -0.9369 -0.4850
  130OSM   H14B13971   0.811   6.119   8.197  1.0080 -1.2169  0.4018
  130OSM   H14C13972   0.682   6.008   8.197 -2.9588  2.2552  1.6577
  130OSM    C1313973   0.688   6.010   8.486 -0.6049 -0.1028  0.5569
  130OSM   H13A13974   0.784   5.966   8.512 -0.0274  1.6413  1.5258
  130OSM   H13B13975   0.616   5.934   8.460 -1.7076  1.1937 -0.2947
  130OSM   H13C13976   0.653   6.062   8.573 -1.4737 -3.0732  2.1320
  130OSM    C1213977   0.592   6.191   8.357  0.1786 -0.8016 -0.0009
  130OSM   H12A13978   0.565   6.240   8.450 -3.6920 -1.0893 -0.7962
  130OSM   H12B13979   0.514   6.118   8.341  0.2744 -0.7144 -0.9411
  130OSM    C1113980   0.593   6.298   8.241  0.1055 -0.1554 -0.2139
  130OSM   H11A13981   0.491   6.328   8.208 -0.1977 -0.0585  0.7623
  130OSM   H11B13982   0.643   6.266   8.148  1.5528  2.4073 -0.4166
  130OSM      P13983   0.587   6.508   8.382  0.2328 -0.4233  0.1204
  130OSM    O1313984   0.499   6.436   8.478  0.4712 -0.0598  0.4330
  130OSM    O1413985   0.683   6.608   8.440 -0.3461  0.1572  0.2037
  130OSM    O1113986   0.489   6.581   8.285  0.0198  0.4629 -0.3897
  130OSM    O1213987   0.664   6.412   8.280 -0.1535  0.0869  0.2487
  130OSM    C1S13988   0.532   6.667   8.173  0.2997  0.2437  0.0306
  130OSM    H1S13989   0.561   6.606   8.085 -0.2574 -0.5596  0.3849
  130OSM    H1T13990   0.615   6.739   8.191 -1.7309  2.2041  2.3604
  130OSM     NF13991   0.444   6.802   7.977  0.3001  0.7971  0.1788
  130OSM    HNF13992   0.484   6.893   7.964  1.2010  0.0959 -2.6293
  130OSM    C2S13993   0.415   6.757   8.113 -0.5721 -0.8874 -0.1671
  130OSM    H2S13994   0.326   6.691   8.103 -0.1919 -1.3813 -0.3116
  130OSM    C3S13995   0.383   6.871   8.214  0.0910 -0.6172  0.0121
  130OSM    H3S13996   0.476   6.926   8.241 -0.3812 -0.2749  1.0089
  130OSM     O313997   0.331   6.814   8.336 -0.7460  0.5022 -0.1725
  130OSM    HO313998   0.367   6.725   8.345 -0.5234  0.6020 -0.0879
  130OSM    C4S13999   0.274   6.971   8.154 -0.7027  0.5938  0.2180
  130OSM    H4S14000   0.314   7.047   8.085  1.0054  0.0022  0.4968
  130OSM    C5S14001   0.139   6.962   8.176 -0.0837 -0.8500  0.2054
  130OSM    H5S14002   0.105   6.892   8.253 -2.1329 -0.7589 -0.5617
  130OSM    C6S14003   0.029   7.040   8.106 -0.1760 -0.2641 -0.2995
  130OSM    H6S14004  -0.009   7.117   8.177  1.7198  0.8497 -0.4432
  130OSM    H6T14005  -0.055   6.975   8.072 -0.3740 -0.7173  0.9945
  130OSM    C7S14006   0.059   7.128   7.979  0.7804 -0.1739  0.3118
  130OSM    H7S14007   0.139   7.201   8.000  0.4309  0.2968  0.0204
  130OSM    H7T14008  -0.034   7.178   7.944 -0.0090 -2.3184 -0.8645
  130OSM    C8S14009   0.098   7.044   7.856  0.5499  0.8260  0.0687
  130OSM    H8S14010   0.030   6.957   7.864  2.9196 -1.0408  1.6620
  130OSM    H8T14011   0.194   6.991   7.877  0.7692  0.7298 -1.1174
  130OSM    C9S14012   0.112   7.115   7.724 -0.1764 -0.5234 -0.1204
  130OSM    H9S14013   0.189   7.194   7.736 -1.0044  0.3064 -0.1097
  130OSM    H9T14014   0.014   7.164   7.702 -1.2440 -2.1032  0.8788
  130OSM   C10S14015   0.157   7.028   7.613  1.0127  0.1596  0.6161
  130OSM   H10S14016   0.073   6.968   7.571  3.4169 -4.6689  2.0955
  130OSM   H10T14017   0.236   6.964   7.657  0.1598 -1.0241  0.4953
  130OSM   C11S14018   0.217   7.107   7.495 -0.7502 -0.0867  0.4779
  130OSM   H11S14019   0.307   7.156   7.539 -0.9665  0.8655 -0.1229
  130OSM   H11T14020   0.154   7.183   7.446  0.5481  0.9619  0.3748
  130OSM   C12S14021   0.271   7.023   7.374  0.3287 -0.2309  0.5187
  130OSM   H12S14022   0.189   6.977   7.316  0.8304  0.5170 -0.8208
  130OSM   H12T14023   0.322   6.931   7.410  0.4625 -0.4366 -0.1877
  130OSM   C13S14024   0.355   7.100   7.275  0.3127  0.4857  0.7759
  130OSM   H13S14025   0.458   7.112   7.314 -0.3527 -0.9084  3.1224
  130OSM   H13T14026   0.312   7.202   7.270  0.6607  0.6251  0.5651
  130OSM   C14S14027   0.363   7.049   7.128  0.7177  0.6355  0.0639
  130OSM   H14S14028   0.259   7.068   7.093 -0.6206  1.3726  3.8773
  130OSM   H14T14029   0.397   6.944   7.127 -1.4328 -0.1207  0.2878
  130OSM   C15S14030   0.456   7.140   7.044 -0.8047 -0.4625 -0.6395
  130OSM   H15S14031   0.558   7.149   7.087 -1.4352  0.0205  0.8365
  130OSM   H15T14032   0.416   7.243   7.036 -2.0762 -0.9059 -0.2757
  130OSM   C16S14033   0.490   7.075   6.902  0.6509 -0.1070 -1.2570
  130OSM   H16S14034   0.530   6.975   6.930  3.0155  1.4986  1.6926
  130OSM   H16T14035   0.557   7.138   6.839  2.3542 -0.3749  0.1979
  130OSM   C17S14036   0.356   7.056   6.830  0.2463  0.1226 -0.5482
  130OSM   H17S14037   0.291   7.145   6.818  0.9018  0.5140 -1.3014
  130OSM   H17T14038   0.296   6.980   6.884  1.3272  0.0088  0.5522
  130OSM   C18S14039   0.379   6.999   6.688 -0.2551 -0.3316 -0.0162
  130OSM   H18S14040   0.442   7.070   6.630 -1.1924 -0.5011 -1.2599
  130OSM   H18T14041   0.282   6.977   6.639  0.8652  0.4858 -2.8026
  130OSM   H18U14042   0.439   6.905   6.689  1.5637  0.7730 -0.1385
  130OSM    C1F14043   0.439   6.723   7.872  0.4374  0.0902  0.0630
  130OSM     OF14044   0.366   6.623   7.875 -0.1534  0.5984  0.3518
  130OSM    C2F14045   0.527   6.759   7.761  0.1522  0.2036  0.4720
  130OSM    H2F14046   0.625   6.745   7.812 -0.5908 -5.0238  1.0146
  130OSM    H2G14047   0.509   6.866   7.735 -0.6285 -0.0827 -0.2072
  130OSM    C3F14048   0.521   6.655   7.649 -0.3553  0.3390 -0.0468
  130OSM    H3F14049   0.417   6.641   7.612 -0.9543  1.7663  0.9616
  130OSM    H3G14050   0.556   6.563   7.701  1.5664  1.6873  1.1780
  130OSM    C4F14051   0.598   6.693   7.520  0.0182 -0.3488  0.0358
  130OSM    H4F14052   0.690   6.742   7.559  0.2196  0.1655 -1.0527
  130OSM    H4G14053   0.537   6.767   7.464  0.6766  1.0797  1.1490
  130OSM    C5F14054   0.647   6.575   7.436 -0.0279 -0.1436  0.3397
  130OSM    H5F14055   0.697   6.501   7.501 -0.4093  0.1386  0.9723
  130OSM    H5G14056   0.724   6.614   7.366  1.5183  0.4716  2.3141
  130OSM    C6F14057   0.531   6.508   7.353  0.6073 -0.0366  0.4589
  130OSM    H6F14058   0.491   6.578   7.275  0.0700 -1.2193 -0.3617
  130OSM    H6G14059   0.441   6.484   7.414 -0.3025 -0.4228 -0.9727
  130OSM    C7F14060   0.569   6.382   7.272 -1.0689  0.3360  0.0065
  130OSM    H7F14061   0.480   6.341   7.220 -0.2871 -2.0263  0.4405
  130OSM    H7G14062   0.612   6.304   7.338 -1.0819 -0.3767 -0.8214
  130OSM    C8F14063   0.672   6.402   7.162  0.2843  0.2349  0.2533
  130OSM    H8F14064   0.764   6.454   7.195 -0.9257  2.7782 -0.1598
  130OSM    H8G14065   0.624   6.478   7.097  0.6931  0.4238  0.1700
  130OSM    C9F14066   0.701   6.285   7.072  0.5569 -0.3526  0.4352
  130OSM    H9F14067   0.766   6.215   7.128  1.3693 -0.1296 -0.2020
  130OSM   C10F14068   0.689   6.251   6.939  0.0214  0.7433 -0.8261
  130OSM   H10F14069   0.725   6.153   6.903  1.5754  0.8377  0.3712
  130OSM   C11F14070   0.617   6.336   6.835  0.4386 -0.2285 -0.0401
  130OSM   H11F14071   0.567   6.426   6.876 -2.6675 -1.4661 -0.8430
  130OSM   H11G14072   0.529   6.278   6.799 -1.5751  1.8184  1.3027
  130OSM   C12F14073   0.702   6.374   6.713 -0.4319  0.1995 -0.1593
  130OSM   H12F14074   0.798   6.419   6.746  0.0018 -0.9502  0.1760
  130OSM   H12G14075   0.641   6.453   6.663 -1.8682  0.6187  2.1208
  130OSM   C13F14076   0.740   6.267   6.604  0.1802  0.0167  0.5560
  130OSM   H13F14077   0.813   6.199   6.652 -1.2339 -1.2124  1.0557
  130OSM   H13G14078   0.787   6.321   6.520 -0.1719 -0.8615 -0.2221
  130OSM   C14F14079   0.618   6.187   6.553  0.3073  0.2755  0.0414
  130OSM   H14F14080   0.524   6.247   6.552 -0.5864 -1.0694  0.4026
  130OSM   H14G14081   0.597   6.099   6.618  0.3158 -1.0036 -1.6092
  130OSM   C15F14082   0.637   6.137   6.411 -0.1603  0.7066 -0.1057
  130OSM   H15F14083   0.651   6.221   6.340  0.3324  2.2257  1.7104
  130OSM   H15G14084   0.545   6.080   6.389  0.6845 -0.1338 -1.6161
  130OSM   C16F14085   0.757   6.043   6.381 -0.3345  0.7021  0.4856
  130OSM   H16F14086   0.755   5.958   6.452  1.9132  0.4475  0.3402
  130OSM   H16G14087   0.851   6.100   6.398 -0.1383 -0.1259  2.3574
  130OSM   C17F14088   0.756   5.997   6.234 -0.4713 -0.3912 -0.1734
  130OSM   H17F14089   0.854   5.949   6.213 -0.0641 -0.6571  2.0405
  130OSM   H17G14090   0.739   6.082   6.165 -0.3119  0.1205  0.4087
  130OSM   C18F14091   0.643   5.902   6.207 -0.6377 -0.0279  0.2740
  130OSM   H18F14092   0.542   5.940   6.234 -1.4290  0.5411 -3.1241
  130OSM   H18G14093   0.656   5.807   6.262  2.0811 -2.3205 -3.8549
  130OSM   H18H14094   0.641   5.893   6.097  0.7433  0.3079  0.2070
  131OSM      N14095   0.770   6.827   8.684 -0.4165 -0.1580 -0.6471
  131OSM    C1514096   0.908   6.803   8.627  0.6821  0.4937  0.4735
  131OSM   H15A14097   0.914   6.722   8.556 -0.3144  1.9239 -1.3216
  131OSM   H15B14098   0.975   6.767   8.704  1.6091 -0.4053 -0.7150
  131OSM   H15C14099   0.956   6.892   8.590  1.3387  0.6505  1.6539
  131OSM    C1414100   0.731   6.707   8.765 -0.1374 -0.2488  0.0731
  131OSM   H14A14101   0.639   6.724   8.819 -0.0551  1.2633 -0.2391
  131OSM   H14B14102   0.816   6.681   8.827  0.3730 -0.8245 -0.8484
  131OSM   H14C14103   0.728   6.628   8.691  2.6582 -0.6848  0.3152
  131OSM    C1314104   0.773   6.941   8.780 -0.2146 -0.0456  0.0770
  131OSM   H13A14105   0.792   7.031   8.723  0.6611  0.0627  0.5306
  131OSM   H13B14106   0.851   6.937   8.855 -0.3492  0.4938  0.2519
  131OSM   H13C14107   0.674   6.947   8.822  0.5558 -0.0769  1.9999
  131OSM    C1214108   0.673   6.855   8.571 -0.6735  0.3007 -0.1706
  131OSM   H12A14109   0.577   6.886   8.610 -0.7998  0.7997 -0.8455
  131OSM   H12B14110   0.662   6.763   8.515 -0.1859  0.8401 -1.1892
  131OSM    C1114111   0.725   6.950   8.458  0.2384  0.7625  0.4146
  131OSM   H11A14112   0.639   6.946   8.388  0.8645 -2.3542 -0.3355
  131OSM   H11B14113   0.807   6.903   8.400 -0.8106 -0.3269 -0.2380
  131OSM      P14114   0.827   7.181   8.400  0.2524 -0.0155  0.0487
  131OSM    O1314115   0.895   7.282   8.481 -0.1419  0.0941  0.0802
  131OSM    O1414116   0.905   7.098   8.305  0.3254 -0.3370  0.6521
  131OSM    O1114117   0.699   7.239   8.325  0.2759 -0.3401 -0.6082
  131OSM    O1214118   0.751   7.084   8.504  0.2309 -0.1573  0.1710
  131OSM    C1S14119   0.681   7.234   8.188 -0.1133  0.0163 -0.1452
  131OSM    H1S14120   0.698   7.130   8.153 -1.3030 -0.0052 -0.7150
  131OSM    H1T14121   0.746   7.307   8.135  1.5413  0.0456  1.8319
  131OSM     NF14122   0.536   7.289   7.999  0.1729 -0.2557 -0.3624
  131OSM    HNF14123   0.540   7.380   7.958  1.2664 -0.4888 -0.8134
  131OSM    C2S14124   0.534   7.279   8.148 -0.7314 -0.2632  0.1763
  131OSM    H2S14125   0.474   7.189   8.176  0.4387 -0.2979  2.8982
  131OSM    C3S14126   0.487   7.412   8.222 -0.0495  1.2001 -0.4227
  131OSM    H3S14127   0.568   7.487   8.208 -0.0835  1.1679 -0.7993
  131OSM     O314128   0.466   7.392   8.358 -0.3634  0.4124  0.1394
  131OSM    HO314129   0.519   7.314   8.379 -2.1974 -1.5349 -1.9743
  131OSM    C4S14130   0.364   7.467   8.161  0.2857 -0.3049 -0.1962
  131OSM    H4S14131   0.385   7.554   8.097  0.3270  1.0506  1.5772
  131OSM    C5S14132   0.236   7.440   8.183  0.0757  0.3859  0.1456
  131OSM    H5S14133   0.220   7.351   8.245 -0.6698 -0.9520 -1.8772
  131OSM    C6S14134   0.132   7.503   8.091  0.1498  0.7829 -0.0557
  131OSM    H6S14135   0.072   7.579   8.146 -1.0111 -0.6315  0.7032
  131OSM    H6T14136   0.069   7.414   8.070  2.0464 -0.3515 -1.2453
  131OSM    C7S14137   0.159   7.562   7.950 -0.1440 -0.1280  0.5905
  131OSM    H7S14138   0.225   7.651   7.961 -0.8730  0.8222 -2.0806
  131OSM    H7T14139   0.067   7.618   7.922 -0.9342 -1.6084  0.1671
  131OSM    C8S14140   0.193   7.463   7.834 -0.3761 -0.6715 -0.6812
  131OSM    H8S14141   0.117   7.384   7.849  0.3331 -1.0596  1.2332
  131OSM    H8T14142   0.288   7.408   7.851 -0.3504 -0.7212 -0.9721
  131OSM    C9S14143   0.182   7.531   7.701 -0.1705  0.0999 -0.4793
  131OSM    H9S14144   0.090   7.590   7.681 -0.5298 -0.5136 -0.6589
  131OSM    H9T14145   0.176   7.448   7.628  0.7630 -1.0689  0.7207
  131OSM   C10S14146   0.305   7.625   7.671  0.5196  0.4587 -0.3879
  131OSM   H10S14147   0.394   7.574   7.715 -0.1068  0.3960  0.8417
  131OSM   H10T14148   0.293   7.713   7.738  1.9894 -0.1191  0.6985
  131OSM   C11S14149   0.311   7.668   7.529  0.1021 -0.0466  0.8596
  131OSM   H11S14150   0.220   7.723   7.496  0.6282  0.4509  0.2299
  131OSM   H11T14151   0.324   7.582   7.460 -0.2271  1.0779 -0.6559
  131OSM   C12S14152   0.424   7.762   7.487 -0.1542  0.0191 -0.3292
  131OSM   H12S14153   0.518   7.703   7.503  0.7468  1.6957  0.8778
  131OSM   H12T14154   0.432   7.857   7.544  1.0007 -1.2730  1.7979
  131OSM   C13S14155   0.417   7.787   7.337  0.0571  0.0699  0.4855
  131OSM   H13S14156   0.376   7.887   7.310 -0.8067 -0.3252  0.2948
  131OSM   H13T14157   0.359   7.709   7.284  1.0101  0.1811 -0.7622
  131OSM   C14S14158   0.555   7.787   7.266  1.1485  0.6810 -0.0867
  131OSM   H14S14159   0.609   7.698   7.304  1.2714  0.6554 -0.3221
  131OSM   H14T14160   0.606   7.881   7.294  0.4460  0.8205  0.7984
  131OSM   C15S14161   0.555   7.790   7.108 -0.4600  0.8782 -0.7748
  131OSM   H15S14162   0.661   7.784   7.077  0.3624 -4.0711  1.8839
  131OSM   H15T14163   0.505   7.882   7.071  0.3281  0.2312 -3.6637
  131OSM   C16S14164   0.502   7.663   7.044 -0.8542  0.3453 -0.1687
  131OSM   H16S14165   0.392   7.653   7.060 -0.7814 -1.8209 -0.6611
  131OSM   H16T14166   0.553   7.581   7.100  1.1682  1.6362 -0.0231
  131OSM   C17S14167   0.542   7.652   6.895 -0.4338  0.5205 -0.2616
  131OSM   H17S14168   0.651   7.666   6.879 -0.3897  0.5410  0.0429
  131OSM   H17T14169   0.499   7.738   6.840  1.1247  0.4390 -1.6987
  131OSM   C18S14170   0.501   7.524   6.823  0.7164 -0.4303 -0.2457
  131OSM   H18S14171   0.552   7.435   6.866  0.4073  0.1295  1.3676
  131OSM   H18T14172   0.522   7.532   6.714 -1.6423  2.1309 -0.6225
  131OSM   H18U14173   0.390   7.512   6.829  0.8154 -1.1476  0.2146
  131OSM    C1F14174   0.535   7.182   7.916  0.2695 -0.7466 -0.0362
  131OSM     OF14175   0.534   7.073   7.959  0.3091 -0.3906  0.1355
  131OSM    C2F14176   0.533   7.223   7.774 -0.2142 -0.2555 -0.0166
  131OSM    H2F14177   0.551   7.332   7.775 -0.7540 -0.1663  0.2268
  131OSM    H2G14178   0.436   7.194   7.729  0.4173  1.0147 -2.3361
  131OSM    C3F14179   0.647   7.146   7.697 -0.2898  0.0487  0.2969
  131OSM    H3F14180   0.653   7.040   7.731  0.3579 -0.5054 -1.3922
  131OSM    H3G14181   0.746   7.194   7.709 -0.1184  0.3418 -1.8497
  131OSM    C4F14182   0.624   7.137   7.549 -0.5788  0.2785 -0.4033
  131OSM    H4F14183   0.604   7.242   7.520  1.4439  1.4839  2.1538
  131OSM    H4G14184   0.549   7.062   7.515  1.4811 -2.9182  1.5903
  131OSM    C5F14185   0.756   7.088   7.479  0.1212 -0.0811  0.0098
  131OSM    H5F14186   0.796   7.006   7.542 -0.0584 -0.3242 -0.1909
  131OSM    H5G14187   0.833   7.168   7.478 -0.9129  0.9449  0.0442
  131OSM    C6F14188   0.736   7.040   7.333 -0.3512  0.5598 -0.4101
  131OSM    H6F14189   0.707   7.127   7.271  2.5051  0.6039 -1.8621
  131OSM    H6G14190   0.650   6.970   7.335  0.0940 -0.0902 -1.9401
  131OSM    C7F14191   0.855   6.971   7.282  0.1551  0.2281  0.8842
  131OSM    H7F14192   0.872   6.884   7.349 -1.5217  0.4664  1.6721
  131OSM    H7G14193   0.949   7.030   7.276  0.1179  0.1601 -1.3896
  131OSM    C8F14194   0.837   6.916   7.138 -0.1798  0.2488 -0.1107
  131OSM    H8F14195   0.941   6.894   7.106  0.4386  0.5789  1.5396
  131OSM    H8G14196   0.797   7.004   7.083 -1.8063  1.5402  2.9032
  131OSM    C9F14197   0.748   6.793   7.115 -0.0623  0.0965  0.2014
  131OSM    H9F14198   0.680   6.771   7.198  0.8289  1.2465  1.2830
  131OSM   C10F14199   0.733   6.738   6.996  0.2562  0.5460 -0.3179
  131OSM   H10F14200   0.672   6.646   6.994  1.6845 -0.4621  0.2375
  131OSM   C11F14201   0.817   6.762   6.871 -0.3481  0.5586 -0.6706
  131OSM   H11F14202   0.882   6.675   6.849 -1.4650 -0.6547  0.6400
  131OSM   H11G14203   0.884   6.850   6.877 -0.7565  0.7851  1.4090
  131OSM   C12F14204   0.734   6.792   6.746  0.6550  0.3450  0.1743
  131OSM   H12F14205   0.674   6.883   6.768  0.6646  0.4712 -0.3106
  131OSM   H12G14206   0.666   6.709   6.721  0.5896  0.4508 -0.0034
  131OSM   C13F14207   0.821   6.807   6.624 -0.2612 -0.7947  0.5412
  131OSM   H13F14208   0.885   6.719   6.603  1.0346  0.2790 -0.2269
  131OSM   H13G14209   0.903   6.882   6.639 -1.4083  0.3498  1.3007
  131OSM   C14F14210   0.744   6.859   6.500  0.6528  0.5742  0.2141
  131OSM   H14F14211   0.826   6.908   6.442  0.3908  2.2415  1.2120
  131OSM   H14G14212   0.678   6.942   6.532  0.3923  1.2415 -1.8954
  131OSM   C15F14213   0.661   6.751   6.428  0.4159  0.0673  0.4710
  131OSM   H15F14214   0.592   6.704   6.501 -0.4119 -1.8421 -1.4150
  131OSM   H15G14215   0.738   6.680   6.389 -0.5609 -1.6542  1.5358
  131OSM   C16F14216   0.585   6.811   6.306  0.8169 -0.8496  0.0739
  131OSM   H16F14217   0.548   6.717   6.259 -0.6580  1.0441 -2.8999
  131OSM   H16G14218   0.662   6.867   6.247 -0.3057  2.7101  1.7157
  131OSM   C17F14219   0.461   6.895   6.338 -0.3773 -0.4663 -0.8645
  131OSM   H17F14220   0.505   6.997   6.349 -1.4087 -0.2123  1.6959
  131OSM   H17G14221   0.418   6.848   6.429  1.6949 -0.8657 -0.0181
  131OSM   C18F14222   0.357   6.903   6.233 -0.1532 -0.0327  0.0519
  131OSM   H18F14223   0.333   6.800   6.197 -0.3061  0.1117 -0.2663
  131OSM   H18G14224   0.394   6.957   6.143  0.3566 -0.0315  0.2621
  131OSM   H18H14225   0.261   6.950   6.263  0.3875  0.1440  1.5356
  132OSM      N14226   1.236   5.193   8.403 -0.9021 -0.2735 -0.4478
  132OSM    C1514227   1.146   5.084   8.437  1.2782  0.2617 -0.8072
  132OSM   H15A14228   1.110   5.083   8.539  0.5833  1.2677 -1.0298
  132OSM   H15B14229   1.196   4.991   8.414 -0.7068 -1.3753  1.0707
  132OSM   H15C14230   1.056   5.096   8.379  0.3649 -0.8818  0.3229
  132OSM    C1414231   1.358   5.180   8.485  0.2019  0.6772 -0.8292
  132OSM   H14A14232   1.403   5.274   8.512 -0.0698  0.7541 -0.6287
  132OSM   H14B14233   1.423   5.108   8.438 -1.9837 -0.4583 -2.2972
  132OSM   H14C14234   1.323   5.141   8.580 -0.8125  1.3159 -0.9305
  132OSM    C1314235   1.260   5.185   8.259  0.8185  0.4562  0.3558
  132OSM   H13A14236   1.334   5.259   8.230  1.4072  0.7678  2.4727
  132OSM   H13B14237   1.171   5.200   8.200  0.1230  0.6998  1.4332
  132OSM   H13C14238   1.298   5.089   8.227 -0.9854  0.3808 -1.8192
  132OSM    C1214239   1.173   5.324   8.434 -0.3481 -0.6697  0.2366
  132OSM   H12A14240   1.177   5.336   8.541 -0.5052 -2.6593  0.5102
  132OSM   H12B14241   1.068   5.315   8.409 -0.6634  0.1812  1.2043
  132OSM    C1114242   1.227   5.457   8.379  0.3763  0.6064  0.3879
  132OSM   H11A14243   1.158   5.534   8.421 -0.4605  0.1230 -0.0890
  132OSM   H11B14244   1.233   5.463   8.268 -0.0368 -1.2620  0.2428
  132OSM      P14245   1.494   5.466   8.346 -0.2258  0.2497  0.2285
  132OSM    O1314246   1.533   5.607   8.328  0.1593 -0.0604  0.2805
  132OSM    O1414247   1.595   5.376   8.406  0.8058  0.4179 -0.4434
  132OSM    O1114248   1.441   5.410   8.202  0.4943  0.1047  0.2377
  132OSM    O1214249   1.360   5.469   8.431  0.0026  0.1676  0.4668
  132OSM    C1S14250   1.530   5.426   8.087  0.0320 -0.5437  0.1564
  132OSM    H1S14251   1.629   5.377   8.096  0.1550 -0.8650 -2.2531
  132OSM    H1T14252   1.559   5.533   8.078  3.3147 -1.4800 -1.9522
  132OSM     NF14253   1.577   5.370   7.853  0.5652  0.3792  0.0943
  132OSM    HNF14254   1.591   5.447   7.791 -0.4747  1.3746  1.0527
  132OSM    C2S14255   1.469   5.388   7.951 -0.4466 -0.0433  0.2551
  132OSM    H2S14256   1.417   5.290   7.962 -0.7291  0.2245  1.4763
  132OSM    C3S14257   1.369   5.499   7.911  0.4028  0.8082 -0.0957
  132OSM    H3S14258   1.424   5.591   7.881  1.0055  0.3781 -0.3379
  132OSM     O314259   1.282   5.545   8.017 -0.0627 -0.4560  0.8576
  132OSM    HO314260   1.332   5.521   8.095  2.1947  1.8046  0.2058
  132OSM    C4S14261   1.290   5.456   7.785  0.1309 -0.0312 -0.0709
  132OSM    H4S14262   1.339   5.495   7.695 -1.6048  1.9309 -0.2306
  132OSM    C5S14263   1.173   5.390   7.780  0.7145  0.0745 -0.8940
  132OSM    H5S14264   1.127   5.370   7.878  1.5020  0.6022 -0.4039
  132OSM    C6S14265   1.093   5.367   7.654 -0.2704 -0.0877 -0.0980
  132OSM    H6S14266   1.039   5.463   7.633  0.0122  0.5756  1.9890
  132OSM    H6T14267   1.019   5.286   7.673 -0.5232 -0.2285 -1.5254
  132OSM    C7S14268   1.173   5.334   7.528  0.1004 -0.2758 -0.1435
  132OSM    H7S14269   1.234   5.242   7.541  2.7104  1.3465 -0.3149
  132OSM    H7T14270   1.239   5.419   7.502  0.4779 -1.0816 -2.0086
  132OSM    C8S14271   1.082   5.315   7.409  0.0583 -0.7983 -0.0849
  132OSM    H8S14272   1.002   5.391   7.415 -0.1596 -0.9793 -0.5997
  132OSM    H8T14273   1.035   5.214   7.409 -2.5390  0.3386  0.6645
  132OSM    C9S14274   1.160   5.324   7.274  0.8110 -0.5238 -0.2315
  132OSM    H9S14275   1.245   5.253   7.274  1.9816  0.8229 -0.0547
  132OSM    H9T14276   1.212   5.423   7.278  2.2797 -1.2984  1.1947
  132OSM   C10S14277   1.061   5.317   7.159 -0.1059  0.1531  0.0757
  132OSM   H10S14278   0.985   5.395   7.181 -0.1155  0.3002 -0.4524
  132OSM   H10T14279   1.011   5.220   7.135 -0.9551  0.5937  0.0197
  132OSM   C11S14280   1.146   5.342   7.036  0.5132 -0.0946 -0.1756
  132OSM   H11S14281   1.227   5.267   7.029  2.3689  1.4815  2.6755
  132OSM   H11T14282   1.192   5.444   7.040 -1.1165  0.6256  1.4677
  132OSM   C12S14283   1.048   5.344   6.910  0.6793  0.9881 -0.2106
  132OSM   H12S14284   0.957   5.401   6.935 -1.4315 -1.5855 -1.4585
  132OSM   H12T14285   1.016   5.240   6.888  0.5009  0.8746  0.5531
  132OSM   C13S14286   1.118   5.416   6.792 -0.2261  0.1272 -0.1248
  132OSM   H13S14287   1.209   5.363   6.755 -0.4857 -0.9428  0.7160
  132OSM   H13T14288   1.150   5.516   6.826 -0.7407  0.1885  0.1835
  132OSM   C14S14289   1.021   5.430   6.674  0.2978 -0.4272 -0.9000
  132OSM   H14S14290   0.943   5.504   6.702  2.0784  0.2395  3.1078
  132OSM   H14T14291   0.965   5.340   6.642  0.1777  0.3164 -2.9525
  132OSM   C15S14292   1.092   5.485   6.549 -0.1601  0.1569  0.0050
  132OSM   H15S14293   1.030   5.468   6.458  0.0825 -0.6922 -0.0174
  132OSM   H15T14294   1.175   5.412   6.538 -0.5718 -0.1116 -1.6100
  132OSM   C16S14295   1.140   5.624   6.568  0.0153 -0.3087  0.2112
  132OSM   H16S14296   1.206   5.619   6.657  0.7896 -2.1665 -0.4214
  132OSM   H16T14297   1.054   5.693   6.582 -2.5425 -3.0213 -1.1770
  132OSM   C17S14298   1.217   5.674   6.445 -0.1530 -0.0673 -0.0070
  132OSM   H17S14299   1.153   5.652   6.357  0.2353  1.1576 -0.6160
  132OSM   H17T14300   1.306   5.609   6.440 -0.7175 -0.7205 -3.1270
  132OSM   C18S14301   1.250   5.824   6.452 -0.0073  0.2162  0.0871
  132OSM   H18S14302   1.159   5.886   6.446  0.5394  1.0426  0.1633
  132OSM   H18T14303   1.323   5.860   6.376 -2.2671  0.6662 -1.9558
  132OSM   H18U14304   1.294   5.848   6.551  2.4946  1.8086 -1.2884
  132OSM    C1F14305   1.657   5.262   7.855  0.4664 -0.0343 -0.1387
  132OSM     OF14306   1.647   5.186   7.945  0.3617 -0.2495  0.1553
  132OSM    C2F14307   1.756   5.255   7.738  0.6769 -0.5326 -0.1095
  132OSM    H2F14308   1.751   5.345   7.673 -0.4515  1.4532  2.5363
  132OSM    H2G14309   1.724   5.175   7.667 -2.8568  1.9387 -1.5735
  132OSM    C3F14310   1.903   5.234   7.764 -0.3322  0.2711 -0.8973
  132OSM    H3F14311   1.903   5.149   7.835 -2.9762 -0.7787 -2.0554
  132OSM    H3G14312   1.938   5.324   7.821 -0.5490 -0.7295  0.8718
  132OSM    C4F14313   1.981   5.207   7.643  0.0202 -0.1764  0.0877
  132OSM    H4F14314   1.987   5.296   7.577 -0.1124  0.5398  1.0094
  132OSM    H4G14315   1.928   5.124   7.592  0.0127 -0.2308  0.1812
  132OSM    C5F14316   2.120   5.154   7.674  0.4753 -0.5984 -0.0948
  132OSM    H5F14317   2.105   5.064   7.737 -0.6291  0.2201  0.8740
  132OSM    H5G14318   2.186   5.227   7.726  0.9437  0.1303 -1.6615
  132OSM    C6F14319   2.187   5.092   7.547 -0.4332  0.7471 -0.1863
  132OSM    H6F14320   2.139   4.998   7.511 -0.3949  0.3525  0.7760
  132OSM    H6G14321   2.289   5.057   7.576  0.6109  2.2741 -1.7874
  132OSM    C7F14322   2.191   5.181   7.426  0.2012 -0.1158  0.0798
  132OSM    H7F14323   2.237   5.278   7.455  1.9063 -1.1751  1.0684
  132OSM    H7G14324   2.084   5.201   7.401 -0.3137 -2.3680  0.2256
  132OSM    C8F14325   2.258   5.121   7.302  0.4111  0.0172  0.0698
  132OSM    H8F14326   2.368   5.115   7.313  0.6588  0.1132 -1.9779
  132OSM    H8G14327   2.237   5.183   7.212 -0.7650 -1.5223 -0.7653
  132OSM    C9F14328   2.187   4.993   7.257 -0.1926 -0.8397 -0.3022
  132OSM    H9F14329   2.077   4.984   7.253 -0.0881 -2.3032 -0.3310
  132OSM   C10F14330   2.253   4.882   7.214 -0.2905 -0.4480  0.3066
  132OSM   H10F14331   2.186   4.797   7.192 -1.3055  0.4801 -0.2881
  132OSM   C11F14332   2.401   4.847   7.190  0.1756  0.2881 -0.0635
  132OSM   H11F14333   2.412   4.750   7.244 -0.2742  0.5902  0.5943
  132OSM   H11G14334   2.467   4.918   7.244  0.6004 -0.0248 -0.1667
  132OSM   C12F14335   2.462   4.830   7.051  0.5540  0.6083 -0.3889
  132OSM   H12F14336   2.567   4.798   7.072 -0.2488 -0.1333  3.0618
  132OSM   H12G14337   2.450   4.926   6.997 -0.6347  0.9444  0.4396
  132OSM   C13F14338   2.380   4.716   6.971  0.0775  0.0334  0.2119
  132OSM   H13F14339   2.273   4.747   6.969 -0.2581 -1.0866 -1.4624
  132OSM   H13G14340   2.382   4.622   7.030 -2.3246  0.7642  1.6029
  132OSM   C14F14341   2.440   4.706   6.836 -0.5365  0.1328 -0.3733
  132OSM   H14F14342   2.549   4.693   6.854 -0.5214  0.9055  0.1952
  132OSM   H14G14343   2.437   4.807   6.788 -2.5375  0.7122  0.8357
  132OSM   C15F14344   2.403   4.587   6.759  0.2310  0.3060 -0.1085
  132OSM   H15F14345   2.293   4.600   6.746  0.2405  0.9469  0.3780
  132OSM   H15G14346   2.431   4.500   6.821 -2.3756  0.2420  1.1052
  132OSM   C16F14347   2.485   4.578   6.631  0.3493  0.3245  0.3354
  132OSM   H16F14348   2.588   4.571   6.672  0.0834 -2.0075  0.7410
  132OSM   H16G14349   2.471   4.672   6.574 -1.4342  0.1326  0.3845
  132OSM   C17F14350   2.456   4.451   6.545  0.4423  0.2794  0.3953
  132OSM   H17F14351   2.348   4.447   6.522  0.4837 -0.2335  0.2971
  132OSM   H17G14352   2.475   4.358   6.603 -1.0830 -0.2788  0.0505
  132OSM   C18F14353   2.530   4.446   6.412 -0.0991 -0.2919  0.0996
  132OSM   H18F14354   2.633   4.487   6.410  0.5115 -1.7249  0.6647
  132OSM   H18G14355   2.479   4.506   6.334  0.9330  2.0019  1.0962
  132OSM   H18H14356   2.547   4.343   6.374 -0.2806 -0.5454  0.7022
  133OSM      N14357   6.298   3.980   8.180 -0.1285  0.4500  0.7965
  133OSM    C1514358   6.437   3.943   8.212  0.4695  0.4578 -0.1132
  133OSM   H15A14359   6.511   3.945   8.133  0.2197  0.4415 -0.3511
  133OSM   H15B14360   6.453   3.843   8.248  2.2514  0.4356 -0.8642
  133OSM   H15C14361   6.467   4.015   8.287  1.2036  0.0307  0.0068
  133OSM    C1414362   6.200   3.962   8.295 -0.5537  0.9749  0.4794
  133OSM   H14A14363   6.102   3.990   8.258 -1.3962 -1.8947  0.2874
  133OSM   H14B14364   6.229   4.021   8.381  0.3809  0.5338  0.4752
  133OSM   H14C14365   6.179   3.860   8.324  1.3103 -0.5883 -3.1145
  133OSM    C1314366   6.284   4.127   8.156 -0.0715  0.1209  0.0622
  133OSM   H13A14367   6.329   4.147   8.060 -2.4045  0.1296 -1.0999
  133OSM   H13B14368   6.324   4.189   8.235 -1.3048  1.5293 -0.3735
  133OSM   H13C14369   6.181   4.148   8.133 -0.1054 -0.9474 -0.8396
  133OSM    C1214370   6.239   3.904   8.062 -0.2626  0.2492 -0.2836
  133OSM   H12A14371   6.245   3.797   8.078  0.9497  0.3662  0.1807
  133OSM   H12B14372   6.306   3.924   7.980 -0.1552 -0.1184 -0.2897
  133OSM    C1114373   6.099   3.935   8.012 -0.0851 -0.0633 -0.2258
  133OSM   H11A14374   6.025   3.915   8.093  0.6389 -2.3347 -0.0602
  133OSM   H11B14375   6.068   3.862   7.935 -0.3582  0.3084 -0.4702
  133OSM      P14376   6.046   4.121   7.828  0.2493 -0.1752  0.4981
  133OSM    O1314377   5.907   4.088   7.806  0.1423  0.1961 -0.1885
  133OSM    O1414378   6.077   4.263   7.815 -0.3392 -0.3212  0.0083
  133OSM    O1114379   6.130   4.042   7.715 -0.0092 -0.4906 -0.6322
  133OSM    O1214380   6.096   4.070   7.969 -0.0004 -0.6314 -0.4582
  133OSM    C1S14381   6.115   4.110   7.586  0.6159  0.0228 -0.2816
  133OSM    H1S14382   6.157   4.212   7.585  0.2799  0.1779 -2.3912
  133OSM    H1T14383   6.009   4.123   7.556 -0.2418  1.1668  2.8652
  133OSM     NF14384   6.205   4.123   7.357  0.0791  0.1117 -0.2987
  133OSM    HNF14385   6.142   4.092   7.286  1.3321 -3.1093 -0.1812
  133OSM    C2S14386   6.186   4.028   7.469 -0.3821  0.4283  0.3057
  133OSM    H2S14387   6.288   4.007   7.506 -0.6218 -1.2049  0.1241
  133OSM    C3S14388   6.125   3.897   7.431  0.1693  0.1326 -0.2783
  133OSM    H3S14389   6.025   3.916   7.387 -1.5679 -0.3906  3.0532
  133OSM     O314390   6.103   3.809   7.546  0.1204 -0.1305  0.3483
  133OSM    HO314391   6.132   3.868   7.616  1.8365 -1.2835  0.6739
  133OSM    C4S14392   6.210   3.824   7.324 -0.3982 -0.1475 -1.3074
  133OSM    H4S14393   6.318   3.844   7.337  0.1270 -1.7624 -2.8854
  133OSM    C5S14394   6.161   3.763   7.216  0.4920  0.2445 -0.2127
  133OSM    H5S14395   6.051   3.752   7.213  0.5647 -0.3684 -1.2831
  133OSM    C6S14396   6.230   3.709   7.095 -0.1010  0.1735 -0.1780
  133OSM    H6S14397   6.206   3.605   7.064  2.0823 -1.1622  2.1859
  133OSM    H6T14398   6.339   3.714   7.115 -0.0407 -2.9155  0.9342
  133OSM    C7S14399   6.212   3.817   6.985 -0.1658 -0.1805 -0.7916
  133OSM    H7S14400   6.251   3.907   7.036 -0.3065 -1.2123  1.2520
  133OSM    H7T14401   6.110   3.853   6.960  0.7335  2.9484 -0.3256
  133OSM    C8S14402   6.275   3.775   6.851 -1.2335  0.3831 -0.5999
  133OSM    H8S14403   6.207   3.696   6.812 -3.0860  1.7978 -0.3895
  133OSM    H8T14404   6.374   3.730   6.876 -0.5011  1.9620 -0.5082
  133OSM    C9S14405   6.302   3.894   6.766 -1.1689  0.3288  0.0507
  133OSM    H9S14406   6.391   3.954   6.796  0.2582 -0.9553 -1.4393
  133OSM    H9T14407   6.217   3.963   6.784 -0.7020  0.8752  0.2122
  133OSM   C10S14408   6.305   3.858   6.614 -0.2754  0.2717  0.3298
  133OSM   H10S14409   6.221   3.789   6.592 -0.0043 -0.1422  0.5662
  133OSM   H10T14410   6.402   3.806   6.596 -0.2181 -1.0431  3.7063
  133OSM   C11S14411   6.301   3.985   6.526  0.3851  0.0710 -0.4364
  133OSM   H11S14412   6.380   4.055   6.563 -0.0249 -0.9022  2.5794
  133OSM   H11T14413   6.208   4.046   6.531 -1.0977 -1.8638 -2.7505
  133OSM   C12S14414   6.335   3.958   6.374  0.4757  0.8361  0.0090
  133OSM   H12S14415   6.253   3.889   6.344  0.7335  0.7419 -0.5005
  133OSM   H12T14416   6.438   3.916   6.366  0.7251  1.5406 -0.6340
  133OSM   C13S14417   6.323   4.085   6.288  0.4322  0.0214  0.2925
  133OSM   H13S14418   6.411   4.149   6.309 -0.2830  0.4778  2.1178
  133OSM   H13T14419   6.236   4.148   6.315  0.2307  0.0036 -0.3029
  133OSM   C14S14420   6.328   4.063   6.137  0.5517 -0.5501 -0.0760
  133OSM   H14S14421   6.243   4.002   6.098  1.4411 -1.9095  0.0505
  133OSM   H14T14422   6.423   4.020   6.098  1.6149 -0.3324  2.1489
  133OSM   C15S14423   6.310   4.205   6.073 -0.1417  0.2539  0.3965
  133OSM   H15S14424   6.389   4.270   6.115 -0.2570  0.5783  0.1108
  133OSM   H15T14425   6.211   4.232   6.116 -1.0934 -2.7096  0.3035
  133OSM   C16S14426   6.337   4.203   5.917 -0.0163 -0.4527  0.2609
  133OSM   H16S14427   6.282   4.116   5.876 -3.3119  1.8003 -0.5200
  133OSM   H16T14428   6.445   4.191   5.896  0.3212  2.6341 -0.2624
  133OSM   C17S14429   6.278   4.328   5.839 -0.4989  0.1623 -0.1621
  133OSM   H17S14430   6.306   4.420   5.895 -1.4494  0.0480  0.5372
  133OSM   H17T14431   6.169   4.310   5.853 -0.2982 -1.0478 -0.0932
  133OSM   C18S14432   6.317   4.335   5.691 -0.4602  0.4044  0.0316
  133OSM   H18S14433   6.258   4.411   5.636 -2.6799  0.9294  2.9193
  133OSM   H18T14434   6.306   4.234   5.645 -0.2374 -0.8102  2.4779
  133OSM   H18U14435   6.426   4.355   5.676 -0.4122  0.7953  0.8524
  133OSM    C1F14436   6.284   4.230   7.359  0.2846 -0.0969 -0.3262
  133OSM     OF14437   6.361   4.252   7.454  0.1664  0.0103  0.5752
  133OSM    C2F14438   6.282   4.326   7.245  0.4497  0.2799  0.1338
  133OSM    H2F14439   6.367   4.397   7.255 -0.3676  1.6435 -1.7727
  133OSM    H2G14440   6.184   4.378   7.247 -1.4423 -2.8971 -1.4856
  133OSM    C3F14441   6.294   4.260   7.101  0.1809  0.5752 -0.4238
  133OSM    H3F14442   6.195   4.212   7.090  1.0263 -1.6104  0.7638
  133OSM    H3G14443   6.377   4.186   7.095  0.0098  0.3057  0.3664
  133OSM    C4F14444   6.322   4.348   6.978 -0.5945 -0.8806  0.0938
  133OSM    H4F14445   6.426   4.331   6.942 -0.6201 -0.3205 -0.2601
  133OSM    H4G14446   6.297   4.452   7.008 -0.4649 -0.4978 -1.0492
  133OSM    C5F14447   6.229   4.314   6.863 -0.1732  0.1905  0.4175
  133OSM    H5F14448   6.124   4.327   6.896 -0.9789 -0.3867 -1.7663
  133OSM    H5G14449   6.246   4.206   6.840  1.4048  0.4962 -0.0192
  133OSM    C6F14450   6.240   4.405   6.738 -0.4106 -0.7124  0.0360
  133OSM    H6F14451   6.193   4.503   6.757 -0.3509  0.2980 -4.0271
  133OSM    H6G14452   6.179   4.372   6.651  1.5367  1.0337 -2.1337
  133OSM    C7F14453   6.378   4.435   6.686  0.5127  0.5041  0.0323
  133OSM    H7F14454   6.419   4.332   6.678 -0.6869  0.1456 -2.4287
  133OSM    H7G14455   6.437   4.505   6.749  0.8519  0.5467 -0.3329
  133OSM    C8F14456   6.378   4.494   6.538 -0.3251  0.2101 -0.6523
  133OSM    H8F14457   6.376   4.402   6.475  2.0720 -0.9334  0.7958
  133OSM    H8G14458   6.484   4.530   6.538 -0.0400 -0.5902  0.4385
  133OSM    C9F14459   6.274   4.603   6.501  0.6288  0.6249 -0.3924
  133OSM    H9F14460   6.231   4.646   6.593 -0.6735 -1.7782  0.2241
  133OSM   C10F14461   6.237   4.644   6.382  0.8742  0.2070  0.0187
  133OSM   H10F14462   6.169   4.730   6.378 -0.4046 -0.8126 -0.6504
  133OSM   C11F14463   6.289   4.600   6.246  0.0149 -0.5393  0.0552
  133OSM   H11F14464   6.204   4.582   6.177 -1.3938  3.2908  0.5790
  133OSM   H11G14465   6.351   4.508   6.254 -1.2403 -1.2498  2.4539
  133OSM   C12F14466   6.364   4.726   6.193 -0.0926 -0.5713  0.0046
  133OSM   H12F14467   6.456   4.733   6.255  0.1129  0.0675 -0.3596
  133OSM   H12G14468   6.309   4.822   6.201  1.4690  0.3290  0.3953
  133OSM   C13F14469   6.413   4.725   6.048  0.4709  0.8885  1.0810
  133OSM   H13F14470   6.495   4.651   6.038 -0.2449  0.3040 -0.8695
  133OSM   H13G14471   6.456   4.825   6.025 -2.5895  1.8827 -1.0663
  133OSM   C14F14472   6.295   4.700   5.950 -0.1179  0.3999 -0.5007
  133OSM   H14F14473   6.246   4.604   5.978  1.6046 -0.4193 -0.1050
  133OSM   H14G14474   6.335   4.681   5.848 -0.6218  1.2478 -0.8603
  133OSM   C15F14475   6.199   4.821   5.940  0.4231 -0.5783 -0.0192
  133OSM   H15F14476   6.242   4.924   5.946 -1.5485  0.2668  0.5954
  133OSM   H15G14477   6.132   4.810   6.028  0.2776 -0.0674 -0.0638
  133OSM   C16F14478   6.115   4.810   5.813 -0.7592  0.1180  0.2153
  133OSM   H16F14479   6.018   4.861   5.832 -1.2993 -1.0044  0.5567
  133OSM   H16G14480   6.086   4.704   5.796  0.8884 -0.4269  0.5884
  133OSM   C17F14481   6.185   4.860   5.688 -0.7883  0.0459 -0.3185
  133OSM   H17F14482   6.280   4.802   5.686  0.2502  1.3899  2.9774
  133OSM   H17G14483   6.233   4.957   5.716 -1.0548  0.0798  0.0303
  133OSM   C18F14484   6.106   4.867   5.556  0.7817  0.0221 -0.2857
  133OSM   H18F14485   6.168   4.913   5.476  1.3596 -2.2032 -1.2024
  133OSM   H18G14486   6.021   4.933   5.583  0.0673 -0.9341 -0.1594
  133OSM   H18H14487   6.059   4.773   5.520 -0.8960  0.7624 -0.1208
  134OSM      N14488   6.619   3.241   8.054 -0.1031 -0.1152 -0.7592
  134OSM    C1514489   6.703   3.122   8.036 -0.1893 -0.5836  0.0440
  134OSM   H15A14490   6.654   3.043   7.982 -2.6957  1.2077 -0.4880
  134OSM   H15B14491   6.742   3.078   8.126 -0.4773 -2.5109 -0.7238
  134OSM   H15C14492   6.791   3.154   7.982  0.1005 -1.5311 -0.0492
  134OSM    C1414493   6.519   3.214   8.173 -0.3857 -0.2984  0.5721
  134OSM   H14A14494   6.579   3.230   8.262 -0.6554 -1.2095  0.9279
  134OSM   H14B14495   6.492   3.110   8.169  2.4401 -1.0919 -1.1918
  134OSM   H14C14496   6.444   3.289   8.154  1.4094  1.4741  0.0406
  134OSM    C1314497   6.697   3.365   8.076 -0.5791  0.5956 -0.7380
  134OSM   H13A14498   6.628   3.446   8.096 -1.3731 -0.4703  1.2008
  134OSM   H13B14499   6.759   3.379   7.989  0.8583 -1.6974 -0.1749
  134OSM   H13C14500   6.759   3.348   8.163 -0.8025  0.1631 -0.6603
  134OSM    C1214501   6.533   3.246   7.926  0.2656  0.5018 -0.2789
  134OSM   H12A14502   6.439   3.299   7.929  0.0777  0.1601  2.1475
  134OSM   H12B14503   6.494   3.146   7.913  2.2131 -0.2870 -0.3699
  134OSM    C1114504   6.614   3.271   7.798 -0.3802  0.2430  0.3172
  134OSM   H11A14505   6.547   3.250   7.711  1.4642  0.1524 -1.1455
  134OSM   H11B14506   6.696   3.198   7.783 -1.9472 -1.3556 -0.8327
  134OSM      P14507   6.598   3.526   7.739 -0.2383 -0.1022  0.0235
  134OSM    O1314508   6.466   3.536   7.800  0.8474 -0.3141 -0.1563
  134OSM    O1414509   6.688   3.643   7.739  0.2839 -0.2930 -0.2063
  134OSM    O1114510   6.572   3.491   7.585  0.0671  0.2216 -0.2688
  134OSM    O1214511   6.681   3.404   7.789  0.1814 -0.3539  0.0162
  134OSM    C1S14512   6.681   3.464   7.497 -0.2071  0.0925 -0.0483
  134OSM    H1S14513   6.670   3.355   7.474  2.6387  0.0413 -1.5891
  134OSM    H1T14514   6.785   3.474   7.534 -0.0665 -0.2038 -0.3604
  134OSM     NF14515   6.803   3.513   7.286  0.3980 -0.0249 -0.1531
  134OSM    HNF14516   6.882   3.573   7.297  0.2213  0.3724 -1.0273
  134OSM    C2S14517   6.676   3.548   7.356 -0.7039  0.6034  0.1591
  134OSM    H2S14518   6.590   3.513   7.296 -0.8440  2.2626 -0.6515
  134OSM    C3S14519   6.643   3.694   7.385 -0.7559 -0.1944  0.0861
  134OSM    H3S14520   6.726   3.744   7.440  1.1624 -1.1300 -1.8141
  134OSM     O314521   6.513   3.717   7.438 -0.3392 -0.5089  0.2219
  134OSM    HO314522   6.496   3.632   7.480  0.1269 -0.9935 -0.5387
  134OSM    C4S14523   6.646   3.768   7.256  0.0719 -0.2517 -0.2667
  134OSM    H4S14524   6.595   3.705   7.182 -0.8995 -1.8998  1.7041
  134OSM    C5S14525   6.700   3.888   7.220  0.0704 -0.1242 -0.0410
  134OSM    H5S14526   6.758   3.941   7.297 -0.4578  2.3871 -1.2721
  134OSM    C6S14527   6.702   3.932   7.080  0.2006 -0.2328  0.4298
  134OSM    H6S14528   6.784   4.007   7.085 -0.1865  0.1867  0.5366
  134OSM    H6T14529   6.605   3.975   7.045  0.1816  1.3837  2.2632
  134OSM    C7S14530   6.745   3.811   6.986  0.7623 -0.3796  0.3494
  134OSM    H7S14531   6.666   3.733   6.981  0.4455 -0.1012  0.9234
  134OSM    H7T14532   6.837   3.778   7.039 -0.8061  1.7192  4.8638
  134OSM    C8S14533   6.791   3.865   6.844  0.2451 -0.6101 -0.3369
  134OSM    H8S14534   6.861   3.950   6.862  0.1202 -0.8561  1.4759
  134OSM    H8T14535   6.706   3.900   6.782 -0.8670 -1.0960  0.8707
  134OSM    C9S14536   6.870   3.760   6.772 -0.1848  0.1817  0.2571
  134OSM    H9S14537   6.796   3.687   6.732 -0.6621  0.9529 -0.3106
  134OSM    H9T14538   6.937   3.701   6.837  0.9628  1.4134  0.2452
  134OSM   C10S14539   6.946   3.825   6.655  0.0105  0.0261  0.0677
  134OSM   H10S14540   7.022   3.897   6.689  0.5945  0.1993 -1.5341
  134OSM   H10T14541   6.873   3.883   6.595  0.4064  1.9253  1.3629
  134OSM   C11S14542   6.996   3.713   6.554 -0.0989  0.5098  0.0868
  134OSM   H11S14543   6.905   3.651   6.540 -0.7905  1.1095  1.6978
  134OSM   H11T14544   7.084   3.655   6.590 -0.3653  0.7700  1.2112
  134OSM   C12S14545   7.023   3.780   6.421  0.9494 -0.2939  0.4595
  134OSM   H12S14546   7.111   3.839   6.454  0.7330 -0.4872  1.4240
  134OSM   H12T14547   6.935   3.842   6.391  0.5717 -1.0178  0.0436
  134OSM   C13S14548   7.065   3.688   6.302 -0.2548 -0.4309  0.2753
  134OSM   H13S14549   6.975   3.637   6.263  0.8153 -0.6131 -2.1516
  134OSM   H13T14550   7.130   3.613   6.352 -0.5850 -1.2343 -0.4729
  134OSM   C14S14551   7.132   3.763   6.179 -0.4589 -0.5659 -0.4495
  134OSM   H14S14552   7.211   3.829   6.222  0.1989 -2.5777  1.6558
  134OSM   H14T14553   7.051   3.828   6.139  0.3342  0.3145 -0.6400
  134OSM   C15S14554   7.172   3.669   6.071  0.4082  0.5352  0.5284
  134OSM   H15S14555   7.187   3.564   6.104 -0.4824  0.4538  0.6850
  134OSM   H15T14556   7.264   3.709   6.023  2.4586 -0.3121  3.4419
  134OSM   C16S14557   7.072   3.674   5.953  0.2292  0.8642  0.2548
  134OSM   H16S14558   7.064   3.778   5.913 -1.7960  0.1037 -1.5173
  134OSM   H16T14559   6.970   3.646   5.986  0.6166 -0.4293  0.4104
  134OSM   C17S14560   7.102   3.567   5.844  0.0890  0.7149  0.0854
  134OSM   H17S14561   7.212   3.550   5.839  0.4310  1.5835  2.6519
  134OSM   H17T14562   7.070   3.597   5.742  0.3529 -0.1734 -0.2676
  134OSM   C18S14563   7.045   3.429   5.877  0.0755 -0.2322  0.1331
  134OSM   H18S14564   7.086   3.390   5.973 -1.3642 -0.5848  0.6414
  134OSM   H18T14565   7.059   3.361   5.791  0.8565  1.2843 -0.9896
  134OSM   H18U14566   6.935   3.424   5.893 -0.7241 -1.6184 -4.4593
  134OSM    C1F14567   6.822   3.392   7.234 -0.2069  0.0506 -0.9140
  134OSM     OF14568   6.729   3.313   7.245  0.6610  0.2919  0.3841
  134OSM    C2F14569   6.948   3.363   7.162  0.4990 -0.2297 -0.2050
  134OSM    H2F14570   7.006   3.280   7.209  1.7435  1.2032  0.8906
  134OSM    H2G14571   7.023   3.445   7.165  0.7909 -0.5151  0.8563
  134OSM    C3F14572   6.928   3.334   7.005  0.0010 -0.2607 -0.4079
  134OSM    H3F14573   6.874   3.419   6.958  1.8012  1.5489  0.6314
  134OSM    H3G14574   6.863   3.244   6.995 -2.1700  1.1839  0.0523
  134OSM    C4F14575   7.057   3.318   6.927 -1.0283  0.4915  0.2444
  134OSM    H4F14576   7.095   3.214   6.927 -4.1152 -0.7862  2.3840
  134OSM    H4G14577   7.144   3.375   6.966  0.7875 -0.4313 -2.1851
  134OSM    C5F14578   7.043   3.340   6.779  0.3531 -0.0562 -0.1630
  134OSM    H5F14579   7.000   3.440   6.756  1.3061 -0.1117 -2.4370
  134OSM    H5G14580   6.967   3.269   6.739  0.8156 -0.7776  0.2281
  134OSM    C6F14581   7.169   3.307   6.687  0.0274 -0.1048  0.7939
  134OSM    H6F14582   7.215   3.207   6.705  1.5245  0.2957 -0.5355
  134OSM    H6G14583   7.248   3.380   6.717  0.5931 -0.5048  0.3093
  134OSM    C7F14584   7.125   3.328   6.545 -0.4634  0.0527  0.3209
  134OSM    H7F14585   7.095   3.435   6.549  1.1024  0.5821 -0.7104
  134OSM    H7G14586   7.041   3.263   6.513 -1.1179  1.3397 -0.6969
  134OSM    C8F14587   7.234   3.321   6.438  0.0353 -0.2409  0.1577
  134OSM    H8F14588   7.296   3.231   6.455 -0.0038 -0.5845 -1.4230
  134OSM    H8G14589   7.304   3.406   6.455 -1.0440  0.8826 -0.7892
  134OSM    C9F14590   7.179   3.336   6.297  0.5325 -0.5148 -0.0671
  134OSM    H9F14591   7.093   3.402   6.284 -0.1496 -1.7186 -2.2831
  134OSM   C10F14592   7.236   3.271   6.185  0.4308  0.2197 -1.0690
  134OSM   H10F14593   7.191   3.285   6.086  1.0907  0.7465 -1.3064
  134OSM   C11F14594   7.358   3.178   6.184 -1.2717  0.1255 -0.5369
  134OSM   H11F14595   7.313   3.081   6.156 -1.1020  0.5891 -2.6032
  134OSM   H11G14596   7.409   3.149   6.279 -0.1624  0.4534 -1.0085
  134OSM   C12F14597   7.459   3.223   6.066  0.1356  0.3007  0.0104
  134OSM   H12F14598   7.510   3.320   6.084 -1.2162  0.8234  1.2912
  134OSM   H12G14599   7.414   3.230   5.965 -0.4966 -1.7959  0.1119
  134OSM   C13F14600   7.581   3.120   6.062 -0.1889 -0.6304 -0.9771
  134OSM   H13F14601   7.542   3.017   6.077  0.6671 -0.7129  0.9832
  134OSM   H13G14602   7.650   3.140   6.146 -0.0223 -0.6164 -1.1179
  134OSM   C14F14603   7.675   3.124   5.935 -0.0842 -0.9291  0.2344
  134OSM   H14F14604   7.730   3.220   5.931 -0.7396 -0.5003  1.2258
  134OSM   H14G14605   7.607   3.119   5.847  1.4188  0.4762 -1.0724
  134OSM   C15F14606   7.763   3.001   5.928 -0.1800  0.7725  0.0309
  134OSM   H15F14607   7.705   2.907   5.917 -0.8745  1.3538 -1.5161
  134OSM   H15G14608   7.816   3.000   6.026  1.2711  0.6719 -0.7298
  134OSM   C16F14609   7.853   3.001   5.799 -0.5228  0.1966 -0.4447
  134OSM   H16F14610   7.921   3.089   5.793  2.5073 -2.0191 -0.3146
  134OSM   H16G14611   7.792   3.002   5.706 -0.8287  1.9018 -0.2740
  134OSM   C17F14612   7.934   2.876   5.802  0.5239 -0.4700  0.7023
  134OSM   H17F14613   7.873   2.783   5.806 -0.3580 -0.0087 -1.0541
  134OSM   H17G14614   8.005   2.880   5.887  0.7347  0.7605  0.4913
  134OSM   C18F14615   8.023   2.859   5.682 -0.4481 -0.7162 -0.6458
  134OSM   H18F14616   8.051   2.753   5.669 -3.4332 -1.4383 -2.0881
  134OSM   H18G14617   8.103   2.936   5.688 -0.3560 -0.9180  1.5187
  134OSM   H18H14618   7.982   2.883   5.582  0.4324 -0.6125 -0.9918
  135OSM      N14619   0.079   1.794   8.260  0.2893 -0.1974  0.2013
  135OSM    C1514620   0.030   1.933   8.277 -0.1333  0.1943 -0.5195
  135OSM   H15A14621   0.081   1.983   8.358 -0.5636  0.6834 -0.5463
  135OSM   H15B14622  -0.077   1.938   8.289 -0.3641  1.5266 -2.6270
  135OSM   H15C14623   0.058   1.990   8.190  1.6891 -0.5015 -0.4407
  135OSM    C1414624   0.045   1.724   8.387  0.0310  0.1111 -0.5964
  135OSM   H14A14625   0.090   1.626   8.385 -2.0326 -1.0211  2.0038
  135OSM   H14B14626  -0.061   1.713   8.403  0.0565 -0.1357 -0.5934
  135OSM   H14C14627   0.090   1.775   8.472 -0.7459  2.2298 -1.3803
  135OSM    C1314628   0.001   1.722   8.154  0.2986  0.0903  0.5982
  135OSM   H13A14629  -0.102   1.708   8.181 -0.0763 -0.3477 -0.9439
  135OSM   H13B14630   0.048   1.626   8.136  1.1713  0.5304  0.4688
  135OSM   H13C14631   0.011   1.779   8.063 -1.0210 -1.7170 -0.7593
  135OSM    C1214632   0.226   1.792   8.244 -0.0509  0.1858 -0.1852
  135OSM   H12A14633   0.249   1.692   8.210 -0.8302 -0.6028  1.4912
  135OSM   H12B14634   0.273   1.803   8.340  3.1463  0.5398 -1.6336
  135OSM    C1114635   0.286   1.886   8.139 -0.1312 -0.3312 -0.2105
  135OSM   H11A14636   0.396   1.896   8.153 -0.0722  1.3353 -1.5351
  135OSM   H11B14637   0.255   1.991   8.160  0.2132 -0.2776  0.0407
  135OSM      P14638   0.359   1.720   7.960 -0.0313  0.3657  0.3699
  135OSM    O1314639   0.460   1.753   7.855 -0.0716 -0.3552  0.4404
  135OSM    O1414640   0.420   1.649   8.071 -0.2851  0.0321 -0.1598
  135OSM    O1114641   0.248   1.626   7.891 -0.0357 -0.3034 -0.1480
  135OSM    O1214642   0.275   1.839   8.005  0.9715 -0.1984 -0.1315
  135OSM    C1S14643   0.195   1.672   7.770 -0.5858  0.0911  0.3787
  135OSM    H1S14644   0.184   1.783   7.762  0.6971  0.1425 -1.1635
  135OSM    H1T14645   0.090   1.639   7.758 -0.4617  0.0928 -0.7800
  135OSM     NF14646   0.191   1.681   7.532 -0.0276  0.8131 -0.2957
  135OSM    HNF14647   0.117   1.631   7.490 -0.0878  0.9241 -0.3211
  135OSM    C2S14648   0.263   1.623   7.642 -0.1723  0.0052  0.0178
  135OSM    H2S14649   0.368   1.651   7.623  0.0651 -1.2635 -0.6318
  135OSM    C3S14650   0.264   1.473   7.653 -0.3854  0.4267  0.5124
  135OSM    H3S14651   0.158   1.442   7.671  0.4139 -0.7184  3.9907
  135OSM     O314652   0.341   1.418   7.752  0.5003  0.1788 -0.1877
  135OSM    HO314653   0.337   1.477   7.828 -0.0218 -0.5818  0.3976
  135OSM    C4S14654   0.310   1.407   7.525 -0.0392 -0.9683  0.5423
  135OSM    H4S14655   0.228   1.379   7.457 -1.6066 -0.1256  1.9945
  135OSM    C5S14656   0.432   1.385   7.479  0.4620 -0.0023  0.1464
  135OSM    H5S14657   0.522   1.419   7.533 -0.5355  3.0355  0.0585
  135OSM    C6S14658   0.466   1.316   7.352 -0.5245  1.1191  0.6366
  135OSM    H6S14659   0.374   1.264   7.319 -1.0608  1.7643  1.1009
  135OSM    H6T14660   0.545   1.244   7.382 -1.1838  1.4236  3.3836
  135OSM    C7S14661   0.524   1.393   7.237 -0.0743  0.1599  1.1421
  135OSM    H7S14662   0.608   1.455   7.276  0.4512  0.3931 -0.3047
  135OSM    H7T14663   0.451   1.469   7.203  2.5401  0.8511 -3.9440
  135OSM    C8S14664   0.569   1.304   7.118 -0.3379  0.8335  0.1655
  135OSM    H8S14665   0.468   1.265   7.094 -1.6306  4.0754 -0.1760
  135OSM    H8T14666   0.634   1.220   7.152  1.1934  1.4081 -1.1895
  135OSM    C9S14667   0.626   1.375   6.997 -1.0978 -0.1380 -0.0509
  135OSM    H9S14668   0.736   1.360   7.006 -0.6576  1.4452 -2.0781
  135OSM    H9T14669   0.604   1.484   6.997  1.2236  0.3979 -1.0102
  135OSM   C10S14670   0.581   1.320   6.861  0.5250  0.5572  0.5294
  135OSM   H10S14671   0.470   1.328   6.860  0.5354  0.8692 -1.3352
  135OSM   H10T14672   0.601   1.210   6.863  1.1683  0.6695  0.5941
  135OSM   C11S14673   0.632   1.388   6.739  0.1072 -0.2812  0.3251
  135OSM   H11S14674   0.743   1.382   6.742  0.0570 -1.6517  0.2284
  135OSM   H11T14675   0.599   1.494   6.746  0.5118 -0.0047 -1.3854
  135OSM   C12S14676   0.582   1.321   6.607  0.1078 -0.4902 -0.0668
  135OSM   H12S14677   0.474   1.343   6.594  0.7056  2.3952 -0.8993
  135OSM   H12T14678   0.593   1.210   6.615 -2.5109 -0.8660 -0.8095
  135OSM   C13S14679   0.661   1.393   6.492  0.3166 -0.4616  0.1002
  135OSM   H13S14680   0.771   1.401   6.506  0.5543  0.2412 -1.8940
  135OSM   H13T14681   0.622   1.497   6.493 -0.2662 -0.6781  0.3780
  135OSM   C14S14682   0.629   1.355   6.352 -0.7015  0.1721 -0.0359
  135OSM   H14S14683   0.524   1.385   6.327 -0.8032 -0.0796  0.0894
  135OSM   H14T14684   0.643   1.245   6.351  2.5115  0.4891  0.0030
  135OSM   C15S14685   0.716   1.423   6.246 -0.7620  0.0461 -0.2526
  135OSM   H15S14686   0.816   1.437   6.292 -2.0188  2.2682  2.0108
  135OSM   H15T14687   0.684   1.529   6.239  0.6657  0.4283 -1.6453
  135OSM   C16S14688   0.722   1.346   6.110  0.0993 -0.9025 -0.2930
  135OSM   H16S14689   0.750   1.240   6.124 -1.9379 -1.7223 -1.8662
  135OSM   H16T14690   0.803   1.393   6.051 -0.7676 -0.3106 -1.0322
  135OSM   C17S14691   0.598   1.350   6.016  0.2453 -0.1738 -0.8161
  135OSM   H17S14692   0.575   1.457   5.997 -0.5278 -0.2299 -0.2377
  135OSM   H17T14693   0.519   1.312   6.084  0.2843  2.3866  0.8079
  135OSM   C18S14694   0.610   1.273   5.885 -0.3323  0.0951  0.3624
  135OSM   H18S14695   0.510   1.241   5.849 -0.1504  0.1579 -0.2173
  135OSM   H18T14696   0.680   1.187   5.891 -0.3772 -0.1480 -1.7539
  135OSM   H18U14697   0.648   1.345   5.809 -0.8553 -0.5770 -0.5624
  135OSM    C1F14698   0.222   1.806   7.492 -0.0954  0.7013 -0.4752
  135OSM     OF14699   0.311   1.878   7.537  0.6718 -0.2333  1.1585
  135OSM    C2F14700   0.114   1.860   7.406  0.0103  0.2098 -0.7625
  135OSM    H2F14701   0.071   1.946   7.463 -1.5756 -0.8094 -0.3350
  135OSM    H2G14702   0.030   1.787   7.405  1.2412 -1.3429  1.3239
  135OSM    C3F14703   0.174   1.902   7.269 -0.2082 -0.0765 -0.5363
  135OSM    H3F14704   0.216   1.808   7.226  1.7573 -0.3735  1.8032
  135OSM    H3G14705   0.263   1.966   7.286  2.3505 -3.1090 -1.5343
  135OSM    C4F14706   0.080   1.976   7.171 -0.3080  0.8639 -0.5798
  135OSM    H4F14707   0.011   1.897   7.136  1.0006 -1.7202  2.1941
  135OSM    H4G14708   0.023   2.066   7.205 -1.3363  1.0091 -2.5603
  135OSM    C5F14709   0.163   2.021   7.054  0.5644 -0.6842 -0.3523
  135OSM    H5F14710   0.202   1.927   7.008 -0.7594 -0.7632 -1.3634
  135OSM    H5G14711   0.251   2.079   7.089 -0.0006 -0.1039  0.1292
  135OSM    C6F14712   0.095   2.107   6.948 -0.2880 -0.0357  1.0707
  135OSM    H6F14713   0.173   2.154   6.885  0.6110 -0.3748  1.8953
  135OSM    H6G14714   0.029   2.183   6.996  0.3823  0.2571  1.5369
  135OSM    C7F14715   0.001   2.029   6.857  0.1462 -0.2005  0.7320
  135OSM    H7F14716  -0.066   1.965   6.919 -2.1325  0.2292 -1.1440
  135OSM    H7G14717   0.065   1.972   6.786 -0.8272  1.0526 -1.2205
  135OSM    C8F14718  -0.093   2.110   6.759  0.1015  1.3078 -0.3155
  135OSM    H8F14719  -0.159   2.173   6.822 -1.0239 -1.0646  1.0161
  135OSM    H8G14720  -0.155   2.041   6.697  0.8493 -0.3881  0.7445
  135OSM    C9F14721  -0.021   2.189   6.662 -0.2320 -0.8405 -0.4072
  135OSM    H9F14722  -0.006   2.286   6.711 -3.3377 -1.2914  1.7748
  135OSM   C10F14723   0.047   2.156   6.551 -0.1122  0.5964  0.1834
  135OSM   H10F14724   0.103   2.222   6.483 -0.1241  0.2485 -0.1717
  135OSM   C11F14725   0.057   2.014   6.502  0.1807  0.6460 -0.5937
  135OSM   H11F14726   0.060   1.941   6.585  1.9297  0.6349 -0.6227
  135OSM   H11G14727   0.147   1.982   6.445 -0.8484 -0.4723 -1.6574
  135OSM   C12F14728  -0.058   1.970   6.406  0.5169 -0.2575  0.3340
  135OSM   H12F14729  -0.156   2.010   6.439 -0.6296 -0.6183 -2.3486
  135OSM   H12G14730  -0.065   1.859   6.403  0.4552 -0.2359 -1.0758
  135OSM   C13F14731  -0.035   2.025   6.265 -0.4367 -0.3949 -0.1802
  135OSM   H13F14732   0.074   2.019   6.245 -0.3029 -1.6096  0.7720
  135OSM   H13G14733  -0.073   2.129   6.254 -0.1032 -0.2886 -0.3131
  135OSM   C14F14734  -0.113   1.943   6.167 -0.0748 -0.0125  0.2817
  135OSM   H14F14735  -0.060   1.846   6.161  1.0367  0.1916  4.1407
  135OSM   H14G14736  -0.111   1.992   6.067 -3.1248  0.3569  0.3132
  135OSM   C15F14737  -0.250   1.895   6.205 -0.0830 -1.1117  0.0993
  135OSM   H15F14738  -0.314   1.979   6.238 -0.3601 -0.6136 -1.5941
  135OSM   H15G14739  -0.244   1.831   6.295  0.1909  0.1784  1.0205
  135OSM   C16F14740  -0.314   1.810   6.095  0.2717 -1.0440 -0.2661
  135OSM   H16F14741  -0.320   1.881   6.010 -0.9256 -2.0915 -1.1039
  135OSM   H16G14742  -0.416   1.786   6.133  0.5857 -0.9827  0.6389
  135OSM   C17F14743  -0.231   1.690   6.052  0.7449  0.0467 -1.2019
  135OSM   H17F14744  -0.200   1.628   6.139 -1.5796  0.4020 -0.0536
  135OSM   H17G14745  -0.138   1.731   6.008  1.4772 -0.1109  0.1418
  135OSM   C18F14746  -0.308   1.601   5.952 -0.0394  0.1422  0.2185
  135OSM   H18F14747  -0.396   1.543   5.990  0.3700 -1.3684 -1.0556
  135OSM   H18G14748  -0.241   1.528   5.904 -1.5064  1.2343 -3.8998
  135OSM   H18H14749  -0.348   1.656   5.864  1.0154  0.1237 -0.2793
  136OSM      N14750   1.572   4.237   8.299 -0.3265 -0.0711  0.4098
  136OSM    C1514751   1.435   4.280   8.340  0.0377 -0.4792 -0.1345
  136OSM   H15A14752   1.357   4.245   8.273 -0.0134  1.0583 -0.9417
  136OSM   H15B14753   1.416   4.386   8.354 -0.8301 -0.5175 -0.8983
  136OSM   H15C14754   1.409   4.253   8.441 -0.8992  2.0187  0.3766
  136OSM    C1414755   1.674   4.257   8.408 -0.5485 -0.7061 -0.3728
  136OSM   H14A14756   1.767   4.208   8.380  0.0758  0.6051 -0.6359
  136OSM   H14B14757   1.631   4.204   8.492 -1.1890 -3.5245 -2.3262
  136OSM   H14C14758   1.686   4.363   8.422 -1.1298 -0.9864  3.6315
  136OSM    C1314759   1.571   4.092   8.266  0.8360  0.4846  0.3276
  136OSM   H13A14760   1.594   4.031   8.352 -0.8298 -1.3563 -0.4505
  136OSM   H13B14761   1.653   4.072   8.199 -1.2204 -0.7175 -1.9530
  136OSM   H13C14762   1.481   4.049   8.225  0.5144 -0.8301  2.2875
  136OSM    C1214763   1.611   4.307   8.173 -0.5776 -0.2207  0.5484
  136OSM   H12A14764   1.535   4.289   8.098 -0.9956 -0.7439  1.0929
  136OSM   H12B14765   1.701   4.268   8.126  0.1071  3.1013 -1.1967
  136OSM    C1114766   1.632   4.461   8.167 -0.2939  0.2901 -0.1754
  136OSM   H11A14767   1.538   4.508   8.202 -1.0006 -1.2225  0.0114
  136OSM   H11B14768   1.643   4.497   8.062  0.8603  0.5960  0.0274
  136OSM      P14769   1.749   4.619   8.352 -0.3708  0.1310 -0.1486
  136OSM    O1314770   1.688   4.569   8.477 -0.1971  0.3750 -0.0159
  136OSM    O1414771   1.886   4.685   8.368  0.5786 -0.4198 -0.0259
  136OSM    O1114772   1.653   4.716   8.267  0.0068  0.0157 -0.0820
  136OSM    O1214773   1.753   4.498   8.243 -0.0289 -0.0376  0.3476
  136OSM    C1S14774   1.712   4.809   8.181 -0.0363  0.7008  0.0936
  136OSM    H1S14775   1.797   4.770   8.120 -1.4169 -2.2866 -0.0874
  136OSM    H1T14776   1.752   4.896   8.237 -2.2005  3.1485 -1.9043
  136OSM     NF14777   1.662   4.899   7.947  0.5549 -0.2882  0.1791
  136OSM    HNF14778   1.645   4.993   7.921 -2.4061 -0.6090  0.5204
  136OSM    C2S14779   1.603   4.868   8.079 -0.2788  0.0169  0.2409
  136OSM    H2S14780   1.542   4.780   8.052  2.7673 -2.9812  2.2788
  136OSM    C3S14781   1.510   4.968   8.149  1.2345 -0.8150  0.7018
  136OSM    H3S14782   1.549   5.070   8.168 -0.9110  0.2196 -0.0537
  136OSM     O314783   1.471   4.932   8.282  0.5433 -0.4051  0.5683
  136OSM    HO314784   1.530   4.858   8.301  1.0901 -0.3598 -0.8469
  136OSM    C4S14785   1.387   4.991   8.053  0.5575 -0.2808 -0.2264
  136OSM    H4S14786   1.405   5.087   8.002  1.8628  2.5909  4.9427
  136OSM    C5S14787   1.273   4.920   8.044  0.5270 -1.4308  0.4454
  136OSM    H5S14788   1.258   4.835   8.112 -2.5008 -2.5242 -1.3493
  136OSM    C6S14789   1.171   4.941   7.931 -0.2809 -0.0963  0.4321
  136OSM    H6S14790   1.076   4.985   7.968  1.0202  1.6024  1.9390
  136OSM    H6T14791   1.159   4.838   7.892 -2.7034  0.3517 -0.1794
  136OSM    C7S14792   1.213   5.010   7.795  0.4977 -0.4612  0.7577
  136OSM    H7S14793   1.241   5.115   7.816  1.1112  0.3068 -3.1282
  136OSM    H7T14794   1.124   5.015   7.728  0.7684  0.9130  0.4686
  136OSM    C8S14795   1.337   4.942   7.725  0.5383  0.1766 -0.7091
  136OSM    H8S14796   1.302   4.846   7.682 -0.4979  0.7306 -1.1525
  136OSM    H8T14797   1.419   4.935   7.799 -0.1099  1.2597  0.1428
  136OSM    C9S14798   1.395   5.021   7.604  0.2677 -0.1500 -0.4908
  136OSM    H9S14799   1.499   4.984   7.599  1.5923  2.5381  3.3183
  136OSM    H9T14800   1.401   5.129   7.626 -2.2945  0.0196 -0.2639
  136OSM   C10S14801   1.308   4.991   7.478 -0.1278 -0.0473  0.1254
  136OSM   H10S14802   1.207   5.035   7.489 -0.0219  0.0015  1.0608
  136OSM   H10T14803   1.297   4.881   7.471  1.3515 -0.3977  2.1869
  136OSM   C11S14804   1.378   5.030   7.341  0.3920  0.8092 -0.1182
  136OSM   H11S14805   1.481   4.989   7.351 -0.1116 -0.1932  1.1722
  136OSM   H11T14806   1.385   5.141   7.350 -1.3375  0.8051  1.8981
  136OSM   C12S14807   1.308   4.998   7.210  0.4286  0.6606  0.4101
  136OSM   H12S14808   1.203   5.034   7.212  0.1615 -0.1201  1.0109
  136OSM   H12T14809   1.313   4.889   7.188  1.1856  0.7703 -0.0280
  136OSM   C13S14810   1.386   5.063   7.097 -0.0867  0.2293  0.0406
  136OSM   H13S14811   1.493   5.035   7.107 -0.0011  0.6374  0.2997
  136OSM   H13T14812   1.398   5.173   7.109  0.5750  0.3260 -1.3794
  136OSM   C14S14813   1.314   5.028   6.966 -0.6653  0.4887  0.2801
  136OSM   H14S14814   1.218   5.083   6.954  0.4628  2.8233  1.2101
  136OSM   H14T14815   1.304   4.918   6.959 -0.3417  0.4725  0.0573
  136OSM   C15S14816   1.409   5.079   6.848 -0.1542  0.2267  0.0891
  136OSM   H15S14817   1.517   5.060   6.864  0.1828  1.9420  0.0714
  136OSM   H15T14818   1.399   5.190   6.842  1.3615  0.3448 -0.4108
  136OSM   C16S14819   1.376   5.018   6.704 -0.0544 -0.1479  0.4584
  136OSM   H16S14820   1.407   4.912   6.696 -0.3562 -0.0979 -2.5159
  136OSM   H16T14821   1.447   5.068   6.634 -0.4544  1.1531  0.9398
  136OSM   C17S14822   1.231   5.039   6.657  0.2582 -0.8070  0.7176
  136OSM   H17S14823   1.202   5.141   6.690 -0.8733 -1.1572  0.8389
  136OSM   H17T14824   1.166   4.964   6.706  0.4910 -0.6764  1.2340
  136OSM   C18S14825   1.222   5.030   6.508 -0.0545  0.8498 -0.6565
  136OSM   H18S14826   1.261   4.932   6.475 -0.4304  1.1658 -2.1201
  136OSM   H18T14827   1.290   5.101   6.456  1.3598  2.1374  2.6970
  136OSM   H18U14828   1.122   5.046   6.463  0.6946  2.7952 -1.7856
  136OSM    C1F14829   1.727   4.819   7.864  0.5796  0.0710 -0.5351
  136OSM     OF14830   1.746   4.703   7.900  0.4240  0.2750 -0.0039
  136OSM    C2F14831   1.784   4.874   7.734  0.2926 -0.2848 -0.3280
  136OSM    H2F14832   1.894   4.890   7.737 -0.0395  2.3059  0.1686
  136OSM    H2G14833   1.729   4.970   7.730  0.1216 -0.3769 -0.2107
  136OSM    C3F14834   1.722   4.808   7.599  0.0067 -0.5733 -0.5326
  136OSM    H3F14835   1.612   4.823   7.601  0.2174  1.0478  0.4869
  136OSM    H3G14836   1.753   4.701   7.597  2.0796 -0.1171  1.4718
  136OSM    C4F14837   1.774   4.885   7.477  0.0652 -0.2605  0.3264
  136OSM    H4F14838   1.885   4.886   7.488 -0.0149 -0.2421  1.2213
  136OSM    H4G14839   1.731   4.987   7.494  1.5916  0.2788  1.1735
  136OSM    C5F14840   1.722   4.822   7.352  0.3195 -0.0744  0.4758
  136OSM    H5F14841   1.614   4.826   7.324 -0.0530 -2.6674  1.2315
  136OSM    H5G14842   1.729   4.711   7.354  0.4785 -0.1411 -1.5573
  136OSM    C6F14843   1.804   4.873   7.232  0.0544  0.0308 -0.2197
  136OSM    H6F14844   1.911   4.843   7.242 -0.6669 -2.2492  1.2726
  136OSM    H6G14845   1.806   4.984   7.232  1.2142  0.0412  0.9674
  136OSM    C7F14846   1.754   4.822   7.098 -0.7226  0.1082 -0.6929
  136OSM    H7F14847   1.644   4.834   7.090 -1.3649 -4.8336 -2.9465
  136OSM    H7G14848   1.776   4.713   7.097 -0.3615  0.1408  0.6966
  136OSM    C8F14849   1.836   4.884   6.984 -0.2375 -0.6351  0.5571
  136OSM    H8F14850   1.943   4.859   7.001 -0.7726 -1.7012  2.6162
  136OSM    H8G14851   1.825   4.994   6.989 -3.5418 -0.8321  0.0510
  136OSM    C9F14852   1.784   4.833   6.855 -0.2763 -0.1954  0.2096
  136OSM    H9F14853   1.680   4.856   6.828  0.3649 -1.3751 -4.1982
  136OSM   C10F14854   1.851   4.781   6.748 -0.0324  0.2065 -0.4260
  136OSM   H10F14855   1.799   4.742   6.659 -2.1788 -1.7227  1.5306
  136OSM   C11F14856   2.001   4.766   6.737  0.2228 -0.1315  0.2929
  136OSM   H11F14857   2.029   4.661   6.715  0.0680 -0.0380 -0.3680
  136OSM   H11G14858   2.055   4.802   6.827 -1.2428  2.6388  0.1665
  136OSM   C12F14859   2.039   4.831   6.603 -0.6522 -0.3776  0.6090
  136OSM   H12F14860   2.024   4.941   6.606  0.1202 -0.2572  0.3844
  136OSM   H12G14861   1.987   4.777   6.521 -1.6580  1.0180  0.2774
  136OSM   C13F14862   2.194   4.814   6.568  0.4435 -0.2693  0.5782
  136OSM   H13F14863   2.204   4.704   6.578 -3.8032 -0.9127 -0.4250
  136OSM   H13G14864   2.245   4.871   6.648  0.6545  0.7120 -0.2360
  136OSM   C14F14865   2.247   4.838   6.426  0.6629  0.4346  0.0919
  136OSM   H14F14866   2.357   4.850   6.426  0.6465  1.1365  2.5889
  136OSM   H14G14867   2.193   4.931   6.396 -2.5238 -0.7285  1.7172
  136OSM   C15F14868   2.191   4.733   6.320 -0.2929 -0.3848 -0.5333
  136OSM   H15F14869   2.080   4.731   6.323 -0.3221  0.4339 -0.8818
  136OSM   H15G14870   2.224   4.631   6.347 -0.2286  0.5619  3.6269
  136OSM   C16F14871   2.246   4.759   6.181  0.3365  0.6054  0.4594
  136OSM   H16F14872   2.274   4.657   6.146 -1.5361  0.4851 -0.8163
  136OSM   H16G14873   2.334   4.826   6.172 -0.6141  1.5817 -3.1588
  136OSM   C17F14874   2.145   4.838   6.094 -0.9853 -0.4234  0.3584
  136OSM   H17F14875   2.177   4.944   6.088  2.2955 -1.3495 -0.5530
  136OSM   H17G14876   2.049   4.859   6.144 -0.5347 -0.4210  1.2490
  136OSM   C18F14877   2.130   4.796   5.950  0.0632 -0.6815 -0.3369
  136OSM   H18F14878   2.071   4.702   5.952 -0.9498 -0.0917 -1.4101
  136OSM   H18G14879   2.224   4.777   5.894 -1.0793 -3.0835 -1.5850
  136OSM   H18H14880   2.071   4.871   5.894  0.1218  0.1346  0.6621
  137OSM      N14881   5.035   2.057   8.552  0.4883  0.2987  0.5603
  137OSM    C1514882   5.073   2.186   8.621 -0.1327  0.0076 -0.1250
  137OSM   H15A14883   5.125   2.163   8.713 -0.8102 -2.1926 -0.2347
  137OSM   H15B14884   4.980   2.229   8.657 -0.0242  0.0813  0.0721
  137OSM   H15C14885   5.132   2.248   8.556  0.2644 -2.3046 -2.1239
  137OSM    C1414886   5.160   1.980   8.542  0.1429  0.2540  0.1557
  137OSM   H14A14887   5.134   1.884   8.499 -0.4254 -0.2423  1.5256
  137OSM   H14B14888   5.208   1.974   8.639 -1.7205 -1.9666  1.0551
  137OSM   H14C14889   5.227   2.026   8.471  0.3704  0.1333  0.2911
  137OSM    C1314890   4.935   1.985   8.635  0.2570  0.3248  0.2509
  137OSM   H13A14891   4.967   1.950   8.732 -2.2342 -2.3248  0.2626
  137OSM   H13B14892   4.883   1.910   8.578  1.7959 -0.8729  0.3538
  137OSM   H13C14893   4.858   2.058   8.655  0.5162  0.6323  0.1394
  137OSM    C1214894   4.964   2.092   8.408 -0.4348  0.2084 -0.5104
  137OSM   H12A14895   5.033   2.153   8.353 -1.0270  0.5415 -0.8895
  137OSM   H12B14896   4.867   2.134   8.428 -0.2048  0.1128  0.9618
  137OSM    C1114897   4.957   1.966   8.311  0.3514  0.4429  0.5442
  137OSM   H11A14898   5.061   1.933   8.290 -0.2422 -1.2574  0.1622
  137OSM   H11B14899   4.922   1.997   8.210  0.3505 -3.6822 -0.8802
  137OSM      P14900   4.725   1.852   8.340  0.0891 -0.3663  0.3324
  137OSM    O1314901   4.664   1.763   8.440 -0.4677 -0.1137 -0.0997
  137OSM    O1414902   4.679   1.994   8.329  0.1899 -0.1791 -0.1459
  137OSM    O1114903   4.725   1.783   8.195  0.3543 -0.1753  0.7798
  137OSM    O1214904   4.885   1.856   8.366  0.5879 -0.3045 -0.1084
  137OSM    C1S14905   4.814   1.795   8.084  0.2905 -0.5559 -0.6925
  137OSM    H1S14906   4.910   1.749   8.114  0.3774 -0.3048 -0.5834
  137OSM    H1T14907   4.831   1.903   8.067 -1.1030  0.0029  1.0910
  137OSM     NF14908   4.856   1.706   7.841 -0.2505  0.6947  0.3237
  137OSM    HNF14909   4.846   1.769   7.764 -0.5400 -0.2246 -0.4059
  137OSM    C2S14910   4.759   1.727   7.955 -0.2374 -0.3340  0.5815
  137OSM    H2S14911   4.742   1.625   7.996  0.8115 -1.8082 -2.3201
  137OSM    C3S14912   4.624   1.795   7.911 -0.2886 -0.6990 -0.4248
  137OSM    H3S14913   4.649   1.897   7.876 -1.3012  0.8875  3.0130
  137OSM     O314914   4.529   1.828   8.011 -0.3734 -0.4071  0.1231
  137OSM    HO314915   4.577   1.799   8.089  1.5953 -0.1837 -0.9691
  137OSM    C4S14916   4.563   1.724   7.795 -0.2179 -0.4890 -0.4195
  137OSM    H4S14917   4.609   1.775   7.709  2.4748 -0.0837  1.1322
  137OSM    C5S14918   4.483   1.621   7.783 -0.3363 -0.2174  0.1367
  137OSM    H5S14919   4.449   1.577   7.878  0.3604  0.8096  0.8713
  137OSM    C6S14920   4.440   1.548   7.656 -0.0954 -0.0972  0.3916
  137OSM    H6S14921   4.333   1.568   7.632  0.1743 -0.2676 -1.0554
  137OSM    H6T14922   4.438   1.439   7.680 -1.4182 -0.5999 -1.6651
  137OSM    C7S14923   4.522   1.582   7.534  0.2603  0.0784 -0.4544
  137OSM    H7S14924   4.627   1.546   7.544  0.1117 -0.2436 -0.0313
  137OSM    H7T14925   4.525   1.691   7.516 -0.4822  0.2502  0.4066
  137OSM    C8S14926   4.477   1.507   7.408  0.0298  0.2863  0.6410
  137OSM    H8S14927   4.366   1.505   7.406  0.0022 -2.0653 -1.8079
  137OSM    H8T14928   4.488   1.396   7.408 -0.2551  0.2144 -1.4360
  137OSM    C9S14929   4.523   1.567   7.271  0.5416  0.3006 -0.4212
  137OSM    H9S14930   4.624   1.525   7.249  0.5038  1.0784 -2.2056
  137OSM    H9T14931   4.544   1.675   7.276  1.3962  0.0999  0.6172
  137OSM   C10S14932   4.415   1.535   7.168 -0.0856  0.4798  0.3283
  137OSM   H10S14933   4.327   1.597   7.197  0.2392  2.1093 -1.9104
  137OSM   H10T14934   4.395   1.426   7.169 -4.3682  0.9190 -3.3622
  137OSM   C11S14935   4.465   1.566   7.021  0.0246  0.0674 -0.3838
  137OSM   H11S14936   4.567   1.523   7.013  0.9030  2.3094 -2.3482
  137OSM   H11T14937   4.486   1.674   7.010  2.4023 -0.1883  0.8631
  137OSM   C12S14938   4.360   1.521   6.920 -0.5675  0.0418 -0.2668
  137OSM   H12S14939   4.265   1.574   6.941  0.0266  1.3396 -0.7761
  137OSM   H12T14940   4.342   1.412   6.934  1.3024 -0.3816 -0.8318
  137OSM   C13S14941   4.412   1.559   6.781  0.2986 -0.3743  0.4962
  137OSM   H13S14942   4.518   1.526   6.783  0.1744 -0.7523  1.7104
  137OSM   H13T14943   4.405   1.670   6.773  1.2920 -0.4234 -1.6806
  137OSM   C14S14944   4.336   1.505   6.657  0.6706 -0.7214 -1.0114
  137OSM   H14S14945   4.231   1.541   6.666  0.7898 -0.3243 -1.1651
  137OSM   H14T14946   4.328   1.394   6.658  0.3728 -0.7037  0.2564
  137OSM   C15S14947   4.389   1.559   6.528 -0.4716  0.1455 -0.0253
  137OSM   H15S14948   4.477   1.500   6.496  0.7988  2.3444 -0.8149
  137OSM   H15T14949   4.449   1.653   6.532 -0.2924  0.0007  2.1576
  137OSM   C16S14950   4.287   1.590   6.423  0.4329 -0.0208  0.3092
  137OSM   H16S14951   4.215   1.670   6.450  0.4414 -0.1157  0.6146
  137OSM   H16T14952   4.222   1.501   6.411  0.1224  0.1698  0.5679
  137OSM   C17S14953   4.363   1.627   6.299 -0.2345 -0.4174 -0.0769
  137OSM   H17S14954   4.436   1.552   6.262  0.7239  1.2177 -1.7012
  137OSM   H17T14955   4.439   1.708   6.311  2.6184 -2.8951 -0.2440
  137OSM   C18S14956   4.271   1.662   6.184 -0.2266 -0.0799  0.2568
  137OSM   H18S14957   4.223   1.755   6.222 -0.0537  0.2846 -0.3908
  137OSM   H18T14958   4.200   1.578   6.171  0.1303 -0.7527  2.2881
  137OSM   H18U14959   4.331   1.689   6.094 -0.8996  0.6777  0.0135
  137OSM    C1F14960   4.953   1.610   7.842 -0.2957  0.1080  0.0979
  137OSM     OF14961   4.978   1.537   7.935  0.4873  0.3237  0.3119
  137OSM    C2F14962   5.044   1.605   7.719  0.2011  0.2947  0.3096
  137OSM    H2F14963   5.140   1.552   7.734 -0.0982 -0.6892 -1.0492
  137OSM    H2G14964   5.066   1.714   7.707 -0.4139  0.8406  3.3232
  137OSM    C3F14965   4.968   1.535   7.598 -0.3062  0.0668 -0.1565
  137OSM    H3F14966   4.874   1.591   7.577  2.1347  4.2588 -1.1096
  137OSM    H3G14967   4.933   1.434   7.628  0.3377 -0.0987  0.0542
  137OSM    C4F14968   5.057   1.539   7.471 -0.1394  0.3844  0.3869
  137OSM    H4F14969   5.158   1.500   7.496 -0.0668  0.3610  0.0578
  137OSM    H4G14970   5.065   1.641   7.428  1.0635 -0.7639 -2.3828
  137OSM    C5F14971   5.002   1.454   7.364 -0.5568 -0.0662 -1.0813
  137OSM    H5F14972   4.891   1.449   7.360 -0.6000 -1.0016  0.4376
  137OSM    H5G14973   5.029   1.349   7.391  0.2657 -0.3469 -2.8408
  137OSM    C6F14974   5.042   1.483   7.224 -0.3788 -0.5571  0.3897
  137OSM    H6F14975   4.995   1.400   7.167 -0.5208 -1.3914  1.6662
  137OSM    H6G14976   5.149   1.459   7.209 -1.0391 -2.4302 -1.9394
  137OSM    C7F14977   5.008   1.623   7.169  0.0881  0.5693 -0.0463
  137OSM    H7F14978   5.068   1.696   7.228 -0.5143 -0.3061  1.7213
  137OSM    H7G14979   4.903   1.656   7.185  0.0969  1.4750 -1.6660
  137OSM    C8F14980   5.043   1.627   7.024 -0.3341 -0.1904  0.4721
  137OSM    H8F14981   5.138   1.573   7.004  0.9516  1.7556  1.0443
  137OSM    H8G14982   5.048   1.731   6.983 -1.8645 -0.2186  0.1590
  137OSM    C9F14983   4.937   1.559   6.931  0.3078  0.5212 -0.2790
  137OSM    H9F14984   4.842   1.612   6.914 -0.6082 -1.2010 -0.7098
  137OSM   C10F14985   4.959   1.448   6.855 -0.0165 -0.8046 -0.3476
  137OSM   H10F14986   4.886   1.417   6.779  0.8424  0.2837 -1.6936
  137OSM   C11F14987   5.091   1.367   6.843  0.3807 -0.3544  0.0593
  137OSM   H11F14988   5.064   1.267   6.804  1.9566 -0.4335 -0.8960
  137OSM   H11G14989   5.148   1.352   6.938  2.2720  2.7229 -0.4349
  137OSM   C12F14990   5.186   1.433   6.745 -0.5015 -0.6721 -0.0597
  137OSM   H12F14991   5.287   1.385   6.737  0.7889  1.9199 -0.2804
  137OSM   H12G14992   5.218   1.535   6.774  0.5741 -1.1016  0.3222
  137OSM   C13F14993   5.135   1.435   6.604 -0.1245 -0.1123 -0.6165
  137OSM   H13F14994   5.056   1.510   6.583 -0.9457 -1.3056 -1.9866
  137OSM   H13G14995   5.090   1.336   6.583  0.7053 -0.3134 -1.5450
  137OSM   C14F14996   5.252   1.447   6.506 -0.0770 -1.0247  0.7190
  137OSM   H14F14997   5.337   1.380   6.533 -0.5056 -1.8379  0.0872
  137OSM   H14G14998   5.299   1.548   6.503  2.6834 -2.2255  0.3009
  137OSM   C15F14999   5.201   1.415   6.366 -0.1663 -0.0498  0.4597
  137OSM   H15F15000   5.125   1.490   6.332  0.9828  0.3316 -1.4534
  137OSM   H15G15001   5.148   1.318   6.361  2.2462 -1.3694 -1.0036
  137OSM   C16F15002   5.307   1.415   6.257 -0.1437 -0.4232 -0.2814
  137OSM   H16F15003   5.352   1.314   6.242 -0.1824 -0.8091  1.8975
  137OSM   H16G15004   5.390   1.487   6.274  1.1755 -2.2141  1.1586
  137OSM   C17F15005   5.240   1.446   6.120  0.3168 -0.3403  0.1254
  137OSM   H17F15006   5.211   1.552   6.134  1.1246 -0.1081  0.0421
  137OSM   H17G15007   5.143   1.391   6.115 -0.4587  0.9419  0.5293
  137OSM   C18F15008   5.325   1.441   5.994 -0.1708 -0.6507  0.1306
  137OSM   H18F15009   5.399   1.358   6.002 -0.7919 -1.4770 -1.9608
  137OSM   H18G15010   5.378   1.537   5.975  2.5093 -1.9165  0.6378
  137OSM   H18H15011   5.254   1.421   5.911  1.3341 -3.1332 -0.6942
  138OSM      N15012   0.662   0.896   8.612  0.0551 -1.2605 -0.1390
  138OSM    C1515013   0.604   0.846   8.738  0.2300 -0.1835 -0.1458
  138OSM   H15A15014   0.668   0.881   8.818 -0.1500 -1.7379  0.8916
  138OSM   H15B15015   0.613   0.739   8.755 -2.9813 -0.2913  1.7562
  138OSM   H15C15016   0.499   0.868   8.747  0.3238  0.0369  0.4769
  138OSM    C1415017   0.689   1.048   8.612 -0.1641  0.3677 -0.3917
  138OSM   H14A15018   0.738   1.061   8.517  2.0671 -0.1730  0.5937
  138OSM   H14B15019   0.754   1.083   8.691  0.6485 -1.7059 -0.0903
  138OSM   H14C15020   0.597   1.104   8.607 -1.9141 -2.4173 -2.0039
  138OSM    C1315021   0.789   0.820   8.608 -0.1110  0.0014  0.1174
  138OSM   H13A15022   0.851   0.857   8.688 -1.1981 -1.0563  1.4965
  138OSM   H13B15023   0.835   0.826   8.510  0.1107  0.8857  0.2740
  138OSM   H13C15024   0.767   0.715   8.620  1.2413 -1.1935 -5.0241
  138OSM    C1215025   0.583   0.855   8.486  0.1759  0.4123  0.1969
  138OSM   H12A15026   0.485   0.898   8.493  0.3062  1.1691 -1.8962
  138OSM   H12B15027   0.575   0.747   8.493 -1.2016  0.6137  2.5070
  138OSM    C1115028   0.638   0.893   8.347 -0.2031 -0.2809 -0.0226
  138OSM   H11A15029   0.574   0.848   8.269 -1.9020  1.3459  0.3505
  138OSM   H11B15030   0.742   0.858   8.329 -0.8264 -1.5901 -1.2434
  138OSM      P15031   0.478   1.096   8.302 -0.1999  0.1895  0.1212
  138OSM    O1315032   0.389   1.044   8.410 -0.1325 -0.2599 -0.4557
  138OSM    O1415033   0.484   1.240   8.281  0.1105 -0.5236  0.0887
  138OSM    O1115034   0.443   1.032   8.166  0.7053  0.0424  0.4189
  138OSM    O1215035   0.624   1.039   8.326 -0.2775 -0.3114  0.3258
  138OSM    C1S15036   0.492   1.078   8.043 -0.1328 -0.0400  0.5045
  138OSM    H1S15037   0.574   1.008   8.019  1.6935  2.0021  0.5104
  138OSM    H1T15038   0.529   1.183   8.044  1.1771 -0.4516 -0.9717
  138OSM     NF15039   0.467   1.132   7.797  0.5979 -0.3281 -0.6554
  138OSM    HNF15040   0.441   1.224   7.770  0.5713  1.0389  3.3336
  138OSM    C2S15041   0.396   1.074   7.917  0.1592  0.1898  0.1535
  138OSM    H2S15042   0.387   0.968   7.885 -2.1345  0.5856 -0.7521
  138OSM    C3S15043   0.247   1.119   7.960  0.9553  0.4147 -0.3042
  138OSM    H3S15044   0.257   1.229   7.971  1.7072  0.3867 -0.6734
  138OSM     O315045   0.195   1.073   8.083  0.3471 -0.6684  0.2258
  138OSM    HO315046   0.268   1.049   8.140  0.0615  2.3648  2.1237
  138OSM    C4S15047   0.139   1.090   7.860 -0.2306  0.8607  0.9613
  138OSM    H4S15048   0.089   0.992   7.858 -1.4430  1.4429 -1.7397
  138OSM    C5S15049   0.064   1.182   7.786 -0.5878  0.1614 -0.2378
  138OSM    H5S15050   0.099   1.285   7.800  1.6960 -0.3253 -1.7755
  138OSM    C6S15051  -0.050   1.143   7.698  0.1004  0.0999  0.0748
  138OSM    H6S15052  -0.144   1.184   7.743 -0.2279  1.4673 -1.7672
  138OSM    H6T15053  -0.054   1.032   7.699  1.0459  0.0632  0.4359
  138OSM    C7S15054  -0.051   1.202   7.556  0.2539  0.1525  0.4341
  138OSM    H7S15055  -0.004   1.302   7.567  1.5239 -0.6320  2.6564
  138OSM    H7T15056  -0.153   1.216   7.516  0.4305 -1.7696 -0.8194
  138OSM    C8S15057   0.042   1.125   7.456 -0.3675 -0.0443 -0.7203
  138OSM    H8S15058   0.002   1.022   7.449 -1.4559  0.2981  0.1292
  138OSM    H8T15059   0.146   1.109   7.490 -0.6630 -0.3720  0.0415
  138OSM    C9S15060   0.026   1.184   7.313 -0.2589  1.0207  0.3569
  138OSM    H9S15061   0.080   1.281   7.303  0.4823  0.6365  0.5778
  138OSM    H9T15062  -0.078   1.214   7.288 -0.8171  1.0522  2.5593
  138OSM   C10S15063   0.086   1.087   7.207 -0.3996 -0.3941  0.0253
  138OSM   H10S15064   0.005   1.011   7.198 -1.0074 -0.4217  3.9600
  138OSM   H10T15065   0.183   1.045   7.240  1.4643  2.0791 -1.9632
  138OSM   C11S15066   0.131   1.151   7.082  0.2341 -0.3229 -0.2837
  138OSM   H11S15067   0.214   1.222   7.102  0.3508 -0.4873 -0.1914
  138OSM   H11T15068   0.042   1.211   7.051 -0.3350  0.6506  2.8792
  138OSM   C12S15069   0.165   1.050   6.974  0.0356 -0.0261 -0.1330
  138OSM   H12S15070   0.083   0.975   6.967 -0.5225  0.4452  1.0913
  138OSM   H12T15071   0.264   1.007   6.999 -0.5652 -0.7966  1.0014
  138OSM   C13S15072   0.167   1.131   6.841 -0.4742 -0.3286  0.8966
  138OSM   H13S15073   0.242   1.210   6.862 -0.6632 -0.3134  1.5300
  138OSM   H13T15074   0.068   1.174   6.814  0.5612  0.8929 -1.2083
  138OSM   C14S15075   0.206   1.038   6.724  0.9591  0.0668  0.2557
  138OSM   H14S15076   0.119   0.977   6.691  0.5177  0.9550 -0.2665
  138OSM   H14T15077   0.291   0.972   6.748  1.8368  0.2995 -1.9119
  138OSM   C15S15078   0.244   1.132   6.604  0.1026  0.1598  0.7377
  138OSM   H15S15079   0.321   1.202   6.642 -1.5993  2.5080  0.0504
  138OSM   H15T15080   0.150   1.181   6.571  0.8843 -0.3599 -2.5824
  138OSM   C16S15081   0.295   1.050   6.488 -0.5141 -1.0969  0.6857
  138OSM   H16S15082   0.235   0.956   6.489  1.1994 -2.2425 -0.2153
  138OSM   H16T15083   0.401   1.021   6.503 -0.8889 -2.6803  0.4585
  138OSM   C17S15084   0.284   1.128   6.356  0.2243  0.0729  0.3032
  138OSM   H17S15085   0.346   1.220   6.357  2.2081 -1.2275  1.8743
  138OSM   H17T15086   0.179   1.164   6.347  0.4386  0.2642 -2.3689
  138OSM   C18S15087   0.325   1.048   6.224  0.0730  0.1351  0.1005
  138OSM   H18S15088   0.275   0.948   6.221 -0.5065  0.4143  0.3415
  138OSM   H18T15089   0.435   1.046   6.206 -0.0026  0.5008 -0.4230
  138OSM   H18U15090   0.269   1.100   6.143  0.8860 -0.5039 -0.8887
  138OSM    C1F15091   0.585   1.080   7.751  0.8838  0.0407  0.6785
  138OSM     OF15092   0.621   0.968   7.800  0.1244  0.4173 -0.0250
  138OSM    C2F15093   0.652   1.146   7.635  0.1515 -0.2782  0.4065
  138OSM    H2F15094   0.588   1.230   7.598  2.4204  0.8234 -1.2982
  138OSM    H2G15095   0.655   1.073   7.552  0.0072  0.9825 -0.7442
  138OSM    C3F15096   0.796   1.187   7.673 -0.5263  0.1016  0.8146
  138OSM    H3F15097   0.853   1.092   7.687 -0.8689 -0.1290  0.6375
  138OSM    H3G15098   0.802   1.256   7.760  1.6565 -1.8562  2.3499
  138OSM    C4F15099   0.859   1.262   7.551  0.2450  0.5911  0.4021
  138OSM    H4F15100   0.944   1.323   7.590  0.5562  2.0094 -2.2658
  138OSM    H4G15101   0.791   1.336   7.505 -2.0710 -0.4294  1.9790
  138OSM    C5F15102   0.917   1.167   7.440 -0.4294  0.0550  0.3944
  138OSM    H5F15103   0.841   1.104   7.387 -0.3981  0.0405  0.3666
  138OSM    H5G15104   0.992   1.103   7.491 -0.4024 -0.7388 -0.5979
  138OSM    C6F15105   0.983   1.245   7.331  0.1758  0.9603  0.6796
  138OSM    H6F15106   1.050   1.316   7.384  2.8611 -0.3737 -0.7288
  138OSM    H6G15107   0.909   1.303   7.271 -1.0064  1.2215  2.3260
  138OSM    C7F15108   1.059   1.165   7.228  0.8214 -0.1588 -0.2006
  138OSM    H7F15109   1.120   1.093   7.286 -3.6189 -2.7325  1.7860
  138OSM    H7G15110   1.135   1.227   7.176  0.0753  1.5108  0.6006
  138OSM    C8F15111   0.963   1.097   7.132  0.0991 -0.0264  0.1486
  138OSM    H8F15112   0.888   1.168   7.091  0.9215  1.3465  0.9578
  138OSM    H8G15113   0.899   1.021   7.182 -0.7648 -1.1029 -2.4403
  138OSM    C9F15114   1.034   1.017   7.023 -0.4351 -0.5731 -0.2949
  138OSM    H9F15115   1.131   0.982   7.060  0.3551  1.8464  0.0885
  138OSM   C10F15116   0.999   1.009   6.895 -0.7850  0.3180  0.2523
  138OSM   H10F15117   1.048   0.928   6.839 -1.1457 -0.4418  1.0126
  138OSM   C11F15118   0.869   1.056   6.828  0.0730 -0.0206 -0.3983
  138OSM   H11F15119   0.864   1.166   6.843 -0.2967  0.0134 -0.7444
  138OSM   H11G15120   0.782   1.011   6.880 -1.3086  1.4619 -1.3223
  138OSM   C12F15121   0.841   1.030   6.677  0.5623 -1.1531  0.2864
  138OSM   H12F15122   0.936   1.041   6.620 -1.1813 -1.6668 -2.9433
  138OSM   H12G15123   0.792   1.124   6.644  1.8494 -0.1270  1.1498
  138OSM   C13F15124   0.760   0.902   6.633 -0.1109 -0.1452  0.6740
  138OSM   H13F15125   0.656   0.921   6.669 -1.0878  0.1142 -2.0451
  138OSM   H13G15126   0.796   0.809   6.681  0.9918  1.2122  2.6128
  138OSM   C14F15127   0.748   0.892   6.476 -0.0158 -0.4200 -0.5592
  138OSM   H14F15128   0.850   0.883   6.434  0.8108 -0.6239  1.3827
  138OSM   H14G15129   0.697   0.979   6.429  0.2661  0.7017  1.1361
  138OSM   C15F15130   0.666   0.777   6.421 -0.4897  0.1038 -0.7997
  138OSM   H15F15131   0.693   0.774   6.314 -0.8728  2.3862 -1.0121
  138OSM   H15G15132   0.556   0.788   6.431 -0.7436  0.3940 -3.3042
  138OSM   C16F15133   0.695   0.641   6.484 -0.4623 -0.1259 -0.3450
  138OSM   H16F15134   0.672   0.643   6.593  3.1843  0.7604  0.5271
  138OSM   H16G15135   0.805   0.631   6.478 -0.1444 -0.6333  3.5471
  138OSM   C17F15136   0.616   0.525   6.421  0.4149 -0.3706  0.1709
  138OSM   H17F15137   0.634   0.526   6.312 -2.6068 -1.3662 -0.4416
  138OSM   H17G15138   0.512   0.547   6.454 -0.3376 -3.6642  0.3402
  138OSM   C18F15139   0.637   0.388   6.483  0.0947  0.3401  0.6887
  138OSM   H18F15140   0.555   0.321   6.450  1.9311 -2.1287  0.8987
  138OSM   H18G15141   0.636   0.401   6.593  2.3136 -1.0290  0.9278
  138OSM   H18H15142   0.733   0.346   6.447 -0.1277  1.2388 -1.0852
  139OSM      N15143   6.106   2.492   7.769 -0.4722  0.6587  0.0661
  139OSM    C1515144   6.050   2.514   7.632 -0.4925  0.4723  0.5172
  139OSM   H15A15145   6.066   2.429   7.566  0.6457  1.0284  0.0426
  139OSM   H15B15146   6.114   2.583   7.579 -1.3268  0.6717 -0.2628
  139OSM   H15C15147   5.944   2.536   7.622 -0.5414 -0.3063 -1.1535
  139OSM    C1415148   6.249   2.483   7.762  0.3284 -0.1776  0.2637
  139OSM   H14A15149   6.290   2.431   7.848  0.0251  1.3185  1.3572
  139OSM   H14B15150   6.300   2.578   7.752  1.7373 -0.8856  0.4880
  139OSM   H14C15151   6.274   2.428   7.673 -0.2645 -0.9252  0.5518
  139OSM    C1315152   6.074   2.606   7.858  0.1503  0.2505  0.0673
  139OSM   H13A15153   5.966   2.610   7.849  0.2750  0.7036 -1.3270
  139OSM   H13B15154   6.112   2.700   7.820 -1.4868  1.2050  0.6483
  139OSM   H13C15155   6.105   2.583   7.959  2.9573 -0.9286 -0.9860
  139OSM    C1215156   6.043   2.363   7.829  0.3772 -0.7144 -0.5499
  139OSM   H12A15157   6.067   2.359   7.935 -1.5040  0.6778 -0.0114
  139OSM   H12B15158   6.067   2.276   7.770  0.3786 -1.4794  0.5500
  139OSM    C1115159   5.888   2.365   7.832  0.1692  0.1271 -0.6682
  139OSM   H11A15160   5.857   2.272   7.882  2.5573 -0.1497  0.4234
  139OSM   H11B15161   5.858   2.364   7.725  1.4353  1.8493 -1.0866
  139OSM      P15162   5.761   2.479   8.032  0.0601  0.3478 -0.1584
  139OSM    O1315163   5.817   2.378   8.126  0.3492  0.5247  0.6131
  139OSM    O1415164   5.760   2.612   8.091 -0.2076 -0.0955 -0.3701
  139OSM    O1115165   5.609   2.440   7.989  0.8413 -0.0699  0.5802
  139OSM    O1215166   5.837   2.481   7.896 -0.2655  0.0378  0.1166
  139OSM    C1S15167   5.530   2.529   7.907  1.1148 -0.3919  1.0337
  139OSM    H1S15168   5.571   2.632   7.914 -0.0629  0.1789 -0.0943
  139OSM    H1T15169   5.426   2.538   7.944  0.3530 -2.0499 -0.5921
  139OSM     NF15170   5.421   2.565   7.688  0.8093 -1.1425  0.4217
  139OSM    HNF15171   5.327   2.533   7.681  1.5926 -3.1631 -2.0935
  139OSM    C2S15172   5.514   2.480   7.760 -0.0196  0.3543 -0.3999
  139OSM    H2S15173   5.602   2.494   7.694 -0.0143 -1.0910 -0.7299
  139OSM    C3S15174   5.466   2.332   7.748 -0.1509 -1.0727  0.0763
  139OSM    H3S15175   5.362   2.337   7.787  0.3864 -0.6883  1.5306
  139OSM     O315176   5.531   2.235   7.833  0.2120  0.8723 -0.1379
  139OSM    HO315177   5.567   2.276   7.912  0.4830 -0.0780  0.2388
  139OSM    C4S15178   5.473   2.284   7.608  0.1071 -0.0854  0.6532
  139OSM    H4S15179   5.575   2.287   7.567  0.4297 -0.6740  1.3915
  139OSM    C5S15180   5.369   2.249   7.530 -0.4148  0.7418  0.3375
  139OSM    H5S15181   5.272   2.235   7.580  0.1983 -2.0470  0.8891
  139OSM    C6S15182   5.377   2.207   7.386  0.8597  0.0931  0.2838
  139OSM    H6S15183   5.342   2.287   7.318  0.1815  0.8259  1.4565
  139OSM    H6T15184   5.309   2.122   7.364 -0.9836  2.0052 -1.9098
  139OSM    C7S15185   5.515   2.180   7.326  0.0886 -0.1047 -0.1788
  139OSM    H7S15186   5.554   2.090   7.377 -1.3464 -0.9543 -0.5376
  139OSM    H7T15187   5.590   2.260   7.346 -1.3723  1.1399  0.5520
  139OSM    C8S15188   5.506   2.155   7.173 -0.3893  0.6632  0.4493
  139OSM    H8S15189   5.610   2.135   7.142  0.2248  1.7222  1.7451
  139OSM    H8T15190   5.465   2.254   7.144 -0.7368  0.0738 -1.1700
  139OSM    C9S15191   5.420   2.032   7.136  0.1272 -1.0854 -0.2699
  139OSM    H9S15192   5.318   2.057   7.172  0.9356 -2.3852  3.2822
  139OSM    H9T15193   5.451   1.945   7.197 -2.5538  0.9979  4.6400
  139OSM   C10S15194   5.425   2.010   6.988  0.0043 -0.2224  0.4146
  139OSM   H10S15195   5.527   2.036   6.954  1.4036 -4.3577  0.8990
  139OSM   H10T15196   5.354   2.084   6.946  0.7622  0.0384 -0.4433
  139OSM   C11S15197   5.401   1.860   6.943  0.2968 -0.3309  0.2801
  139OSM   H11S15198   5.320   1.820   7.008  2.3917  0.4274  3.6102
  139OSM   H11T15199   5.490   1.795   6.952  0.9816  0.2228 -2.0194
  139OSM   C12S15200   5.335   1.847   6.798 -0.2393  0.4355 -0.0418
  139OSM   H12S15201   5.243   1.910   6.791 -0.8643 -0.6105 -2.6589
  139OSM   H12T15202   5.295   1.748   6.767 -0.3517  0.2825  0.5798
  139OSM   C13S15203   5.427   1.884   6.689 -0.6493 -0.6450 -0.0054
  139OSM   H13S15204   5.510   1.812   6.672  2.6620  2.9910 -0.4842
  139OSM   H13T15205   5.494   1.969   6.713 -1.5645 -0.7557  3.5674
  139OSM   C14S15206   5.360   1.920   6.560  0.5928  0.2725 -0.9104
  139OSM   H14S15207   5.297   2.011   6.569 -2.3209 -1.4479 -2.3928
  139OSM   H14T15208   5.296   1.834   6.532  0.7972 -0.1686 -0.0498
  139OSM   C15S15209   5.451   1.951   6.448  0.5170 -0.6424 -0.2716
  139OSM   H15S15210   5.516   1.864   6.425  2.8277  1.1317 -0.8989
  139OSM   H15T15211   5.512   2.038   6.480 -1.0449  0.6430 -0.6525
  139OSM   C16S15212   5.390   2.014   6.322  0.1455 -1.0864  0.2585
  139OSM   H16S15213   5.464   2.035   6.242 -0.5613  0.4024 -0.0462
  139OSM   H16T15214   5.358   2.115   6.355 -2.2726 -2.6027  2.9575
  139OSM   C17S15215   5.270   1.943   6.252  0.0337  0.2750  0.3297
  139OSM   H17S15216   5.179   1.948   6.315  0.8577 -1.1030  1.7218
  139OSM   H17T15217   5.288   1.836   6.229  0.5786  0.1093  1.4515
  139OSM   C18S15218   5.233   2.006   6.116  0.7024 -0.5981  0.4927
  139OSM   H18S15219   5.216   2.115   6.125 -4.0577 -1.2723  2.7157
  139OSM   H18T15220   5.141   1.963   6.071 -0.3320 -0.1244  2.0703
  139OSM   H18U15221   5.321   1.992   6.049  1.7505  1.7364  1.2847
  139OSM    C1F15222   5.455   2.687   7.651 -0.1796 -0.5909  0.2722
  139OSM     OF15223   5.568   2.731   7.664  0.2785 -0.5870 -0.8421
  139OSM    C2F15224   5.347   2.764   7.591 -0.0651  0.1492  0.7594
  139OSM    H2F15225   5.262   2.777   7.661 -0.1512  0.0681  0.6691
  139OSM    H2G15226   5.311   2.703   7.505  0.1137  2.3011 -0.9229
  139OSM    C3F15227   5.386   2.895   7.524 -0.1530 -1.1279  0.1544
  139OSM    H3F15228   5.467   2.877   7.450 -0.3640  0.5461 -0.5336
  139OSM    H3G15229   5.420   2.973   7.595  2.5071 -1.6738 -0.4147
  139OSM    C4F15230   5.266   2.947   7.437  0.1870  0.6728  0.0521
  139OSM    H4F15231   5.296   3.052   7.418 -0.8383  0.8256 -0.7756
  139OSM    H4G15232   5.166   2.929   7.481  0.0386 -1.1237 -0.9412
  139OSM    C5F15233   5.259   2.875   7.300 -0.1545  0.1315 -0.4251
  139OSM    H5F15234   5.253   2.765   7.317 -0.8577  0.4025  1.3026
  139OSM    H5G15235   5.350   2.895   7.240 -0.3135  0.8305 -0.4395
  139OSM    C6F15236   5.141   2.912   7.205  0.0617  0.2944 -0.5011
  139OSM    H6F15237   5.143   3.023   7.213  1.4843  0.2812 -0.4748
  139OSM    H6G15238   5.048   2.880   7.257 -0.6547  1.2177 -1.1791
  139OSM    C7F15239   5.153   2.851   7.067  0.2459  0.0014 -0.1964
  139OSM    H7F15240   5.059   2.874   7.011  1.6832  0.4774 -2.5330
  139OSM    H7G15241   5.164   2.742   7.087 -0.7845 -0.0165  0.3302
  139OSM    C8F15242   5.264   2.910   6.983 -0.4307 -0.2243  0.3106
  139OSM    H8F15243   5.284   2.838   6.900 -0.7603  0.3176 -0.2431
  139OSM    H8G15244   5.355   2.900   7.045 -0.2237  0.7135  0.1761
  139OSM    C9F15245   5.251   3.059   6.936  0.3321 -0.0534 -0.4324
  139OSM    H9F15246   5.184   3.115   7.003  1.2067 -1.3660  1.6317
  139OSM   C10F15247   5.304   3.111   6.821 -0.3284  0.2559 -0.9189
  139OSM   H10F15248   5.275   3.215   6.800  0.8994  0.2410 -3.0173
  139OSM   C11F15249   5.404   3.047   6.725  0.7075 -0.0640 -0.3052
  139OSM   H11F15250   5.471   2.982   6.786 -0.8485 -1.7797 -0.3472
  139OSM   H11G15251   5.471   3.115   6.669 -0.3847 -0.4389 -2.1609
  139OSM   C12F15252   5.331   2.965   6.610  0.5442  0.1504 -0.0407
  139OSM   H12F15253   5.283   2.879   6.661 -0.1058  1.4907  1.7012
  139OSM   H12G15254   5.412   2.926   6.545  1.0383 -0.7736  1.0888
  139OSM   C13F15255   5.244   3.052   6.523  0.1571 -0.4257  0.7369
  139OSM   H13F15256   5.313   3.133   6.492  1.1693 -0.6862  2.1521
  139OSM   H13G15257   5.145   3.092   6.552 -0.9786 -0.9691 -2.0903
  139OSM   C14F15258   5.209   2.971   6.391  0.2356  0.3054 -0.2575
  139OSM   H14F15259   5.151   2.881   6.418 -0.6267  1.1601  0.8226
  139OSM   H14G15260   5.308   2.932   6.358  0.2670 -1.5415  1.8406
  139OSM   C15F15261   5.138   3.058   6.282 -0.5315 -0.3495  0.2181
  139OSM   H15F15262   5.215   3.132   6.254  0.7680 -1.9393 -0.5709
  139OSM   H15G15263   5.051   3.109   6.329 -1.0721 -1.1620  0.1215
  139OSM   C16F15264   5.102   2.981   6.153 -0.1894 -0.1605 -0.7480
  139OSM   H16F15265   5.030   2.901   6.179 -1.2026  0.8102 -0.4925
  139OSM   H16G15266   5.197   2.934   6.118  1.1416  0.9678  1.1487
  139OSM   C17F15267   5.046   3.070   6.038 -0.2756  0.5386  0.6567
  139OSM   H17F15268   5.108   3.162   6.024 -1.0458  0.8568 -0.8506
  139OSM   H17G15269   4.945   3.102   6.071 -1.0951 -2.9172  1.9274
  139OSM   C18F15270   5.033   3.007   5.899 -0.6219 -0.4574  0.2802
  139OSM   H18F15271   4.951   2.933   5.891 -0.6486 -0.4339  0.3324
  139OSM   H18G15272   5.131   2.965   5.869 -1.1326 -1.1983 -0.3974
  139OSM   H18H15273   5.013   3.081   5.818  1.3336  1.9050  1.7988
  140OSM      N15274   3.294   1.816   8.690 -0.6606  0.1502 -0.2045
  140OSM    C1515275   3.323   1.806   8.839 -0.2214  0.8202  0.2214
  140OSM   H15A15276   3.419   1.760   8.859 -1.0827 -0.1179  2.5351
  140OSM   H15B15277   3.254   1.736   8.884 -1.1123  1.4623 -0.1153
  140OSM   H15C15278   3.307   1.899   8.891 -1.8621  0.0074  1.2471
  140OSM    C1415279   3.150   1.851   8.669 -0.6521  0.8904  0.1300
  140OSM   H14A15280   3.122   1.950   8.703  0.2117  1.7066 -1.4110
  140OSM   H14B15281   3.095   1.772   8.717  1.5555 -0.6919  0.1970
  140OSM   H14C15282   3.124   1.844   8.564 -0.7093 -1.2976  0.2440
  140OSM    C1315283   3.385   1.907   8.620  0.2119  0.2293  0.2678
  140OSM   H13A15284   3.352   1.922   8.519 -0.4481  1.3740  0.6350
  140OSM   H13B15285   3.488   1.874   8.622  0.7636  1.8593  0.2834
  140OSM   H13C15286   3.382   2.004   8.668 -0.0552 -0.1756  1.0900
  140OSM    C1215287   3.317   1.679   8.619  0.3912  0.3491  0.0889
  140OSM   H12A15288   3.278   1.688   8.519 -0.0055  1.5576  0.3358
  140OSM   H12B15289   3.249   1.607   8.662  0.0137 -0.5700 -1.9664
  140OSM    C1115290   3.458   1.620   8.633 -0.0204  0.0560 -0.3656
  140OSM   H11A15291   3.457   1.512   8.606  2.4339 -0.2210  0.3469
  140OSM   H11B15292   3.488   1.620   8.740 -3.2311  0.6921  0.6465
  140OSM      P15293   3.580   1.684   8.409  0.3101  0.0512 -0.2146
  140OSM    O1315294   3.495   1.575   8.355  0.5201 -0.0113  0.0378
  140OSM    O1415295   3.567   1.815   8.349  0.2380  0.0657  0.2875
  140OSM    O1115296   3.731   1.648   8.397  0.5719 -0.4497 -0.4331
  140OSM    O1215297   3.562   1.690   8.562  0.5434  0.4907  0.1222
  140OSM    C1S15298   3.777   1.561   8.292 -0.0041 -0.0938  0.3302
  140OSM    H1S15299   3.714   1.470   8.278  3.5607 -2.7365 -0.3107
  140OSM    H1T15300   3.873   1.514   8.322  0.2370 -0.1519 -0.5046
  140OSM     NF15301   3.828   1.520   8.055 -0.4779 -1.0808  0.1544
  140OSM    HNF15302   3.924   1.519   8.029 -0.0779  2.6843  0.9704
  140OSM    C2S15303   3.801   1.625   8.152 -0.2233  0.1722  0.0585
  140OSM    H2S15304   3.701   1.663   8.121 -0.9705 -2.1233 -0.5052
  140OSM    C3S15305   3.901   1.741   8.159  0.2988  0.0667  0.2350
  140OSM    H3S15306   3.985   1.696   8.216 -0.2361 -0.7699  0.3798
  140OSM     O315307   3.853   1.845   8.241 -0.1504 -0.8203 -0.0925
  140OSM    HO315308   3.779   1.804   8.286 -0.0812 -0.7675  0.0705
  140OSM    C4S15309   3.965   1.800   8.032  0.1892  0.1885 -0.5176
  140OSM    H4S15310   4.061   1.753   8.009 -0.1201 -0.1462 -1.1640
  140OSM    C5S15311   3.926   1.912   7.964  0.4844  0.5350  0.1606
  140OSM    H5S15312   3.835   1.963   7.999  0.2292  0.4283 -0.3489
  140OSM    C6S15313   4.000   1.962   7.845 -0.0603 -0.3006  0.1697
  140OSM    H6S15314   4.108   1.976   7.865 -0.3804 -0.4311  2.1586
  140OSM    H6T15315   3.978   2.071   7.852 -1.0528 -0.5367  0.9540
  140OSM    C7S15316   3.975   1.896   7.710 -0.4487 -0.8146 -0.4580
  140OSM    H7S15317   3.987   1.976   7.634 -0.2953 -0.9254 -0.5498
  140OSM    H7T15318   3.869   1.868   7.691 -0.8671 -1.1609  1.9770
  140OSM    C8S15319   4.071   1.778   7.688  0.2001  0.3261  0.2441
  140OSM    H8S15320   4.030   1.692   7.745 -0.1012  1.7525  2.3115
  140OSM    H8T15321   4.170   1.804   7.733  0.4711  0.8011 -0.5906
  140OSM    C9S15322   4.087   1.757   7.534 -0.5226 -0.3680  0.9172
  140OSM    H9S15323   4.178   1.697   7.514 -0.7310 -0.1321 -0.8597
  140OSM    H9T15324   4.106   1.860   7.495 -1.0351 -0.5175  0.2593
  140OSM   C10S15325   3.970   1.691   7.457  0.1077  0.3612  0.7620
  140OSM   H10S15326   3.883   1.761   7.459 -0.5697 -0.3843 -0.8086
  140OSM   H10T15327   3.932   1.607   7.519 -1.0586 -0.2281 -0.7124
  140OSM   C11S15328   3.998   1.651   7.315 -0.2132  0.3663  0.9013
  140OSM   H11S15329   4.080   1.577   7.303  0.4218  1.4058 -1.9923
  140OSM   H11T15330   4.036   1.736   7.254  1.5927 -1.2206 -0.3151
  140OSM   C12S15331   3.876   1.590   7.245 -0.2985 -0.0947  0.4159
  140OSM   H12S15332   3.787   1.647   7.279 -0.0211  2.3403 -2.4780
  140OSM   H12T15333   3.860   1.485   7.275 -2.1329 -0.7239 -2.4521
  140OSM   C13S15334   3.880   1.591   7.094 -0.2302 -0.1810 -0.2333
  140OSM   H13S15335   3.911   1.692   7.060 -0.3764  0.2221  0.8199
  140OSM   H13T15336   3.780   1.574   7.049  0.1708 -0.2428 -1.1325
  140OSM   C14S15337   3.984   1.497   7.026 -0.6540 -0.1080  0.5767
  140OSM   H14S15338   3.971   1.396   7.070  0.8083 -0.0539  1.1910
  140OSM   H14T15339   4.091   1.518   7.045  0.2816 -2.5909 -1.3034
  140OSM   C15S15340   3.971   1.485   6.867  0.2701 -0.4551  0.3791
  140OSM   H15S15341   3.866   1.456   6.848  0.7474 -1.4131 -1.0159
  140OSM   H15T15342   4.045   1.414   6.823  1.1703  1.5076 -1.4277
  140OSM   C16S15343   3.995   1.624   6.812 -0.4874  0.2322 -0.2330
  140OSM   H16S15344   4.102   1.643   6.836 -0.0190 -0.2204 -1.8607
  140OSM   H16T15345   3.932   1.703   6.858 -1.9141 -1.0857  0.1608
  140OSM   C17S15346   3.977   1.635   6.661 -0.6083  0.2445  0.2118
  140OSM   H17S15347   4.036   1.557   6.609 -0.1082  2.0149 -2.1000
  140OSM   H17T15348   4.007   1.734   6.619 -0.2230 -0.6577 -1.7396
  140OSM   C18S15349   3.831   1.607   6.620  0.1524 -0.1193 -0.3018
  140OSM   H18S15350   3.767   1.686   6.664  1.5218  0.2519  1.1218
  140OSM   H18T15351   3.795   1.511   6.664 -2.0827  0.0798 -1.5831
  140OSM   H18U15352   3.816   1.611   6.510 -0.3461  1.0776 -0.2037
  140OSM    C1F15353   3.742   1.429   8.024 -0.2471 -0.5767  0.2624
  140OSM     OF15354   3.628   1.437   8.057 -0.2868 -0.5941 -0.2107
  140OSM    C2F15355   3.788   1.311   7.935 -0.2608  0.1645  0.7254
  140OSM    H2F15356   3.790   1.215   7.989  1.9190 -1.1175 -1.4122
  140OSM    H2G15357   3.893   1.334   7.908 -0.5530  0.2918 -0.3752
  140OSM    C3F15358   3.715   1.281   7.799 -0.3906  0.2444  0.4316
  140OSM    H3F15359   3.715   1.368   7.730 -0.7422  0.7852  1.1003
  140OSM    H3G15360   3.606   1.270   7.820 -0.8366  0.4616 -1.5297
  140OSM    C4F15361   3.758   1.154   7.721 -0.6017 -0.4788  0.1339
  140OSM    H4F15362   3.726   1.066   7.781 -2.9932 -0.1528 -0.5383
  140OSM    H4G15363   3.868   1.150   7.711 -0.2662 -1.7662  3.2244
  140OSM    C5F15364   3.683   1.153   7.588 -0.1312  0.4224  0.2789
  140OSM    H5F15365   3.573   1.166   7.604 -0.1658  1.0264 -0.3925
  140OSM    H5G15366   3.688   1.046   7.557 -0.0247  0.5045  0.0076
  140OSM    C6F15367   3.725   1.245   7.473 -0.2378  0.6941  0.2261
  140OSM    H6F15368   3.814   1.202   7.423 -0.3390  0.9165 -0.1479
  140OSM    H6G15369   3.753   1.349   7.502  2.0678 -0.2018  1.4730
  140OSM    C7F15370   3.616   1.258   7.365 -0.8461  0.7834  0.1553
  140OSM    H7F15371   3.651   1.327   7.285 -0.0002 -0.7043 -0.7851
  140OSM    H7G15372   3.525   1.304   7.410 -0.6141  0.3810  1.0651
  140OSM    C8F15373   3.571   1.126   7.298 -0.0406 -0.0762  0.0149
  140OSM    H8F15374   3.530   1.059   7.377 -1.8041  0.6398 -0.2580
  140OSM    H8G15375   3.662   1.072   7.263  0.0073  0.3582 -0.5483
  140OSM    C9F15376   3.478   1.154   7.179  0.3635  0.5906 -0.1220
  140OSM    H9F15377   3.387   1.202   7.218 -0.1002 -2.6099  3.2236
  140OSM   C10F15378   3.486   1.137   7.043  0.2247  0.9757 -0.1614
  140OSM   H10F15379   3.410   1.165   6.969 -0.9911 -0.0542  0.6636
  140OSM   C11F15380   3.603   1.071   6.974  0.1167 -0.3026 -0.0061
  140OSM   H11F15381   3.574   0.972   6.934 -0.3102 -0.9660  1.8720
  140OSM   H11G15382   3.689   1.057   7.043  0.8374  0.9982 -0.5848
  140OSM   C12F15383   3.656   1.167   6.861 -0.2905  0.6777 -0.4072
  140OSM   H12F15384   3.673   1.269   6.904  1.4673  0.1860  0.1617
  140OSM   H12G15385   3.585   1.183   6.777 -1.7839  0.8556  0.8575
  140OSM   C13F15386   3.790   1.127   6.794  0.0742 -0.6146  0.3457
  140OSM   H13F15387   3.879   1.125   6.861  1.2886  1.7144 -1.0686
  140OSM   H13G15388   3.821   1.196   6.713  0.6503 -2.3309 -0.9571
  140OSM   C14F15389   3.785   0.988   6.726 -0.2255  0.3340  0.6299
  140OSM   H14F15390   3.723   0.921   6.789  0.3711 -0.7797  0.0629
  140OSM   H14G15391   3.886   0.942   6.724 -1.8560 -3.5860 -0.7819
  140OSM   C15F15392   3.720   0.987   6.589  0.5504  0.1139 -1.2723
  140OSM   H15F15393   3.624   1.040   6.608  1.4710  1.7843 -1.1170
  140OSM   H15G15394   3.678   0.888   6.561  1.2835 -1.2643  2.0071
  140OSM   C16F15395   3.797   1.063   6.483  0.8193  0.0473 -0.1153
  140OSM   H16F15396   3.887   1.019   6.436  1.3870  0.4187  0.6110
  140OSM   H16G15397   3.825   1.164   6.520 -0.8027  0.2898  0.5541
  140OSM   C17F15398   3.714   1.090   6.358  0.8776 -0.8833  0.2981
  140OSM   H17F15399   3.637   1.167   6.382  0.3304 -1.2210 -0.3303
  140OSM   H17G15400   3.662   0.997   6.328 -0.5177  0.2056 -0.8576
  140OSM   C18F15401   3.795   1.156   6.246 -0.1037 -0.5950  0.1410
  140OSM   H18F15402   3.728   1.175   6.160 -1.1492  3.7685  1.6614
  140OSM   H18G15403   3.885   1.098   6.215  0.0134 -0.6671  0.6134
  140OSM   H18H15404   3.823   1.259   6.277 -0.7151 -0.0034 -1.2049
  141OSM      N15405   4.124   3.262   8.223 -0.0152 -0.4754  0.7897
  141OSM    C1515406   4.082   3.328   8.096  0.1319  0.8788  0.6877
  141OSM   H15A15407   4.114   3.431   8.096  0.9346  0.6818 -1.5238
  141OSM   H15B15408   3.974   3.327   8.093  0.1247  2.4202 -0.1820
  141OSM   H15C15409   4.123   3.279   8.009 -1.9309  0.7073 -0.2557
  141OSM    C1415410   4.091   3.120   8.218  0.3187  0.1716 -0.2162
  141OSM   H14A15411   3.986   3.108   8.241 -0.3678  1.4204 -2.3535
  141OSM   H14B15412   4.146   3.060   8.288  1.9087 -0.4888 -1.9322
  141OSM   H14C15413   4.115   3.067   8.127 -0.2824 -0.7286  0.1346
  141OSM    C1315414   4.278   3.271   8.226 -0.1049  0.1320  0.3382
  141OSM   H13A15415   4.313   3.213   8.142 -0.8111 -0.9504  0.7686
  141OSM   H13B15416   4.315   3.235   8.321 -0.5583 -1.5639 -0.0921
  141OSM   H13C15417   4.310   3.374   8.216 -0.5816  0.1779 -0.8433
  141OSM    C1215418   4.060   3.344   8.340 -0.2626 -0.8823  0.0225
  141OSM   H12A15419   4.107   3.441   8.331 -1.0332 -0.6937 -3.2798
  141OSM   H12B15420   4.078   3.299   8.436 -2.4334  0.1570  0.9834
  141OSM    C1115421   3.908   3.372   8.324  0.5104  0.3898  0.3929
  141OSM   H11A15422   3.897   3.444   8.240 -1.3694 -0.4362 -0.1063
  141OSM   H11B15423   3.855   3.419   8.410 -0.8733  0.0411 -0.2522
  141OSM      P15424   3.713   3.235   8.201  0.5326 -0.1120 -0.1309
  141OSM    O1315425   3.672   3.096   8.218 -0.1758  0.1977  0.1865
  141OSM    O1415426   3.605   3.330   8.233  0.3192 -0.2589  0.2402
  141OSM    O1115427   3.767   3.261   8.055 -0.3815 -0.0531  0.5315
  141OSM    O1215428   3.837   3.249   8.299  0.9233 -0.8139 -0.2023
  141OSM    C1S15429   3.791   3.172   7.948 -0.3739 -0.4629  0.0581
  141OSM    H1S15430   3.811   3.076   8.000 -0.3120  1.0083  2.9342
  141OSM    H1T15431   3.885   3.202   7.896  0.1589 -2.8852 -0.5059
  141OSM     NF15432   3.693   3.089   7.728 -0.1086  0.4761 -0.2134
  141OSM    HNF15433   3.707   3.124   7.636 -0.8919  0.9135 -0.1777
  141OSM    C2S15434   3.680   3.180   7.838  0.3542  0.0942 -0.3873
  141OSM    H2S15435   3.583   3.164   7.890 -0.6084  1.1099 -1.7952
  141OSM    C3S15436   3.650   3.327   7.783  0.2291 -0.3450  0.1031
  141OSM    H3S15437   3.724   3.352   7.704 -0.6996  0.5830 -0.4926
  141OSM     O315438   3.663   3.443   7.872 -0.0109  0.3770  0.3600
  141OSM    HO315439   3.707   3.413   7.952  0.1205 -3.4250 -0.9570
  141OSM    C4S15440   3.520   3.323   7.704  0.0763 -0.1522 -0.8639
  141OSM    H4S15441   3.530   3.255   7.619  1.2811  0.7254 -1.4473
  141OSM    C5S15442   3.395   3.371   7.730 -1.1130 -1.0049  0.3134
  141OSM    H5S15443   3.383   3.448   7.808 -0.7433 -2.3348  1.7346
  141OSM    C6S15444   3.283   3.349   7.639  0.4568 -0.5098 -0.1439
  141OSM    H6S15445   3.230   3.447   7.632 -0.4249 -0.9638 -0.0435
  141OSM    H6T15446   3.208   3.284   7.691 -0.7253  0.7221 -0.2524
  141OSM    C7S15447   3.304   3.300   7.497 -0.1740 -0.5204 -0.1221
  141OSM    H7S15448   3.337   3.194   7.496  1.8085 -0.0708  3.2239
  141OSM    H7T15449   3.378   3.363   7.444 -1.7142  0.5341 -1.1071
  141OSM    C8S15450   3.165   3.303   7.420 -0.3515  0.1208 -0.4929
  141OSM    H8S15451   3.134   3.410   7.422 -0.8432 -0.0288  0.8426
  141OSM    H8T15452   3.095   3.239   7.477 -1.4590  0.6607 -1.2121
  141OSM    C9S15453   3.192   3.243   7.279  0.3120 -0.6074 -0.1652
  141OSM    H9S15454   3.248   3.147   7.281 -1.0791 -1.4639 -0.9213
  141OSM    H9T15455   3.259   3.311   7.222 -0.3088 -1.5845 -2.1333
  141OSM   C10S15456   3.067   3.217   7.194 -0.0778 -0.5906 -0.2793
  141OSM   H10S15457   3.001   3.306   7.192  0.9592  0.1920 -0.6885
  141OSM   H10T15458   3.014   3.134   7.244 -0.2278  0.1426  0.8131
  141OSM   C11S15459   3.100   3.172   7.051  0.4730  0.5366 -1.0769
  141OSM   H11S15460   3.006   3.121   7.021 -0.6036  0.5180  1.9828
  141OSM   H11T15461   3.185   3.101   7.043 -1.2500 -1.4741 -2.2731
  141OSM   C12S15462   3.139   3.284   6.949  0.7372 -0.1630 -0.2508
  141OSM   H12S15463   3.223   3.347   6.987  0.6353  0.0602 -0.3974
  141OSM   H12T15464   3.046   3.343   6.938  0.4597 -0.7373 -1.1431
  141OSM   C13S15465   3.169   3.226   6.812 -0.0504  0.1458 -0.2912
  141OSM   H13S15466   3.087   3.156   6.783  1.4098 -1.5278 -0.5123
  141OSM   H13T15467   3.261   3.165   6.818 -1.3544 -2.0765 -1.4057
  141OSM   C14S15468   3.186   3.337   6.710 -0.0720 -0.4374 -0.7318
  141OSM   H14S15469   3.241   3.417   6.765 -0.8186 -1.0223  0.9517
  141OSM   H14T15470   3.087   3.370   6.670  0.1778 -0.1381 -1.1127
  141OSM   C15S15471   3.269   3.287   6.590 -0.2859  0.0224  0.6001
  141OSM   H15S15472   3.215   3.210   6.531  0.8949 -0.5137  0.1801
  141OSM   H15T15473   3.361   3.239   6.629  0.8205  1.1459 -0.4802
  141OSM   C16S15474   3.304   3.406   6.495  0.4204  0.3826  0.2178
  141OSM   H16S15475   3.358   3.471   6.567  2.6375 -0.5273 -0.5227
  141OSM   H16T15476   3.214   3.456   6.454  2.2378  1.7661 -2.3591
  141OSM   C17S15477   3.400   3.365   6.387 -0.4737 -0.0035 -0.4771
  141OSM   H17S15478   3.375   3.269   6.337 -2.7045 -1.0579  2.3642
  141OSM   H17T15479   3.495   3.358   6.444 -0.1072  3.0185 -0.5531
  141OSM   C18S15480   3.415   3.467   6.274 -0.7985  0.1096  0.2163
  141OSM   H18S15481   3.445   3.566   6.316 -0.7389 -0.0784  0.6194
  141OSM   H18T15482   3.318   3.492   6.225  0.2408  1.1226 -1.4458
  141OSM   H18U15483   3.486   3.428   6.198 -0.0854  0.4176  0.7142
  141OSM    C1F15484   3.683   2.959   7.743 -0.0850 -0.0337  0.1505
  141OSM     OF15485   3.651   2.906   7.848  0.1997 -0.3142  0.4937
  141OSM    C2F15486   3.714   2.875   7.621 -0.0930 -0.5770  0.4948
  141OSM    H2F15487   3.809   2.908   7.574  1.1889 -2.4392  1.5936
  141OSM    H2G15488   3.630   2.908   7.557  0.8898  2.6258  0.7068
  141OSM    C3F15489   3.726   2.730   7.654  1.1411 -0.0854  0.4203
  141OSM    H3F15490   3.652   2.689   7.726  1.2233  0.1388  0.6340
  141OSM    H3G15491   3.823   2.717   7.706  2.0874  1.8707 -0.7835
  141OSM    C4F15492   3.720   2.644   7.528  0.1306 -0.6745  0.8351
  141OSM    H4F15493   3.622   2.657   7.476  0.9580  0.2708 -0.5554
  141OSM    H4G15494   3.730   2.539   7.563  0.4534 -1.1618 -0.6506
  141OSM    C5F15495   3.837   2.662   7.421  0.5156 -0.0483  0.3618
  141OSM    H5F15496   3.929   2.617   7.464  0.3437  0.2210  1.0361
  141OSM    H5G15497   3.847   2.771   7.409  1.8725 -0.3425 -1.5640
  141OSM    C6F15498   3.805   2.589   7.293 -0.0951  0.6826  0.1477
  141OSM    H6F15499   3.742   2.659   7.235 -0.3834 -0.9826 -1.6411
  141OSM    H6G15500   3.746   2.498   7.314  1.2699 -0.3823 -0.4549
  141OSM    C7F15501   3.934   2.557   7.214 -0.0092  0.4691 -0.5000
  141OSM    H7F15502   3.989   2.503   7.294 -0.5455 -0.0001 -0.4389
  141OSM    H7G15503   3.980   2.654   7.185 -1.3920  1.5832  0.8517
  141OSM    C8F15504   3.916   2.453   7.095  0.4689 -0.2374 -0.5607
  141OSM    H8F15505   3.871   2.362   7.140  1.0405 -0.0499  0.4195
  141OSM    H8G15506   4.020   2.443   7.057  1.2922  0.6354  1.3259
  141OSM    C9F15507   3.827   2.512   6.990 -0.3301 -0.4793 -0.1429
  141OSM    H9F15508   3.735   2.556   7.030  1.0874  1.3415  1.2893
  141OSM   C10F15509   3.838   2.508   6.857 -0.4129  0.4390  0.3624
  141OSM   H10F15510   3.763   2.551   6.788  0.2473  0.5565 -0.2996
  141OSM   C11F15511   3.950   2.445   6.780 -0.9961 -0.1103 -0.4642
  141OSM   H11F15512   3.987   2.355   6.835 -1.3282  0.2944  0.4424
  141OSM   H11G15513   4.036   2.515   6.773 -0.2460 -0.6383  2.2001
  141OSM   C12F15514   3.894   2.384   6.649 -0.0653  0.5370 -1.6495
  141OSM   H12F15515   3.819   2.307   6.676  0.5830  0.6384  0.6060
  141OSM   H12G15516   3.976   2.318   6.613  0.0399 -1.1185  1.3373
  141OSM   C13F15517   3.847   2.466   6.530 -0.7552 -0.3636 -0.1273
  141OSM   H13F15518   3.920   2.550   6.530  1.9200 -2.5189  0.5783
  141OSM   H13G15519   3.743   2.501   6.543  0.3203  2.7124  1.4151
  141OSM   C14F15520   3.858   2.379   6.399  0.3469  0.2513 -0.4521
  141OSM   H14F15521   3.776   2.304   6.387  1.1155 -0.8077  0.5595
  141OSM   H14G15522   3.963   2.342   6.398  0.5428  0.8064 -0.7417
  141OSM   C15F15523   3.858   2.465   6.274  0.1999 -0.2451 -0.3889
  141OSM   H15F15524   3.939   2.540   6.287 -0.3526  0.4728 -0.9904
  141OSM   H15G15525   3.760   2.517   6.265 -1.0586 -2.0325  1.8997
  141OSM   C16F15526   3.879   2.379   6.148  0.4198 -0.0784  0.0207
  141OSM   H16F15527   3.787   2.318   6.135 -0.3358  1.1792 -0.7099
  141OSM   H16G15528   3.954   2.303   6.178  1.6167  1.2364  0.4898
  141OSM   C17F15529   3.909   2.462   6.017 -0.4968  0.1850  0.3489
  141OSM   H17F15530   4.011   2.506   6.018  0.1147 -1.1844  1.3405
  141OSM   H17G15531   3.831   2.541   6.023 -1.2641 -0.6159  1.5638
  141OSM   C18F15532   3.909   2.392   5.877  0.4217  0.0370 -0.4436
  141OSM   H18F15533   3.937   2.466   5.799 -1.5291  0.3533 -0.9113
  141OSM   H18G15534   3.813   2.340   5.855 -0.4259  1.0289  0.7693
  141OSM   H18H15535   3.984   2.311   5.863 -1.6202 -1.9202 -0.7517
  142OSM      N15536   1.849   1.895   8.327 -0.0561  0.2242 -0.2717
  142OSM    C1515537   1.913   2.015   8.392 -0.0244 -0.0795  0.1773
  142OSM   H15A15538   1.877   2.106   8.347 -0.0891  0.2137  0.8158
  142OSM   H15B15539   2.019   2.026   8.375  0.1916 -1.2482  0.6990
  142OSM   H15C15540   1.900   2.025   8.499  1.5602  0.1273  0.3837
  142OSM    C1415541   1.928   1.779   8.372  0.0064  0.0809  0.2407
  142OSM   H14A15542   2.031   1.778   8.339  0.3976  0.7900  1.3810
  142OSM   H14B15543   1.887   1.687   8.334 -0.4058  1.4061 -2.7994
  142OSM   H14C15544   1.924   1.775   8.480  1.0319  1.8615  0.3902
  142OSM    C1315545   1.707   1.895   8.370  0.3687  0.8362  0.4905
  142OSM   H13A15546   1.676   1.795   8.343  1.2812  0.0833  2.0942
  142OSM   H13B15547   1.642   1.959   8.312  0.7959 -0.9735 -2.1941
  142OSM   H13C15548   1.700   1.904   8.477  2.5114  0.2991  0.7142
  142OSM    C1215549   1.866   1.901   8.179  0.7216 -0.4767 -0.2011
  142OSM   H12A15550   1.972   1.903   8.157  1.0205 -0.4884  1.1705
  142OSM   H12B15551   1.825   1.994   8.142  0.9760  0.5558  1.9560
  142OSM    C1115552   1.806   1.784   8.101  0.4062 -0.0065  0.4390
  142OSM   H11A15553   1.813   1.813   7.994 -0.1840  2.6305  1.0528
  142OSM   H11B15554   1.698   1.777   8.125  0.4050  0.1787  0.4874
  142OSM      P15555   1.980   1.609   8.026  0.1643 -0.3759  0.1967
  142OSM    O1315556   2.090   1.543   8.098  0.4223  0.7337 -0.7229
  142OSM    O1415557   1.926   1.538   7.911  0.1742 -0.1160 -0.2378
  142OSM    O1115558   2.040   1.746   7.975 -0.6398  0.5763 -0.1312
  142OSM    O1215559   1.867   1.659   8.128  0.0072 -0.3163  0.5832
  142OSM    C1S15560   2.159   1.758   7.899 -1.2612 -0.3890 -0.1414
  142OSM    H1S15561   2.247   1.717   7.953 -0.9080  1.6533  0.9566
  142OSM    H1T15562   2.177   1.867   7.907  0.5480 -0.6244 -0.6142
  142OSM     NF15563   2.272   1.705   7.679  0.2366 -0.4999 -0.1256
  142OSM    HNF15564   2.304   1.780   7.623 -1.8698  0.8446  0.3542
  142OSM    C2S15565   2.146   1.723   7.747  0.7987  0.3881  0.2322
  142OSM    H2S15566   2.096   1.624   7.739  2.7164 -1.2446  4.7066
  142OSM    C3S15567   2.058   1.833   7.679  0.0117  0.8302 -0.1630
  142OSM    H3S15568   2.128   1.918   7.678  0.4079  0.5095 -0.9623
  142OSM     O315569   1.945   1.866   7.757  0.6902  0.1090 -0.4132
  142OSM    HO315570   1.965   1.833   7.845  0.1845  0.9499  0.0377
  142OSM    C4S15571   2.028   1.795   7.539  0.7381 -0.0662  1.0987
  142OSM    H4S15572   2.105   1.834   7.472 -0.5824  2.0739  0.7228
  142OSM    C5S15573   1.919   1.729   7.492  0.2701  0.8680  0.1882
  142OSM    H5S15574   1.835   1.720   7.563  1.0100  0.9789  1.1000
  142OSM    C6S15575   1.917   1.671   7.357 -0.1195  0.3891  0.6294
  142OSM    H6S15576   1.988   1.727   7.292  3.0239 -2.9241  0.8528
  142OSM    H6T15577   1.816   1.689   7.314  0.2529  1.8094  0.2956
  142OSM    C7S15578   1.952   1.521   7.354 -0.0429 -0.3649 -0.1400
  142OSM    H7S15579   1.891   1.468   7.430  0.3317  1.5544  1.6003
  142OSM    H7T15580   2.059   1.499   7.375  0.4486 -0.6518 -2.6490
  142OSM    C8S15581   1.926   1.450   7.219  0.3453  0.3412 -0.3867
  142OSM    H8S15582   1.937   1.527   7.140  0.7170 -0.0401 -0.7100
  142OSM    H8T15583   1.820   1.418   7.231  0.5164 -0.9763 -1.9961
  142OSM    C9S15584   2.012   1.316   7.206  0.2391  0.1245  0.3441
  142OSM    H9S15585   1.999   1.266   7.305  0.2837 -0.7302 -0.0756
  142OSM    H9T15586   2.120   1.343   7.196  0.2054  0.3986  0.7235
  142OSM   C10S15587   1.967   1.224   7.097  0.0202  0.2901 -0.8560
  142OSM   H10S15588   1.860   1.195   7.110 -0.7045  2.3547 -1.6922
  142OSM   H10T15589   2.034   1.136   7.092 -1.4952 -1.1257  1.7205
  142OSM   C11S15590   1.961   1.302   6.966 -0.9153  0.6489  0.0244
  142OSM   H11S15591   2.052   1.366   6.961  0.2205 -0.6996  2.0544
  142OSM   H11T15592   1.884   1.381   6.981 -0.1929  1.4205 -0.2347
  142OSM   C12S15593   1.927   1.212   6.843  0.3271  0.2635 -0.1037
  142OSM   H12S15594   1.834   1.153   6.861 -0.4607  2.3035  3.5779
  142OSM   H12T15595   2.009   1.141   6.822  0.8508  1.2180 -1.4146
  142OSM   C13S15596   1.916   1.285   6.711 -0.4249 -0.4469  0.3322
  142OSM   H13S15597   2.011   1.338   6.688 -0.2446 -0.7056  0.4661
  142OSM   H13T15598   1.830   1.352   6.730  0.0352  0.8681 -1.9096
  142OSM   C14S15599   1.916   1.185   6.596 -0.5428  0.4981  0.0515
  142OSM   H14S15600   1.834   1.111   6.604 -0.5667  0.4073 -0.9080
  142OSM   H14T15601   2.006   1.120   6.605 -1.3986 -0.4569  2.5059
  142OSM   C15S15602   1.913   1.263   6.468 -0.1227  0.6906  0.5534
  142OSM   H15S15603   1.996   1.334   6.454 -0.0777  0.4562 -0.4207
  142OSM   H15T15604   1.819   1.321   6.457  1.0927  2.7133  0.4516
  142OSM   C16S15605   1.932   1.175   6.344 -0.0286 -0.0074  0.6973
  142OSM   H16S15606   2.038   1.141   6.352  0.0680 -0.0057 -0.4585
  142OSM   H16T15607   1.916   1.237   6.254  0.3592 -1.6177 -0.5282
  142OSM   C17S15608   1.842   1.056   6.338  0.4322 -0.4715  0.7391
  142OSM   H17S15609   1.733   1.078   6.347  0.8381  1.0675  2.7033
  142OSM   H17T15610   1.866   0.994   6.427 -0.9219 -0.3415  1.2165
  142OSM   C18S15611   1.867   0.980   6.200 -0.5757 -0.1894 -0.3201
  142OSM   H18S15612   1.836   1.031   6.106  1.0588  1.0119 -0.2490
  142OSM   H18T15613   1.806   0.888   6.207 -0.0582 -0.6242 -1.3629
  142OSM   H18U15614   1.970   0.940   6.196 -0.9391 -1.4026  1.4273
  142OSM    C1F15615   2.353   1.603   7.707  0.7908  0.5253 -0.4056
  142OSM     OF15616   2.312   1.507   7.774 -0.1460  0.4488 -0.1792
  142OSM    C2F15617   2.493   1.609   7.664 -0.5925  0.7046  0.0571
  142OSM    H2F15618   2.530   1.505   7.662  1.8305  1.3886  2.4559
  142OSM    H2G15619   2.548   1.657   7.748  0.5241  1.8897 -1.2892
  142OSM    C3F15620   2.518   1.681   7.532  0.1450  0.0850 -0.7962
  142OSM    H3F15621   2.628   1.676   7.515  0.7129 -0.2708  2.3625
  142OSM    H3G15622   2.507   1.792   7.532 -1.3047 -0.0435 -1.3359
  142OSM    C4F15623   2.437   1.634   7.415 -0.2961 -0.3050  0.6278
  142OSM    H4F15624   2.333   1.672   7.424  0.1766  1.0870  0.4915
  142OSM    H4G15625   2.452   1.524   7.411  1.6486 -0.0728 -3.0891
  142OSM    C5F15626   2.493   1.687   7.285 -0.8694  0.0586  0.2587
  142OSM    H5F15627   2.591   1.637   7.272 -1.0964 -0.2928 -0.1178
  142OSM    H5G15628   2.506   1.797   7.297  1.7815  0.0108 -1.4027
  142OSM    C6F15629   2.402   1.675   7.162 -0.7676  0.3016  0.6233
  142OSM    H6F15630   2.355   1.575   7.164 -0.6193  0.2352  0.7569
  142OSM    H6G15631   2.469   1.683   7.073  0.7658 -1.7216  1.5154
  142OSM    C7F15632   2.296   1.786   7.141 -0.4232 -0.2454  0.6143
  142OSM    H7F15633   2.346   1.885   7.132 -1.5932  0.2656 -0.5901
  142OSM    H7G15634   2.221   1.781   7.224 -2.1337 -0.4797 -0.8892
  142OSM    C8F15635   2.205   1.764   7.020  0.2883 -0.3885  0.5945
  142OSM    H8F15636   2.163   1.663   7.036 -0.9633  0.3155  1.9520
  142OSM    H8G15637   2.264   1.777   6.927 -0.4945  1.1400  0.2752
  142OSM    C9F15638   2.072   1.843   7.014 -0.5918  0.0170 -0.1529
  142OSM    H9F15639   2.020   1.862   7.109  0.3658  2.2213 -0.0018
  142OSM   C10F15640   2.025   1.905   6.906 -0.1757 -0.9762  1.0227
  142OSM   H10F15641   1.932   1.964   6.911  0.6178  0.4502 -0.3718
  142OSM   C11F15642   2.079   1.927   6.768 -0.3230 -0.2123  0.8505
  142OSM   H11F15643   2.188   1.906   6.759 -0.4627 -0.4091 -0.6597
  142OSM   H11G15644   2.044   2.026   6.732 -1.7872 -0.8746  0.3615
  142OSM   C12F15645   2.023   1.832   6.656  0.2541  0.1796 -0.5337
  142OSM   H12F15646   1.912   1.837   6.653  0.1129 -1.7403 -0.1928
  142OSM   H12G15647   2.064   1.739   6.702 -0.3389  0.9272  1.6068
  142OSM   C13F15648   2.084   1.854   6.519  0.3965  0.4432  0.2768
  142OSM   H13F15649   2.195   1.856   6.524  0.8464  2.6808 -4.4336
  142OSM   H13G15650   2.055   1.951   6.472 -1.8027  0.5537  1.7524
  142OSM   C14F15651   2.047   1.743   6.414 -0.4496  0.2543 -0.1611
  142OSM   H14F15652   1.937   1.755   6.406 -0.5403 -0.8976 -0.8483
  142OSM   H14G15653   2.079   1.651   6.468 -0.5964 -0.3984 -1.1648
  142OSM   C15F15654   2.124   1.756   6.282  0.0515  0.0090 -0.6670
  142OSM   H15F15655   2.230   1.727   6.300  0.3981  0.0643 -2.4214
  142OSM   H15G15656   2.137   1.866   6.266 -1.0869  0.7771  2.8147
  142OSM   C16F15657   2.076   1.674   6.166 -0.6655 -0.8211 -0.2809
  142OSM   H16F15658   1.969   1.699   6.153  0.1191  3.3270 -0.0424
  142OSM   H16G15659   2.093   1.569   6.200  1.1474 -1.1698 -2.0226
  142OSM   C17F15660   2.153   1.703   6.042 -0.5804 -0.7200 -0.1039
  142OSM   H17F15661   2.258   1.671   6.056 -0.0265  0.9553 -0.1737
  142OSM   H17G15662   2.159   1.810   6.011 -1.2687 -1.5114 -3.2828
  142OSM   C18F15663   2.087   1.629   5.930  0.8150  0.6923 -0.2024
  142OSM   H18F15664   2.116   1.522   5.922  0.7011  0.5973  0.6109
  142OSM   H18G15665   2.105   1.673   5.830 -1.1894 -1.9003 -1.8396
  142OSM   H18H15666   1.977   1.631   5.941  0.7590 -2.6761  0.9751
  143OSM      N15667   5.598   2.620   8.447 -0.5152 -0.3854 -0.0349
  143OSM    C1515668   5.712   2.706   8.488  0.7180 -0.1036  0.4570
  143OSM   H15A15669   5.789   2.721   8.413 -0.3787  0.8171 -0.5206
  143OSM   H15B15670   5.773   2.669   8.570  0.7364 -1.5342 -0.1678
  143OSM   H15C15671   5.674   2.805   8.507  2.7652  0.8494 -0.0619
  143OSM    C1415672   5.644   2.478   8.431  0.1890 -1.0481 -0.3205
  143OSM   H14A15673   5.708   2.470   8.345 -0.7170 -0.6650 -1.0527
  143OSM   H14B15674   5.563   2.406   8.427  0.5190 -1.3963 -0.8403
  143OSM   H14C15675   5.706   2.450   8.515 -0.4415  1.5738  1.1401
  143OSM    C1315676   5.492   2.628   8.548  0.0870  0.1498 -0.0150
  143OSM   H13A15677   5.461   2.728   8.573  0.4528  0.2527  0.0426
  143OSM   H13B15678   5.519   2.576   8.639 -1.2576 -3.5912 -1.5462
  143OSM   H13C15679   5.417   2.579   8.488 -1.0354 -0.3484  1.7419
  143OSM    C1215680   5.550   2.669   8.307 -0.1980  0.6239 -0.6874
  143OSM   H12A15681   5.630   2.660   8.235  0.9467 -1.0412  0.7074
  143OSM   H12B15682   5.531   2.775   8.316 -0.3494  0.7887 -2.5424
  143OSM    C1115683   5.422   2.602   8.245  0.3269 -0.0039 -0.5033
  143OSM   H11A15684   5.435   2.493   8.233 -1.4477 -0.1818 -1.0205
  143OSM   H11B15685   5.416   2.629   8.137 -2.4850  0.5962 -0.2672
  143OSM      P15686   5.171   2.568   8.281 -0.0567  0.3289 -0.0001
  143OSM    O1315687   5.135   2.485   8.395  0.5499  0.1502  0.0701
  143OSM    O1415688   5.078   2.671   8.238  0.7856 -0.6121 -0.3514
  143OSM    O1115689   5.206   2.471   8.156  0.5634 -0.3540  0.0463
  143OSM    O1215690   5.305   2.633   8.316  0.5216 -0.0238  0.0749
  143OSM    C1S15691   5.109   2.465   8.047  0.2897  0.2593 -0.2351
  143OSM    H1S15692   5.117   2.555   7.983 -2.8264  0.7073 -0.1356
  143OSM    H1T15693   5.004   2.480   8.082  0.4902  0.6775  0.1975
  143OSM     NF15694   5.040   2.351   7.840 -0.0516 -0.2340  0.3651
  143OSM    HNF15695   4.961   2.292   7.835 -1.1342  1.2468 -1.1803
  143OSM    C2S15696   5.117   2.339   7.958 -0.3222  0.2215  0.3801
  143OSM    H2S15697   5.223   2.330   7.927 -0.6354  2.2869 -1.6280
  143OSM    C3S15698   5.074   2.211   8.036 -0.1902  0.4955 -0.2094
  143OSM    H3S15699   4.965   2.217   8.053  0.2333  1.4489  2.5825
  143OSM     O315700   5.132   2.192   8.169  0.0511 -0.1341  0.0635
  143OSM    HO315701   5.168   2.279   8.185  0.4210 -0.4046  0.7336
  143OSM    C4S15702   5.103   2.094   7.955  0.8649  0.1664 -0.6805
  143OSM    H4S15703   5.010   2.037   7.939  0.2967  0.3276  1.7191
  143OSM    C5S15704   5.216   2.055   7.895  0.3921 -0.2327 -0.1899
  143OSM    H5S15705   5.310   2.111   7.909  0.7255 -0.9013  0.2891
  143OSM    C6S15706   5.222   1.939   7.803 -0.8293  0.4886  0.5764
  143OSM    H6S15707   5.166   1.952   7.708 -2.4149 -1.9112  1.0851
  143OSM    H6T15708   5.198   1.843   7.855  1.7685  0.2133  1.3769
  143OSM    C7S15709   5.368   1.917   7.753  0.3525 -0.0623  0.0463
  143OSM    H7S15710   5.429   1.906   7.845  2.0490  0.4382 -0.9774
  143OSM    H7T15711   5.400   2.015   7.713  1.4240 -0.5479 -0.3154
  143OSM    C8S15712   5.405   1.812   7.660  0.2781  0.3874  0.0474
  143OSM    H8S15713   5.344   1.822   7.568  0.1065 -1.9244 -0.1607
  143OSM    H8T15714   5.388   1.713   7.707 -0.0007  0.3971 -0.0329
  143OSM    C9S15715   5.549   1.823   7.594  0.6465 -0.8778  0.0932
  143OSM    H9S15716   5.617   1.842   7.680  0.9694  1.0341 -0.5366
  143OSM    H9T15717   5.558   1.914   7.530 -1.0684 -0.9892 -0.3589
  143OSM   C10S15718   5.601   1.696   7.529  0.0144 -0.2229 -0.6309
  143OSM   H10S15719   5.593   1.610   7.599 -0.9833 -1.0777 -1.7508
  143OSM   H10T15720   5.705   1.709   7.494  1.4285  1.5214  3.5650
  143OSM   C11S15721   5.511   1.670   7.399 -0.6247  0.0534 -0.0217
  143OSM   H11S15722   5.531   1.766   7.347  2.1473  0.0573  0.8499
  143OSM   H11T15723   5.406   1.683   7.431 -0.1306 -1.0951  2.2613
  143OSM   C12S15724   5.545   1.548   7.319 -0.4978  0.2704  0.3824
  143OSM   H12S15725   5.501   1.458   7.368 -0.1887 -0.1973 -0.1765
  143OSM   H12T15726   5.650   1.521   7.299 -0.6447  0.0148 -0.0654
  143OSM   C13S15727   5.489   1.556   7.173  0.2974  1.0589 -0.0778
  143OSM   H13S15728   5.542   1.642   7.128  0.9151  0.2328 -0.9732
  143OSM   H13T15729   5.379   1.568   7.186  0.2588  1.5012 -0.7770
  143OSM   C14S15730   5.516   1.431   7.086 -0.5236 -0.2715  0.2418
  143OSM   H14S15731   5.458   1.341   7.117 -0.9376 -0.6490 -1.5161
  143OSM   H14T15732   5.623   1.399   7.084 -0.3531  0.3239 -0.2658
  143OSM   C15S15733   5.477   1.439   6.939  0.4280  0.7749 -0.1037
  143OSM   H15S15734   5.379   1.492   6.933  0.1213  0.8037  3.2174
  143OSM   H15T15735   5.476   1.336   6.900  1.0583 -0.1079  2.0667
  143OSM   C16S15736   5.584   1.521   6.856 -0.0544  0.0658 -0.2817
  143OSM   H16S15737   5.687   1.479   6.869 -0.6223 -1.0826  0.7879
  143OSM   H16T15738   5.595   1.626   6.892 -1.2883 -0.0362  0.4297
  143OSM   C17S15739   5.564   1.506   6.703  0.5836  0.0902  0.4302
  143OSM   H17S15740   5.458   1.539   6.691 -0.5602 -2.4219  2.6750
  143OSM   H17T15741   5.553   1.396   6.691 -3.3197  0.1315  2.1701
  143OSM   C18S15742   5.676   1.551   6.611 -0.0653  0.3675 -0.4997
  143OSM   H18S15743   5.695   1.660   6.627 -2.3616  0.7358  0.1218
  143OSM   H18T15744   5.658   1.550   6.502 -3.0829 -1.6708 -0.0898
  143OSM   H18U15745   5.769   1.493   6.628 -0.6918 -0.3645  0.5503
  143OSM    C1F15746   5.051   2.451   7.747 -0.3661  1.0389  0.5610
  143OSM     OF15747   5.160   2.505   7.748  0.0217 -1.0880  0.6984
  143OSM    C2F15748   4.935   2.474   7.650  0.2762 -0.4449 -0.0140
  143OSM    H2F15749   4.888   2.568   7.687 -0.9311  0.5919 -3.6647
  143OSM    H2G15750   4.865   2.389   7.660 -0.7245  0.4453  0.8111
  143OSM    C3F15751   4.975   2.492   7.506  0.1083  0.1444 -0.2924
  143OSM    H3F15752   5.011   2.405   7.447 -2.2177 -0.8230 -0.3972
  143OSM    H3G15753   5.058   2.565   7.497  0.4356 -0.4635 -3.2780
  143OSM    C4F15754   4.858   2.569   7.428 -0.9034 -0.8731  0.0623
  143OSM    H4F15755   4.833   2.670   7.468 -4.0241 -2.0809  1.5018
  143OSM    H4G15756   4.766   2.506   7.421  0.4741 -2.8525 -1.4126
  143OSM    C5F15757   4.910   2.612   7.286  0.1810 -0.6463  1.2061
  143OSM    H5F15758   5.013   2.652   7.297 -0.3822  0.6429  2.0587
  143OSM    H5G15759   4.839   2.690   7.252 -0.0548 -2.0767 -1.8522
  143OSM    C6F15760   4.891   2.492   7.189 -0.7377 -0.4311 -0.3196
  143OSM    H6F15761   4.781   2.486   7.177 -0.7938 -1.2768  0.5183
  143OSM    H6G15762   4.928   2.400   7.239  0.3359 -0.3949 -1.0144
  143OSM    C7F15763   4.959   2.507   7.054  0.3295  0.2066 -0.2407
  143OSM    H7F15764   4.966   2.411   6.999 -0.9676  0.2354 -0.4885
  143OSM    H7G15765   5.067   2.532   7.063 -0.2657  2.4960  1.3906
  143OSM    C8F15766   4.892   2.606   6.958  0.2072 -0.0363 -0.3377
  143OSM    H8F15767   4.967   2.656   6.893  1.6979 -3.1476 -1.1860
  143OSM    H8G15768   4.853   2.692   7.018  1.7197  0.6365 -0.2545
  143OSM    C9F15769   4.782   2.551   6.872 -0.6609  0.6285  0.5284
  143OSM    H9F15770   4.707   2.490   6.925  1.2390 -4.3176 -1.8973
  143OSM   C10F15771   4.767   2.542   6.738  0.1767  0.4529  0.4281
  143OSM   H10F15772   4.683   2.480   6.701 -0.9625  2.0243  0.2774
  143OSM   C11F15773   4.847   2.603   6.627  0.1711  0.1126 -0.6129
  143OSM   H11F15774   4.921   2.677   6.664  0.8674  0.1011 -1.9182
  143OSM   H11G15775   4.771   2.661   6.571  0.3348  0.5241 -0.4136
  143OSM   C12F15776   4.919   2.510   6.533 -0.4008 -0.0757 -0.3255
  143OSM   H12F15777   4.961   2.558   6.441  2.3157  0.5537  1.1422
  143OSM   H12G15778   4.848   2.431   6.502 -0.8016 -0.1900  0.8244
  143OSM   C13F15779   5.020   2.426   6.609 -0.0770  0.5219 -0.7518
  143OSM   H13F15780   4.964   2.362   6.680  0.2724 -0.3232 -1.2193
  143OSM   H13G15781   5.077   2.502   6.666 -1.0393  0.6202  0.0990
  143OSM   C14F15782   5.106   2.338   6.515 -0.2925  0.0444 -0.6602
  143OSM   H14F15783   5.037   2.307   6.433 -1.3806  0.1994  0.1729
  143OSM   H14G15784   5.159   2.258   6.572 -1.3238  0.5915  1.1419
  143OSM   C15F15785   5.213   2.422   6.435  0.5972  0.0517 -0.2483
  143OSM   H15F15786   5.316   2.396   6.469  0.3512 -0.9175 -0.2000
  143OSM   H15G15787   5.179   2.524   6.461  0.0476 -0.0951 -0.3839
  143OSM   C16F15788   5.202   2.396   6.282  0.4802 -0.1585  0.4077
  143OSM   H16F15789   5.121   2.455   6.235  0.2315 -0.2914  0.6671
  143OSM   H16G15790   5.193   2.286   6.273  0.2257 -0.0239 -1.2272
  143OSM   C17F15791   5.336   2.421   6.209  0.1214  0.4962  0.0282
  143OSM   H17F15792   5.320   2.381   6.107  0.9922  0.0763  0.0461
  143OSM   H17G15793   5.411   2.357   6.260 -0.2237 -0.9762 -1.2691
  143OSM   C18F15794   5.374   2.564   6.222 -0.0228  0.4657  0.2703
  143OSM   H18F15795   5.460   2.580   6.154  0.3362  3.2917  1.2518
  143OSM   H18G15796   5.397   2.598   6.326  0.1694 -1.5289  0.9262
  143OSM   H18H15797   5.297   2.626   6.171  0.8194  1.1383 -0.2060
  144OSM      N15798   4.954   2.935   8.542 -0.1483 -0.8566 -0.0052
  144OSM    C1515799   4.850   2.839   8.572 -0.2734  0.3164  0.6106
  144OSM   H15A15800   4.880   2.736   8.554  1.4734  0.9287 -0.2155
  144OSM   H15B15801   4.760   2.873   8.525 -0.5615  0.9514  1.5808
  144OSM   H15C15802   4.811   2.850   8.672 -0.5248  1.9166  0.3632
  144OSM    C1415803   4.913   3.068   8.585 -0.5621 -0.3700 -0.4348
  144OSM   H14A15804   4.869   3.051   8.682  0.8924 -1.0970  0.1222
  144OSM   H14B15805   4.837   3.112   8.522  0.3830  2.2737  0.1713
  144OSM   H14C15806   4.996   3.133   8.606 -0.3072 -1.6597  3.2123
  144OSM    C1315807   5.080   2.901   8.612 -0.2587  0.8226 -0.0770
  144OSM   H13A15808   5.073   2.899   8.720  1.1509 -0.3638  0.0200
  144OSM   H13B15809   5.162   2.968   8.588 -1.2260  1.3061 -2.3270
  144OSM   H13C15810   5.107   2.799   8.590  0.3554  0.9793 -0.0756
  144OSM    C1215811   4.987   2.939   8.389  0.9480 -0.0178  0.2561
  144OSM   H12A15812   5.013   2.839   8.358  2.9228  0.1795  1.1340
  144OSM   H12B15813   5.072   3.006   8.384  1.2702 -0.3903  0.7617
  144OSM    C1115814   4.876   2.991   8.292 -0.6886 -0.3065 -0.2180
  144OSM   H11A15815   4.778   2.954   8.329 -0.8520  1.0760  0.8560
  144OSM   H11B15816   4.898   2.956   8.189 -2.9294 -0.6385 -0.6332
  144OSM      P15817   4.979   3.231   8.261 -0.1840  0.0556 -0.2031
  144OSM    O1315818   4.913   3.358   8.226 -0.1816 -0.8415  0.0758
  144OSM    O1415819   5.096   3.223   8.347 -0.2940  0.5266 -0.1563
  144OSM    O1115820   5.025   3.159   8.127 -0.1952  0.1521  0.1988
  144OSM    O1215821   4.857   3.136   8.307 -0.2961  0.5517  0.1624
  144OSM    C1S15822   5.064   3.235   8.009  0.9543 -0.1739  0.7561
  144OSM    H1S15823   5.173   3.254   8.023  1.3989 -1.8709 -0.0905
  144OSM    H1T15824   5.019   3.335   7.993  2.9465  0.5432 -0.9619
  144OSM     NF15825   5.099   3.221   7.760  0.2941 -0.5087 -0.1205
  144OSM    HNF15826   5.032   3.268   7.703  2.1568  2.5702 -0.0375
  144OSM    C2S15827   5.042   3.154   7.875 -0.6313 -0.3880 -0.3213
  144OSM    H2S15828   5.099   3.059   7.879 -0.3006 -0.2509 -1.4657
  144OSM    C3S15829   4.892   3.134   7.860 -0.3060  0.0183 -0.5668
  144OSM    H3S15830   4.837   3.230   7.872 -0.4398 -0.1448  0.1926
  144OSM     O315831   4.828   3.061   7.958 -0.3645 -0.5253 -0.0772
  144OSM    HO315832   4.880   3.078   8.038  1.3601 -0.9000 -1.0559
  144OSM    C4S15833   4.854   3.067   7.730  1.0491  0.0831 -0.1427
  144OSM    H4S15834   4.903   2.972   7.704  1.6610  0.0983  0.8909
  144OSM    C5S15835   4.768   3.122   7.632 -0.0463 -0.3587 -0.1344
  144OSM    H5S15836   4.727   3.224   7.639 -1.4544 -0.8412 -0.8506
  144OSM    C6S15837   4.731   3.053   7.506  0.6912  0.6987 -0.4307
  144OSM    H6S15838   4.620   3.049   7.509  0.6483 -0.3442  3.9049
  144OSM    H6T15839   4.775   2.951   7.514  0.6085  0.6923 -0.0118
  144OSM    C7S15840   4.776   3.113   7.376 -0.3266  0.3397  0.5909
  144OSM    H7S15841   4.886   3.123   7.388  0.0989 -2.6743  0.1850
  144OSM    H7T15842   4.720   3.207   7.357 -1.4552 -0.2674  0.8208
  144OSM    C8S15843   4.742   3.021   7.262  0.7050 -0.2112  0.8549
  144OSM    H8S15844   4.634   2.993   7.272  0.3697  0.5010 -0.5128
  144OSM    H8T15845   4.804   2.929   7.267  0.3702 -0.5864 -0.9811
  144OSM    C9S15846   4.777   3.080   7.124  0.2282  0.2814 -0.1160
  144OSM    H9S15847   4.883   3.114   7.125  0.1299  0.6529 -0.9951
  144OSM    H9T15848   4.726   3.178   7.114  2.6044  1.5546 -0.6081
  144OSM   C10S15849   4.738   2.991   7.002 -0.3662  0.0013 -0.0860
  144OSM   H10S15850   4.639   2.943   7.020 -1.1064  2.1208  2.0425
  144OSM   H10T15851   4.817   2.913   7.007  0.3225  0.7293  0.7528
  144OSM   C11S15852   4.736   3.060   6.863  0.1823 -0.5499  0.5300
  144OSM   H11S15853   4.710   3.168   6.867  1.7590 -0.1745  1.2166
  144OSM   H11T15854   4.660   3.006   6.803 -0.5201  1.3579 -0.3530
  144OSM   C12S15855   4.871   3.052   6.791  0.1032  0.4974  0.2279
  144OSM   H12S15856   4.886   2.949   6.753  1.3038 -0.2331  2.4845
  144OSM   H12T15857   4.945   3.074   6.871 -0.9637 -2.1913  2.0821
  144OSM   C13S15858   4.870   3.159   6.679 -0.1535 -0.5097  0.2354
  144OSM   H13S15859   4.966   3.157   6.622 -1.5363 -1.2382 -2.2054
  144OSM   H13T15860   4.858   3.255   6.734 -3.1200  0.2580 -1.5252
  144OSM   C14S15861   4.750   3.148   6.580 -0.1877  0.6789 -0.3899
  144OSM   H14S15862   4.752   3.232   6.507  1.4944 -0.1160 -1.3142
  144OSM   H14T15863   4.650   3.138   6.628 -0.1070  0.0827 -0.3422
  144OSM   C15S15864   4.765   3.022   6.485 -0.2377 -0.2198  0.0681
  144OSM   H15S15865   4.741   2.935   6.550  0.6601 -0.9305 -0.5388
  144OSM   H15T15866   4.871   3.015   6.453 -0.4075 -1.3525 -0.2634
  144OSM   C16S15867   4.669   3.031   6.371 -0.6390 -0.5707 -0.5262
  144OSM   H16S15868   4.662   3.127   6.316 -3.5933 -1.0972 -1.2614
  144OSM   H16T15869   4.568   3.004   6.409  0.2751 -0.2508  2.2887
  144OSM   C17S15870   4.708   2.929   6.263 -0.1091 -0.2867 -0.3536
  144OSM   H17S15871   4.817   2.925   6.243 -0.2586  0.8574 -1.5403
  144OSM   H17T15872   4.658   2.947   6.165  2.1873  0.8937 -1.4000
  144OSM   C18S15873   4.683   2.778   6.301 -0.4326  0.0852  0.4898
  144OSM   H18S15874   4.740   2.740   6.388 -0.2889  0.6171  0.6306
  144OSM   H18T15875   4.726   2.712   6.222  2.0398 -1.5019  2.9894
  144OSM   H18U15876   4.576   2.750   6.312 -0.7283  0.4617 -1.1351
  144OSM    C1F15877   5.231   3.236   7.752 -0.3049  0.0998 -0.2139
  144OSM     OF15878   5.308   3.180   7.831  0.6216  0.2544  0.4455
  144OSM    C2F15879   5.292   3.323   7.650  0.2210  0.1325  0.0856
  144OSM    H2F15880   5.251   3.315   7.547 -0.5052  1.2696  0.2609
  144OSM    H2G15881   5.398   3.292   7.638 -0.3736 -2.0453  0.0140
  144OSM    C3F15882   5.282   3.468   7.694 -0.0977 -0.1370 -0.4621
  144OSM    H3F15883   5.335   3.494   7.788  2.8323  2.0214 -2.4936
  144OSM    H3G15884   5.183   3.514   7.710  0.3064  1.0918 -1.4073
  144OSM    C4F15885   5.350   3.552   7.590 -0.6523  0.2445 -0.0003
  144OSM    H4F15886   5.303   3.522   7.494  2.0517 -0.4792 -1.1960
  144OSM    H4G15887   5.455   3.521   7.572 -1.5005 -1.6699 -2.0509
  144OSM    C5F15888   5.337   3.700   7.629  0.4191 -0.4054 -0.1813
  144OSM    H5F15889   5.397   3.715   7.722  0.5097 -2.9897  0.2428
  144OSM    H5G15890   5.232   3.721   7.659  0.2952 -1.1382 -0.0906
  144OSM    C6F15891   5.363   3.802   7.512  0.1874 -0.2728 -0.6104
  144OSM    H6F15892   5.336   3.756   7.414 -1.8095 -0.1100 -0.1920
  144OSM    H6G15893   5.473   3.813   7.509 -0.0610  3.6479 -0.5650
  144OSM    C7F15894   5.298   3.938   7.542 -1.1176  0.4626  1.0138
  144OSM    H7F15895   5.370   3.977   7.617  1.1442 -2.2852  0.4362
  144OSM    H7G15896   5.199   3.936   7.593 -0.9339  0.0763  1.3567
  144OSM    C8F15897   5.293   4.034   7.423 -0.5564  0.0405 -0.5720
  144OSM    H8F15898   5.273   4.133   7.469  1.5303 -0.4704  1.7025
  144OSM    H8G15899   5.206   3.998   7.365 -1.2387  1.1464 -0.2726
  144OSM    C9F15900   5.420   4.034   7.340 -0.2934  0.6039  0.2024
  144OSM    H9F15901   5.509   4.065   7.397 -0.7377  2.8470 -0.2144
  144OSM   C10F15902   5.435   3.983   7.213  0.1881  0.8461 -0.1911
  144OSM   H10F15903   5.533   3.979   7.165  1.1032  0.6881  1.6035
  144OSM   C11F15904   5.321   3.931   7.136 -0.2839  0.3209  0.7828
  144OSM   H11F15905   5.231   3.993   7.154 -2.9305 -2.9080 -0.4299
  144OSM   H11G15906   5.297   3.828   7.170  0.2734  0.0806  0.4745
  144OSM   C12F15907   5.350   3.936   6.981  0.7735 -0.3471  0.3982
  144OSM   H12F15908   5.403   4.031   6.959  2.2642 -1.5559 -1.5082
  144OSM   H12G15909   5.249   3.938   6.935  0.5942  0.2508  0.8065
  144OSM   C13F15910   5.417   3.816   6.916 -0.4028 -0.4390  0.1051
  144OSM   H13F15911   5.378   3.718   6.952 -0.9281 -1.5157 -3.0844
  144OSM   H13G15912   5.523   3.824   6.948 -0.2394 -4.8641  1.2284
  144OSM   C14F15913   5.399   3.813   6.762  0.3138 -0.1151 -0.1315
  144OSM   H14F15914   5.297   3.816   6.719  0.8019  1.3008 -1.2608
  144OSM   H14G15915   5.430   3.714   6.722  1.1679  0.1360 -0.1130
  144OSM   C15F15916   5.482   3.921   6.687 -0.1249  0.1584 -0.7701
  144OSM   H15F15917   5.567   3.877   6.632  1.0059  1.1297  0.1333
  144OSM   H15G15918   5.527   3.990   6.762 -1.4698  2.1312 -1.6777
  144OSM   C16F15919   5.411   4.020   6.588 -0.7996 -0.0885 -0.6632
  144OSM   H16F15920   5.482   4.104   6.573 -1.0585  1.1183  3.6658
  144OSM   H16G15921   5.322   4.063   6.638  0.7508  0.4797  1.7618
  144OSM   C17F15922   5.365   3.965   6.462  0.7006  0.3883  0.0641
  144OSM   H17F15923   5.265   4.002   6.431 -0.3072 -1.0952  1.4113
  144OSM   H17G15924   5.353   3.856   6.479 -0.2671  0.4922  0.1192
  144OSM   C18F15925   5.460   3.990   6.340 -0.5571  0.3091 -0.7334
  144OSM   H18F15926   5.490   4.097   6.338  0.0284  0.1962 -4.1983
  144OSM   H18G15927   5.413   3.957   6.245 -1.0248 -1.4621  0.0609
  144OSM   H18H15928   5.551   3.928   6.354  0.1617  0.6111 -3.4898
  145OSM      N15929   4.661   5.743   8.307 -0.4960  1.0036 -0.3469
  145OSM    C1515930   4.651   5.750   8.457  0.5645  0.0181 -0.2596
  145OSM   H15A15931   4.688   5.664   8.510  0.2938 -0.9317 -1.5445
  145OSM   H15B15932   4.547   5.757   8.486  0.9253 -0.7506  1.2935
  145OSM   H15C15933   4.700   5.839   8.494 -2.0678  1.3772  0.2646
  145OSM    C1415934   4.592   5.622   8.268  1.1832 -0.1103 -0.3046
  145OSM   H14A15935   4.634   5.531   8.308  1.5243  0.5348  0.8582
  145OSM   H14B15936   4.577   5.619   8.161 -1.6050  1.8612 -0.0846
  145OSM   H14C15937   4.498   5.618   8.321  1.0886  0.0031 -0.4674
  145OSM    C1315938   4.580   5.861   8.257  0.2502 -0.1917 -0.1119
  145OSM   H13A15939   4.482   5.842   8.298  0.0596 -0.8880 -0.8674
  145OSM   H13B15940   4.579   5.870   8.150  2.3762 -0.9002 -0.2295
  145OSM   H13C15941   4.623   5.955   8.290 -1.4587  0.7813 -0.5433
  145OSM    C1215942   4.804   5.743   8.249 -0.0472  0.0392 -0.4781
  145OSM   H12A15943   4.838   5.846   8.252  0.6217 -0.2047  1.4514
  145OSM   H12B15944   4.793   5.722   8.143  1.8420  0.9107 -0.8960
  145OSM    C1115945   4.914   5.653   8.314 -0.4718 -0.1625 -0.6734
  145OSM   H11A15946   4.938   5.704   8.409 -1.2607  1.8773 -1.5048
  145OSM   H11B15947   5.005   5.665   8.251  0.5339  0.0591  0.7823
  145OSM      P15948   4.885   5.407   8.229  0.0568 -0.1992 -0.0482
  145OSM    O1315949   5.021   5.344   8.230 -0.1238 -0.1440  0.2092
  145OSM    O1415950   4.774   5.311   8.274 -0.4395  0.0629  0.1593
  145OSM    O1115951   4.846   5.481   8.095  0.0183 -0.2585  0.3290
  145OSM    O1215952   4.883   5.516   8.342 -0.0149 -0.0674  0.1699
  145OSM    C1S15953   4.918   5.466   7.978 -0.3899  0.6278 -0.5253
  145OSM    H1S15954   4.934   5.357   7.960 -0.6479  0.6466 -0.8915
  145OSM    H1T15955   5.009   5.528   7.992 -0.1690 -0.0760  1.4323
  145OSM     NF15956   4.943   5.519   7.743 -0.0631  0.0896  0.9889
  145OSM    HNF15957   4.979   5.608   7.716  1.2402 -0.5678  0.5067
  145OSM    C2S15958   4.840   5.518   7.851  0.6217  0.1110  0.0994
  145OSM    H2S15959   4.755   5.450   7.828 -0.3367  0.2492  2.8426
  145OSM    C3S15960   4.777   5.656   7.884  0.2103  0.0582 -0.7206
  145OSM    H3S15961   4.850   5.722   7.937 -0.4825  0.9999 -0.9176
  145OSM     O315962   4.652   5.649   7.959 -0.5147  0.2955 -0.0256
  145OSM    HO315963   4.640   5.561   7.995 -0.1608  1.0414  2.0459
  145OSM    C4S15964   4.743   5.721   7.754  0.3062 -0.1648  0.0145
  145OSM    H4S15965   4.742   5.653   7.667  0.6577 -0.8629  0.5445
  145OSM    C5S15966   4.713   5.851   7.742  0.3414  0.3783 -0.0205
  145OSM    H5S15967   4.731   5.910   7.833 -0.0843 -1.4900  1.3265
  145OSM    C6S15968   4.693   5.933   7.609 -0.9076  0.7316 -0.3035
  145OSM    H6S15969   4.773   6.010   7.605  0.9783 -0.8985  2.3943
  145OSM    H6T15970   4.602   5.996   7.604 -0.4456  1.3775 -0.6307
  145OSM    C7S15971   4.690   5.845   7.483 -0.7469 -0.2525  0.3170
  145OSM    H7S15972   4.600   5.779   7.482 -1.0379  0.1380  0.3093
  145OSM    H7T15973   4.782   5.783   7.479 -0.1552  0.3467  3.0038
  145OSM    C8S15974   4.690   5.931   7.354 -0.1619 -0.0036 -0.3244
  145OSM    H8S15975   4.770   6.008   7.360  0.7919 -0.8881 -1.2656
  145OSM    H8T15976   4.594   5.987   7.365  0.1927  0.7514 -0.9444
  145OSM    C9S15977   4.703   5.842   7.232 -0.9222 -0.0857  0.3616
  145OSM    H9S15978   4.609   5.782   7.227 -0.7712 -0.2490 -1.4935
  145OSM    H9T15979   4.792   5.776   7.226 -0.1755  0.9335 -0.0450
  145OSM   C10S15980   4.712   5.920   7.104 -1.3672 -0.8501  0.1891
  145OSM   H10S15981   4.815   5.959   7.086 -1.7735 -0.6349 -1.9079
  145OSM   H10T15982   4.646   6.010   7.108  1.5393  1.3972  2.9846
  145OSM   C11S15983   4.688   5.827   6.981 -0.1020  0.5278 -0.5575
  145OSM   H11S15984   4.598   5.764   6.994 -0.0208  0.0319 -2.2214
  145OSM   H11T15985   4.782   5.767   6.973 -0.0290  0.4856  0.4334
  145OSM   C12S15986   4.659   5.908   6.852  0.4381  0.6393  0.2611
  145OSM   H12S15987   4.739   5.984   6.837  1.4804 -0.5668 -0.4817
  145OSM   H12T15988   4.557   5.949   6.869 -0.8113 -1.7369 -0.9207
  145OSM   C13S15989   4.664   5.810   6.730  0.4129  0.2229 -0.0707
  145OSM   H13S15990   4.590   5.728   6.730  0.6639 -0.0084 -0.6904
  145OSM   H13T15991   4.769   5.777   6.746  0.9741  2.9702  2.9021
  145OSM   C14S15992   4.658   5.884   6.603  0.3653 -0.2734  0.2600
  145OSM   H14S15993   4.594   5.973   6.621 -1.4005 -1.7555  1.7555
  145OSM   H14T15994   4.603   5.836   6.519  3.0820  1.9709 -3.0818
  145OSM   C15S15995   4.794   5.920   6.550 -0.2406  0.2953 -0.2409
  145OSM   H15S15996   4.845   5.823   6.531 -2.0047 -1.1176  1.7025
  145OSM   H15T15997   4.851   5.980   6.624  1.5173  0.8625 -1.9764
  145OSM   C16S15998   4.781   6.006   6.422 -0.4227  0.7513  0.6396
  145OSM   H16S15999   4.758   6.109   6.457 -1.1637  0.9287 -0.3626
  145OSM   H16T16000   4.702   5.966   6.355  0.8952 -0.8263 -0.0374
  145OSM   C17S16001   4.908   6.015   6.340 -0.4386  0.6351  0.5326
  145OSM   H17S16002   4.936   5.917   6.294 -1.0756  0.8616 -0.3500
  145OSM   H17T16003   4.981   6.053   6.414 -1.2882  0.2012  1.6182
  145OSM   C18S16004   4.909   6.110   6.217 -0.2573 -0.1989 -0.0488
  145OSM   H18S16005   5.012   6.134   6.182  0.6469 -2.5578  0.7903
  145OSM   H18T16006   4.854   6.204   6.240  1.1672  0.9793 -1.2870
  145OSM   H18U16007   4.864   6.049   6.136 -0.7792  0.1002  0.0105
  145OSM    C1F16008   5.004   5.412   7.694 -0.1041  0.1367 -0.7471
  145OSM     OF16009   4.972   5.295   7.718 -0.3845  0.5213  0.2550
  145OSM    C2F16010   5.116   5.441   7.600 -0.3565 -0.7271 -0.4526
  145OSM    H2F16011   5.213   5.422   7.650 -0.1589 -0.9848 -0.9246
  145OSM    H2G16012   5.117   5.549   7.572 -0.8148 -0.3110  1.0893
  145OSM    C3F16013   5.123   5.355   7.464 -0.9389  0.1569  0.2573
  145OSM    H3F16014   5.031   5.371   7.404 -0.1823 -0.3839 -1.0770
  145OSM    H3G16015   5.135   5.245   7.475 -0.8506 -0.0126 -1.3144
  145OSM    C4F16016   5.236   5.400   7.364  0.1527  0.6287  0.4617
  145OSM    H4F16017   5.335   5.396   7.413  0.4566  0.6922 -0.1390
  145OSM    H4G16018   5.223   5.508   7.341  0.4614  0.4041 -0.8504
  145OSM    C5F16019   5.236   5.313   7.238  0.4406 -0.7304 -0.0169
  145OSM    H5F16020   5.142   5.330   7.181 -0.7850 -0.3549  2.0120
  145OSM    H5G16021   5.230   5.205   7.266  0.0463 -0.6621  0.1698
  145OSM    C6F16022   5.360   5.335   7.150  0.7361  0.0434 -0.1174
  145OSM    H6F16023   5.442   5.313   7.221 -0.3030 -0.9472  0.8319
  145OSM    H6G16024   5.350   5.439   7.112 -1.7871 -0.2896 -0.5817
  145OSM    C7F16025   5.363   5.231   7.041  0.6449  0.6300  0.0619
  145OSM    H7F16026   5.311   5.138   7.073 -1.5804  0.6549 -3.0084
  145OSM    H7G16027   5.458   5.211   6.987 -1.0197 -1.3669 -2.3197
  145OSM    C8F16028   5.260   5.270   6.937 -0.5466  0.2834  0.6998
  145OSM    H8F16029   5.163   5.307   6.977 -0.5189  2.2467 -0.8473
  145OSM    H8G16030   5.223   5.180   6.883  1.6164  0.3190 -0.9833
  145OSM    C9F16031   5.322   5.375   6.840  0.4770 -0.0662  0.0718
  145OSM    H9F16032   5.299   5.478   6.872 -0.0096 -0.5463  1.3174
  145OSM   C10F16033   5.387   5.349   6.728  0.1322  0.4186  0.4717
  145OSM   H10F16034   5.424   5.433   6.667 -1.0799  1.0426  0.5652
  145OSM   C11F16035   5.424   5.210   6.681 -0.4791  0.2013 -0.0244
  145OSM   H11F16036   5.437   5.141   6.767 -3.2713 -1.2313 -0.6367
  145OSM   H11G16037   5.522   5.232   6.633 -0.1164  1.9889  1.4374
  145OSM   C12F16038   5.340   5.150   6.561  0.2480  1.2177 -0.3214
  145OSM   H12F16039   5.233   5.144   6.591  0.1794 -0.2131 -0.7655
  145OSM   H12G16040   5.369   5.045   6.542 -0.3237  0.8427  0.7941
  145OSM   C13F16041   5.341   5.230   6.432 -0.1518  0.3781 -0.3754
  145OSM   H13F16042   5.446   5.228   6.395  0.2810 -0.5271  0.8580
  145OSM   H13G16043   5.326   5.334   6.468 -1.0786 -0.2974  1.2575
  145OSM   C14F16044   5.232   5.195   6.327  0.3906 -0.3607  0.6906
  145OSM   H14F16045   5.129   5.182   6.366  0.6485  0.3567  1.6487
  145OSM   H14G16046   5.262   5.098   6.281 -0.1487 -0.8149  1.2689
  145OSM   C15F16047   5.221   5.297   6.210 -0.3092  0.4170  0.1144
  145OSM   H15F16048   5.320   5.295   6.161 -0.2562 -1.4220  0.2456
  145OSM   H15G16049   5.190   5.396   6.249 -1.7485  0.3165 -0.6720
  145OSM   C16F16050   5.124   5.243   6.095 -0.1594  0.0215 -0.1142
  145OSM   H16F16051   5.020   5.227   6.133  0.1736 -2.4549 -0.0838
  145OSM   H16G16052   5.154   5.140   6.067  0.9327  0.2866  0.0485
  145OSM   C17F16053   5.132   5.345   5.976 -0.1126 -0.3884 -0.0126
  145OSM   H17F16054   5.237   5.346   5.939  0.3023  1.5230  1.0987
  145OSM   H17G16055   5.110   5.446   6.015 -0.7718  0.0535 -1.4659
  145OSM   C18F16056   5.045   5.319   5.855 -0.5268  0.0913  0.6088
  145OSM   H18F16057   5.060   5.211   5.834 -0.6084 -0.0869  1.3993
  145OSM   H18G16058   5.065   5.389   5.771 -0.6969  1.6055  1.7716
  145OSM   H18H16059   4.936   5.326   5.877 -0.6085  1.3592 -0.0942
  146OSM      N16060   3.578   5.792   8.441 -0.3713 -0.4177 -0.5724
  146OSM    C1516061   3.479   5.686   8.454  0.2067  0.2024  0.4183
  146OSM   H15A16062   3.389   5.730   8.414 -0.0614 -1.1068 -0.5159
  146OSM   H15B16063   3.462   5.660   8.558 -2.5036  0.7185  0.1765
  146OSM   H15C16064   3.513   5.604   8.392  1.3011 -0.1628  1.4530
  146OSM    C1416065   3.538   5.915   8.531 -0.3848  0.8152  0.1716
  146OSM   H14A16066   3.610   5.994   8.546  0.9487 -0.1458 -0.8886
  146OSM   H14B16067   3.526   5.880   8.632 -0.1908  2.2243  0.6928
  146OSM   H14C16068   3.448   5.953   8.485 -1.5253 -0.3851  1.3239
  146OSM    C1316069   3.704   5.749   8.500 -0.3598 -0.3095 -0.6283
  146OSM   H13A16070   3.743   5.663   8.446  0.5813  1.7245 -3.4140
  146OSM   H13B16071   3.686   5.726   8.604 -1.1601  2.3780 -0.1096
  146OSM   H13C16072   3.772   5.832   8.494 -0.6307  0.2380  2.3679
  146OSM    C1216073   3.598   5.840   8.292  0.0883 -0.4029  0.2365
  146OSM   H12A16074   3.665   5.774   8.238  1.8787  1.0614  0.5558
  146OSM   H12B16075   3.654   5.932   8.283 -0.7935  0.2154  0.8632
  146OSM    C1116076   3.459   5.868   8.220 -0.0643 -0.1905 -0.1070
  146OSM   H11A16077   3.394   5.778   8.215 -3.4795  2.0380  0.6626
  146OSM   H11B16078   3.472   5.893   8.113 -0.5182 -3.0239 -0.9044
  146OSM      P16079   3.228   5.964   8.286  0.6958  0.2430 -0.3763
  146OSM    O1316080   3.188   5.863   8.394 -0.2297 -0.1651  0.3662
  146OSM    O1416081   3.181   6.103   8.300  0.2555  0.7066 -0.1441
  146OSM    O1116082   3.195   5.900   8.148  0.8408  0.0916 -0.4771
  146OSM    O1216083   3.382   5.969   8.293 -0.0756  0.2336  0.9230
  146OSM    C1S16084   3.186   5.980   8.038  0.4525 -0.5736  0.5952
  146OSM    H1S16085   3.277   6.034   8.004 -0.2531 -0.1024 -0.6109
  146OSM    H1T16086   3.109   6.059   8.052 -0.4776 -1.4745  0.7169
  146OSM     NF16087   3.170   5.945   7.789  0.4987  0.2169 -0.3224
  146OSM    HNF16088   3.091   5.986   7.745  1.1818  1.0746 -0.7863
  146OSM    C2S16089   3.137   5.889   7.920  0.5947 -0.3142 -0.4303
  146OSM    H2S16090   3.198   5.797   7.927  0.4403 -0.4091 -0.3041
  146OSM    C3S16091   2.991   5.843   7.943 -0.3080 -0.4739  0.2096
  146OSM    H3S16092   2.935   5.936   7.966  0.1618  0.1057 -0.9105
  146OSM     O316093   2.973   5.757   8.053  0.1906 -0.2101 -0.6271
  146OSM    HO316094   3.057   5.772   8.098  0.9501 -0.3433 -1.9650
  146OSM    C4S16095   2.930   5.779   7.833  0.5256 -0.6323  0.4199
  146OSM    H4S16096   2.975   5.684   7.802  0.4314  0.3270 -3.1701
  146OSM    C5S16097   2.816   5.822   7.770  0.6501  0.4081 -0.3567
  146OSM    H5S16098   2.763   5.909   7.812  0.3996  0.5301 -0.9169
  146OSM    C6S16099   2.765   5.772   7.637 -0.1736 -0.5148  0.2027
  146OSM    H6S16100   2.751   5.663   7.646 -0.3899 -0.6857 -1.7189
  146OSM    H6T16101   2.840   5.766   7.555 -0.8593 -2.4294 -0.3395
  146OSM    C7S16102   2.634   5.834   7.586 -0.7944  0.1998 -0.2698
  146OSM    H7S16103   2.659   5.934   7.544  1.8601 -0.2754 -0.0134
  146OSM    H7T16104   2.560   5.850   7.668 -0.3443  2.7658 -0.2573
  146OSM    C8S16105   2.574   5.762   7.466 -0.4195  1.0109 -0.5822
  146OSM    H8S16106   2.528   5.664   7.494 -1.7881  1.5739 -0.7770
  146OSM    H8T16107   2.664   5.748   7.402 -0.1052  1.2744 -0.1980
  146OSM    C9S16108   2.469   5.838   7.378  0.0598 -0.3649 -0.4568
  146OSM    H9S16109   2.500   5.944   7.372 -1.0144 -0.1087 -2.5369
  146OSM    H9T16110   2.372   5.825   7.430  0.4159 -0.6054  0.1489
  146OSM   C10S16111   2.461   5.771   7.236 -0.1568  0.0399 -0.1966
  146OSM   H10S16112   2.562   5.746   7.196  0.1827  1.6605 -0.4402
  146OSM   H10T16113   2.411   5.848   7.173  0.5773  0.7770  0.0874
  146OSM   C11S16114   2.383   5.637   7.231  0.1214 -0.3017  0.1789
  146OSM   H11S16115   2.279   5.654   7.197  0.7969 -1.7201 -2.9002
  146OSM   H11T16116   2.380   5.602   7.337 -0.8163 -1.0413 -0.0714
  146OSM   C12S16117   2.443   5.522   7.150  0.6749 -0.2415  0.2931
  146OSM   H12S16118   2.385   5.428   7.143  1.5238 -0.6590 -2.4962
  146OSM   H12T16119   2.539   5.499   7.202  1.0324 -1.2330 -0.7495
  146OSM   C13S16120   2.462   5.570   7.007  1.3669  0.2876  0.1827
  146OSM   H13S16121   2.524   5.662   7.005  0.8170  0.6578  0.1333
  146OSM   H13T16122   2.362   5.586   6.961  0.3014 -0.3469  2.1874
  146OSM   C14S16123   2.544   5.486   6.917  0.2861  0.2748  0.3800
  146OSM   H14S16124   2.492   5.388   6.914 -0.4024  0.6388  0.2675
  146OSM   H14T16125   2.641   5.475   6.971 -1.2033  0.7078  3.3888
  146OSM   C15S16126   2.550   5.547   6.775 -1.0158  0.0374 -0.8695
  146OSM   H15S16127   2.615   5.637   6.771  2.2743 -2.1954 -1.1837
  146OSM   H15T16128   2.453   5.588   6.739  0.4384  2.6183 -2.1385
  146OSM   C16S16129   2.605   5.445   6.669 -0.5228 -0.1855  0.0985
  146OSM   H16S16130   2.533   5.360   6.664  0.3054 -0.8447 -0.9507
  146OSM   H16T16131   2.706   5.405   6.690 -0.0136  0.9681 -0.0878
  146OSM   C17S16132   2.618   5.511   6.529  0.4394  0.0553 -1.0300
  146OSM   H17S16133   2.703   5.581   6.520  0.9893 -0.3895  0.3987
  146OSM   H17T16134   2.522   5.564   6.511 -0.5478 -1.4938 -0.5709
  146OSM   C18S16135   2.628   5.404   6.424  0.3251  0.6770 -1.2594
  146OSM   H18S16136   2.537   5.341   6.420 -0.2106  1.3805 -0.4115
  146OSM   H18T16137   2.716   5.338   6.443 -0.1988  0.5678  1.1317
  146OSM   H18U16138   2.650   5.447   6.324  0.0742  2.3443 -0.6284
  146OSM    C1F16139   3.293   5.958   7.746 -0.5579  0.0637  0.1880
  146OSM     OF16140   3.392   5.906   7.801  0.1270 -0.0659 -0.1400
  146OSM    C2F16141   3.320   6.036   7.622 -0.2270 -0.9582 -0.3632
  146OSM    H2F16142   3.308   6.145   7.644 -0.5536 -1.0219 -0.2106
  146OSM    H2G16143   3.246   6.016   7.542  1.9144  0.4853 -2.8648
  146OSM    C3F16144   3.463   6.023   7.565  0.5777 -0.1490  0.0020
  146OSM    H3F16145   3.537   5.999   7.645  1.1620  1.0976 -0.1304
  146OSM    H3G16146   3.497   6.115   7.512  0.3259  1.2414  2.1363
  146OSM    C4F16147   3.476   5.899   7.471  0.5579  0.1932 -0.2087
  146OSM    H4F16148   3.383   5.900   7.411 -0.9533  1.0288  2.0031
  146OSM    H4G16149   3.460   5.815   7.542 -0.0002  0.4683 -0.0069
  146OSM    C5F16150   3.607   5.900   7.389  0.1320 -0.1674 -0.2107
  146OSM    H5F16151   3.650   5.798   7.387  0.5123 -0.0277  0.4539
  146OSM    H5G16152   3.688   5.968   7.424  0.0163 -0.8900  1.5630
  146OSM    C6F16153   3.580   5.950   7.248  1.0203  0.3621  0.8411
  146OSM    H6F16154   3.677   5.934   7.196  0.3177  0.5103 -0.5509
  146OSM    H6G16155   3.546   6.055   7.242 -1.4957 -0.4274  0.2759
  146OSM    C7F16156   3.476   5.871   7.171 -0.0419 -0.0551 -0.3188
  146OSM    H7F16157   3.369   5.895   7.190  0.3642 -0.3202  2.7913
  146OSM    H7G16158   3.489   5.766   7.206  4.4651  0.6192  0.7442
  146OSM    C8F16159   3.499   5.866   7.019 -0.4827 -0.4185  0.1865
  146OSM    H8F16160   3.578   5.791   6.995  0.0606  0.2349 -0.0930
  146OSM    H8G16161   3.552   5.960   6.992 -0.8517 -1.0290 -3.0884
  146OSM    C9F16162   3.384   5.846   6.918  0.7643  0.0157 -0.3313
  146OSM    H9F16163   3.281   5.845   6.958  1.0980 -0.8124  0.5364
  146OSM   C10F16164   3.403   5.805   6.789 -0.6411  0.3839  0.4426
  146OSM   H10F16165   3.322   5.826   6.718 -0.6438  1.0718  0.6440
  146OSM   C11F16166   3.534   5.784   6.728 -0.3849 -0.3642  0.1082
  146OSM   H11F16167   3.528   5.681   6.686 -0.7757 -0.7497  1.0874
  146OSM   H11G16168   3.618   5.792   6.800  0.1337 -2.2055 -0.2466
  146OSM   C12F16169   3.585   5.878   6.608 -0.7044  0.5704  0.1740
  146OSM   H12F16170   3.682   5.833   6.580  0.3572  1.0146  2.8094
  146OSM   H12G16171   3.620   5.977   6.645  2.0805 -0.1315 -0.3665
  146OSM   C13F16172   3.481   5.886   6.488  0.3889 -0.3195  0.1883
  146OSM   H13F16173   3.387   5.936   6.520 -0.3164 -2.6878  2.1668
  146OSM   H13G16174   3.456   5.780   6.467 -0.0604  0.1379 -1.7740
  146OSM   C14F16175   3.540   5.945   6.359 -0.5754 -0.1628 -0.5792
  146OSM   H14F16176   3.649   5.927   6.365 -0.5130  0.5965  2.1573
  146OSM   H14G16177   3.509   5.885   6.271  2.2149 -1.5193 -0.7397
  146OSM   C15F16178   3.503   6.093   6.332  0.6317 -0.1797 -0.2451
  146OSM   H15F16179   3.514   6.162   6.419 -0.9202 -1.1958  0.8094
  146OSM   H15G16180   3.398   6.102   6.296  0.8061 -0.6045 -0.8848
  146OSM   C16F16181   3.598   6.144   6.220 -0.1828  0.3557 -0.5809
  146OSM   H16F16182   3.534   6.222   6.173  1.4449  2.2292  0.2013
  146OSM   H16G16183   3.617   6.068   6.142  1.3656  0.4403 -0.3149
  146OSM   C17F16184   3.736   6.206   6.259 -0.1598 -0.5874  0.3785
  146OSM   H17F16185   3.791   6.111   6.277  0.2858 -0.4223 -0.0708
  146OSM   H17G16186   3.728   6.258   6.357  1.2341 -0.4476  0.4442
  146OSM   C18F16187   3.806   6.295   6.162  0.6777 -0.0011 -0.3280
  146OSM   H18F16188   3.844   6.243   6.071  0.2549 -0.0343 -0.4884
  146OSM   H18G16189   3.898   6.343   6.203 -0.9601  1.0195  2.3911
  146OSM   H18H16190   3.741   6.383   6.144  2.0994  0.9697 -0.9590
  147OSM      N16191   5.354   6.098   3.129  0.0662 -0.3678  0.3218
  147OSM    C1516192   5.370   6.029   2.996  0.2548 -0.2826 -0.5343
  147OSM   H15A16193   5.334   5.928   3.001  1.7189 -0.7925  0.2823
  147OSM   H15B16194   5.469   6.016   2.956 -0.9668 -3.2828 -3.0043
  147OSM   H15C16195   5.309   6.079   2.922 -1.6073  0.2884  1.2931
  147OSM    C1416196   5.402   6.240   3.111 -0.4732  0.2459  0.0748
  147OSM   H14A16197   5.372   6.296   3.199 -0.6658 -1.4690  1.1548
  147OSM   H14B16198   5.371   6.296   3.025  1.9685 -1.4487 -2.0582
  147OSM   H14C16199   5.510   6.238   3.108 -0.4424  0.5005  0.7633
  147OSM    C1316200   5.212   6.118   3.155 -0.1998  0.7185 -0.1750
  147OSM   H13A16201   5.193   6.169   3.248 -2.5065 -1.7770  0.8582
  147OSM   H13B16202   5.158   6.026   3.175  0.5071  0.0963 -1.0364
  147OSM   H13C16203   5.165   6.175   3.077 -1.9322  2.3345  1.9435
  147OSM    C1216204   5.420   6.026   3.241  0.5765 -0.1113 -0.0991
  147OSM   H12A16205   5.377   5.929   3.261  0.9906 -0.3589 -0.3999
  147OSM   H12B16206   5.409   6.077   3.335 -0.8877 -0.7342  0.1004
  147OSM    C1116207   5.569   6.010   3.226 -0.1345 -0.4150 -0.7037
  147OSM   H11A16208   5.620   6.109   3.227 -1.5328  0.3918 -2.3487
  147OSM   H11B16209   5.609   5.975   3.129 -0.7624 -1.3891 -0.6193
  147OSM      P16210   5.734   5.952   3.409  0.2151  0.1733 -0.2961
  147OSM    O1316211   5.761   5.833   3.491  0.0272 -0.1105  0.2832
  147OSM    O1416212   5.848   5.999   3.329  0.2599 -0.2345  0.1716
  147OSM    O1116213   5.674   6.062   3.494 -0.8100 -0.2476 -0.3001
  147OSM    O1216214   5.609   5.914   3.316 -0.2837  0.0284  0.3032
  147OSM    C1S16215   5.547   6.093   3.548 -0.1344  0.6994 -0.3249
  147OSM    H1S16216   5.471   6.032   3.494  1.9233 -1.0594 -1.3890
  147OSM    H1T16217   5.526   6.202   3.557 -1.5194  0.3993  0.3561
  147OSM     NF16218   5.410   6.022   3.757  0.0405  0.0637  0.0199
  147OSM    HNF16219   5.373   6.102   3.804 -0.6585 -0.1281 -0.1887
  147OSM    C2S16220   5.545   6.042   3.701 -0.2945 -0.2967 -0.4262
  147OSM    H2S16221   5.588   5.940   3.708 -0.3547 -0.2588  0.8384
  147OSM    C3S16222   5.641   6.131   3.790 -0.8641  0.5267  1.1668
  147OSM    H3S16223   5.601   6.233   3.805  1.4448  1.3643  2.1455
  147OSM     O316224   5.779   6.131   3.744  0.0168  0.1572 -0.1151
  147OSM    HO316225   5.760   6.093   3.658 -0.7045 -0.2167  0.1924
  147OSM    C4S16226   5.663   6.079   3.924 -0.1786  0.6881 -0.0457
  147OSM    H4S16227   5.724   5.989   3.936 -1.0079 -0.2845 -2.4746
  147OSM    C5S16228   5.621   6.138   4.035 -0.3009 -0.3787 -0.5985
  147OSM    H5S16229   5.568   6.234   4.029  2.0777  1.0507  0.1297
  147OSM    C6S16230   5.639   6.079   4.173 -0.0475 -0.1258  0.1976
  147OSM    H6S16231   5.638   6.168   4.238 -2.0273 -0.9178  1.3613
  147OSM    H6T16232   5.742   6.038   4.182  0.9806  2.6469  2.2546
  147OSM    C7S16233   5.531   5.980   4.226 -0.0931  0.4922 -1.2911
  147OSM    H7S16234   5.531   5.883   4.173  1.2129  0.0980 -0.6027
  147OSM    H7T16235   5.437   6.038   4.209  0.2319  1.2083 -0.7151
  147OSM    C8S16236   5.533   5.951   4.379  0.3238  0.5103  0.5285
  147OSM    H8S16237   5.567   6.045   4.426 -0.6548  0.5815  1.1125
  147OSM    H8T16238   5.612   5.876   4.403  1.3110  1.6051  0.7767
  147OSM    C9S16239   5.396   5.911   4.437 -0.5295  0.1342 -0.1126
  147OSM    H9S16240   5.380   5.805   4.409  1.0510 -0.7545  2.0874
  147OSM    H9T16241   5.311   5.974   4.402 -0.3796  0.1415 -0.4651
  147OSM   C10S16242   5.385   5.925   4.592 -0.6417 -0.0392  0.4500
  147OSM   H10S16243   5.479   5.892   4.640 -0.5493 -1.5490 -0.7028
  147OSM   H10T16244   5.315   5.850   4.634 -1.1376  0.9620  1.4462
  147OSM   C11S16245   5.334   6.062   4.626 -0.2241 -0.4738 -0.1355
  147OSM   H11S16246   5.228   6.066   4.594 -0.0461  1.2953 -0.5660
  147OSM   H11T16247   5.387   6.140   4.567 -2.3540 -0.1277 -1.6862
  147OSM   C12S16248   5.360   6.100   4.773 -0.2067  0.0800 -0.4898
  147OSM   H12S16249   5.284   6.179   4.792  0.5876  0.8344 -0.4141
  147OSM   H12T16250   5.461   6.141   4.790  0.9780 -2.1220 -1.6670
  147OSM   C13S16251   5.321   5.994   4.877 -0.1202  0.0339 -0.5354
  147OSM   H13S16252   5.395   5.912   4.887 -2.0048 -1.7788 -0.6065
  147OSM   H13T16253   5.225   5.947   4.845 -2.2556  2.0683  2.3314
  147OSM   C14S16254   5.297   6.055   5.017  0.1082 -0.5970 -0.0814
  147OSM   H14S16255   5.206   6.119   5.012 -0.4569 -1.3320  0.5881
  147OSM   H14T16256   5.383   6.120   5.040  0.1045 -0.5491 -0.2021
  147OSM   C15S16257   5.279   5.945   5.115  0.2772  0.2115 -0.1066
  147OSM   H15S16258   5.375   5.889   5.120  0.7741  1.0121 -0.4115
  147OSM   H15T16259   5.202   5.871   5.086  0.2163 -0.6410  2.0010
  147OSM   C16S16260   5.235   5.991   5.261  0.0937 -0.9159 -0.3791
  147OSM   H16S16261   5.227   5.913   5.340 -0.9580 -1.4821 -1.0199
  147OSM   H16T16262   5.139   6.043   5.243  0.7430 -0.2478 -2.1939
  147OSM   C17S16263   5.318   6.102   5.322  0.0798 -0.5011  0.6082
  147OSM   H17S16264   5.270   6.144   5.414 -1.9699  1.6140 -1.2936
  147OSM   H17T16265   5.347   6.190   5.261  3.8126 -2.1923 -0.3605
  147OSM   C18S16266   5.461   6.065   5.360 -0.4931 -0.3151  0.0928
  147OSM   H18S16267   5.512   6.156   5.398  1.2625 -0.0129 -2.6718
  147OSM   H18T16268   5.518   6.030   5.271 -1.6792 -0.3610 -0.6752
  147OSM   H18U16269   5.474   5.989   5.439  0.4132  2.3571  2.6849
  147OSM    C1F16270   5.330   5.926   3.712 -0.0267 -0.0836 -0.7420
  147OSM     OF16271   5.367   5.855   3.618  0.5769  0.0066 -0.5792
  147OSM    C2F16272   5.191   5.919   3.771 -1.2342  0.4123  0.6254
  147OSM    H2F16273   5.131   5.877   3.688  0.3802 -0.6349 -0.0367
  147OSM    H2G16274   5.150   6.020   3.796 -0.9867  0.1139  2.3643
  147OSM    C3F16275   5.176   5.821   3.886  0.6734  0.3333 -0.2071
  147OSM    H3F16276   5.183   5.713   3.863 -2.4026  0.1140 -0.6190
  147OSM    H3G16277   5.070   5.820   3.919  0.8206 -1.1173  0.2780
  147OSM    C4F16278   5.263   5.857   4.007  0.3388  0.0498  0.2065
  147OSM    H4F16279   5.277   5.967   4.009  1.8111 -0.1295  0.8150
  147OSM    H4G16280   5.364   5.811   4.005 -0.2873 -1.3576 -0.8520
  147OSM    C5F16281   5.195   5.819   4.140 -0.3856 -0.8756  0.1861
  147OSM    H5F16282   5.086   5.840   4.140  0.1595  2.6286 -0.3324
  147OSM    H5G16283   5.222   5.902   4.209 -2.3546 -0.1941  0.1921
  147OSM    C6F16284   5.224   5.678   4.186  0.8061  0.0642  0.3089
  147OSM    H6F16285   5.329   5.646   4.204  0.2428 -2.5965 -0.7703
  147OSM    H6G16286   5.185   5.615   4.104  0.1611  0.7727  0.0545
  147OSM    C7F16287   5.139   5.636   4.308 -0.4981 -0.1385  0.6196
  147OSM    H7F16288   5.038   5.680   4.295 -1.3592 -1.8503  1.1351
  147OSM    H7G16289   5.193   5.683   4.393  3.1141 -1.2526 -0.8714
  147OSM    C8F16290   5.115   5.486   4.323 -0.6465 -0.3162  0.5122
  147OSM    H8F16291   5.048   5.481   4.234 -1.3385  0.2271  0.9837
  147OSM    H8G16292   5.062   5.476   4.420  0.8868 -0.1877  1.3830
  147OSM    C9F16293   5.245   5.410   4.319  0.1078  0.3672 -0.8416
  147OSM    H9F16294   5.259   5.356   4.225  2.2471  2.8976 -2.1217
  147OSM   C10F16295   5.335   5.413   4.419  0.1402  0.2757 -0.5949
  147OSM   H10F16296   5.425   5.349   4.418  0.5430  0.8089  0.2401
  147OSM   C11F16297   5.318   5.483   4.553  0.6034  0.7895 -0.1417
  147OSM   H11F16298   5.218   5.533   4.559 -1.2454 -2.3697 -1.9409
  147OSM   H11G16299   5.397   5.559   4.571  0.2250  1.1063  0.2152
  147OSM   C12F16300   5.298   5.376   4.658  1.0133  0.2804 -0.6700
  147OSM   H12F16301   5.395   5.329   4.685  0.2553 -1.1912 -0.4484
  147OSM   H12G16302   5.215   5.307   4.633 -0.2380  1.3002  0.4817
  147OSM   C13F16303   5.263   5.443   4.794  0.3504  0.4723 -0.2714
  147OSM   H13F16304   5.246   5.358   4.864  2.7029  0.5306  0.4641
  147OSM   H13G16305   5.183   5.518   4.780 -0.2753 -0.3113 -1.0535
  147OSM   C14F16306   5.386   5.524   4.849  0.0912  0.4609 -0.0372
  147OSM   H14F16307   5.373   5.623   4.800 -0.8407 -0.9367 -2.8550
  147OSM   H14G16308   5.485   5.478   4.827 -1.2145 -2.4590 -0.3203
  147OSM   C15F16309   5.369   5.544   4.995  0.7586 -0.0752 -0.3930
  147OSM   H15F16310   5.264   5.573   5.013  0.1627 -0.3294 -3.0363
  147OSM   H15G16311   5.431   5.630   5.030  0.7195 -1.0447  2.2772
  147OSM   C16F16312   5.397   5.430   5.088 -0.5332 -0.3335  0.3501
  147OSM   H16F16313   5.508   5.424   5.097 -0.0124 -2.1024 -4.1532
  147OSM   H16G16314   5.368   5.334   5.038  2.1393 -1.9658  1.6965
  147OSM   C17F16315   5.328   5.418   5.230 -0.4851  0.1244 -0.1281
  147OSM   H17F16316   5.359   5.325   5.283 -1.8755 -0.5274 -0.4117
  147OSM   H17G16317   5.221   5.402   5.204 -0.7273 -0.9469  1.3541
  147OSM   C18F16318   5.351   5.540   5.321  0.1255 -0.3863  0.0412
  147OSM   H18F16319   5.329   5.629   5.258 -2.1204 -0.9504 -0.0553
  147OSM   H18G16320   5.461   5.541   5.339  0.6516 -0.2891 -2.7887
  147OSM   H18H16321   5.282   5.534   5.409 -0.8527 -0.4971 -0.7191
  148OSM      N16322   4.814   4.770   3.302  0.0618 -0.1294 -0.3783
  148OSM    C1516323   4.760   4.861   3.191 -0.1983  0.3510  0.3556
  148OSM   H15A16324   4.830   4.943   3.191  0.7526 -0.3945  2.7371
  148OSM   H15B16325   4.664   4.906   3.211 -0.2859  0.0535  0.6043
  148OSM   H15C16326   4.764   4.816   3.092  2.1442 -1.3311  1.1329
  148OSM    C1416327   4.963   4.764   3.293 -0.2929 -0.4174 -0.6488
  148OSM   H14A16328   5.015   4.846   3.340  0.4845 -1.6345  0.7263
  148OSM   H14B16329   4.997   4.768   3.191  1.8158  1.3227  0.0415
  148OSM   H14C16330   4.999   4.669   3.331 -0.7791  0.0300  1.0005
  148OSM    C1316331   4.782   4.849   3.430  0.7084 -0.3733 -0.3072
  148OSM   H13A16332   4.677   4.868   3.444  0.5908  0.4854 -2.0706
  148OSM   H13B16333   4.828   4.947   3.426 -0.0787  0.0475  0.6267
  148OSM   H13C16334   4.812   4.791   3.516 -1.5844  1.4785  1.8852
  148OSM    C1216335   4.747   4.635   3.315 -0.3491  0.7452 -0.1937
  148OSM   H12A16336   4.769   4.578   3.226 -0.0815  0.0994  0.2802
  148OSM   H12B16337   4.640   4.651   3.307 -0.2805  1.5855  0.4239
  148OSM    C1116338   4.783   4.553   3.441 -0.0888 -0.5643 -0.0816
  148OSM   H11A16339   4.713   4.468   3.451 -0.1880 -0.4937 -0.1792
  148OSM   H11B16340   4.769   4.603   3.539 -0.0402 -1.8675  0.6163
  148OSM      P16341   4.955   4.360   3.364 -0.0698 -0.2429  0.1093
  148OSM    O1316342   4.868   4.325   3.248 -0.8738 -0.9988 -0.8360
  148OSM    O1416343   5.100   4.358   3.345 -0.0047  0.4760 -0.3293
  148OSM    O1116344   4.919   4.266   3.488 -0.3674 -0.1095 -1.0192
  148OSM    O1216345   4.914   4.504   3.421 -0.5054  0.3728  0.0855
  148OSM    C1S16346   4.967   4.317   3.620 -0.2874 -0.5424 -0.4596
  148OSM    H1S16347   4.918   4.411   3.652  1.2321 -0.4676  1.8449
  148OSM    H1T16348   5.077   4.333   3.621 -0.4660  0.7884 -0.4382
  148OSM     NF16349   4.977   4.288   3.867  0.1955  0.1725 -0.3443
  148OSM    HNF16350   5.059   4.268   3.921 -0.7012  0.1557  1.0476
  148OSM    C2S16351   4.957   4.214   3.740 -0.3422  0.6858 -0.6103
  148OSM    H2S16352   4.854   4.172   3.737 -0.3853  0.4804  1.6139
  148OSM    C3S16353   5.052   4.099   3.709  0.3388  0.9200  0.1224
  148OSM    H3S16354   5.158   4.131   3.711  0.3512  0.8675  0.3375
  148OSM     O316355   5.043   4.043   3.581 -0.2262  0.2492 -0.3175
  148OSM    HO316356   4.986   4.100   3.529 -1.1967 -1.5512 -1.3097
  148OSM    C4S16357   5.039   3.979   3.800  0.3075 -0.4453 -0.1299
  148OSM    H4S16358   4.963   3.908   3.765  2.5508 -2.4088 -1.2726
  148OSM    C5S16359   5.116   3.944   3.902 -0.3008 -0.2312 -0.1364
  148OSM    H5S16360   5.202   4.004   3.937 -0.6482 -0.9252  2.0005
  148OSM    C6S16361   5.108   3.808   3.963  0.9554 -0.4341 -0.2857
  148OSM    H6S16362   5.095   3.840   4.068 -0.8665  2.8089 -1.3859
  148OSM    H6T16363   5.205   3.760   3.935  0.3745 -0.1497 -3.0646
  148OSM    C7S16364   4.985   3.721   3.933  0.3442  0.3527  0.3752
  148OSM    H7S16365   4.964   3.706   3.825 -0.4478 -1.8411  0.7984
  148OSM    H7T16366   4.893   3.768   3.973  1.3290  1.5409  1.3513
  148OSM    C8S16367   4.993   3.578   3.987 -0.0815  0.3333  0.2278
  148OSM    H8S16368   5.062   3.514   3.928  0.1882  0.9582 -0.1363
  148OSM    H8T16369   4.893   3.532   3.972  0.5643 -0.3765 -2.4474
  148OSM    C9S16370   5.027   3.567   4.138  0.3498  0.5376 -0.2669
  148OSM    H9S16371   4.968   3.646   4.190  2.2228  1.6728  0.2277
  148OSM    H9T16372   5.128   3.613   4.132  0.3791  0.5058 -0.0298
  148OSM   C10S16373   5.004   3.430   4.201 -0.1879  0.4699 -0.1904
  148OSM   H10S16374   5.027   3.435   4.310 -1.6641 -1.2486  0.2520
  148OSM   H10T16375   5.087   3.371   4.157 -0.5626  0.6235 -1.1306
  148OSM   C11S16376   4.857   3.372   4.203 -0.2312 -0.5142 -0.1143
  148OSM   H11S16377   4.851   3.289   4.277  0.9349  0.3894  1.0333
  148OSM   H11T16378   4.828   3.348   4.098 -4.0145  1.9478  0.1510
  148OSM   C12S16379   4.749   3.479   4.236  0.0324 -0.4590 -0.0424
  148OSM   H12S16380   4.651   3.428   4.231 -1.2115  1.7168  0.8391
  148OSM   H12T16381   4.756   3.556   4.156  0.4499 -1.6928 -1.2367
  148OSM   C13S16382   4.763   3.537   4.378  0.4424  0.6688  0.4977
  148OSM   H13S16383   4.703   3.630   4.389 -2.5126 -0.8215 -1.7323
  148OSM   H13T16384   4.869   3.568   4.394  0.4867  0.3537  0.8400
  148OSM   C14S16385   4.729   3.440   4.497 -0.7543 -1.3614  0.1603
  148OSM   H14S16386   4.742   3.335   4.461  3.8571 -0.3495 -1.9583
  148OSM   H14T16387   4.620   3.455   4.512 -1.1712 -1.6819 -2.1306
  148OSM   C15S16388   4.822   3.479   4.616  0.3006  0.8207 -0.3437
  148OSM   H15S16389   4.801   3.583   4.647 -0.7178  0.5697 -0.1641
  148OSM   H15T16390   4.927   3.455   4.588  0.1154 -1.4669  0.7112
  148OSM   C16S16391   4.800   3.393   4.743  0.3268 -0.2699 -0.2525
  148OSM   H16S16392   4.824   3.286   4.721  1.7851 -0.5263  2.1900
  148OSM   H16T16393   4.692   3.391   4.767  0.4059 -1.9403  0.1250
  148OSM   C17S16394   4.886   3.444   4.863  0.1183 -0.2386 -0.1016
  148OSM   H17S16395   4.842   3.545   4.875 -1.2050 -0.5316 -1.9616
  148OSM   H17T16396   4.987   3.462   4.819  0.0313 -0.0970 -0.2440
  148OSM   C18S16397   4.880   3.365   4.994 -0.6349  0.5739 -0.6010
  148OSM   H18S16398   4.938   3.423   5.069 -1.4614 -0.1158  0.6036
  148OSM   H18T16399   4.924   3.263   4.987  0.2319  0.9355 -0.5851
  148OSM   H18U16400   4.780   3.345   5.036  0.6089 -2.3352  1.2579
  148OSM    C1F16401   4.885   4.365   3.923 -0.2398  0.3699 -0.1815
  148OSM     OF16402   4.779   4.378   3.869  0.0693 -0.1051 -0.1644
  148OSM    C2F16403   4.911   4.429   4.050 -0.4259  0.0637  0.4233
  148OSM    H2F16404   4.942   4.535   4.034 -2.0453  0.3371 -1.2229
  148OSM    H2G16405   4.994   4.382   4.108 -0.1243  0.3292  0.2130
  148OSM    C3F16406   4.788   4.442   4.143 -0.1905 -0.5721 -0.6433
  148OSM    H3F16407   4.727   4.352   4.169 -0.9292  0.0616 -0.1531
  148OSM    H3G16408   4.719   4.521   4.109 -1.8937 -1.6479  0.1552
  148OSM    C4F16409   4.830   4.516   4.274  0.3919  0.2083 -0.5194
  148OSM    H4F16410   4.747   4.555   4.336  1.8835  0.7265  1.2239
  148OSM    H4G16411   4.876   4.615   4.253 -1.6105  1.1392 -0.8135
  148OSM    C5F16412   4.922   4.443   4.368 -0.0005 -0.4488 -0.5494
  148OSM    H5F16413   5.012   4.418   4.308 -1.6732  1.3388 -4.1599
  148OSM    H5G16414   4.863   4.349   4.380  1.9217 -1.8430 -1.4477
  148OSM    C6F16415   4.948   4.523   4.495  0.0999  0.3507 -0.0073
  148OSM    H6F16416   4.846   4.532   4.539  0.0486 -1.7296  0.3799
  148OSM    H6G16417   4.988   4.621   4.461 -0.2114  0.0034 -1.4591
  148OSM    C7F16418   5.040   4.443   4.597 -0.5725 -0.7838  0.4094
  148OSM    H7F16419   5.139   4.441   4.546 -1.4168 -0.5428 -1.3153
  148OSM    H7G16420   5.020   4.335   4.614  0.1402 -0.9066  0.5114
  148OSM    C8F16421   5.036   4.517   4.733 -0.0286  0.5388  0.2389
  148OSM    H8F16422   4.937   4.498   4.780 -1.2053 -1.0770 -2.6620
  148OSM    H8G16423   5.042   4.628   4.727 -2.6532  0.8106  1.3206
  148OSM    C9F16424   5.154   4.479   4.825  0.6103  0.7271 -0.1650
  148OSM    H9F16425   5.246   4.495   4.767 -0.1422  0.7987 -1.3805
  148OSM   C10F16426   5.158   4.447   4.951 -0.0191 -0.7163 -0.4692
  148OSM   H10F16427   5.255   4.432   5.000 -1.1761  0.5681  2.4644
  148OSM   C11F16428   5.033   4.441   5.041  0.2845  0.2087 -0.1130
  148OSM   H11F16429   5.038   4.346   5.099 -1.4976 -0.3653 -0.8454
  148OSM   H11G16430   4.946   4.434   4.973  0.8401 -1.4470 -0.7123
  148OSM   C12F16431   5.003   4.549   5.140  0.0925  0.2564 -0.0059
  148OSM   H12F16432   4.901   4.534   5.180  0.1216 -3.0293 -0.9176
  148OSM   H12G16433   5.012   4.646   5.086  0.7971  0.5592  0.6398
  148OSM   C13F16434   5.101   4.549   5.257  0.1699  0.5632 -0.3591
  148OSM   H13F16435   5.064   4.622   5.332 -1.4074  0.3447 -0.8890
  148OSM   H13G16436   5.198   4.581   5.213  0.0856  0.0182 -0.9569
  148OSM   C14F16437   5.139   4.416   5.331  0.5866 -0.6525  0.1954
  148OSM   H14F16438   5.192   4.349   5.261  1.2416 -0.3963  0.4415
  148OSM   H14G16439   5.044   4.369   5.366  0.0845  0.2842  0.1440
  148OSM   C15F16440   5.234   4.449   5.447 -0.7145  0.2308  0.2176
  148OSM   H15F16441   5.181   4.509   5.524 -0.3562  0.3722  0.3570
  148OSM   H15G16442   5.329   4.498   5.416 -0.2596  0.2793  1.6215
  148OSM   C16F16443   5.270   4.318   5.524  0.0694  0.4145 -0.6875
  148OSM   H16F16444   5.369   4.332   5.573 -0.9060 -0.5818  1.7173
  148OSM   H16G16445   5.289   4.247   5.441 -1.3939  0.8797 -1.4527
  148OSM   C17F16446   5.165   4.285   5.627 -0.0924  0.0092 -0.7779
  148OSM   H17F16447   5.064   4.291   5.581 -0.7265 -0.5867  0.4867
  148OSM   H17G16448   5.172   4.355   5.713  4.0004 -0.6823 -0.3356
  148OSM   C18F16449   5.170   4.150   5.691 -0.1080 -0.2425 -0.9553
  148OSM   H18F16450   5.175   4.075   5.609 -2.5169 -1.5090 -0.0193
  148OSM   H18G16451   5.070   4.131   5.734 -0.3084  0.0843 -1.2696
  148OSM   H18H16452   5.246   4.127   5.768 -0.5428  0.7644 -0.1947
  149OSM      N16453   6.637   4.226   3.310 -0.3830 -0.3454 -0.3320
  149OSM    C1516454   6.669   4.367   3.256  0.5619 -0.5881 -0.6975
  149OSM   H15A16455   6.698   4.370   3.152 -1.1102  0.4565 -1.1809
  149OSM   H15B16456   6.750   4.407   3.315 -0.0290  1.1385 -1.0122
  149OSM   H15C16457   6.588   4.434   3.282  1.0829 -0.8540  1.8596
  149OSM    C1416458   6.510   4.178   3.264 -0.1292  0.0555  0.2673
  149OSM   H14A16459   6.506   4.152   3.160  0.6228  2.2034 -0.3422
  149OSM   H14B16460   6.440   4.260   3.256  0.7560  0.6534 -1.7409
  149OSM   H14C16461   6.460   4.103   3.324 -2.9230  0.0620 -1.8371
  149OSM    C1316462   6.743   4.127   3.274 -0.2056  0.0010  0.5290
  149OSM   H13A16463   6.723   4.031   3.320  2.6592 -0.8670  0.1035
  149OSM   H13B16464   6.841   4.162   3.302 -0.2039  3.0677 -2.5996
  149OSM   H13C16465   6.735   4.091   3.173  1.2662 -0.5340  0.5809
  149OSM    C1216466   6.629   4.228   3.463 -0.2072  0.6730 -0.3176
  149OSM   H12A16467   6.540   4.282   3.491 -1.7614 -0.9538 -1.8855
  149OSM   H12B16468   6.709   4.289   3.501  0.0997  1.2669 -1.8595
  149OSM    C1116469   6.643   4.088   3.534  0.6580 -0.1046  0.4019
  149OSM   H11A16470   6.631   4.111   3.642 -2.9997 -0.1452  0.1500
  149OSM   H11B16471   6.744   4.048   3.510  0.0102 -0.5502 -1.8730
  149OSM      P16472   6.575   3.847   3.471 -0.1081 -0.0940 -0.0731
  149OSM    O1316473   6.495   3.809   3.349  0.0863 -0.4719  0.6215
  149OSM    O1416474   6.720   3.825   3.454 -0.1900 -0.6246 -0.2319
  149OSM    O1116475   6.523   3.755   3.595  0.2315 -0.5705 -0.3108
  149OSM    O1216476   6.536   4.003   3.497 -0.6659 -0.0762  0.4716
  149OSM    C1S16477   6.494   3.817   3.724  0.2042 -0.2770  0.0148
  149OSM    H1S16478   6.387   3.844   3.719  0.8508  2.3269 -1.7321
  149OSM    H1T16479   6.548   3.914   3.726 -0.4612  0.2323 -2.9966
  149OSM     NF16480   6.437   3.763   3.956  0.3506 -0.1019  0.3961
  149OSM    HNF16481   6.490   3.808   4.028  0.2514 -1.7330  1.5288
  149OSM    C2S16482   6.514   3.718   3.842 -0.2243 -1.2378 -1.3253
  149OSM    H2S16483   6.468   3.622   3.810 -0.4858 -1.2014 -1.0503
  149OSM    C3S16484   6.668   3.704   3.867  0.0432  0.4940 -0.0154
  149OSM    H3S16485   6.698   3.801   3.914  0.0579  0.7272 -0.4984
  149OSM     O316486   6.747   3.714   3.746 -0.0529 -0.0679 -0.9202
  149OSM    HO316487   6.689   3.728   3.670  0.4492 -0.5901 -1.4118
  149OSM    C4S16488   6.714   3.587   3.952 -0.3888 -0.1157 -0.3608
  149OSM    H4S16489   6.695   3.488   3.908  0.0219 -0.2572 -0.2243
  149OSM    C5S16490   6.778   3.600   4.074  0.5385  1.1096 -0.1600
  149OSM    H5S16491   6.801   3.702   4.110  0.2161  1.9636 -2.2139
  149OSM    C6S16492   6.812   3.482   4.165 -0.4846  0.4394  0.2722
  149OSM    H6S16493   6.921   3.473   4.180 -0.8557 -1.0409  2.6026
  149OSM    H6T16494   6.775   3.384   4.129  1.0642 -0.3506  0.7540
  149OSM    C7S16495   6.757   3.493   4.311  0.2723  0.1522 -0.5000
  149OSM    H7S16496   6.801   3.583   4.358 -1.8054  0.0705  1.8332
  149OSM    H7T16497   6.787   3.400   4.363 -1.1400  0.0751  0.2145
  149OSM    C8S16498   6.601   3.496   4.321  0.2223  0.7923 -0.0208
  149OSM    H8S16499   6.562   3.405   4.271 -0.4113  0.2449  1.4098
  149OSM    H8T16500   6.564   3.590   4.274  0.3152  0.7974 -0.0850
  149OSM    C9S16501   6.554   3.487   4.467  0.3008 -0.2851  0.8370
  149OSM    H9S16502   6.571   3.576   4.533 -1.4112 -0.0644  1.0246
  149OSM    H9T16503   6.602   3.405   4.525  0.4015 -1.5038 -0.9106
  149OSM   C10S16504   6.403   3.465   4.482 -0.1587 -0.1303  0.8548
  149OSM   H10S16505   6.356   3.377   4.434  0.7979  0.4926 -1.3515
  149OSM   H10T16506   6.368   3.557   4.430  0.5755 -0.4221 -0.1812
  149OSM   C11S16507   6.363   3.464   4.633  0.5974  0.2370 -0.0971
  149OSM   H11S16508   6.256   3.489   4.650  0.4272 -0.9832  0.7859
  149OSM   H11T16509   6.417   3.539   4.694 -1.2404  4.4635 -3.2215
  149OSM   C12S16510   6.386   3.323   4.684 -0.1514 -0.3187  0.5410
  149OSM   H12S16511   6.493   3.293   4.689 -0.8419 -3.3129 -0.7349
  149OSM   H12T16512   6.347   3.256   4.604 -0.0188  1.6101 -1.2613
  149OSM   C13S16513   6.320   3.304   4.817 -0.3251  0.4058  0.3617
  149OSM   H13S16514   6.209   3.308   4.816 -0.4048 -0.6399  1.7883
  149OSM   H13T16515   6.356   3.380   4.889  3.6810 -1.7385  0.8826
  149OSM   C14S16516   6.364   3.161   4.866  0.2051  0.1297  0.1242
  149OSM   H14S16517   6.474   3.162   4.875  0.1844 -0.1185  0.4191
  149OSM   H14T16518   6.347   3.084   4.788 -0.1366 -0.4546  0.7660
  149OSM   C15S16519   6.299   3.128   5.001 -0.1752  0.0615 -0.0995
  149OSM   H15S16520   6.189   3.140   4.991 -0.0466  0.7615 -0.7724
  149OSM   H15T16521   6.340   3.191   5.083  2.0796  3.4687 -3.4761
  149OSM   C16S16522   6.326   2.981   5.039 -0.5278 -0.0412  0.7952
  149OSM   H16S16523   6.427   2.946   5.008 -0.5895  0.6311 -0.2362
  149OSM   H16T16524   6.256   2.918   4.980  0.0002  1.2655 -1.3677
  149OSM   C17S16525   6.308   2.956   5.186 -0.3684  0.9091  0.0180
  149OSM   H17S16526   6.208   2.984   5.225 -1.8298 -0.1916 -2.6765
  149OSM   H17T16527   6.376   3.019   5.248 -0.4840  1.4480 -0.3940
  149OSM   C18S16528   6.347   2.812   5.216  0.0867  0.0457  0.0763
  149OSM   H18S16529   6.455   2.801   5.189  1.0448 -0.7884  3.7227
  149OSM   H18T16530   6.281   2.744   5.159 -1.0963  1.6898 -0.5947
  149OSM   H18U16531   6.330   2.787   5.322 -1.8460 -2.4493 -0.7204
  149OSM    C1F16532   6.306   3.759   3.959  0.3877 -0.1163  0.0787
  149OSM     OF16533   6.242   3.727   3.860 -0.6599  0.2420  0.3322
  149OSM    C2F16534   6.240   3.794   4.090  0.4046  0.8155 -0.2422
  149OSM    H2F16535   6.159   3.860   4.054 -2.4727 -0.6993  2.9043
  149OSM    H2G16536   6.302   3.848   4.165 -1.6570 -0.0285  2.2453
  149OSM    C3F16537   6.171   3.670   4.158  0.4772  0.5126 -0.1814
  149OSM    H3F16538   6.242   3.587   4.138  3.3941  2.8557 -0.2755
  149OSM    H3G16539   6.071   3.660   4.110 -0.3965  0.5777  1.5761
  149OSM    C4F16540   6.132   3.692   4.308  0.1152  0.2896 -0.4694
  149OSM    H4F16541   6.066   3.780   4.321 -0.1865  0.1570 -1.0486
  149OSM    H4G16542   6.218   3.706   4.377 -0.2568  1.1067 -0.1598
  149OSM    C5F16543   6.036   3.586   4.364  0.2501 -0.2263  0.3528
  149OSM    H5F16544   6.092   3.491   4.368  2.2683  0.7078 -2.4538
  149OSM    H5G16545   5.950   3.593   4.293  1.3208 -2.7981 -1.3461
  149OSM    C6F16546   5.994   3.626   4.503 -0.1085 -0.2064  0.1662
  149OSM    H6F16547   5.948   3.727   4.494  2.2821  0.8736 -0.9180
  149OSM    H6G16548   6.081   3.647   4.568  2.4517 -1.3138 -2.6874
  149OSM    C7F16549   5.894   3.531   4.570 -0.2918 -0.2246  0.2354
  149OSM    H7F16550   5.844   3.480   4.485  1.5766 -1.2136 -0.3210
  149OSM    H7G16551   5.808   3.585   4.615 -0.7319 -0.7836  0.0855
  149OSM    C8F16552   5.977   3.437   4.662 -0.2300 -1.0683 -0.2125
  149OSM    H8F16553   5.990   3.490   4.759 -1.1394 -0.5682 -0.3443
  149OSM    H8G16554   6.070   3.403   4.613 -2.3477 -1.6897 -4.2354
  149OSM    C9F16555   5.895   3.308   4.672  0.0672 -0.1512 -0.4693
  149OSM    H9F16556   5.894   3.248   4.580  1.7783 -1.5805  0.3935
  149OSM   C10F16557   5.830   3.271   4.781  0.0351  0.4014  0.4083
  149OSM   H10F16558   5.752   3.194   4.779 -0.8843  1.3117  0.3429
  149OSM   C11F16559   5.836   3.334   4.918 -0.4031  0.2173 -0.2007
  149OSM   H11F16560   5.735   3.366   4.949 -0.4352  1.7961 -1.7640
  149OSM   H11G16561   5.883   3.435   4.927  0.7338 -0.3918  0.9791
  149OSM   C12F16562   5.890   3.231   5.024 -0.5250  0.5140  0.2495
  149OSM   H12F16563   6.000   3.225   5.011 -0.6433 -0.9281 -0.2237
  149OSM   H12G16564   5.833   3.137   5.004  0.7173 -0.8035  2.5407
  149OSM   C13F16565   5.849   3.252   5.170  0.5035  0.0914 -0.3928
  149OSM   H13F16566   5.739   3.244   5.182  0.5703  1.7393  1.9036
  149OSM   H13G16567   5.884   3.349   5.211  0.2690 -0.6390  1.6527
  149OSM   C14F16568   5.904   3.150   5.263 -0.6820 -0.0333  0.2284
  149OSM   H14F16569   6.012   3.172   5.274 -0.5851  0.8110 -2.0191
  149OSM   H14G16570   5.887   3.051   5.216  2.2280 -0.2898 -0.4528
  149OSM   C15F16571   5.828   3.158   5.400 -0.2831 -0.0969  0.1507
  149OSM   H15F16572   5.722   3.131   5.378 -0.3271  1.7734 -2.4010
  149OSM   H15G16573   5.826   3.262   5.439 -2.0329 -0.7448  1.9413
  149OSM   C16F16574   5.905   3.063   5.493 -0.5733  0.3236 -0.4146
  149OSM   H16F16575   6.015   3.079   5.483 -0.1615 -1.7784  0.1032
  149OSM   H16G16576   5.900   2.956   5.462  2.8518 -0.1637  0.2363
  149OSM   C17F16577   5.859   3.088   5.632  0.3420 -0.6814 -0.6418
  149OSM   H17F16578   5.753   3.061   5.652 -0.4629  2.2334 -0.4624
  149OSM   H17G16579   5.854   3.195   5.664  1.5810 -0.6143 -0.6428
  149OSM   C18F16580   5.938   3.008   5.734  0.2943 -0.1505  0.0874
  149OSM   H18F16581   5.913   2.904   5.704 -2.0904  0.1822  0.7520
  149OSM   H18G16582   5.901   3.028   5.837 -1.5092  0.8195 -0.7070
  149OSM   H18H16583   6.046   3.032   5.728  0.1149  1.5170  2.3883
  150OSM      N16584   3.728   4.156   3.345  0.1611  0.2238 -0.0010
  150OSM    C1516585   3.806   4.032   3.387 -0.1375 -0.4816 -0.4603
  150OSM   H15A16586   3.897   4.063   3.436 -1.8014  0.3811  2.2932
  150OSM   H15B16587   3.819   3.962   3.306 -1.9371 -2.1620  0.6342
  150OSM   H15C16588   3.752   3.993   3.472  1.2279 -0.4305  0.4669
  150OSM    C1416589   3.816   4.227   3.252 -0.1209  0.6562  0.1966
  150OSM   H14A16590   3.817   4.201   3.147  0.0526 -1.3498  0.6516
  150OSM   H14B16591   3.921   4.211   3.271 -0.3993 -0.8026  0.6288
  150OSM   H14C16592   3.790   4.331   3.262 -3.5324 -0.1721  1.0720
  150OSM    C1316593   3.605   4.118   3.278 -0.4113  0.0415  0.0997
  150OSM   H13A16594   3.541   4.061   3.343 -1.0362  0.2354 -0.3432
  150OSM   H13B16595   3.614   4.047   3.197 -2.1346  0.7524 -0.7717
  150OSM   H13C16596   3.545   4.202   3.247  1.6963  0.8420 -2.1160
  150OSM    C1216597   3.699   4.242   3.466 -0.2986 -0.5585 -0.0413
  150OSM   H12A16598   3.643   4.322   3.420  0.3608 -1.0377 -1.7937
  150OSM   H12B16599   3.792   4.289   3.494 -0.0410 -0.7249 -0.5937
  150OSM    C1116600   3.603   4.189   3.579 -0.1455 -0.2656 -1.0045
  150OSM   H11A16601   3.612   4.266   3.659  2.1903 -2.0276  0.5589
  150OSM   H11B16602   3.643   4.096   3.624 -1.5117 -0.1207  0.6066
  150OSM      P16603   3.365   4.087   3.603  0.1672  0.5106  0.3886
  150OSM    O1316604   3.238   4.162   3.600 -0.3053 -0.1342  0.4368
  150OSM    O1416605   3.366   3.956   3.538  0.0552 -0.0913 -0.3728
  150OSM    O1116606   3.424   4.073   3.739  0.8444 -0.1100  0.0748
  150OSM    O1216607   3.472   4.177   3.536  0.0968 -0.3106 -0.5203
  150OSM    C1S16608   3.383   3.963   3.823  0.0871  0.2600  1.0536
  150OSM    H1S16609   3.415   3.865   3.781 -3.3899  0.7725 -3.7095
  150OSM    H1T16610   3.273   3.956   3.836 -0.2521  0.5887 -1.1467
  150OSM     NF16611   3.437   3.864   4.043  0.6993  0.1683  0.8013
  150OSM    HNF16612   3.357   3.852   4.101  1.9286  0.1583  2.5771
  150OSM    C2S16613   3.441   3.990   3.967  0.1215  0.0576  0.0344
  150OSM    H2S16614   3.550   4.008   3.958  0.4267 -0.2477  2.4477
  150OSM    C3S16615   3.382   4.105   4.041 -0.6828  0.1127  0.2150
  150OSM    H3S16616   3.275   4.092   4.068 -0.8117 -1.6389 -0.9111
  150OSM     O316617   3.388   4.217   3.955  0.0939  0.1430 -0.1782
  150OSM    HO316618   3.420   4.178   3.873 -1.6512 -0.0818 -0.8007
  150OSM    C4S16619   3.481   4.128   4.154  0.1236 -0.5721 -0.4271
  150OSM    H4S16620   3.570   4.189   4.132 -0.8533  0.7699 -0.7354
  150OSM    C5S16621   3.483   4.080   4.276 -0.3549 -0.1201 -0.3532
  150OSM    H5S16622   3.404   4.009   4.305 -2.3699  2.6971  1.6077
  150OSM    C6S16623   3.583   4.093   4.389  1.1059 -0.0383 -0.3968
  150OSM    H6S16624   3.612   3.987   4.403 -1.3102 -0.7997 -0.6441
  150OSM    H6T16625   3.538   4.123   4.487 -0.6706  1.0150 -1.4687
  150OSM    C7S16626   3.703   4.181   4.359 -0.2419 -0.1761 -0.5486
  150OSM    H7S16627   3.678   4.289   4.355 -0.4134 -0.2326 -1.1547
  150OSM    H7T16628   3.738   4.170   4.253  1.0484  0.9171 -0.2726
  150OSM    C8S16629   3.829   4.150   4.446  0.1799  0.3098  0.0119
  150OSM    H8S16630   3.922   4.193   4.403  0.5791 -1.0005 -0.4615
  150OSM    H8T16631   3.848   4.041   4.452  2.9932  0.7338  0.3752
  150OSM    C9S16632   3.811   4.193   4.600 -0.3565 -0.0138  0.2496
  150OSM    H9S16633   3.725   4.127   4.624 -0.5509  0.0389 -0.2877
  150OSM    H9T16634   3.773   4.298   4.601 -0.4212 -0.0318  1.4537
  150OSM   C10S16635   3.932   4.168   4.687  0.2988 -0.2085 -0.7128
  150OSM   H10S16636   4.016   4.228   4.647 -0.1475  0.8002 -0.1950
  150OSM   H10T16637   3.964   4.063   4.677  1.5739 -0.2874  2.9050
  150OSM   C11S16638   3.901   4.199   4.837 -0.4945 -0.2939  0.0557
  150OSM   H11S16639   3.804   4.161   4.874 -2.0245  0.9979 -2.3692
  150OSM   H11T16640   3.884   4.308   4.847 -0.5585  0.1308 -3.4964
  150OSM   C12S16641   4.021   4.156   4.935  0.4374 -0.4001 -0.4653
  150OSM   H12S16642   4.116   4.199   4.894  1.2124 -1.5042  0.1271
  150OSM   H12T16643   4.041   4.047   4.926  0.8707 -0.7596  3.3940
  150OSM   C13S16644   3.998   4.194   5.085  0.1040 -0.0943 -0.4133
  150OSM   H13S16645   3.907   4.142   5.120 -0.5432  1.8629  1.0250
  150OSM   H13T16646   3.974   4.303   5.092 -0.3548 -0.0461 -2.1102
  150OSM   C14S16647   4.122   4.143   5.163 -0.2463  0.0063  0.6504
  150OSM   H14S16648   4.214   4.199   5.136  0.8443 -1.5447  0.9835
  150OSM   H14T16649   4.142   4.036   5.141  0.7679  0.0049  1.4700
  150OSM   C15S16650   4.108   4.154   5.312 -0.0588  0.0057 -0.1872
  150OSM   H15S16651   4.025   4.090   5.351  0.6651 -0.6716  0.2813
  150OSM   H15T16652   4.084   4.258   5.344  0.3348  0.4294 -1.2454
  150OSM   C16S16653   4.241   4.121   5.382 -0.1721 -0.2499  0.1900
  150OSM   H16S16654   4.308   4.207   5.358  0.7745 -1.1490 -0.4707
  150OSM   H16T16655   4.295   4.034   5.339 -0.9508 -0.0864 -1.1674
  150OSM   C17S16656   4.222   4.117   5.532  0.4323  0.4765 -0.8008
  150OSM   H17S16657   4.308   4.070   5.584 -0.0103 -0.1670 -0.6353
  150OSM   H17T16658   4.135   4.054   5.563  2.0985 -0.4943  2.2910
  150OSM   C18S16659   4.206   4.252   5.601 -0.2278  0.0301 -0.2802
  150OSM   H18S16660   4.310   4.292   5.597 -0.9041  2.0411  0.9670
  150OSM   H18T16661   4.179   4.224   5.705 -1.9621  0.6958 -0.5244
  150OSM   H18U16662   4.122   4.313   5.562 -0.6968 -1.1280 -1.1361
  150OSM    C1F16663   3.506   3.755   4.025 -0.0304 -0.3835  0.2980
  150OSM     OF16664   3.598   3.752   3.945 -0.3552  0.2778 -0.0332
  150OSM    C2F16665   3.473   3.634   4.106  0.4709 -0.3837  0.0006
  150OSM    H2F16666   3.393   3.578   4.053 -0.2846  1.6840 -1.1356
  150OSM    H2G16667   3.443   3.664   4.209  0.7723  0.2836 -0.1022
  150OSM    C3F16668   3.595   3.546   4.124  0.1888 -0.5860 -0.0902
  150OSM    H3F16669   3.638   3.517   4.026  1.7711  1.8901 -0.2389
  150OSM    H3G16670   3.567   3.450   4.171  0.3833  0.5864  2.6270
  150OSM    C4F16671   3.712   3.597   4.210 -0.3433 -0.6096 -0.3170
  150OSM    H4F16672   3.754   3.681   4.152 -0.4573 -0.1203  0.2945
  150OSM    H4G16673   3.788   3.515   4.208 -1.3290 -1.5803 -3.5817
  150OSM    C5F16674   3.658   3.637   4.349  0.2485 -0.7155 -0.1030
  150OSM    H5F16675   3.580   3.568   4.388  1.9805 -1.6588  1.8883
  150OSM    H5G16676   3.622   3.741   4.334  2.3052  0.0078 -0.3655
  150OSM    C6F16677   3.770   3.644   4.455 -0.1002 -0.2893 -0.2457
  150OSM    H6F16678   3.844   3.718   4.418  0.5687  0.1760  1.8725
  150OSM    H6G16679   3.827   3.548   4.460  0.0062 -0.2556 -0.7617
  150OSM    C7F16680   3.720   3.683   4.593  0.8196 -0.7769 -0.1335
  150OSM    H7F16681   3.652   3.610   4.642 -1.1132  1.4435  0.6964
  150OSM    H7G16682   3.650   3.769   4.585 -0.4650 -1.6617  0.9794
  150OSM    C8F16683   3.828   3.714   4.692 -0.0567 -0.5588  0.1367
  150OSM    H8F16684   3.779   3.745   4.787 -1.0823 -1.2251 -0.1526
  150OSM    H8G16685   3.883   3.804   4.659 -1.5217  0.2980 -0.0779
  150OSM    C9F16686   3.926   3.600   4.731  0.2215 -1.1277  0.0902
  150OSM    H9F16687   3.917   3.508   4.671  1.7070 -0.9383 -0.4694
  150OSM   C10F16688   4.024   3.618   4.820 -0.3703 -0.4774  0.1620
  150OSM   H10F16689   4.088   3.530   4.835 -2.1507 -1.9536 -0.5472
  150OSM   C11F16690   4.064   3.739   4.901 -0.6944  0.4420  0.7018
  150OSM   H11F16691   4.010   3.832   4.875 -0.2154  0.9444  1.4495
  150OSM   H11G16692   4.175   3.749   4.892 -0.3428 -3.1509 -0.9661
  150OSM   C12F16693   4.025   3.700   5.048 -0.2676  0.4825  0.1406
  150OSM   H12F16694   3.915   3.690   5.062 -0.1085 -0.3646  0.9382
  150OSM   H12G16695   4.071   3.786   5.101 -0.6446  1.4596 -1.0810
  150OSM   C13F16696   4.085   3.563   5.097 -0.0024  0.5145 -0.5048
  150OSM   H13F16697   4.195   3.559   5.079  0.2173  0.8772  0.7043
  150OSM   H13G16698   4.027   3.488   5.039  2.9770 -1.2935 -1.3887
  150OSM   C14F16699   4.052   3.542   5.248  0.2726  0.3005 -0.4810
  150OSM   H14F16700   4.082   3.438   5.275 -1.3032  0.3294  1.6132
  150OSM   H14G16701   3.945   3.547   5.276  0.2438  2.2864 -0.8026
  150OSM   C15F16702   4.143   3.638   5.331 -0.4302 -0.5620 -0.8584
  150OSM   H15F16703   4.122   3.739   5.289  0.6179 -0.1159 -0.3581
  150OSM   H15G16704   4.249   3.612   5.310  1.1307  0.3057  4.4754
  150OSM   C16F16705   4.112   3.656   5.478 -1.0572  0.0846 -0.0781
  150OSM   H16F16706   4.012   3.703   5.488 -0.7821  0.3888  1.6285
  150OSM   H16G16707   4.175   3.733   5.528 -1.4726 -0.5631  1.5217
  150OSM   C17F16708   4.117   3.528   5.565  0.4033  0.0772 -0.1647
  150OSM   H17F16709   4.217   3.479   5.555 -0.0816 -0.6346 -1.8230
  150OSM   H17G16710   4.052   3.456   5.511  1.8016  0.0721 -1.9320
  150OSM   C18F16711   4.077   3.538   5.713 -0.4857 -0.5186 -0.1973
  150OSM   H18F16712   4.038   3.438   5.743 -1.1456 -0.3964 -0.6282
  150OSM   H18G16713   4.001   3.617   5.731  1.4360  0.8812  2.4537
  150OSM   H18H16714   4.165   3.574   5.770  0.3439  1.2498 -2.4328
  151OSM      N16715   2.603   3.761   3.453  0.2751 -0.0611  0.4595
  151OSM    C1516716   2.668   3.694   3.336 -0.5169 -0.1050  0.1159
  151OSM   H15A16717   2.751   3.744   3.289  0.2363 -0.4419  1.0686
  151OSM   H15B16718   2.600   3.671   3.255  0.8001 -0.2386 -0.9817
  151OSM   H15C16719   2.706   3.599   3.369 -0.2811 -0.8257 -2.0459
  151OSM    C1416720   2.559   3.891   3.414 -0.2926 -0.3180  0.0235
  151OSM   H14A16721   2.524   3.945   3.501 -0.8490  0.8126 -0.8771
  151OSM   H14B16722   2.478   3.890   3.343  0.6399 -2.1080 -1.0813
  151OSM   H14C16723   2.643   3.944   3.371 -0.9018 -0.6878 -1.6980
  151OSM    C1316724   2.482   3.667   3.485 -0.2907 -0.7438 -0.3868
  151OSM   H13A16725   2.511   3.589   3.554  0.2359  1.5852  2.1663
  151OSM   H13B16726   2.448   3.624   3.392  1.1294 -0.5827 -1.0121
  151OSM   H13C16727   2.402   3.715   3.538 -0.8506 -2.9721  0.9136
  151OSM    C1216728   2.699   3.776   3.570  0.0359 -0.2137 -0.1321
  151OSM   H12A16729   2.641   3.813   3.653 -2.0324 -2.1416 -0.6069
  151OSM   H12B16730   2.778   3.846   3.548  0.4129 -0.4171  0.5542
  151OSM    C1116731   2.767   3.655   3.631  0.2902 -0.1197  0.4107
  151OSM   H11A16732   2.832   3.594   3.565 -0.2844  0.1579 -0.4367
  151OSM   H11B16733   2.697   3.580   3.673 -0.4087  0.9199  1.1582
  151OSM      P16734   2.969   3.776   3.748 -0.0965  0.0235  0.1759
  151OSM    O1316735   3.081   3.681   3.731  0.0688  0.8132 -0.1427
  151OSM    O1416736   2.956   3.886   3.646  0.3317  0.4335  0.0409
  151OSM    O1116737   2.968   3.842   3.895  0.2132  0.3408 -0.2072
  151OSM    O1216738   2.836   3.694   3.742 -0.4017 -0.5786 -0.5154
  151OSM    C1S16739   3.022   3.761   4.004  0.7304 -0.5761 -0.0990
  151OSM    H1S16740   3.133   3.753   4.006  0.7385 -0.4052  0.0683
  151OSM    H1T16741   2.977   3.659   4.006  3.6983 -1.9892 -0.2503
  151OSM     NF16742   3.030   3.757   4.247 -0.4769  0.3649 -0.4579
  151OSM    HNF16743   2.994   3.668   4.273  3.0275 -0.8238  0.9425
  151OSM    C2S16744   2.969   3.827   4.137  0.1036  0.1543  0.0378
  151OSM    H2S16745   3.013   3.929   4.138 -1.0749  0.6724  1.5076
  151OSM    C3S16746   2.816   3.828   4.145  0.2104 -0.3553  0.4293
  151OSM    H3S16747   2.785   3.723   4.159  0.0490 -0.4449 -0.4883
  151OSM     O316748   2.742   3.877   4.034  0.2525 -0.1455  0.1228
  151OSM    HO316749   2.813   3.900   3.973  0.5025  0.0047  0.4724
  151OSM    C4S16750   2.771   3.902   4.272 -0.1717  0.4614  0.2968
  151OSM    H4S16751   2.757   3.845   4.365 -4.9343 -0.3866 -0.6884
  151OSM    C5S16752   2.756   4.032   4.272  0.6518  0.5101 -0.1245
  151OSM    H5S16753   2.770   4.093   4.182  1.7134 -0.0097 -0.3348
  151OSM    C6S16754   2.716   4.118   4.385 -0.2891 -0.1629 -0.0820
  151OSM    H6S16755   2.619   4.168   4.366  1.2019  2.4997 -1.2048
  151OSM    H6T16756   2.791   4.198   4.403 -0.0099 -0.3622 -0.3432
  151OSM    C7S16757   2.711   4.054   4.519 -0.3279 -0.3235 -0.5783
  151OSM    H7S16758   2.813   4.017   4.542  0.0036  0.5847 -0.5365
  151OSM    H7T16759   2.634   3.974   4.520  0.8943 -1.6506  2.7578
  151OSM    C8S16760   2.660   4.150   4.633 -0.1868  0.0532 -0.6781
  151OSM    H8S16761   2.573   4.203   4.589 -0.9860 -1.0899 -0.4992
  151OSM    H8T16762   2.739   4.229   4.627 -0.1153  0.1658  1.0838
  151OSM    C9S16763   2.653   4.091   4.775  0.0072 -0.1378 -0.3278
  151OSM    H9S16764   2.749   4.049   4.813  0.2482  0.4244 -0.3092
  151OSM    H9T16765   2.568   4.019   4.778 -1.3487  1.2494 -2.2624
  151OSM   C10S16766   2.622   4.211   4.872 -0.1119 -0.0654 -0.4002
  151OSM   H10S16767   2.533   4.272   4.842 -0.0423  1.3872  2.0519
  151OSM   H10T16768   2.711   4.276   4.863 -0.6426  0.5266 -1.5779
  151OSM   C11S16769   2.607   4.163   5.017  0.3415  0.3821 -0.4142
  151OSM   H11S16770   2.694   4.103   5.051  0.2401  1.6667  2.3637
  151OSM   H11T16771   2.519   4.096   5.028  1.3254 -0.7518  0.8313
  151OSM   C12S16772   2.600   4.279   5.116 -0.3882  0.1640 -0.0548
  151OSM   H12S16773   2.528   4.356   5.081  0.2401  1.0207  0.4971
  151OSM   H12T16774   2.703   4.317   5.131  0.4003 -1.3321 -1.3368
  151OSM   C13S16775   2.565   4.229   5.258 -0.0261 -0.1021  0.3464
  151OSM   H13S16776   2.640   4.155   5.293  2.3768  2.2106  0.3462
  151OSM   H13T16777   2.466   4.178   5.247  0.6179 -1.0238 -1.5594
  151OSM   C14S16778   2.563   4.337   5.366 -0.0578 -0.2513 -0.0184
  151OSM   H14S16779   2.524   4.300   5.464  0.2065 -0.6974 -0.0782
  151OSM   H14T16780   2.501   4.423   5.334  1.6850  0.8934 -0.4268
  151OSM   C15S16781   2.705   4.380   5.407 -0.0378 -0.0240  0.5584
  151OSM   H15S16782   2.758   4.435   5.326 -2.1411 -1.8277 -2.1901
  151OSM   H15T16783   2.764   4.292   5.440 -1.0683 -1.2947 -0.8324
  151OSM   C16S16784   2.716   4.484   5.527 -0.3945 -0.5510 -0.3259
  151OSM   H16S16785   2.694   4.430   5.622 -3.1985  0.0556 -0.5309
  151OSM   H16T16786   2.646   4.569   5.512 -0.8089 -1.2510 -2.7823
  151OSM   C17S16787   2.849   4.550   5.526 -0.2037  0.4554 -0.1466
  151OSM   H17S16788   2.848   4.622   5.610 -0.5946 -2.2446  2.3049
  151OSM   H17T16789   2.874   4.606   5.433 -1.0102 -0.1041 -0.7064
  151OSM   C18S16790   2.964   4.453   5.560 -0.2919  0.2687  0.4132
  151OSM   H18S16791   2.981   4.391   5.469 -1.0320  0.5879  0.0453
  151OSM   H18T16792   2.942   4.382   5.642 -1.7341  0.2674  0.0513
  151OSM   H18U16793   3.053   4.514   5.583  1.5251 -1.3626 -1.8140
  151OSM    C1F16794   3.162   3.775   4.277  0.4722  0.5986 -0.1658
  151OSM     OF16795   3.232   3.845   4.207 -0.4977 -0.1508  0.0855
  151OSM    C2F16796   3.218   3.712   4.401  0.0943 -0.1272 -0.3104
  151OSM    H2F16797   3.287   3.632   4.366  2.2985  0.5363  2.2369
  151OSM    H2G16798   3.137   3.667   4.462 -0.8521  2.0247  0.1161
  151OSM    C3F16799   3.304   3.811   4.477  0.7212 -0.3897 -0.5504
  151OSM    H3F16800   3.242   3.897   4.510  3.3873  1.3793  0.1656
  151OSM    H3G16801   3.389   3.842   4.412 -0.0501  0.4384 -1.1897
  151OSM    C4F16802   3.358   3.765   4.619 -0.5462 -0.2543  0.5494
  151OSM    H4F16803   3.434   3.685   4.607  0.5641  0.9521 -0.8522
  151OSM    H4G16804   3.259   3.724   4.648 -1.0246 -0.4786 -1.2347
  151OSM    C5F16805   3.415   3.881   4.692 -0.2193  0.3918 -0.5696
  151OSM    H5F16806   3.343   3.964   4.710  0.4083  0.5043  1.8040
  151OSM    H5G16807   3.499   3.922   4.632  0.3089 -1.3821 -1.0795
  151OSM    C6F16808   3.463   3.844   4.842 -0.2430 -0.8340  0.1214
  151OSM    H6F16809   3.524   3.751   4.835 -0.6533 -1.0793 -0.1953
  151OSM    H6G16810   3.377   3.820   4.907 -0.6054 -1.3219 -0.5267
  151OSM    C7F16811   3.559   3.960   4.897  0.7276 -0.1390 -0.3034
  151OSM    H7F16812   3.512   4.057   4.923  1.6138 -0.2406  1.8865
  151OSM    H7G16813   3.629   3.985   4.814  1.4920 -0.2298  0.2947
  151OSM    C8F16814   3.649   3.916   5.016 -0.5307 -0.4972  0.7040
  151OSM    H8F16815   3.712   4.006   5.038 -2.1460  1.0126 -0.5452
  151OSM    H8G16816   3.704   3.829   4.974 -0.7203  1.0923 -3.2564
  151OSM    C9F16817   3.553   3.893   5.128  0.5289  0.1693  0.2777
  151OSM    H9F16818   3.488   3.980   5.148 -1.4043 -1.1142 -0.1220
  151OSM   C10F16819   3.516   3.780   5.195  1.4849 -0.0983  0.2301
  151OSM   H10F16820   3.446   3.790   5.280  1.8501 -0.1414  0.5374
  151OSM   C11F16821   3.570   3.645   5.181  0.1220 -0.2218  1.0876
  151OSM   H11F16822   3.667   3.645   5.126  0.1232 -0.2910  1.0895
  151OSM   H11G16823   3.496   3.588   5.121 -0.0209  0.5664  0.4983
  151OSM   C12F16824   3.603   3.574   5.314  0.6617  0.0916 -0.5303
  151OSM   H12F16825   3.663   3.482   5.295 -0.2478 -0.2151 -2.1158
  151OSM   H12G16826   3.512   3.542   5.368  1.3335  0.2258  0.7168
  151OSM   C13F16827   3.693   3.656   5.399 -0.2160 -0.5228 -0.2430
  151OSM   H13F16828   3.644   3.742   5.450  2.9960  1.1296  0.2722
  151OSM   H13G16829   3.771   3.695   5.331  0.9771 -2.6240 -0.1801
  151OSM   C14F16830   3.758   3.562   5.506  0.1615 -0.1652  0.0807
  151OSM   H14F16831   3.848   3.616   5.545  0.8114 -0.2431 -1.2599
  151OSM   H14G16832   3.787   3.470   5.451  0.2749 -1.0780  1.6252
  151OSM   C15F16833   3.663   3.545   5.619 -0.1560  0.1883 -0.0127
  151OSM   H15F16834   3.576   3.487   5.581  0.5227  0.0797 -1.4500
  151OSM   H15G16835   3.634   3.646   5.654  2.0678  0.8382  0.1363
  151OSM   C16F16836   3.721   3.492   5.752  0.0919  0.3009 -0.5559
  151OSM   H16F16837   3.807   3.554   5.787 -0.4281  0.1929  0.9826
  151OSM   H16G16838   3.766   3.390   5.743  0.0479  0.2368 -0.0501
  151OSM   C17F16839   3.622   3.483   5.862  0.1301  0.2317  0.4014
  151OSM   H17F16840   3.579   3.585   5.874  1.5805  0.8324  0.6869
  151OSM   H17G16841   3.677   3.473   5.958  3.3071  1.0643 -1.1901
  151OSM   C18F16842   3.511   3.375   5.855  0.4153 -0.3487  0.3627
  151OSM   H18F16843   3.556   3.275   5.868 -0.4247 -0.7495  0.2564
  151OSM   H18G16844   3.465   3.377   5.754  0.7722  1.6255  0.2009
  151OSM   H18H16845   3.431   3.384   5.932  0.7675  0.0592  0.6854
  152OSM      N16846   3.909   5.167   3.356 -0.0136  0.7336  0.7248
  152OSM    C1516847   3.785   5.206   3.429 -0.0245 -0.0934 -0.5698
  152OSM   H15A16848   3.802   5.304   3.470 -1.2996  0.5008 -1.3827
  152OSM   H15B16849   3.762   5.139   3.512  4.0858  1.8968  2.5424
  152OSM   H15C16850   3.699   5.215   3.364  0.5727 -1.3625 -1.5923
  152OSM    C1416851   3.905   5.030   3.304  0.2105  0.6050  0.3267
  152OSM   H14A16852   3.822   5.011   3.237 -0.4134 -1.1853  1.5620
  152OSM   H14B16853   3.896   4.966   3.390  2.0685  2.0842  1.7102
  152OSM   H14C16854   3.994   5.006   3.249  0.1919 -0.1465  0.6157
  152OSM    C1316855   3.923   5.264   3.243  0.1606  0.4586  0.0204
  152OSM   H13A16856   3.952   5.360   3.283 -1.6532  0.7748  0.6778
  152OSM   H13B16857   3.834   5.271   3.182  0.3038 -3.1094 -0.7812
  152OSM   H13C16858   3.989   5.234   3.164 -1.3446 -1.3630 -0.6103
  152OSM    C1216859   4.029   5.178   3.447  0.2699  0.0984  0.2226
  152OSM   H12A16860   4.037   5.280   3.483 -2.3908  0.0665  1.1781
  152OSM   H12B16861   4.115   5.149   3.390  1.6513  1.0396  1.7244
  152OSM    C1116862   4.033   5.091   3.577 -0.2872  0.4660 -0.0301
  152OSM   H11A16863   3.941   5.116   3.635  0.0118  0.2819  0.5295
  152OSM   H11B16864   4.111   5.124   3.648  0.2358  0.8237 -0.7634
  152OSM      P16865   4.149   4.887   3.477 -0.6030  0.0105 -0.1878
  152OSM    O1316866   4.104   4.768   3.404  0.1897  0.0712  0.1654
  152OSM    O1416867   4.232   4.981   3.392  0.5027 -0.4861  0.3859
  152OSM    O1116868   4.238   4.847   3.607  0.3127  0.3982  0.3561
  152OSM    O1216869   4.032   4.951   3.553 -0.1373 -0.1749 -0.4065
  152OSM    C1S16870   4.274   4.932   3.719 -0.2721 -0.0045 -0.0340
  152OSM    H1S16871   4.181   4.926   3.780 -0.5704  1.7027 -0.2936
  152OSM    H1T16872   4.297   5.035   3.685  0.1718 -0.4439 -1.1148
  152OSM     NF16873   4.417   4.946   3.916 -0.0666  0.5580 -0.3232
  152OSM    HNF16874   4.479   5.025   3.921  0.1686  0.3463  3.9619
  152OSM    C2S16875   4.403   4.876   3.791 -0.1090 -0.6721 -0.8567
  152OSM    H2S16876   4.377   4.770   3.807  0.6568 -1.0855 -2.1607
  152OSM    C3S16877   4.529   4.890   3.697  0.5106 -0.7695  0.0009
  152OSM    H3S16878   4.571   4.992   3.686  0.3871 -0.7752 -0.5641
  152OSM     O316879   4.507   4.859   3.559  0.5889  0.0950 -0.1413
  152OSM    HO316880   4.412   4.869   3.548  1.0171  2.4284 -2.9928
  152OSM    C4S16881   4.624   4.799   3.752  0.3087  0.1209  0.2499
  152OSM    H4S16882   4.593   4.698   3.784  2.0928 -0.5203  0.0702
  152OSM    C5S16883   4.752   4.836   3.778  0.0925  0.7742 -0.2706
  152OSM    H5S16884   4.797   4.928   3.736 -0.4508  1.7035  1.1114
  152OSM    C6S16885   4.853   4.736   3.836 -0.3903 -0.3198 -0.3402
  152OSM    H6S16886   4.826   4.629   3.821  0.5162 -0.6653  0.4225
  152OSM    H6T16887   4.853   4.761   3.944 -0.5973  2.0280 -0.8390
  152OSM    C7S16888   4.996   4.758   3.788 -1.0311  0.2106 -0.1731
  152OSM    H7S16889   5.015   4.866   3.775  0.5975 -0.1292 -0.7722
  152OSM    H7T16890   5.008   4.718   3.685  0.0621 -1.6512  0.6210
  152OSM    C8S16891   5.101   4.688   3.879 -0.7233  0.1891 -0.3912
  152OSM    H8S16892   5.191   4.679   3.814 -0.3002 -2.2530  0.4472
  152OSM    H8T16893   5.071   4.582   3.881  1.9122 -0.6902  3.2245
  152OSM    C9S16894   5.124   4.741   4.024 -0.3496  0.1019 -0.3948
  152OSM    H9S16895   5.018   4.749   4.058 -1.6314 -1.3704 -3.5633
  152OSM    H9T16896   5.160   4.846   4.012  1.8350 -0.5543  0.0380
  152OSM   C10S16897   5.207   4.655   4.114 -0.7243  0.0566 -0.2008
  152OSM   H10S16898   5.305   4.637   4.064 -0.3855  2.3421 -0.4617
  152OSM   H10T16899   5.164   4.558   4.148 -0.1534  0.3751  1.5374
  152OSM   C11S16900   5.260   4.715   4.249  0.5429 -0.6711  0.2742
  152OSM   H11S16901   5.168   4.721   4.311  0.3785  1.7028 -0.0905
  152OSM   H11T16902   5.289   4.820   4.226  0.5352 -0.4162  1.3608
  152OSM   C12S16903   5.368   4.630   4.318 -0.2401  0.3495  0.3906
  152OSM   H12S16904   5.443   4.599   4.243  0.3275  1.2560  0.5707
  152OSM   H12T16905   5.326   4.538   4.364  3.7624 -2.1043 -0.4252
  152OSM   C13S16906   5.443   4.695   4.430  1.1308 -0.3763  0.3280
  152OSM   H13S16907   5.369   4.754   4.487  0.5198 -1.1702  0.3686
  152OSM   H13T16908   5.512   4.772   4.389  0.2152  0.3615  0.1587
  152OSM   C14S16909   5.505   4.591   4.525 -0.3757  0.3071  0.0069
  152OSM   H14S16910   5.614   4.574   4.511 -0.5487 -0.7880 -0.1261
  152OSM   H14T16911   5.459   4.490   4.528  0.7562 -0.2187  0.4636
  152OSM   C15S16912   5.481   4.645   4.666  0.3835  0.2166  0.2160
  152OSM   H15S16913   5.371   4.657   4.677  0.4541  2.8400 -1.1106
  152OSM   H15T16914   5.517   4.750   4.669 -1.4560  0.8620  0.9075
  152OSM   C16S16915   5.543   4.571   4.788 -0.4213  0.4537 -0.9117
  152OSM   H16S16916   5.498   4.471   4.804  0.8036  0.2202  1.5968
  152OSM   H16T16917   5.524   4.631   4.880  0.9457 -0.8140  0.2467
  152OSM   C17S16918   5.694   4.556   4.776 -0.6016 -0.5324  0.8673
  152OSM   H17S16919   5.733   4.657   4.756  0.0838 -0.8898  0.3727
  152OSM   H17T16920   5.725   4.491   4.691  0.9590  1.5826 -0.2587
  152OSM   C18S16921   5.762   4.494   4.897  0.3634  0.9205  0.0215
  152OSM   H18S16922   5.744   4.541   4.996  0.8901 -1.2898  1.2204
  152OSM   H18T16923   5.872   4.495   4.878  0.3401  0.9435 -0.1177
  152OSM   H18U16924   5.736   4.386   4.894  4.0231 -0.1031 -0.4738
  152OSM    C1F16925   4.333   4.937   4.025 -0.7241 -0.6019 -0.4706
  152OSM     OF16926   4.238   4.868   4.034 -0.3497  0.7137  0.4503
  152OSM    C2F16927   4.374   5.020   4.142  0.5243 -0.0473  0.0594
  152OSM    H2F16928   4.291   5.024   4.215  0.6714 -0.8675  0.2823
  152OSM    H2G16929   4.400   5.125   4.114  0.1966  0.8669  2.8772
  152OSM    C3F16930   4.486   4.948   4.216  0.6005  0.4827 -0.3942
  152OSM    H3F16931   4.568   4.937   4.141 -0.5430  0.3327 -1.6458
  152OSM    H3G16932   4.465   4.841   4.235 -0.6842  0.6850 -0.5737
  152OSM    C4F16933   4.535   4.995   4.345 -0.0337 -0.1206  0.1394
  152OSM    H4F16934   4.469   5.076   4.382 -2.5163 -2.1751  0.4827
  152OSM    H4G16935   4.639   5.034   4.337 -0.1923  0.3152  0.1537
  152OSM    C5F16936   4.540   4.889   4.451  0.1109 -0.0459  0.1650
  152OSM    H5F16937   4.580   4.794   4.408 -2.1170 -1.2121  0.5235
  152OSM    H5G16938   4.437   4.862   4.481  0.5593  0.5449  2.4061
  152OSM    C6F16939   4.614   4.944   4.577  0.2160  0.5982  0.0359
  152OSM    H6F16940   4.549   5.025   4.617  0.4737  0.3056  1.0800
  152OSM    H6G16941   4.711   4.990   4.550  0.1235 -0.2408 -1.9279
  152OSM    C7F16942   4.646   4.846   4.686  0.7478 -0.6402  0.1569
  152OSM    H7F16943   4.711   4.772   4.634 -0.0649 -0.1355 -1.6523
  152OSM    H7G16944   4.557   4.787   4.718  0.2593 -0.5591 -0.9821
  152OSM    C8F16945   4.713   4.921   4.797 -0.6451  0.3553  0.1703
  152OSM    H8F16946   4.648   4.999   4.843  0.3198  1.3455 -0.1140
  152OSM    H8G16947   4.792   4.983   4.749  0.8398 -2.2470 -0.9389
  152OSM    C9F16948   4.771   4.826   4.899 -0.0111 -0.0504  0.1002
  152OSM    H9F16949   4.831   4.743   4.859 -1.5883 -2.2260  1.9937
  152OSM   C10F16950   4.755   4.834   5.033  0.0850 -0.3041  0.0580
  152OSM   H10F16951   4.804   4.759   5.096  1.9861 -1.2152 -2.3328
  152OSM   C11F16952   4.695   4.951   5.113 -0.3581 -0.3414  0.8248
  152OSM   H11F16953   4.604   4.908   5.160 -1.6989  1.2712 -0.1743
  152OSM   H11G16954   4.657   5.034   5.050 -2.1344 -1.1911  0.7048
  152OSM   C12F16955   4.792   4.995   5.221  0.1058 -0.1774  0.0698
  152OSM   H12F16956   4.769   5.098   5.255  1.7390 -0.3731  2.0046
  152OSM   H12G16957   4.893   5.016   5.179  0.0748 -0.5974 -0.2269
  152OSM   C13F16958   4.803   4.895   5.335 -0.0629  0.7976 -0.7941
  152OSM   H13F16959   4.856   4.803   5.301  0.7260  0.9206  0.0854
  152OSM   H13G16960   4.702   4.875   5.375  0.2732  0.2042 -0.2147
  152OSM   C14F16961   4.903   4.945   5.437  0.1359  0.1735  0.1645
  152OSM   H14F16962   4.920   4.876   5.522 -0.3073 -0.4660 -0.2569
  152OSM   H14G16963   4.858   5.038   5.479 -1.5631  0.0994 -1.3843
  152OSM   C15F16964   5.051   4.959   5.374  0.2439  0.0063 -0.4930
  152OSM   H15F16965   5.049   5.060   5.329 -0.2088  0.4497  0.5002
  152OSM   H15G16966   5.066   4.885   5.292  0.9806 -0.5257  0.1033
  152OSM   C16F16967   5.152   4.945   5.484 -0.3505  0.6044  0.5176
  152OSM   H16F16968   5.260   4.944   5.456 -0.3866  0.9246  0.3628
  152OSM   H16G16969   5.142   4.848   5.539  2.2857 -0.4155 -0.6194
  152OSM   C17F16970   5.137   5.071   5.573 -0.9419  0.1485 -0.7748
  152OSM   H17F16971   5.049   5.063   5.642  0.1811 -1.1974  0.5921
  152OSM   H17G16972   5.138   5.171   5.526  0.0055  1.7206  2.3000
  152OSM   C18F16973   5.263   5.087   5.660  0.2741 -0.4623  0.4247
  152OSM   H18F16974   5.302   4.985   5.680 -0.2499 -0.8707 -0.5844
  152OSM   H18G16975   5.239   5.135   5.757 -3.3879  0.3500 -0.7341
  152OSM   H18H16976   5.347   5.138   5.608 -1.2924  0.8778 -0.8908
  153OSM      N16977   3.628   0.090   3.272 -0.4319 -0.1847 -0.0716
  153OSM    C1516978   3.555  -0.016   3.196  0.2028  0.4448 -0.5763
  153OSM   H15A16979   3.450   0.010   3.185  0.0320 -0.4929 -1.2632
  153OSM   H15B16980   3.549  -0.112   3.245  2.4157  0.5628  0.0441
  153OSM   H15C16981   3.590  -0.036   3.096 -0.2490 -1.2750 -0.4131
  153OSM    C1416982   3.760   0.036   3.308 -0.9803 -0.1305  0.4288
  153OSM   H14A16983   3.815   0.111   3.364 -1.4934  0.6397 -0.0679
  153OSM   H14B16984   3.816   0.017   3.218  1.1292  3.1328  0.8661
  153OSM   H14C16985   3.751  -0.051   3.372  0.4121  0.1194  1.0050
  153OSM    C1316986   3.645   0.210   3.190  0.7428 -0.0740  0.1941
  153OSM   H13A16987   3.552   0.256   3.157  0.9822  1.8323  1.9881
  153OSM   H13B16988   3.701   0.181   3.102  0.2414  0.4957 -0.3306
  153OSM   H13C16989   3.691   0.289   3.247 -2.1266 -0.1757  2.9462
  153OSM    C1216990   3.556   0.131   3.398 -0.3103  0.1941  0.1227
  153OSM   H12A16991   3.453   0.158   3.377 -0.1472  0.6798 -0.0663
  153OSM   H12B16992   3.602   0.217   3.445 -0.7229  0.9441 -0.8056
  153OSM    C1116993   3.532   0.030   3.509 -0.0564  0.3000  0.0449
  153OSM   H11A16994   3.451   0.075   3.570 -1.6012 -0.5501 -1.2968
  153OSM   H11B16995   3.621   0.022   3.576  0.9809 -1.0848 -1.4188
  153OSM      P16996   3.571  -0.231   3.491 -0.3043 -0.0091  0.0951
  153OSM    O1316997   3.471  -0.336   3.448 -0.3240  0.8230 -0.0192
  153OSM    O1416998   3.699  -0.237   3.416 -0.4313  0.2381 -0.2256
  153OSM    O1116999   3.598  -0.234   3.648 -0.7847 -0.7004 -0.8921
  153OSM    O1217000   3.493  -0.096   3.466 -0.3025  0.1914 -0.2601
  153OSM    C1S17001   3.492  -0.239   3.739 -0.2973  0.1350  0.6288
  153OSM    H1S17002   3.421  -0.318   3.708  0.7552 -0.5492 -0.1208
  153OSM    H1T17003   3.437  -0.144   3.757  0.8336  1.1824 -1.1484
  153OSM     NF17004   3.454  -0.307   3.975 -0.6143 -0.0635 -0.5035
  153OSM    HNF17005   3.422  -0.223   4.019 -0.7578 -0.0689 -0.5965
  153OSM    C2S17006   3.561  -0.273   3.878 -0.0384 -0.5615  0.5241
  153OSM    H2S17007   3.632  -0.357   3.865  0.3441 -0.8163  3.5026
  153OSM    C3S17008   3.643  -0.153   3.931 -0.6492 -0.1469  0.6351
  153OSM    H3S17009   3.575  -0.066   3.922 -1.4330 -0.7135  0.9403
  153OSM     O317010   3.753  -0.123   3.851  0.4583  0.3441 -0.1593
  153OSM    HO317011   3.730  -0.167   3.769  2.2890  0.4043 -0.7441
  153OSM    C4S17012   3.698  -0.179   4.065  0.2415 -0.8964 -0.0516
  153OSM    H4S17013   3.798  -0.225   4.070  0.9850  0.7756  1.4956
  153OSM    C5S17014   3.635  -0.137   4.173  0.3451 -0.3174 -0.1848
  153OSM    H5S17015   3.538  -0.084   4.176  0.8532  0.6146  1.5277
  153OSM    C6S17016   3.688  -0.152   4.307 -1.4891  0.1658  0.2279
  153OSM    H6S17017   3.656  -0.062   4.363 -1.0398  1.0462 -0.8939
  153OSM    H6T17018   3.798  -0.140   4.308 -1.3282 -0.3977 -2.4160
  153OSM    C7S17019   3.665  -0.270   4.394 -0.1767 -0.2164 -0.1726
  153OSM    H7S17020   3.711  -0.361   4.349 -2.8776 -1.4360 -0.6830
  153OSM    H7T17021   3.562  -0.305   4.414  0.1331 -0.4345  1.1414
  153OSM    C8S17022   3.734  -0.264   4.535  0.0917  0.4047  0.4844
  153OSM    H8S17023   3.828  -0.209   4.515  2.2177 -3.1358 -0.0510
  153OSM    H8T17024   3.772  -0.359   4.578  1.8490  1.2695  0.9067
  153OSM    C9S17025   3.643  -0.193   4.644 -0.3341 -0.0635  0.1058
  153OSM    H9S17026   3.636  -0.272   4.721 -0.1846  0.2411  0.4346
  153OSM    H9T17027   3.538  -0.193   4.609  0.3220 -1.2961 -2.0747
  153OSM   C10S17028   3.687  -0.059   4.699 -0.3897 -0.0463  0.3052
  153OSM   H10S17029   3.648   0.023   4.635  2.3600  0.1721 -1.2792
  153OSM   H10T17030   3.798  -0.055   4.704 -0.4246  0.7093  0.6204
  153OSM   C11S17031   3.631  -0.040   4.840 -0.0396 -0.1407 -0.0736
  153OSM   H11S17032   3.522  -0.063   4.833 -0.2743  0.9192 -0.2031
  153OSM   H11T17033   3.650   0.066   4.869 -2.9935  0.1640  1.1641
  153OSM   C12S17034   3.701  -0.125   4.947  0.3740  0.6465  0.4467
  153OSM   H12S17035   3.803  -0.082   4.960 -0.2196  1.4238  3.1542
  153OSM   H12T17036   3.713  -0.227   4.906  0.8165 -0.6304  3.5179
  153OSM   C13S17037   3.622  -0.115   5.077  0.5369 -0.0506 -0.0863
  153OSM   H13S17038   3.680  -0.146   5.166 -0.4444  1.7094  1.2303
  153OSM   H13T17039   3.537  -0.185   5.066  0.9543 -0.6993  0.7926
  153OSM   C14S17040   3.575   0.029   5.115 -0.3628 -0.3023 -0.2911
  153OSM   H14S17041   3.502   0.068   5.042  0.5216  1.1939 -0.4149
  153OSM   H14T17042   3.664   0.094   5.100  0.2995 -1.2244 -0.4733
  153OSM   C15S17043   3.522   0.034   5.262 -0.5487 -0.2206  0.2269
  153OSM   H15S17044   3.596  -0.020   5.325  0.6021 -1.7595 -2.2646
  153OSM   H15T17045   3.437  -0.038   5.263 -0.6536 -0.0933  0.5231
  153OSM   C16S17046   3.502   0.166   5.332 -0.3297 -0.2277 -0.9333
  153OSM   H16S17047   3.393   0.185   5.335 -0.1588  0.6584  0.6852
  153OSM   H16T17048   3.550   0.246   5.272  0.0407 -0.9899 -1.6819
  153OSM   C17S17049   3.561   0.158   5.477 -0.1125  0.3990  0.8005
  153OSM   H17S17050   3.667   0.192   5.482 -0.4542  1.4093  1.4136
  153OSM   H17T17051   3.550   0.056   5.518 -1.9579 -0.4149 -1.5381
  153OSM   C18S17052   3.490   0.255   5.572  0.3256 -0.4259  0.3615
  153OSM   H18S17053   3.386   0.220   5.590  1.0891 -1.7153  2.8211
  153OSM   H18T17054   3.490   0.349   5.513  2.9602 -0.5973 -0.0342
  153OSM   H18U17055   3.548   0.278   5.665  1.9596  0.4764 -0.8261
  153OSM    C1F17056   3.373  -0.410   3.969 -0.1331  0.9859 -0.4028
  153OSM     OF17057   3.393  -0.501   3.886  0.5005  0.8615 -0.0503
  153OSM    C2F17058   3.254  -0.416   4.056 -0.8260 -1.1249 -0.2550
  153OSM    H2F17059   3.170  -0.430   3.985 -0.7857  0.8975 -0.7860
  153OSM    H2G17060   3.242  -0.316   4.105  2.6770 -1.1279  0.9735
  153OSM    C3F17061   3.279  -0.531   4.158  0.1958 -0.2867  0.0064
  153OSM    H3F17062   3.306  -0.629   4.114 -0.4120 -0.9743  1.1168
  153OSM    H3G17063   3.179  -0.557   4.198  0.9893 -1.8472  1.1007
  153OSM    C4F17064   3.361  -0.498   4.276 -0.4777  0.1102 -0.1968
  153OSM    H4F17065   3.304  -0.414   4.321 -1.4472  0.4868 -2.0468
  153OSM    H4G17066   3.462  -0.466   4.242 -0.1035 -0.3989  0.4125
  153OSM    C5F17067   3.373  -0.624   4.365 -0.0258 -0.4381  0.8204
  153OSM    H5F17068   3.427  -0.702   4.307 -1.3814 -0.1829 -0.9033
  153OSM    H5G17069   3.275  -0.676   4.378 -0.0938 -0.2298  1.1380
  153OSM    C6F17070   3.427  -0.610   4.503 -0.6078 -0.5633 -0.9272
  153OSM    H6F17071   3.533  -0.576   4.500 -0.8564  0.4763  0.6373
  153OSM    H6G17072   3.414  -0.711   4.547 -1.9355 -0.6058 -1.3644
  153OSM    C7F17073   3.346  -0.506   4.592  0.4740 -0.1153  0.6774
  153OSM    H7F17074   3.242  -0.542   4.600 -0.0223  0.9459 -0.5724
  153OSM    H7G17075   3.345  -0.410   4.536 -2.3028  0.9441  2.3677
  153OSM    C8F17076   3.390  -0.487   4.737  0.7047  0.7014  0.5807
  153OSM    H8F17077   3.495  -0.459   4.758  0.7588  0.2076  1.0039
  153OSM    H8G17078   3.368  -0.584   4.786 -0.9151  0.9033  0.3159
  153OSM    C9F17079   3.307  -0.384   4.809 -0.2663 -0.0605 -0.3735
  153OSM    H9F17080   3.281  -0.294   4.751  0.8609  0.6026  0.1343
  153OSM   C10F17081   3.254  -0.389   4.941 -0.7648 -0.0190  0.3260
  153OSM   H10F17082   3.204  -0.295   4.969 -1.6301 -0.2853 -0.2837
  153OSM   C11F17083   3.272  -0.498   5.038  0.0772 -0.0202  0.2264
  153OSM   H11F17084   3.328  -0.582   4.994 -0.4028  0.5034 -1.4401
  153OSM   H11G17085   3.173  -0.530   5.076  0.0777  0.1378  0.3648
  153OSM   C12F17086   3.367  -0.462   5.152  0.3791  0.1436  0.0576
  153OSM   H12F17087   3.463  -0.414   5.126 -0.0312  0.7227 -0.4046
  153OSM   H12G17088   3.394  -0.556   5.206  1.2072  0.5028  0.2786
  153OSM   C13F17089   3.297  -0.370   5.250  0.0965 -0.6625 -0.0165
  153OSM   H13F17090   3.204  -0.420   5.284 -0.0390 -1.4017 -1.3951
  153OSM   H13G17091   3.278  -0.272   5.202  1.8685  0.2834  1.1127
  153OSM   C14F17092   3.384  -0.332   5.372 -0.1466 -0.5022  0.2030
  153OSM   H14F17093   3.477  -0.289   5.327 -0.8472  1.9322  0.8890
  153OSM   H14G17094   3.399  -0.419   5.440  3.1364 -1.7609 -1.8900
  153OSM   C15F17095   3.320  -0.214   5.455  0.4198 -0.4220 -0.1190
  153OSM   H15F17096   3.295  -0.121   5.400 -1.8509 -1.9391 -1.8243
  153OSM   H15G17097   3.395  -0.186   5.532  1.0483 -0.2974 -0.7650
  153OSM   C16F17098   3.192  -0.262   5.528  0.8582  0.0019 -0.3659
  153OSM   H16F17099   3.194  -0.371   5.551 -1.0423 -0.0178 -0.1030
  153OSM   H16G17100   3.107  -0.242   5.460  0.7335 -0.1357 -0.2517
  153OSM   C17F17101   3.151  -0.181   5.659  0.1476  0.3250  0.5197
  153OSM   H17F17102   3.164  -0.072   5.636  2.1745 -0.6408 -4.1675
  153OSM   H17G17103   3.230  -0.213   5.730  0.1397 -1.5757 -0.2731
  153OSM   C18F17104   3.013  -0.212   5.709 -0.0158  0.2676  0.4683
  153OSM   H18F17105   3.008  -0.322   5.722 -0.5448  0.3202  0.7326
  153OSM   H18G17106   2.946  -0.184   5.625  0.9091 -3.7910 -1.9283
  153OSM   H18H17107   2.995  -0.160   5.806  1.5056 -1.5202  1.7758
  154OSM      N17108   2.412   2.557   3.568 -0.3953 -0.1900  0.5076
  154OSM    C1517109   2.287   2.631   3.591 -0.6793 -0.0684 -0.3194
  154OSM   H15A17110   2.234   2.658   3.501  0.5329  0.1542 -0.9795
  154OSM   H15B17111   2.306   2.728   3.634 -2.6266  0.6484 -0.9343
  154OSM   H15C17112   2.217   2.591   3.663 -0.0150  0.3531  0.5710
  154OSM    C1417113   2.513   2.626   3.484  0.2713  0.2862  0.4654
  154OSM   H14A17114   2.517   2.732   3.504 -0.9267  0.2524  0.9666
  154OSM   H14B17115   2.478   2.639   3.382 -0.6022  0.9937  0.8425
  154OSM   H14C17116   2.616   2.598   3.498  0.2374  0.7869  1.8843
  154OSM    C1317117   2.469   2.545   3.705  0.1119 -0.0893  0.1573
  154OSM   H13A17118   2.564   2.500   3.727  1.3407  1.5450 -1.4876
  154OSM   H13B17119   2.398   2.503   3.775  0.1108  0.0909  0.2651
  154OSM   H13C17120   2.484   2.647   3.740  0.7566 -0.6544  1.6264
  154OSM    C1217121   2.377   2.423   3.511  0.0962 -0.2323 -0.6732
  154OSM   H12A17122   2.472   2.371   3.512  0.9911  1.3633 -0.4920
  154OSM   H12B17123   2.350   2.444   3.409  1.0617 -0.8449 -1.0756
  154OSM    C1117124   2.277   2.336   3.589  0.5168  0.3571 -0.7498
  154OSM   H11A17125   2.173   2.367   3.563  0.2493 -0.0021 -0.1397
  154OSM   H11B17126   2.282   2.336   3.700 -1.0100  1.1508 -0.6521
  154OSM      P17127   2.419   2.109   3.591 -0.0951  0.5205 -0.2762
  154OSM    O1317128   2.395   1.971   3.536  0.2836 -0.0897 -0.2520
  154OSM    O1417129   2.542   2.173   3.542  0.5340  0.2768  0.4417
  154OSM    O1117130   2.430   2.098   3.750 -0.0158 -0.5527 -0.7371
  154OSM    O1217131   2.291   2.196   3.550  0.3954 -0.3159  0.2661
  154OSM    C1S17132   2.312   2.075   3.820  0.2394 -0.3235 -0.0825
  154OSM    H1S17133   2.284   1.968   3.809 -1.0890  0.2148 -2.6015
  154OSM    H1T17134   2.225   2.132   3.780 -0.6064 -1.1396  0.5405
  154OSM     NF17135   2.223   2.032   4.042  0.9212 -0.0058  0.0335
  154OSM    HNF17136   2.157   2.095   4.083  2.5027 -0.6193  4.0166
  154OSM    C2S17137   2.325   2.098   3.975 -0.6121  0.1402  0.3594
  154OSM    H2S17138   2.419   2.052   4.011  1.4236  1.6671 -2.5984
  154OSM    C3S17139   2.339   2.251   4.009 -0.3056  0.2954  0.4114
  154OSM    H3S17140   2.235   2.289   3.999 -0.3468  0.5091  1.4525
  154OSM     O317141   2.422   2.331   3.926  0.0923  0.1104 -0.0240
  154OSM    HO317142   2.461   2.262   3.872 -1.7865 -2.6957  1.9527
  154OSM    C4S17143   2.376   2.267   4.156 -0.3022 -0.3171 -0.8973
  154OSM    H4S17144   2.294   2.282   4.228 -0.3960 -0.2313 -1.0231
  154OSM    C5S17145   2.503   2.272   4.209  0.2079  0.7540 -0.0479
  154OSM    H5S17146   2.587   2.253   4.140  0.2692 -4.1370  1.0098
  154OSM    C6S17147   2.551   2.288   4.358  0.0983 -0.5236 -0.1386
  154OSM    H6S17148   2.657   2.320   4.368 -0.7075  2.2876  0.3198
  154OSM    H6T17149   2.536   2.190   4.409 -0.1303 -1.1471 -1.3668
  154OSM    C7S17150   2.482   2.405   4.431  0.4960  0.2726 -0.3457
  154OSM    H7S17151   2.371   2.394   4.427  0.6816 -1.5195 -1.3236
  154OSM    H7T17152   2.494   2.496   4.367 -0.1474  1.4250  1.1178
  154OSM    C8S17153   2.528   2.443   4.573 -0.1445  0.0977 -0.4753
  154OSM    H8S17154   2.638   2.451   4.586 -0.2353 -0.3308  0.6999
  154OSM    H8T17155   2.491   2.353   4.627 -1.4645 -0.8213 -2.7502
  154OSM    C9S17156   2.456   2.555   4.648 -0.4023  0.2328 -0.4406
  154OSM    H9S17157   2.346   2.547   4.632 -0.2607 -1.0779 -0.8464
  154OSM    H9T17158   2.479   2.655   4.605 -0.1155  0.1511 -0.4746
  154OSM   C10S17159   2.487   2.555   4.802  0.0288 -0.2757  0.3139
  154OSM   H10S17160   2.579   2.617   4.807 -0.4477  0.5605 -0.7293
  154OSM   H10T17161   2.518   2.454   4.835 -1.6830 -0.9721 -0.0872
  154OSM   C11S17162   2.385   2.637   4.882  0.5157  0.2775  0.3295
  154OSM   H11S17163   2.287   2.586   4.879  0.1695  0.9929 -0.7457
  154OSM   H11T17164   2.364   2.736   4.838 -3.0952 -0.8407 -0.7982
  154OSM   C12S17165   2.426   2.653   5.029 -0.1377  0.2517 -0.1934
  154OSM   H12S17166   2.521   2.710   5.045 -0.7555  1.2191  0.1229
  154OSM   H12T17167   2.444   2.554   5.075  2.1404  0.9390  0.5488
  154OSM   C13S17168   2.333   2.743   5.112  0.2650 -0.5364 -0.4266
  154OSM   H13S17169   2.234   2.692   5.121 -0.8727  1.4624 -0.9538
  154OSM   H13T17170   2.315   2.840   5.060 -3.8052 -0.9514 -0.1212
  154OSM   C14S17171   2.383   2.777   5.259  0.0912  0.5280  0.4772
  154OSM   H14S17172   2.467   2.848   5.274 -0.3472  0.9372  1.0792
  154OSM   H14T17173   2.423   2.686   5.309  0.6775  0.9124  0.7184
  154OSM   C15S17174   2.266   2.829   5.340  0.6490  0.0928  0.0953
  154OSM   H15S17175   2.178   2.765   5.318 -0.1533  1.0077  0.5861
  154OSM   H15T17176   2.239   2.929   5.300  0.1319 -0.0482  0.0844
  154OSM   C16S17177   2.291   2.837   5.488  0.4505 -0.0186 -0.3857
  154OSM   H16S17178   2.396   2.857   5.521  0.2671  1.4289 -0.6281
  154OSM   H16T17179   2.273   2.742   5.543 -1.2954  1.0287  0.9625
  154OSM   C17S17180   2.208   2.945   5.553 -0.5335 -0.2223  0.3933
  154OSM   H17S17181   2.101   2.925   5.532  0.1316 -1.4761 -2.3447
  154OSM   H17T17182   2.220   3.038   5.494  0.8950 -1.5640 -1.5665
  154OSM   C18S17183   2.243   2.967   5.697  0.4115 -0.1598  0.1446
  154OSM   H18S17184   2.343   2.921   5.715 -0.2821 -1.3427  1.2081
  154OSM   H18T17185   2.168   2.909   5.754  0.4920 -1.1708 -0.7580
  154OSM   H18U17186   2.243   3.075   5.724 -3.2188  0.1711 -0.6984
  154OSM    C1F17187   2.196   1.902   4.038 -0.2200  1.2024  0.4893
  154OSM     OF17188   2.289   1.826   4.010 -0.6942  0.2049 -0.4665
  154OSM    C2F17189   2.050   1.844   4.056  0.2667  0.8974  0.0171
  154OSM    H2F17190   2.031   1.794   3.959  1.6892  2.8822 -1.3570
  154OSM    H2G17191   1.979   1.929   4.068 -1.0247 -0.2813  0.9585
  154OSM    C3F17192   2.053   1.751   4.172  0.2492  0.4661 -0.7608
  154OSM    H3F17193   2.074   1.807   4.265  0.4947  0.5007 -0.8358
  154OSM    H3G17194   2.130   1.673   4.153  0.1438  0.5652 -1.6776
  154OSM    C4F17195   1.906   1.682   4.180  0.2237 -0.3548  0.2137
  154OSM    H4F17196   1.881   1.633   4.084  0.1131 -0.4494  0.2897
  154OSM    H4G17197   1.835   1.763   4.203  1.1708  0.8905 -1.0829
  154OSM    C5F17198   1.902   1.577   4.292 -0.0623  0.0340 -0.6746
  154OSM    H5F17199   1.979   1.498   4.286 -1.5744 -1.6764  1.1364
  154OSM    H5G17200   1.802   1.529   4.290  0.0734 -0.2375 -0.9636
  154OSM    C6F17201   1.922   1.625   4.429 -0.3043 -0.6808 -0.2792
  154OSM    H6F17202   1.866   1.720   4.444 -1.2652 -0.7639 -2.9038
  154OSM    H6G17203   2.027   1.660   4.440 -1.1444  2.2218 -0.5691
  154OSM    C7F17204   1.884   1.523   4.541  0.1055 -1.1243  0.1345
  154OSM    H7F17205   1.955   1.440   4.524  0.2379 -0.7996 -0.9387
  154OSM    H7G17206   1.780   1.484   4.526 -0.1988 -0.3515  0.2180
  154OSM    C8F17207   1.902   1.578   4.687  0.2777 -0.2327  0.3065
  154OSM    H8F17208   2.001   1.627   4.694 -0.1066  0.4231  1.4856
  154OSM    H8G17209   1.893   1.492   4.756  0.1031  0.2492  0.9035
  154OSM    C9F17210   1.795   1.688   4.717 -0.2153  0.5186 -0.2723
  154OSM    H9F17211   1.695   1.654   4.688 -0.8341 -0.5071  2.7053
  154OSM   C10F17212   1.816   1.794   4.798 -1.0784  1.0599  0.5373
  154OSM   H10F17213   1.732   1.866   4.804 -0.2331  1.9901  1.7618
  154OSM   C11F17214   1.950   1.845   4.853 -0.0044 -0.3517 -0.1528
  154OSM   H11F17215   1.970   1.951   4.828 -0.2576 -0.2185  0.1969
  154OSM   H11G17216   2.036   1.790   4.810 -0.0589 -0.9658  0.5017
  154OSM   C12F17217   1.944   1.833   5.007 -0.2618 -0.1246  0.3883
  154OSM   H12F17218   1.933   1.730   5.045 -1.7841  0.6694  2.3275
  154OSM   H12G17219   1.862   1.889   5.059  0.4699 -1.3476  3.0112
  154OSM   C13F17220   2.059   1.902   5.086  0.2523  0.4064  0.2938
  154OSM   H13F17221   2.047   1.895   5.196  5.3283  0.9298  1.1195
  154OSM   H13G17222   2.071   2.010   5.063 -1.4309  0.6842  0.5959
  154OSM   C14F17223   2.188   1.828   5.059 -1.0392  0.4415  0.4836
  154OSM   H14F17224   2.191   1.820   4.949 -0.3244 -2.0803  0.6286
  154OSM   H14G17225   2.190   1.725   5.100  4.1526  0.1255  0.0933
  154OSM   C15F17226   2.308   1.908   5.109 -0.5910 -0.1855 -0.7260
  154OSM   H15F17227   2.292   2.012   5.072  3.6190  0.9105 -0.0446
  154OSM   H15G17228   2.406   1.874   5.068  0.3969  0.3993  1.0244
  154OSM   C16F17229   2.318   1.906   5.268  0.3837  0.0980  0.7262
  154OSM   H16F17230   2.238   1.965   5.320  1.2260  0.6163  1.4675
  154OSM   H16G17231   2.416   1.951   5.293  0.5567 -0.2414  0.6466
  154OSM   C17F17232   2.331   1.762   5.312 -0.6283  0.2563 -0.6537
  154OSM   H17F17233   2.393   1.713   5.234  1.2149  3.2011 -1.1837
  154OSM   H17G17234   2.230   1.716   5.315 -1.3245  1.7134 -0.9843
  154OSM   C18F17235   2.398   1.732   5.454  0.0169 -0.6524  0.3802
  154OSM   H18F17236   2.331   1.766   5.536 -0.0205  1.0223 -0.3071
  154OSM   H18G17237   2.489   1.796   5.455 -0.7997  0.5502 -0.0563
  154OSM   H18H17238   2.427   1.626   5.472  0.3458 -0.4064  1.3694
  155OSM      N17239   4.168   1.185   3.433 -0.3147  0.3810  0.6939
  155OSM    C1517240   4.218   1.268   3.325 -0.4031  0.1682  0.1419
  155OSM   H15A17241   4.254   1.219   3.237 -0.3045  1.7702 -0.7496
  155OSM   H15B17242   4.296   1.334   3.361  0.1057 -0.6266  0.5065
  155OSM   H15C17243   4.143   1.341   3.299 -1.1470 -0.8258 -0.5732
  155OSM    C1417244   4.060   1.115   3.367 -0.1630  0.0614  0.4193
  155OSM   H14A17245   4.005   1.049   3.433 -0.4120  0.2616  0.4126
  155OSM   H14B17246   4.092   1.057   3.281  0.4240  2.0098 -0.7418
  155OSM   H14C17247   3.991   1.191   3.335  0.1989  0.7387  1.2188
  155OSM    C1317248   4.284   1.097   3.471  0.4316 -0.1058 -0.3714
  155OSM   H13A17249   4.339   1.157   3.543 -0.7640  1.0461 -0.3701
  155OSM   H13B17250   4.348   1.066   3.390 -0.5941 -1.7083 -0.6109
  155OSM   H13C17251   4.257   1.015   3.535  0.8841 -1.7443 -2.1987
  155OSM    C1217252   4.108   1.260   3.542 -0.4091 -0.1975 -0.2033
  155OSM   H12A17253   4.028   1.322   3.504 -1.6213 -1.2784  0.4934
  155OSM   H12B17254   4.184   1.333   3.566  1.0151 -0.9265 -2.1876
  155OSM    C1117255   4.055   1.182   3.661  0.1830  0.3821 -0.2118
  155OSM   H11A17256   4.043   1.252   3.746  1.3591  1.3503 -0.8076
  155OSM   H11B17257   4.132   1.108   3.690 -0.5431 -0.3974 -0.2405
  155OSM      P17258   3.900   0.974   3.677 -0.0031 -0.3141  0.0479
  155OSM    O1317259   3.761   0.945   3.639  0.0829 -0.1388 -0.0484
  155OSM    O1417260   4.004   0.886   3.624 -0.0027  0.2975  0.7760
  155OSM    O1117261   3.915   0.993   3.832 -0.5345 -0.4396 -0.1218
  155OSM    O1217262   3.936   1.116   3.630 -0.1580  0.4305  0.0643
  155OSM    C1S17263   3.811   1.055   3.911 -0.2296 -0.1853  1.0850
  155OSM    H1S17264   3.719   0.992   3.907  0.1663 -0.9659  2.9925
  155OSM    H1T17265   3.782   1.155   3.872  1.9809 -0.1754 -0.7112
  155OSM     NF17266   3.722   1.130   4.131 -0.6382  0.1460 -0.4016
  155OSM    HNF17267   3.735   1.222   4.166  0.6374 -0.2710  0.2762
  155OSM    C2S17268   3.836   1.078   4.061  0.4232  0.5301 -0.2508
  155OSM    H2S17269   3.868   0.975   4.090 -2.7052 -1.1895 -2.3169
  155OSM    C3S17270   3.965   1.155   4.094  0.2227  0.4327 -0.1081
  155OSM    H3S17271   3.936   1.261   4.077 -1.9155  0.1066  1.2072
  155OSM     O317272   4.071   1.136   3.999 -0.1848 -0.7272  0.4614
  155OSM    HO317273   4.031   1.095   3.922  0.6597  1.3294 -1.1445
  155OSM    C4S17274   4.012   1.141   4.231  0.3694 -0.0515 -0.5449
  155OSM    H4S17275   4.028   1.036   4.262 -1.7187 -0.6797 -1.4029
  155OSM    C5S17276   3.997   1.238   4.327 -0.5049  0.4823  0.4037
  155OSM    H5S17277   3.961   1.338   4.300 -2.2476 -0.5056 -1.1700
  155OSM    C6S17278   4.012   1.204   4.469  0.5128  0.0295  0.1195
  155OSM    H6S17279   4.116   1.166   4.477  1.1208  1.6367  0.2278
  155OSM    H6T17280   3.941   1.123   4.495 -1.9844  1.7328 -1.0666
  155OSM    C7S17281   4.002   1.319   4.572 -0.0059 -0.6042 -0.2671
  155OSM    H7S17282   3.898   1.350   4.591  0.0693 -0.5303  0.0221
  155OSM    H7T17283   4.058   1.405   4.529  1.7255 -1.6921 -0.3034
  155OSM    C8S17284   4.059   1.266   4.700 -0.7166  0.2528 -0.1930
  155OSM    H8S17285   4.168   1.243   4.690 -0.2989  2.2016 -0.5389
  155OSM    H8T17286   3.993   1.180   4.726 -0.0295 -0.5459 -1.0001
  155OSM    C9S17287   4.044   1.363   4.815  0.7547 -0.7722  0.2597
  155OSM    H9S17288   3.937   1.394   4.819  1.0979  0.3325  3.0976
  155OSM    H9T17289   4.110   1.448   4.785  0.1790  0.2609  1.7775
  155OSM   C10S17290   4.069   1.307   4.952 -0.4155  0.1729 -0.5599
  155OSM   H10S17291   4.155   1.240   4.927  0.7880  1.6589 -0.5417
  155OSM   H10T17292   3.981   1.250   4.988  0.1163  0.8357  2.0071
  155OSM   C11S17293   4.107   1.419   5.055 -0.3046 -0.4522  0.0977
  155OSM   H11S17294   4.015   1.475   5.080 -0.6736 -0.2502 -1.6044
  155OSM   H11T17295   4.182   1.496   5.026  0.5656 -1.6359 -0.9337
  155OSM   C12S17296   4.167   1.347   5.177 -0.3482  0.1193  1.0341
  155OSM   H12S17297   4.261   1.298   5.143  0.5599  1.2271  1.8688
  155OSM   H12T17298   4.097   1.265   5.199  0.7224 -0.4751  2.3359
  155OSM   C13S17299   4.182   1.437   5.300  0.0874 -0.0514  0.3481
  155OSM   H13S17300   4.277   1.494   5.294  0.2899 -0.1920  1.8995
  155OSM   H13T17301   4.199   1.373   5.390  1.2202 -1.3317 -0.7324
  155OSM   C14S17302   4.068   1.533   5.329  0.9155 -0.3560 -0.8915
  155OSM   H14S17303   3.982   1.463   5.343  1.1731 -0.9658 -2.2236
  155OSM   H14T17304   4.048   1.600   5.243  1.5941  1.5409  0.3803
  155OSM   C15S17305   4.085   1.618   5.456  0.5563 -0.0172  0.4269
  155OSM   H15S17306   3.987   1.667   5.476 -0.3614 -1.4062 -0.4408
  155OSM   H15T17307   4.159   1.701   5.449  2.6486 -1.9445 -2.9971
  155OSM   C16S17308   4.105   1.542   5.589 -0.3745  0.6293  0.9087
  155OSM   H16S17309   4.211   1.508   5.590 -0.2827  0.9141  1.8315
  155OSM   H16T17310   4.046   1.449   5.607  0.7608 -0.3647 -0.2766
  155OSM   C17S17311   4.075   1.634   5.706 -0.4645  0.0257 -0.2215
  155OSM   H17S17312   3.965   1.641   5.712 -0.5225  1.4476 -1.9595
  155OSM   H17T17313   4.114   1.736   5.688  2.8570 -0.5489  2.6378
  155OSM   C18S17314   4.127   1.577   5.835 -0.5055 -0.0099  0.2067
  155OSM   H18S17315   4.107   1.644   5.922  0.9058  0.6434  0.0544
  155OSM   H18T17316   4.234   1.560   5.810 -0.9311 -0.2776 -1.4951
  155OSM   H18U17317   4.072   1.481   5.846 -0.8077 -0.3798 -3.4923
  155OSM    C1F17318   3.612   1.057   4.153 -0.2240 -0.1247  0.0588
  155OSM     OF17319   3.614   0.939   4.124 -0.1774  0.0601  0.1855
  155OSM    C2F17320   3.496   1.134   4.211  0.0570 -0.4623 -0.3981
  155OSM    H2F17321   3.437   1.167   4.122 -0.3298 -1.6009 -0.5713
  155OSM    H2G17322   3.533   1.220   4.271  0.9543 -0.6331 -0.6832
  155OSM    C3F17323   3.419   1.048   4.309  0.6610 -0.2484 -0.2319
  155OSM    H3F17324   3.404   0.952   4.255  0.1319 -0.0369 -0.4704
  155OSM    H3G17325   3.322   1.102   4.315  0.7858  0.0507 -0.8440
  155OSM    C4F17326   3.481   1.021   4.441  0.4414 -0.7285  0.0314
  155OSM    H4F17327   3.540   1.115   4.454  0.3088 -0.6702  0.2081
  155OSM    H4G17328   3.557   0.941   4.428  0.9911  0.0876 -2.3951
  155OSM    C5F17329   3.390   1.015   4.559  0.3234  0.4070  0.1962
  155OSM    H5F17330   3.302   0.953   4.532  1.5386 -0.4098 -2.1972
  155OSM    H5G17331   3.361   1.118   4.588  0.9689  0.7386 -0.3143
  155OSM    C6F17332   3.451   0.964   4.690 -0.6138  0.4366  0.3192
  155OSM    H6F17333   3.536   1.032   4.711  0.0246 -0.5741  1.0785
  155OSM    H6G17334   3.502   0.865   4.683  0.5915  0.8663  2.3345
  155OSM    C7F17335   3.347   0.967   4.805 -0.3037  0.2745  0.5651
  155OSM    H7F17336   3.270   0.893   4.775 -0.1466  0.4090 -0.1880
  155OSM    H7G17337   3.293   1.064   4.802 -0.5023  0.1807  1.0531
  155OSM    C8F17338   3.409   0.945   4.942 -0.5351  0.1627 -0.1211
  155OSM    H8F17339   3.479   0.861   4.922 -0.3780  0.0530  0.8242
  155OSM    H8G17340   3.329   0.916   5.014 -0.5719  0.1316 -0.1739
  155OSM    C9F17341   3.472   1.074   4.986 -0.0694 -0.2025 -0.1321
  155OSM    H9F17342   3.519   1.126   4.902  0.6942 -3.5963 -1.9845
  155OSM   C10F17343   3.473   1.120   5.119  0.8071  0.3466  0.0443
  155OSM   H10F17344   3.539   1.203   5.150  0.8759 -0.1991  1.4462
  155OSM   C11F17345   3.412   1.055   5.244  1.0503  0.2173  0.4736
  155OSM   H11F17346   3.427   0.945   5.240 -3.3192 -0.6068 -3.8414
  155OSM   H11G17347   3.302   1.066   5.231  0.8362 -0.5824  1.5134
  155OSM   C12F17348   3.446   1.114   5.380 -0.3658  0.0944  0.0288
  155OSM   H12F17349   3.433   1.224   5.368 -0.8319 -0.0502 -0.8997
  155OSM   H12G17350   3.550   1.092   5.412 -0.6291 -0.1613  0.7338
  155OSM   C13F17351   3.348   1.068   5.489  0.2498 -0.1181 -1.2273
  155OSM   H13F17352   3.392   0.971   5.518  0.9316  0.3363 -0.6856
  155OSM   H13G17353   3.248   1.053   5.443 -0.9212  1.2730  0.7059
  155OSM   C14F17354   3.325   1.168   5.599  0.2711 -0.4154 -0.3198
  155OSM   H14F17355   3.273   1.254   5.550  0.5503 -0.5799 -0.9225
  155OSM   H14G17356   3.425   1.207   5.629 -0.1439 -0.0763  0.6716
  155OSM   C15F17357   3.242   1.128   5.720 -0.2241  0.1120  0.1152
  155OSM   H15F17358   3.158   1.079   5.667  1.4439  0.2989 -2.9272
  155OSM   H15G17359   3.200   1.225   5.756 -0.1415 -0.1911  1.0486
  155OSM   C16F17360   3.316   1.046   5.819  0.3322 -0.1679 -0.6159
  155OSM   H16F17361   3.411   1.097   5.846 -0.2501  2.0223 -2.3451
  155OSM   H16G17362   3.336   0.958   5.755 -0.1564  0.4702 -1.6725
  155OSM   C17F17363   3.232   1.017   5.943  0.0898 -0.1561 -0.0305
  155OSM   H17F17364   3.260   0.918   5.986  0.6586 -0.9846 -2.1604
  155OSM   H17G17365   3.124   1.006   5.919 -0.1655  2.0169 -0.0493
  155OSM   C18F17366   3.240   1.123   6.053  0.2632  0.3675  0.0260
  155OSM   H18F17367   3.192   1.214   6.012 -0.6902 -0.4538 -0.7480
  155OSM   H18G17368   3.343   1.143   6.091  0.2007 -0.7022  0.8186
  155OSM   H18H17369   3.178   1.096   6.141 -0.2628 -0.0183 -0.4549
  156OSM      N17370   6.832   4.965   3.759  0.0309 -0.3395 -0.4369
  156OSM    C1517371   6.832   5.078   3.658  0.3938 -0.0456 -0.6286
  156OSM   H15A17372   6.731   5.116   3.646 -0.3471 -1.7144  0.0136
  156OSM   H15B17373   6.885   5.059   3.566 -0.3686  1.1718 -1.3475
  156OSM   H15C17374   6.886   5.160   3.703 -1.1409  0.6871 -0.0255
  156OSM    C1417375   6.743   4.988   3.878  0.6068  0.2997  0.3472
  156OSM   H14A17376   6.762   5.081   3.928  0.2722 -0.2202  1.4734
  156OSM   H14B17377   6.741   4.905   3.947  2.8340 -2.2007 -2.3257
  156OSM   H14C17378   6.647   5.019   3.839  0.7745  1.3375  0.7364
  156OSM    C1317379   6.787   4.842   3.688  0.0960  0.7636  0.0413
  156OSM   H13A17380   6.870   4.793   3.639  0.7035  0.6039  1.1990
  156OSM   H13B17381   6.710   4.853   3.614  1.1098 -0.7096 -1.3059
  156OSM   H13C17382   6.765   4.770   3.766  0.7666  0.0691 -0.3914
  156OSM    C1217383   6.976   4.947   3.810  0.0893 -0.1417  0.1945
  156OSM   H12A17384   6.987   4.880   3.893  0.7239  1.4314  1.4315
  156OSM   H12B17385   7.008   5.040   3.855 -0.3139  1.1545 -2.0219
  156OSM    C1117386   7.084   4.900   3.709  0.4645  0.1943 -0.7142
  156OSM   H11A17387   7.185   4.912   3.755  0.9029 -0.9538 -1.3394
  156OSM   H11B17388   7.083   4.960   3.616 -2.7748  3.0202  0.9483
  156OSM      P17389   7.189   4.657   3.657 -0.4264  0.1820 -0.6478
  156OSM    O1317390   7.154   4.551   3.565  0.0030  0.1727 -0.2396
  156OSM    O1417391   7.313   4.728   3.629  0.2679 -0.6311  0.5362
  156OSM    O1117392   7.193   4.609   3.802  0.3247  0.1646  0.0743
  156OSM    O1217393   7.076   4.765   3.671  0.0869  0.2519  0.1599
  156OSM    C1S17394   7.279   4.678   3.892 -0.3929  0.3243 -1.1024
  156OSM    H1S17395   7.245   4.783   3.898  1.6702  1.3243 -4.4655
  156OSM    H1T17396   7.386   4.686   3.861  1.0702 -0.3343  3.0840
  156OSM     NF17397   7.330   4.721   4.135  0.5379  0.1144 -0.2512
  156OSM    HNF17398   7.412   4.685   4.179 -0.1512 -2.6333 -0.9982
  156OSM    C2S17399   7.266   4.626   4.042 -0.1287  0.4152 -0.2813
  156OSM    H2S17400   7.157   4.633   4.065  0.5755  2.4006  3.2275
  156OSM    C3S17401   7.315   4.475   4.049 -0.7378 -0.3371 -0.3041
  156OSM    H3S17402   7.426   4.474   4.058 -0.8428 -0.3126  1.0750
  156OSM     O317403   7.282   4.397   3.933  0.5819  0.4950  0.3197
  156OSM    HO317404   7.225   4.453   3.880  0.5509 -1.1882 -1.5317
  156OSM    C4S17405   7.264   4.424   4.180 -0.4110 -0.2273  0.9258
  156OSM    H4S17406   7.155   4.412   4.191 -0.3738 -1.8177 -0.1356
  156OSM    C5S17407   7.333   4.412   4.290 -0.5631  0.8144 -0.4005
  156OSM    H5S17408   7.442   4.429   4.281 -0.5944  1.5745  0.5080
  156OSM    C6S17409   7.291   4.370   4.422  0.1519 -0.4236 -0.1586
  156OSM    H6S17410   7.299   4.454   4.494 -0.3465  1.1773 -1.9134
  156OSM    H6T17411   7.353   4.289   4.466  1.8649  0.7944 -0.2312
  156OSM    C7S17412   7.156   4.309   4.436  1.0158 -0.5860  0.2068
  156OSM    H7S17413   7.141   4.242   4.349  1.1838  0.0850 -0.3501
  156OSM    H7T17414   7.068   4.375   4.445  1.3557 -0.0758 -0.1808
  156OSM    C8S17415   7.149   4.211   4.552  0.0589  0.6935  0.3615
  156OSM    H8S17416   7.177   4.264   4.646 -2.3196  1.8043  0.5261
  156OSM    H8T17417   7.220   4.129   4.530  1.0780  1.4087  0.8612
  156OSM    C9S17418   7.006   4.158   4.575  0.2521  0.0395 -0.4276
  156OSM    H9S17419   6.980   4.098   4.485 -0.1905  0.7164 -0.7587
  156OSM    H9T17420   6.938   4.245   4.587  2.3574  1.6967  0.0366
  156OSM   C10S17421   6.988   4.054   4.695 -0.0166 -0.0505  0.2487
  156OSM   H10S17422   7.061   3.972   4.678  1.2240  1.0601  0.0048
  156OSM   H10T17423   6.881   4.027   4.684  0.1119 -0.3709 -0.2435
  156OSM   C11S17424   7.022   4.122   4.828  0.3408 -0.1095  0.2452
  156OSM   H11S17425   6.964   4.214   4.846 -1.0041 -1.5121  3.8395
  156OSM   H11T17426   7.130   4.149   4.828 -0.0357  1.5134 -0.5367
  156OSM   C12S17427   7.007   4.037   4.957 -0.1944  0.0814 -0.3346
  156OSM   H12S17428   6.904   3.995   4.960 -1.2288  2.5036  0.6389
  156OSM   H12T17429   7.020   4.100   5.047 -1.7204  0.3610 -0.2923
  156OSM   C13S17430   7.112   3.926   4.972 -0.5143  0.4568  0.3709
  156OSM   H13S17431   7.214   3.951   4.934 -0.6980  0.5501 -0.0664
  156OSM   H13T17432   7.073   3.851   4.901 -0.8737 -0.6538  1.6900
  156OSM   C14S17433   7.111   3.882   5.117  0.4662 -0.2072  0.3382
  156OSM   H14S17434   7.151   3.962   5.184 -1.2374 -0.4262  1.6581
  156OSM   H14T17435   7.189   3.803   5.114  2.3349  1.5647 -0.9070
  156OSM   C15S17436   6.979   3.830   5.174 -0.5919  0.4535 -0.2099
  156OSM   H15S17437   6.932   3.762   5.100  1.8354 -0.3763 -1.1142
  156OSM   H15T17438   6.907   3.910   5.199 -0.8914 -0.0298  0.5029
  156OSM   C16S17439   6.996   3.747   5.307  1.3209  0.2199 -0.3994
  156OSM   H16S17440   7.017   3.816   5.391  1.1367  1.2717 -1.1947
  156OSM   H16T17441   7.071   3.665   5.301 -0.8243 -1.8834  0.1586
  156OSM   C17S17442   6.860   3.677   5.342 -0.4517  0.1418  0.9769
  156OSM   H17S17443   6.828   3.596   5.274  0.7264  1.4870 -1.2904
  156OSM   H17T17444   6.787   3.758   5.326  0.2806  0.4661 -0.9547
  156OSM   C18S17445   6.843   3.634   5.494 -0.5698 -0.7807 -0.2888
  156OSM   H18S17446   6.877   3.711   5.566  0.1006 -1.4261  0.1100
  156OSM   H18T17447   6.909   3.545   5.506 -0.0535 -0.4880 -0.8839
  156OSM   H18U17448   6.736   3.618   5.518 -0.9332  1.0591 -0.5486
  156OSM    C1F17449   7.274   4.840   4.153 -0.1754 -0.3543  0.1230
  156OSM     OF17450   7.160   4.864   4.110  0.5738  0.5279  0.1120
  156OSM    C2F17451   7.347   4.935   4.242  0.1770  0.1599 -0.1474
  156OSM    H2F17452   7.377   5.023   4.181 -0.8291 -1.6547 -3.4735
  156OSM    H2G17453   7.442   4.887   4.275  0.7443  1.7127  0.6171
  156OSM    C3F17454   7.262   4.990   4.364  0.5630 -0.7492 -0.1590
  156OSM    H3F17455   7.159   5.017   4.335  0.4545 -0.6697  0.2923
  156OSM    H3G17456   7.310   5.086   4.393  3.1145 -2.0201  0.1457
  156OSM    C4F17457   7.243   4.889   4.484 -0.2801 -0.1954 -0.0528
  156OSM    H4F17458   7.170   4.813   4.448  0.8856 -0.2908 -2.3661
  156OSM    H4G17459   7.194   4.940   4.570  1.4420 -0.9650  1.4468
  156OSM    C5F17460   7.369   4.824   4.541 -0.4846 -0.2929 -0.2142
  156OSM    H5F17461   7.431   4.909   4.577 -1.6333  0.2574  0.5362
  156OSM    H5G17462   7.426   4.761   4.470 -0.8369 -1.4031  0.4679
  156OSM    C6F17463   7.343   4.734   4.667 -0.0018  1.0156  0.2919
  156OSM    H6F17464   7.251   4.679   4.637  0.7497  1.4416 -3.2467
  156OSM    H6G17465   7.331   4.795   4.759  1.5083  2.7903 -0.6354
  156OSM    C7F17466   7.455   4.631   4.689 -0.1129 -0.5910  0.0242
  156OSM    H7F17467   7.553   4.683   4.683 -0.0224 -0.5437  1.5719
  156OSM    H7G17468   7.451   4.552   4.611 -0.7048 -0.6239  0.0812
  156OSM    C8F17469   7.443   4.562   4.822  0.2855 -0.2555 -0.7539
  156OSM    H8F17470   7.442   4.645   4.897 -2.2734 -0.1789 -0.7993
  156OSM    H8G17471   7.529   4.496   4.847  0.5507  0.0660 -0.8015
  156OSM    C9F17472   7.320   4.477   4.829  0.4451  0.2207  0.0230
  156OSM    H9F17473   7.257   4.482   4.739  0.3611  0.0334  0.0729
  156OSM   C10F17474   7.273   4.406   4.934 -0.0701 -0.8011  0.0492
  156OSM   H10F17475   7.180   4.348   4.920  1.3473 -3.3235  0.5701
  156OSM   C11F17476   7.339   4.416   5.073  0.7109 -0.0523  0.9995
  156OSM   H11F17477   7.386   4.514   5.094  1.0484 -0.5316  2.6512
  156OSM   H11G17478   7.417   4.336   5.075  1.7428  0.7016 -2.2160
  156OSM   C12F17479   7.245   4.397   5.191 -0.6986  0.1207 -0.3497
  156OSM   H12F17480   7.169   4.319   5.168  0.7063 -2.4950  3.0572
  156OSM   H12G17481   7.186   4.489   5.211  0.4778  0.3681  2.3381
  156OSM   C13F17482   7.315   4.350   5.324 -0.0260 -0.1061  0.7321
  156OSM   H13F17483   7.364   4.256   5.292  1.5128  1.0013 -0.2803
  156OSM   H13G17484   7.228   4.321   5.387 -2.9838 -1.8669 -3.6738
  156OSM   C14F17485   7.412   4.442   5.398 -0.3335  0.3433  0.3621
  156OSM   H14F17486   7.353   4.529   5.434 -0.2133  0.6767 -0.2297
  156OSM   H14G17487   7.488   4.473   5.323 -1.9458  0.5904 -1.2368
  156OSM   C15F17488   7.492   4.387   5.519 -0.2566 -0.6605 -0.8681
  156OSM   H15F17489   7.549   4.307   5.467 -1.4076 -0.8556 -1.8958
  156OSM   H15G17490   7.430   4.331   5.592 -0.9674 -0.1598 -1.0777
  156OSM   C16F17491   7.586   4.479   5.584 -0.1920 -0.3709  0.3858
  156OSM   H16F17492   7.530   4.560   5.634 -2.3535 -0.2004 -2.0952
  156OSM   H16G17493   7.648   4.525   5.504  0.9604 -0.9964  0.8945
  156OSM   C17F17494   7.682   4.408   5.680  0.1138 -0.0619 -0.0276
  156OSM   H17F17495   7.713   4.311   5.636 -0.8087 -0.4862  0.2222
  156OSM   H17G17496   7.637   4.379   5.778 -0.7562  0.0970 -0.3700
  156OSM   C18F17497   7.802   4.491   5.708  0.0540  0.1143 -0.0403
  156OSM   H18F17498   7.842   4.529   5.612 -1.3466 -0.2382 -0.7927
  156OSM   H18G17499   7.883   4.442   5.768  0.4730  1.7346  0.7651
  156OSM   H18H17500   7.771   4.576   5.772  1.1557  0.2815  0.3011
  157OSM      N17501   5.037   0.780   3.314 -0.9234  0.7679  0.0496
  157OSM    C1517502   4.958   0.702   3.217 -0.0721 -0.4006  0.1889
  157OSM   H15A17503   5.017   0.619   3.182 -0.9723 -1.0145  0.1081
  157OSM   H15B17504   4.923   0.764   3.135 -2.6873  2.0207  2.8858
  157OSM   H15C17505   4.880   0.664   3.281  0.5456 -1.1382  0.5116
  157OSM    C1417506   5.173   0.818   3.253  0.4041  0.2859 -0.3558
  157OSM   H14A17507   5.223   0.726   3.224 -1.3068 -0.7331 -0.1965
  157OSM   H14B17508   5.230   0.879   3.321 -0.4911  0.2993  0.3949
  157OSM   H14C17509   5.160   0.872   3.160 -2.4397 -0.8986 -0.7380
  157OSM    C1317510   4.976   0.915   3.330 -0.1484 -0.0585 -0.2350
  157OSM   H13A17511   4.876   0.921   3.370 -0.8693  0.2202 -1.9910
  157OSM   H13B17512   4.974   0.961   3.232  0.7348  0.1294 -0.1790
  157OSM   H13C17513   5.036   0.986   3.385 -0.3205 -0.2430  0.1955
  157OSM    C1217514   5.060   0.707   3.446 -0.6015 -0.1821  0.5016
  157OSM   H12A17515   5.086   0.782   3.519  2.1169 -2.0289  1.5996
  157OSM   H12B17516   5.139   0.637   3.424  0.3114  1.5615 -2.2261
  157OSM    C1117517   4.947   0.627   3.495  0.2452  0.2801 -1.1007
  157OSM   H11A17518   4.849   0.680   3.487 -0.9292 -1.7641 -1.0057
  157OSM   H11B17519   4.968   0.617   3.603 -0.8903 -0.7243 -0.9517
  157OSM      P17520   5.041   0.384   3.478 -0.1389 -0.3015  0.0408
  157OSM    O1317521   5.021   0.268   3.390 -0.6189  0.2137  0.3731
  157OSM    O1417522   5.176   0.438   3.497 -0.8185 -0.4977 -0.1898
  157OSM    O1117523   4.991   0.351   3.621 -0.9194  0.3667 -0.2099
  157OSM    O1217524   4.943   0.499   3.435  0.4879  0.2298  1.2333
  157OSM    C1S17525   4.858   0.301   3.645 -0.3188 -0.5139 -0.5701
  157OSM    H1S17526   4.827   0.228   3.567 -1.5011 -0.1667 -0.4454
  157OSM    H1T17527   4.781   0.381   3.641  1.6049  1.5624  1.0262
  157OSM     NF17528   4.698   0.166   3.786 -0.4056 -0.2768  0.7250
  157OSM    HNF17529   4.638   0.200   3.858  1.7847 -1.3213  3.2239
  157OSM    C2S17530   4.838   0.228   3.779  0.2063  0.7020 -0.4634
  157OSM    H2S17531   4.909   0.142   3.779  0.3367  0.8096 -0.2726
  157OSM    C3S17532   4.887   0.316   3.895 -0.5289  0.1153  0.6314
  157OSM    H3S17533   4.830   0.410   3.882  1.8300  1.4683 -0.4346
  157OSM     O317534   5.024   0.370   3.893  0.4433  0.1771 -0.5714
  157OSM    HO317535   5.050   0.359   3.801 -0.8378  2.4253 -1.2789
  157OSM    C4S17536   4.847   0.246   4.032 -0.0730 -0.0702  0.6448
  157OSM    H4S17537   4.742   0.268   4.060 -0.2236  0.6077 -0.3659
  157OSM    C5S17538   4.925   0.164   4.109  0.9075 -1.1334 -0.4717
  157OSM    H5S17539   5.032   0.157   4.082  0.3781  1.5697 -3.9796
  157OSM    C6S17540   4.888   0.095   4.240 -0.5807  0.1672  0.2899
  157OSM    H6S17541   4.867  -0.013   4.223  1.4066 -0.7690  3.0279
  157OSM    H6T17542   4.804   0.143   4.294  0.3261  0.7434  1.2250
  157OSM    C7S17543   5.006   0.115   4.335 -0.1752  0.0286 -0.1232
  157OSM    H7S17544   5.021   0.224   4.354 -2.2862  0.7392 -2.1123
  157OSM    H7T17545   5.107   0.084   4.302  0.6175  0.5224  1.7037
  157OSM    C8S17546   4.980   0.050   4.469 -0.4812 -0.0292 -0.3209
  157OSM    H8S17547   4.992  -0.060   4.462 -1.8586 -0.1672 -0.7896
  157OSM    H8T17548   4.872   0.065   4.490 -0.4948 -2.0304  1.3076
  157OSM    C9S17549   5.052   0.104   4.588 -0.6962  0.6417  0.3979
  157OSM    H9S17550   5.051   0.215   4.588 -0.1600  0.6955 -1.8808
  157OSM    H9T17551   5.160   0.085   4.573 -0.3301  3.3371 -1.1423
  157OSM   C10S17552   5.004   0.055   4.729  0.3369  0.2176 -0.1406
  157OSM   H10S17553   5.069  -0.032   4.749 -0.2020 -0.4044 -1.0307
  157OSM   H10T17554   4.898   0.022   4.715  0.8223 -0.8285 -1.6606
  157OSM   C11S17555   5.026   0.164   4.838 -0.7159  0.1049 -0.4913
  157OSM   H11S17556   5.022   0.269   4.803  1.1820  1.0880  1.9045
  157OSM   H11T17557   5.133   0.158   4.869 -0.8367  2.2912  0.5513
  157OSM   C12S17558   4.933   0.144   4.962  0.0046  0.1062  0.4285
  157OSM   H12S17559   4.828   0.152   4.925 -0.0938  1.0709  0.8621
  157OSM   H12T17560   4.941   0.235   5.027 -3.0221  0.2007  0.8577
  157OSM   C13S17561   4.971   0.026   5.059 -0.5434 -0.1265 -0.1388
  157OSM   H13S17562   5.080   0.019   5.081 -0.5193 -0.4125 -0.3554
  157OSM   H13T17563   4.944  -0.069   5.010 -2.5806 -0.4513  1.4721
  157OSM   C14S17564   4.885   0.020   5.188  0.6321 -0.3692  0.5411
  157OSM   H14S17565   4.888  -0.083   5.230 -2.3217 -1.7808 -2.2391
  157OSM   H14T17566   4.779   0.043   5.162  0.3648 -1.5283  0.5571
  157OSM   C15S17567   4.929   0.131   5.291  0.4793  0.1868  0.0011
  157OSM   H15S17568   4.899   0.235   5.264  0.5411  0.6794  1.7142
  157OSM   H15T17569   5.040   0.141   5.294  0.5343 -0.4965  0.4352
  157OSM   C16S17570   4.868   0.106   5.427  0.0505 -0.1393 -0.4170
  157OSM   H16S17571   4.874  -0.005   5.440  0.4418 -0.2434 -1.3971
  157OSM   H16T17572   4.765   0.146   5.436  0.2637  0.2903  0.1565
  157OSM   C17S17573   4.954   0.168   5.541 -0.6133 -0.5879  0.5284
  157OSM   H17S17574   4.977   0.275   5.521 -0.1793 -0.9253 -0.9031
  157OSM   H17T17575   5.054   0.119   5.547 -0.6627 -1.1568 -2.0541
  157OSM   C18S17576   4.885   0.160   5.678 -0.0707 -0.2890 -0.5519
  157OSM   H18S17577   4.861   0.056   5.709  0.0366 -0.7433 -1.9125
  157OSM   H18T17578   4.791   0.218   5.672 -0.0351 -0.1870 -0.1449
  157OSM   H18U17579   4.953   0.206   5.752  0.4411  0.6868 -1.6033
  157OSM    C1F17580   4.665   0.062   3.720  0.1231  0.2659  0.1755
  157OSM     OF17581   4.735   0.015   3.630  0.0768 -0.2958 -0.4146
  157OSM    C2F17582   4.534   0.003   3.761  1.0800 -0.3034  0.1474
  157OSM    H2F17583   4.464   0.002   3.675  1.9673 -0.6996 -0.5895
  157OSM    H2G17584   4.486   0.071   3.834 -0.3062  0.6772 -1.5846
  157OSM    C3F17585   4.528  -0.146   3.818 -0.5703 -0.3297 -0.2651
  157OSM    H3F17586   4.580  -0.221   3.756 -0.0946 -0.6307  0.4888
  157OSM    H3G17587   4.421  -0.172   3.834 -0.4485  0.0642  1.4571
  157OSM    C4F17588   4.602  -0.162   3.955 -0.3037 -0.4941  0.1963
  157OSM    H4F17589   4.569  -0.073   4.013  0.6386 -0.4200  0.6349
  157OSM    H4G17590   4.710  -0.147   3.935 -0.0424 -1.7556  0.6326
  157OSM    C5F17591   4.583  -0.299   4.024 -0.4655  0.1376  0.0046
  157OSM    H5F17592   4.624  -0.375   3.955 -2.8214 -0.9682 -0.2963
  157OSM    H5G17593   4.474  -0.302   4.050 -0.4701  1.3251  0.2057
  157OSM    C6F17594   4.676  -0.300   4.141  0.4947 -0.9136  0.3909
  157OSM    H6F17595   4.782  -0.280   4.117  0.4325 -0.9631  0.0736
  157OSM    H6G17596   4.676  -0.407   4.173  0.2268 -0.7254  1.0503
  157OSM    C7F17597   4.626  -0.233   4.269 -0.4665 -0.4692  0.2349
  157OSM    H7F17598   4.524  -0.275   4.282  0.3996 -2.2906  1.4429
  157OSM    H7G17599   4.602  -0.131   4.232 -3.1529 -1.3111 -0.5950
  157OSM    C8F17600   4.714  -0.218   4.386  0.2019 -0.0412 -0.9255
  157OSM    H8F17601   4.675  -0.139   4.453  3.6106  0.8080  0.2495
  157OSM    H8G17602   4.818  -0.188   4.363  0.8591 -2.1382 -0.9147
  157OSM    C9F17603   4.706  -0.346   4.468 -0.2790  0.1386  0.4945
  157OSM    H9F17604   4.717  -0.440   4.411  4.1909  0.7870 -0.0868
  157OSM   C10F17605   4.671  -0.361   4.597 -0.0242  0.8287 -0.4292
  157OSM   H10F17606   4.673  -0.461   4.643 -1.9987  1.1898  0.5239
  157OSM   C11F17607   4.654  -0.249   4.695 -0.1531 -0.2263  0.4262
  157OSM   H11F17608   4.560  -0.191   4.681 -0.1655 -0.6098 -1.1786
  157OSM   H11G17609   4.744  -0.183   4.696  0.0160 -0.4538  0.9407
  157OSM   C12F17610   4.634  -0.305   4.840  0.0355  0.8180  0.5676
  157OSM   H12F17611   4.713  -0.372   4.882 -0.7519  1.5008  3.3744
  157OSM   H12G17612   4.539  -0.361   4.840  0.2746  0.2290 -2.5743
  157OSM   C13F17613   4.625  -0.197   4.948 -0.0364 -0.2174 -0.2202
  157OSM   H13F17614   4.539  -0.132   4.919 -1.2618 -1.1274  1.2059
  157OSM   H13G17615   4.719  -0.137   4.953  1.4660 -2.5550  1.3887
  157OSM   C14F17616   4.591  -0.243   5.096 -0.5891  0.0571  0.6538
  157OSM   H14F17617   4.498  -0.304   5.093 -1.1224  0.8937 -1.0627
  157OSM   H14G17618   4.584  -0.148   5.153 -2.9790  0.3282  0.0526
  157OSM   C15F17619   4.694  -0.337   5.154 -0.2303  0.1244  0.0548
  157OSM   H15F17620   4.790  -0.286   5.178 -1.1972  2.1242 -0.1574
  157OSM   H15G17621   4.706  -0.426   5.088 -1.6053 -0.0376 -0.0090
  157OSM   C16F17622   4.652  -0.408   5.284 -0.7660  0.0060 -0.1926
  157OSM   H16F17623   4.708  -0.503   5.293 -0.8055 -0.0819 -0.8024
  157OSM   H16G17624   4.549  -0.450   5.274 -0.7964 -0.5561  1.9296
  157OSM   C17F17625   4.660  -0.327   5.415  0.1791  0.2692 -0.1922
  157OSM   H17F17626   4.750  -0.263   5.401  1.0049 -1.0172 -0.9975
  157OSM   H17G17627   4.673  -0.397   5.501 -2.1413 -1.4096 -1.1249
  157OSM   C18F17628   4.533  -0.251   5.440 -0.1497  0.0432 -0.7554
  157OSM   H18F17629   4.513  -0.175   5.361 -2.3153  0.5574  0.2147
  157OSM   H18G17630   4.540  -0.196   5.536  1.3616  0.4395 -1.0636
  157OSM   H18H17631   4.453  -0.328   5.447  0.2849 -0.2241  2.7336
  158OSM      N17632   2.954   0.623   3.349  0.3987  0.3062  0.0012
  158OSM    C1517633   3.095   0.580   3.351 -0.6281  0.1604 -0.2107
  158OSM   H15A17634   3.127   0.580   3.248 -1.4465  1.0728 -0.4747
  158OSM   H15B17635   3.096   0.480   3.392 -0.8382 -1.1868 -3.2614
  158OSM   H15C17636   3.163   0.643   3.405 -0.9363  0.7295 -0.4788
  158OSM    C1417637   2.946   0.772   3.329  0.0632  0.4695  0.2785
  158OSM   H14A17638   2.978   0.793   3.228 -0.4135 -1.5483 -0.3345
  158OSM   H14B17639   3.017   0.827   3.389  0.2770 -0.8116  1.2360
  158OSM   H14C17640   2.843   0.807   3.332 -0.4863 -0.8005 -1.9449
  158OSM    C1317641   2.892   0.555   3.231 -0.4749  0.3916 -0.2030
  158OSM   H13A17642   2.786   0.577   3.224 -0.6890  0.1230  1.6796
  158OSM   H13B17643   2.905   0.448   3.227  0.2101  0.4961 -0.9160
  158OSM   H13C17644   2.931   0.596   3.139  0.2631 -1.3177 -0.6714
  158OSM    C1217645   2.891   0.576   3.476  0.7020  0.0862  0.2952
  158OSM   H12A17646   2.874   0.470   3.476  0.4082  0.1179  1.3393
  158OSM   H12B17647   2.799   0.627   3.500 -0.4952 -2.4976  1.5477
  158OSM    C1117648   2.970   0.615   3.605  0.4646 -0.3913  0.0526
  158OSM   H11A17649   2.998   0.723   3.613 -0.5882 -0.2104  2.5506
  158OSM   H11B17650   3.063   0.555   3.609  0.0734 -0.9638  1.4355
  158OSM      P17651   2.882   0.442   3.789  0.1736  0.4639 -0.3681
  158OSM    O1317652   2.787   0.443   3.906 -0.5217 -0.0758  0.5910
  158OSM    O1417653   2.852   0.339   3.686  0.3395  0.8531  0.9252
  158OSM    O1117654   3.028   0.413   3.842 -0.9096 -0.0170  0.0915
  158OSM    O1217655   2.890   0.579   3.719  0.1719 -0.2194  0.4434
  158OSM    C1S17656   3.099   0.497   3.927 -0.8006  0.3491 -0.3965
  158OSM    H1S17657   3.045   0.515   4.022 -0.0779  1.1206 -0.1199
  158OSM    H1T17658   3.114   0.598   3.882 -1.8153  1.2492  1.2058
  158OSM     NF17659   3.290   0.540   4.058 -0.4058  0.1349  0.6961
  158OSM    HNF17660   3.304   0.633   4.024 -1.8325 -0.4944 -1.8233
  158OSM    C2S17661   3.240   0.450   3.958 -0.0247  1.0710  0.0909
  158OSM    H2S17662   3.234   0.347   4.000  0.2702  0.4520 -1.3290
  158OSM    C3S17663   3.323   0.454   3.820  0.0038 -0.3226  0.2603
  158OSM    H3S17664   3.332   0.561   3.795  0.9877  0.0679  2.0824
  158OSM     O317665   3.253   0.399   3.711  0.4913  0.6388  0.4689
  158OSM    HO317666   3.166   0.378   3.744  0.4721 -0.1138 -0.0290
  158OSM    C4S17667   3.471   0.406   3.827 -0.2573 -0.2927 -0.7373
  158OSM    H4S17668   3.537   0.486   3.862 -0.4177 -0.8806  1.0363
  158OSM    C5S17669   3.533   0.283   3.803  0.3437 -0.0923  0.3424
  158OSM    H5S17670   3.471   0.201   3.765 -1.8338  1.9927 -0.8243
  158OSM    C6S17671   3.681   0.256   3.824  0.5425  0.2868  0.5400
  158OSM    H6S17672   3.738   0.326   3.760  0.2960 -0.6660 -0.7463
  158OSM    H6T17673   3.705   0.149   3.804  1.1967  0.8804 -2.3101
  158OSM    C7S17674   3.727   0.295   3.968  0.3105  0.0020 -0.0207
  158OSM    H7S17675   3.700   0.401   3.986 -1.6570 -0.2893 -0.9672
  158OSM    H7T17676   3.837   0.277   3.967  0.5929  1.0765  2.6832
  158OSM    C8S17677   3.656   0.211   4.074 -0.3029  0.0411 -0.0693
  158OSM    H8S17678   3.680   0.102   4.072  2.7384  0.6003  0.8333
  158OSM    H8T17679   3.548   0.235   4.066 -0.4518 -1.0297 -1.6569
  158OSM    C9S17680   3.703   0.267   4.210  0.2225 -0.6165  0.2911
  158OSM    H9S17681   3.625   0.218   4.272  1.3757 -0.2959  2.0578
  158OSM    H9T17682   3.684   0.377   4.212 -0.9941 -0.7443 -1.3838
  158OSM   C10S17683   3.843   0.231   4.254 -0.0536 -0.2940 -0.3366
  158OSM   H10S17684   3.914   0.289   4.191 -0.9597  0.6976 -0.4731
  158OSM   H10T17685   3.863   0.124   4.233 -1.6488 -0.5970 -0.4141
  158OSM   C11S17686   3.869   0.241   4.411  0.7304 -0.2931  0.0570
  158OSM   H11S17687   3.822   0.152   4.456 -0.1843  0.0744 -0.1451
  158OSM   H11T17688   3.824   0.333   4.455 -2.1635 -2.3498  1.7170
  158OSM   C12S17689   4.016   0.228   4.430 -0.1306 -0.3048  0.9911
  158OSM   H12S17690   4.060   0.325   4.400 -1.0066 -0.4182 -0.8072
  158OSM   H12T17691   4.050   0.140   4.371 -2.4892  0.1964 -1.2834
  158OSM   C13S17692   4.042   0.193   4.580  0.1158 -0.5874 -1.0021
  158OSM   H13S17693   4.152   0.201   4.597  0.4544 -1.4914 -2.5465
  158OSM   H13T17694   4.005   0.091   4.604 -1.0808  0.1522  0.4793
  158OSM   C14S17695   3.964   0.270   4.693 -0.7909 -0.0243 -0.6071
  158OSM   H14S17696   3.854   0.254   4.684 -0.6720 -1.7408  0.6585
  158OSM   H14T17697   3.992   0.378   4.695 -1.2190  0.0757  0.2341
  158OSM   C15S17698   3.999   0.221   4.838 -0.4392  0.8291  0.5270
  158OSM   H15S17699   4.102   0.259   4.855  1.0035 -3.2293  2.0442
  158OSM   H15T17700   4.000   0.110   4.844  0.0244  0.8634  1.1468
  158OSM   C16S17701   3.911   0.268   4.956  0.1499  0.1588 -0.6850
  158OSM   H16S17702   3.808   0.230   4.943  0.2040  0.0641 -0.8498
  158OSM   H16T17703   3.898   0.378   4.958  2.0041  0.4195  2.3285
  158OSM   C17S17704   3.965   0.234   5.090  0.0500  0.4316 -0.7309
  158OSM   H17S17705   4.075   0.245   5.099 -0.3029  2.9567  1.9438
  158OSM   H17T17706   3.948   0.126   5.104 -3.1125  0.8956 -0.1433
  158OSM   C18S17707   3.895   0.306   5.195  0.0030 -0.7051 -0.1455
  158OSM   H18S17708   3.884   0.412   5.162 -1.0620 -1.2239 -1.5351
  158OSM   H18T17709   3.944   0.300   5.294  0.3804 -1.3295 -0.3636
  158OSM   H18U17710   3.794   0.267   5.220  0.7028 -3.1412 -0.8766
  158OSM    C1F17711   3.290   0.516   4.188  0.2619  0.2036  0.3659
  158OSM     OF17712   3.249   0.409   4.230  0.5589  1.1066 -0.2431
  158OSM    C2F17713   3.319   0.628   4.276 -0.1203 -0.1513 -0.1264
  158OSM    H2F17714   3.251   0.615   4.363  1.4157 -0.6329  1.0238
  158OSM    H2G17715   3.300   0.723   4.221 -1.4201  0.5135  1.3877
  158OSM    C3F17716   3.469   0.622   4.311  0.5085 -0.2000  0.3915
  158OSM    H3F17717   3.507   0.707   4.373  0.3391 -0.4568  0.8497
  158OSM    H3G17718   3.531   0.624   4.219 -1.1595  0.9733 -0.7680
  158OSM    C4F17719   3.505   0.496   4.398  0.4614 -0.3018  0.5935
  158OSM    H4F17720   3.611   0.486   4.427  0.4143 -1.8053  0.2884
  158OSM    H4G17721   3.485   0.408   4.333 -1.1681  0.6189 -0.2428
  158OSM    C5F17722   3.434   0.475   4.530 -0.0361  0.7577 -0.3843
  158OSM    H5F17723   3.347   0.407   4.521 -0.2599  0.8525  0.8381
  158OSM    H5G17724   3.392   0.572   4.565 -1.9219  0.0356 -0.4981
  158OSM    C6F17725   3.514   0.431   4.649 -0.2341 -0.7250  0.4391
  158OSM    H6F17726   3.590   0.508   4.674 -1.9644  1.6162 -1.0766
  158OSM    H6G17727   3.559   0.331   4.634  1.0955 -0.5011  2.5517
  158OSM    C7F17728   3.427   0.415   4.772 -0.0186 -0.0309  0.5937
  158OSM    H7F17729   3.358   0.331   4.752 -1.3864  1.5677 -1.8297
  158OSM    H7G17730   3.372   0.511   4.780  0.3759  0.4072 -1.4351
  158OSM    C8F17731   3.501   0.379   4.900 -0.0150  0.3625 -0.5474
  158OSM    H8F17732   3.588   0.448   4.900  0.0294  0.3991  1.8441
  158OSM    H8G17733   3.537   0.275   4.882  0.3297  0.0651  1.5126
  158OSM    C9F17734   3.427   0.355   5.031 -0.7959 -0.3071  0.2560
  158OSM    H9F17735   3.411   0.250   5.060 -0.1955 -0.6483 -0.5885
  158OSM   C10F17736   3.404   0.453   5.116  0.0072  0.3969 -0.4916
  158OSM   H10F17737   3.348   0.418   5.204  0.3086  1.6871  0.2434
  158OSM   C11F17738   3.411   0.603   5.099 -0.2370  0.0764 -0.4834
  158OSM   H11F17739   3.322   0.644   5.152 -0.6760 -1.3549 -0.0498
  158OSM   H11G17740   3.414   0.642   4.995 -0.6662  1.2977 -0.0550
  158OSM   C12F17741   3.538   0.658   5.179  0.9633  0.0656  0.4447
  158OSM   H12F17742   3.540   0.766   5.154 -1.3784 -0.6775 -3.9997
  158OSM   H12G17743   3.624   0.603   5.134 -0.8821 -2.1222 -0.6061
  158OSM   C13F17744   3.536   0.620   5.330  1.0974  1.2098  0.3042
  158OSM   H13F17745   3.520   0.512   5.348  1.1827  1.4910  2.3128
  158OSM   H13G17746   3.446   0.666   5.376  1.4869 -0.6974  3.2524
  158OSM   C14F17747   3.652   0.669   5.419  0.3084 -0.4388 -0.7335
  158OSM   H14F17748   3.647   0.780   5.417 -1.3744 -0.4666 -3.1748
  158OSM   H14G17749   3.744   0.628   5.373  2.2611  1.4471  1.2658
  158OSM   C15F17750   3.639   0.624   5.565  0.0297  0.0812 -0.4171
  158OSM   H15F17751   3.631   0.514   5.553 -2.4906  0.2298 -0.5752
  158OSM   H15G17752   3.545   0.657   5.615 -0.0176  0.1805 -0.5727
  158OSM   C16F17753   3.765   0.677   5.639  0.2085  0.4573  0.4563
  158OSM   H16F17754   3.856   0.645   5.585 -0.1818 -1.6552  0.9696
  158OSM   H16G17755   3.773   0.617   5.732  0.7495  0.2955  0.3065
  158OSM   C17F17756   3.770   0.827   5.671  0.5644 -0.6033  0.2359
  158OSM   H17F17757   3.765   0.883   5.575 -0.5593 -0.9681  0.0733
  158OSM   H17G17758   3.858   0.860   5.730 -0.3085 -2.4196  2.7216
  158OSM   C18F17759   3.648   0.876   5.756  0.2032 -0.7946 -0.0725
  158OSM   H18F17760   3.653   0.835   5.859 -0.2646  1.0911  0.7526
  158OSM   H18G17761   3.556   0.838   5.708  0.0814 -0.2950 -0.2389
  158OSM   H18H17762   3.639   0.987   5.756 -1.3534 -0.9093  0.0040
  159OSM      N17763   4.270   0.264   3.278 -0.6372  0.1431  0.5404
  159OSM    C1517764   4.173   0.193   3.363 -0.4090  0.3504 -0.2850
  159OSM   H15A17765   4.091   0.162   3.299 -1.7566  2.3695  0.3734
  159OSM   H15B17766   4.118   0.251   3.435 -0.1249  0.4779 -0.1689
  159OSM   H15C17767   4.216   0.100   3.397  2.3503 -0.1565 -4.4104
  159OSM    C1417768   4.289   0.176   3.159  0.1572  0.4267  0.3783
  159OSM   H14A17769   4.293   0.070   3.183 -3.6213 -0.2047 -0.9946
  159OSM   H14B17770   4.375   0.203   3.101 -1.0798 -1.3827 -2.4914
  159OSM   H14C17771   4.207   0.186   3.089 -0.3720  2.4067  1.2071
  159OSM    C1317772   4.224   0.392   3.230  0.7543 -0.4093 -0.5325
  159OSM   H13A17773   4.139   0.380   3.165  0.3237 -0.2379 -0.0071
  159OSM   H13B17774   4.302   0.452   3.186  2.9140 -2.2096  0.6454
  159OSM   H13C17775   4.204   0.452   3.318  3.7088  0.5843 -0.4165
  159OSM    C1217776   4.405   0.279   3.349 -0.0917 -0.3938 -0.8039
  159OSM   H12A17777   4.483   0.308   3.280  1.6091  1.9182  1.8740
  159OSM   H12B17778   4.413   0.177   3.383  0.1519 -0.6272 -1.5419
  159OSM    C1117779   4.410   0.372   3.474  0.2672  0.3064  0.0372
  159OSM   H11A17780   4.512   0.363   3.517 -0.4475  1.0938  2.0278
  159OSM   H11B17781   4.338   0.334   3.549 -0.8989 -1.2233 -1.7774
  159OSM      P17782   4.468   0.630   3.488  0.2757 -0.1701  0.4752
  159OSM    O1317783   4.567   0.678   3.389 -0.3806 -0.0974  0.4446
  159OSM    O1417784   4.368   0.733   3.511 -0.9107  0.0943 -0.1274
  159OSM    O1117785   4.522   0.576   3.621 -0.2797 -0.0225 -0.7102
  159OSM    O1217786   4.393   0.506   3.433  0.1360  0.1663  0.1310
  159OSM    C1S17787   4.463   0.565   3.751  0.3517  0.3220 -0.2517
  159OSM    H1S17788   4.426   0.461   3.766 -3.5752  1.7387  1.1509
  159OSM    H1T17789   4.380   0.638   3.766  0.2600  0.3083 -0.6825
  159OSM     NF17790   4.516   0.533   3.995 -0.1180 -0.0444 -0.3496
  159OSM    HNF17791   4.498   0.599   4.068 -0.1633 -0.5454  0.0948
  159OSM    C2S17792   4.571   0.577   3.864  0.0010  0.5647 -0.2787
  159OSM    H2S17793   4.656   0.509   3.845  1.9794  2.2061  2.0198
  159OSM    C3S17794   4.633   0.723   3.860 -0.0779 -0.8005 -0.1714
  159OSM    H3S17795   4.554   0.801   3.863 -1.0215 -1.7464  1.7351
  159OSM     O317796   4.718   0.749   3.746  0.1310 -0.1623 -0.2067
  159OSM    HO317797   4.676   0.686   3.686  0.6452 -0.4692 -0.2560
  159OSM    C4S17798   4.717   0.744   3.982  0.4991  0.0111 -0.5829
  159OSM    H4S17799   4.659   0.781   4.068  0.4473 -1.7228  0.1674
  159OSM    C5S17800   4.844   0.708   4.000 -0.5802 -0.1730 -0.1514
  159OSM    H5S17801   4.906   0.677   3.914 -3.2870 -3.9208 -1.0109
  159OSM    C6S17802   4.924   0.724   4.123 -0.0193 -0.2809  0.3390
  159OSM    H6S17803   4.868   0.787   4.196  1.6279  2.2291 -0.4455
  159OSM    H6T17804   5.023   0.770   4.102  0.1234  0.9624  3.2882
  159OSM    C7S17805   4.939   0.586   4.189  0.6772  0.2242  0.3593
  159OSM    H7S17806   5.005   0.527   4.121 -0.2141  0.5838 -0.8642
  159OSM    H7T17807   4.839   0.538   4.187  0.0896  1.4254 -1.5053
  159OSM    C8S17808   5.007   0.574   4.328 -0.0903  0.3987 -0.3341
  159OSM    H8S17809   5.093   0.644   4.341  0.4149 -0.7080  3.4279
  159OSM    H8T17810   5.041   0.468   4.334  0.1476  0.4604 -0.5615
  159OSM    C9S17811   4.893   0.584   4.435 -0.4305  0.1599 -0.2031
  159OSM    H9S17812   4.828   0.495   4.418  0.8448 -0.2422 -3.6793
  159OSM    H9T17813   4.830   0.675   4.425 -0.9210  0.1469  2.0988
  159OSM   C10S17814   4.939   0.577   4.578 -0.1197 -0.1099 -0.7829
  159OSM   H10S17815   4.969   0.679   4.608  1.7502 -0.3785 -1.6144
  159OSM   H10T17816   5.030   0.516   4.595  0.4912  0.3367 -2.3184
  159OSM   C11S17817   4.835   0.532   4.682  0.4177  1.0236  0.2994
  159OSM   H11S17818   4.792   0.437   4.644  1.7879  0.9933 -1.3012
  159OSM   H11T17819   4.750   0.602   4.675 -1.5067 -1.0997  1.1364
  159OSM   C12S17820   4.877   0.538   4.827  0.3412 -0.2620 -0.1563
  159OSM   H12S17821   4.931   0.633   4.847 -2.0947  1.1574  0.0594
  159OSM   H12T17822   4.950   0.454   4.823  0.6836  0.0757 -1.7549
  159OSM   C13S17823   4.771   0.501   4.929  0.1930 -0.3983 -0.2840
  159OSM   H13S17824   4.754   0.392   4.916 -2.5777  0.1222 -1.8688
  159OSM   H13T17825   4.673   0.552   4.915 -0.8634 -2.3397 -0.4061
  159OSM   C14S17826   4.823   0.539   5.067 -0.5308 -0.2307 -0.0539
  159OSM   H14S17827   4.834   0.650   5.065  1.4613 -0.4033 -1.8494
  159OSM   H14T17828   4.927   0.502   5.076 -1.1620 -1.8683  1.0799
  159OSM   C15S17829   4.734   0.495   5.185 -0.3387 -0.1489 -0.3942
  159OSM   H15S17830   4.725   0.385   5.169  1.7739 -0.5291  0.7288
  159OSM   H15T17831   4.640   0.552   5.175  0.7702  1.4385 -2.5452
  159OSM   C16S17832   4.796   0.518   5.320 -0.6435  0.2069 -0.5614
  159OSM   H16S17833   4.847   0.616   5.334 -0.5066 -0.1706  2.1300
  159OSM   H16T17834   4.878   0.444   5.334 -0.5627 -0.2089 -2.8623
  159OSM   C17S17835   4.705   0.490   5.440 -0.3630  0.1671  0.5965
  159OSM   H17S17836   4.684   0.381   5.439  1.9314 -0.3316 -1.1721
  159OSM   H17T17837   4.607   0.543   5.428 -0.0428  0.5528 -0.3738
  159OSM   C18S17838   4.758   0.543   5.571  0.0165 -0.6613 -0.4326
  159OSM   H18S17839   4.856   0.505   5.606 -0.5085 -2.1261 -0.4837
  159OSM   H18T17840   4.697   0.497   5.652  0.5718 -1.0401 -0.2229
  159OSM   H18U17841   4.745   0.653   5.567 -0.2399 -0.6677  0.0826
  159OSM    C1F17842   4.487   0.402   4.021 -0.6554  0.3379 -0.2210
  159OSM     OF17843   4.546   0.310   3.970 -0.6576 -0.2679 -0.3738
  159OSM    C2F17844   4.360   0.372   4.116 -0.4743 -0.5796 -0.0428
  159OSM    H2F17845   4.311   0.283   4.071  1.0680 -1.0967 -0.7819
  159OSM    H2G17846   4.301   0.466   4.114 -1.0057 -0.8775  0.8718
  159OSM    C3F17847   4.403   0.335   4.260 -0.5533  0.0895  0.3769
  159OSM    H3F17848   4.318   0.295   4.319 -0.7841 -0.0313 -0.0327
  159OSM    H3G17849   4.435   0.432   4.303  0.1350 -1.4163  3.5628
  159OSM    C4F17850   4.516   0.231   4.269  0.3348 -0.5371 -0.3102
  159OSM    H4F17851   4.611   0.287   4.258  0.7493 -0.6379  2.1655
  159OSM    H4G17852   4.503   0.159   4.186 -1.8595  0.3077 -0.7704
  159OSM    C5F17853   4.529   0.179   4.409  0.0150  0.5496 -0.1557
  159OSM    H5F17854   4.620   0.116   4.403 -0.1340  0.4514 -1.8395
  159OSM    H5G17855   4.440   0.114   4.425 -1.0230  1.8959 -0.1766
  159OSM    C6F17856   4.542   0.279   4.529 -0.4729  0.3056 -0.2775
  159OSM    H6F17857   4.444   0.332   4.537 -1.0898 -0.9276  0.6542
  159OSM    H6G17858   4.624   0.350   4.505  1.7439 -1.3867  1.7909
  159OSM    C7F17859   4.580   0.227   4.665  0.2531  0.3216  0.0490
  159OSM    H7F17860   4.596   0.308   4.739 -3.5089  0.1389  1.2583
  159OSM    H7G17861   4.675   0.172   4.649  1.0714  1.1348  1.8026
  159OSM    C8F17862   4.484   0.126   4.734 -0.7246  0.4464 -0.2393
  159OSM    H8F17863   4.538   0.065   4.810 -0.9449  1.2727  0.6090
  159OSM    H8G17864   4.451   0.060   4.652  0.1013  1.6548 -1.5914
  159OSM    C9F17865   4.369   0.180   4.807  0.1893 -0.5648  0.2465
  159OSM    H9F17866   4.290   0.229   4.748  0.5732  0.6336  0.6963
  159OSM   C10F17867   4.369   0.216   4.936 -0.3179 -0.5440  0.7515
  159OSM   H10F17868   4.278   0.256   4.983  0.0682 -2.1484  3.0838
  159OSM   C11F17869   4.476   0.213   5.032 -0.9443  0.3969 -0.3393
  159OSM   H11F17870   4.524   0.312   5.044 -0.3883  0.1185 -0.1899
  159OSM   H11G17871   4.556   0.145   4.995 -1.1975 -0.5401  0.7659
  159OSM   C12F17872   4.434   0.159   5.175  0.0389 -0.4369  0.1702
  159OSM   H12F17873   4.528   0.124   5.224  0.7172 -1.1005 -1.5090
  159OSM   H12G17874   4.369   0.070   5.172  0.9265 -1.0934 -1.7034
  159OSM   C13F17875   4.370   0.275   5.261 -0.1143 -0.7064 -0.3148
  159OSM   H13F17876   4.263   0.289   5.231 -0.4980  0.1145  1.3060
  159OSM   H13G17877   4.430   0.364   5.232 -0.0605 -0.8518 -0.6498
  159OSM   C14F17878   4.383   0.242   5.411  0.6915 -0.3918 -0.0117
  159OSM   H14F17879   4.492   0.221   5.408  0.6702 -0.4181 -2.8554
  159OSM   H14G17880   4.325   0.148   5.423 -1.7680  0.9948 -0.3367
  159OSM   C15F17881   4.319   0.359   5.492  0.3614 -0.2796 -0.2017
  159OSM   H15F17882   4.383   0.450   5.504 -1.9211  1.2168  1.5142
  159OSM   H15G17883   4.309   0.325   5.597 -0.0551  0.9858  0.1936
  159OSM   C16F17884   4.181   0.417   5.451 -0.3720  0.0236 -0.3827
  159OSM   H16F17885   4.097   0.345   5.462 -1.4759  1.3182 -0.1194
  159OSM   H16G17886   4.198   0.457   5.349  2.5561  1.3308  0.5173
  159OSM   C17F17887   4.140   0.539   5.535 -0.6042 -0.4323 -0.3202
  159OSM   H17F17888   4.069   0.611   5.488 -1.1626 -0.0162  1.0996
  159OSM   H17G17889   4.229   0.598   5.566 -1.0205  0.2272 -0.3753
  159OSM   C18F17890   4.074   0.483   5.667  0.0608 -0.0125  0.3032
  159OSM   H18F17891   4.078   0.556   5.751 -1.1524  0.1159  0.2620
  159OSM   H18G17892   4.123   0.391   5.704 -0.6968 -0.6078 -0.1438
  159OSM   H18H17893   3.972   0.445   5.645  0.5924 -0.9276 -0.6698
  160OSM      N17894   3.152   6.723   3.429  0.8486  0.3293 -0.2627
  160OSM    C1517895   3.222   6.826   3.347  0.5214  0.5049  0.5110
  160OSM   H15A17896   3.329   6.814   3.354  0.3792 -0.3203  1.6132
  160OSM   H15B17897   3.196   6.923   3.386 -0.5280  1.7510 -2.9328
  160OSM   H15C17898   3.175   6.841   3.251 -0.9991  0.3457  1.1978
  160OSM    C1417899   3.005   6.731   3.433  0.1680 -0.2201 -0.8534
  160OSM   H14A17900   2.945   6.669   3.499 -0.0379 -0.3666 -1.1775
  160OSM   H14B17901   2.958   6.726   3.336 -1.1061 -2.1368 -0.1906
  160OSM   H14C17902   2.988   6.827   3.481  1.2673 -0.1939 -0.4747
  160OSM    C1317903   3.178   6.585   3.375  0.0687  0.0100 -0.1647
  160OSM   H13A17904   3.278   6.556   3.403 -0.0469 -1.2652 -0.9719
  160OSM   H13B17905   3.170   6.586   3.267  0.4765  1.3735 -0.2107
  160OSM   H13C17906   3.115   6.516   3.427 -2.2892  2.9775  1.2117
  160OSM    C1217907   3.205   6.717   3.569 -0.4456 -0.3545 -0.2288
  160OSM   H12A17908   3.312   6.703   3.570 -0.2599  0.8384  1.5720
  160OSM   H12B17909   3.164   6.628   3.614 -2.0732  0.0249 -0.8596
  160OSM    C1117910   3.173   6.841   3.662 -0.4513 -0.2660 -0.4799
  160OSM   H11A17911   3.216   6.930   3.612  0.6635 -1.8581 -2.5217
  160OSM   H11B17912   3.241   6.826   3.749  0.2807 -0.8913 -1.1416
  160OSM      P17913   2.977   6.770   3.802  0.4199 -0.1783  0.3535
  160OSM    O1317914   2.834   6.802   3.811 -0.2807  0.0041  0.4234
  160OSM    O1417915   3.011   6.629   3.769 -0.5089 -0.5438 -0.1143
  160OSM    O1117916   3.061   6.814   3.930  0.0549 -0.1148  0.0448
  160OSM    O1217917   3.036   6.856   3.691 -0.7488  0.6097  0.5124
  160OSM    C1S17918   3.016   6.934   3.998 -0.1728  0.3959 -0.6965
  160OSM    H1S17919   2.906   6.932   4.018  0.0114 -1.5041  0.3784
  160OSM    H1T17920   3.047   7.028   3.948  0.4775  0.0551 -0.9417
  160OSM     NF17921   3.044   7.077   4.203 -0.1765  0.3745 -0.3489
  160OSM    HNF17922   3.120   7.141   4.210  0.0116  0.2886 -1.4680
  160OSM    C2S17923   3.082   6.947   4.136 -0.4885 -0.4210 -0.8656
  160OSM    H2S17924   3.063   6.867   4.210  0.6907  1.3417  1.4664
  160OSM    C3S17925   3.238   6.940   4.119  0.0534 -0.8591 -0.1657
  160OSM    H3S17926   3.268   7.025   4.054  1.6462 -0.9632  0.3764
  160OSM     O317927   3.286   6.818   4.059 -0.2940  0.0335  0.5819
  160OSM    HO317928   3.216   6.800   3.995  0.1143  0.5571 -0.0268
  160OSM    C4S17929   3.318   6.961   4.245 -0.2496 -0.0674  0.2624
  160OSM    H4S17930   3.364   7.061   4.250  1.0153 -0.5591 -0.9470
  160OSM    C5S17931   3.333   6.871   4.345 -0.1576 -0.6756  0.7237
  160OSM    H5S17932   3.305   6.765   4.338 -0.0648 -0.7621  1.6043
  160OSM    C6S17933   3.414   6.915   4.465 -0.2914 -0.2162  0.0082
  160OSM    H6S17934   3.490   6.993   4.442  0.4026 -1.3413 -1.6757
  160OSM    H6T17935   3.472   6.826   4.497 -2.6832 -1.8374  0.0668
  160OSM    C7S17936   3.316   6.947   4.583 -0.0189 -0.4399  0.9584
  160OSM    H7S17937   3.255   7.038   4.563 -1.5946 -0.7008  3.9847
  160OSM    H7T17938   3.380   6.978   4.668 -0.9504 -0.8872  1.8358
  160OSM    C8S17939   3.214   6.838   4.640 -0.5140  0.1077  0.8297
  160OSM    H8S17940   3.270   6.749   4.674  3.5463  3.0061  2.6919
  160OSM    H8T17941   3.151   6.819   4.551 -0.2982  1.7587  0.2718
  160OSM    C9S17942   3.131   6.889   4.747  0.0912 -0.0643 -0.4343
  160OSM    H9S17943   3.040   6.825   4.744  0.3818 -0.6709  1.7728
  160OSM    H9T17944   3.105   6.989   4.707  1.7059  1.1258  1.3390
  160OSM   C10S17945   3.201   6.899   4.877 -0.2127  0.7307 -0.0446
  160OSM   H10S17946   3.276   6.981   4.873 -1.1152  1.6814  1.5430
  160OSM   H10T17947   3.255   6.806   4.903 -1.5446  0.0912  0.5115
  160OSM   C11S17948   3.098   6.925   4.990  0.0848  0.5426 -0.3374
  160OSM   H11S17949   3.033   6.835   4.988  1.1701 -0.2574 -1.8373
  160OSM   H11T17950   3.026   7.008   4.972 -0.2610  0.7110  1.6468
  160OSM   C12S17951   3.155   6.935   5.139 -0.3386  0.0723 -0.3262
  160OSM   H12S17952   3.223   7.024   5.138  3.2720 -2.4643 -2.4031
  160OSM   H12T17953   3.219   6.846   5.159 -0.0401  0.5224  0.7951
  160OSM   C13S17954   3.047   6.932   5.243  0.0045 -0.0766  0.5877
  160OSM   H13S17955   3.007   6.832   5.269 -0.7559  0.2430  0.6659
  160OSM   H13T17956   2.952   6.967   5.198 -0.0063 -0.7775  0.0533
  160OSM   C14S17957   3.066   7.004   5.378  0.0885  0.0332  0.0850
  160OSM   H14S17958   3.070   7.114   5.360 -0.4199  0.0550  0.0934
  160OSM   H14T17959   3.162   6.978   5.426  0.0236  0.4801  0.4636
  160OSM   C15S17960   2.945   6.978   5.474  0.0553 -0.3378  0.0435
  160OSM   H15S17961   2.960   7.042   5.563 -0.6667 -0.1135  0.0151
  160OSM   H15T17962   2.932   6.872   5.505 -0.9808 -1.1341 -2.7663
  160OSM   C16S17963   2.807   7.020   5.418 -0.3723 -0.2555  0.2034
  160OSM   H16S17964   2.779   6.955   5.332  2.1844 -2.4607  0.8721
  160OSM   H16T17965   2.804   7.128   5.393 -0.2483 -0.6316 -1.5526
  160OSM   C17S17966   2.697   6.993   5.518 -0.3183 -0.7486  0.2252
  160OSM   H17S17967   2.718   6.889   5.551  1.1577 -0.5725 -0.1046
  160OSM   H17T17968   2.598   7.008   5.469 -0.5021  0.7094  0.9965
  160OSM   C18S17969   2.702   7.091   5.642  0.2763 -0.0619 -0.2473
  160OSM   H18S17970   2.797   7.067   5.693  2.0340 -1.4593 -3.7769
  160OSM   H18T17971   2.610   7.083   5.704  0.7949  2.0097  0.8552
  160OSM   H18U17972   2.703   7.196   5.608  2.0612  0.7298  2.0364
  160OSM    C1F17973   2.930   7.107   4.244 -0.0036 -0.1601 -0.7376
  160OSM     OF17974   2.825   7.042   4.221  0.1299 -0.3393  0.5964
  160OSM    C2F17975   2.923   7.228   4.335 -0.2649 -0.7453  0.3418
  160OSM    H2F17976   2.823   7.276   4.324  0.8044  1.2171 -1.5374
  160OSM    H2G17977   2.992   7.295   4.280  0.6865 -1.2740  0.8526
  160OSM    C3F17978   2.953   7.186   4.480  0.2146 -0.0528  0.3625
  160OSM    H3F17979   3.055   7.143   4.480  0.2616 -0.2590 -3.2632
  160OSM    H3G17980   2.871   7.117   4.509 -1.1943  2.3157  2.4188
  160OSM    C4F17981   2.957   7.305   4.573  0.3605 -0.0267 -0.4719
  160OSM    H4F17982   2.857   7.351   4.589 -0.1695 -1.3400  0.0899
  160OSM    H4G17983   3.030   7.373   4.524  0.1488 -1.2984 -2.6446
  160OSM    C5F17984   3.003   7.262   4.715 -0.6169  0.5569  0.0155
  160OSM    H5F17985   3.110   7.233   4.707 -0.5611  1.1789 -2.9394
  160OSM    H5G17986   2.933   7.182   4.745 -0.6957  0.8131  0.5141
  160OSM    C6F17987   2.987   7.367   4.821  0.4246 -0.1862  0.3278
  160OSM    H6F17988   2.878   7.370   4.842  0.2335  0.7582 -0.7166
  160OSM    H6G17989   3.028   7.464   4.786  0.8953 -0.5624 -0.1900
  160OSM    C7F17990   3.054   7.326   4.956 -0.3812  0.2572  0.1237
  160OSM    H7F17991   3.153   7.278   4.941 -1.4205 -2.3266  0.9987
  160OSM    H7G17992   2.990   7.245   4.997  1.0695 -1.3112 -0.6215
  160OSM    C8F17993   3.067   7.441   5.050  0.2310 -0.1540  0.4383
  160OSM    H8F17994   3.148   7.508   5.015 -2.0227  4.1819  2.7640
  160OSM    H8G17995   3.107   7.395   5.143 -1.5532 -0.9142  0.8711
  160OSM    C9F17996   2.938   7.520   5.064 -0.2019  0.6351  0.3086
  160OSM    H9F17997   2.917   7.592   4.983  1.1980  1.1078  0.3315
  160OSM   C10F17998   2.857   7.524   5.173  0.0171 -0.0667 -1.4661
  160OSM   H10F17999   2.766   7.586   5.174 -0.1551 -0.3171 -0.4980
  160OSM   C11F18000   2.884   7.444   5.299  0.6611 -0.9273 -0.4834
  160OSM   H11F18001   2.952   7.357   5.285 -0.7287 -1.8738 -1.7400
  160OSM   H11G18002   2.788   7.392   5.318  0.9742 -2.5485 -2.8572
  160OSM   C12F18003   2.933   7.524   5.420  0.9705 -0.4817  0.3993
  160OSM   H12F18004   2.918   7.462   5.511  0.7337 -0.3895  0.4233
  160OSM   H12G18005   2.886   7.624   5.431 -0.1922 -0.9334 -0.2567
  160OSM   C13F18006   3.089   7.546   5.414  0.0691 -0.4382  0.2741
  160OSM   H13F18007   3.110   7.638   5.355  0.3816 -0.1701  0.7933
  160OSM   H13G18008   3.134   7.456   5.367  0.5193  0.6932 -1.5790
  160OSM   C14F18009   3.153   7.559   5.556 -0.1159  0.0929 -0.2342
  160OSM   H14F18010   3.101   7.640   5.612  0.7905 -0.3007  1.2198
  160OSM   H14G18011   3.254   7.601   5.535  0.3571 -1.1601 -0.5086
  160OSM   C15F18012   3.163   7.435   5.643 -0.1183  0.6158  0.3910
  160OSM   H15F18013   3.218   7.351   5.594  1.8396  0.4398  2.6869
  160OSM   H15G18014   3.064   7.392   5.669  0.2972 -1.1808 -0.8185
  160OSM   C16F18015   3.246   7.461   5.768 -1.0611 -0.1498  0.4372
  160OSM   H16F18016   3.188   7.534   5.828 -0.1238  1.7144 -0.8096
  160OSM   H16G18017   3.340   7.512   5.737 -1.1923 -0.3451 -0.3146
  160OSM   C17F18018   3.265   7.343   5.858  0.4793  0.4615  0.0092
  160OSM   H17F18019   3.335   7.269   5.812 -0.8187 -1.5528  1.1117
  160OSM   H17G18020   3.166   7.293   5.860  0.2212  0.9389 -0.4646
  160OSM   C18F18021   3.315   7.398   5.996  0.0001 -0.6808  0.9008
  160OSM   H18F18022   3.395   7.473   5.980 -1.0069  0.0482 -0.9033
  160OSM   H18G18023   3.348   7.306   6.049 -2.3105 -1.2275  1.4835
  160OSM   H18H18024   3.236   7.449   6.055  1.1746  0.8807  1.1868
  161OSM      N18025   0.525   6.510   3.626 -0.1751 -0.2918  0.4478
  161OSM    C1518026   0.644   6.513   3.710 -0.2973 -0.0998 -0.2833
  161OSM   H15A18027   0.694   6.417   3.717 -0.1244 -0.0113 -0.2882
  161OSM   H15B18028   0.624   6.545   3.811 -1.0134 -0.6763 -0.2336
  161OSM   H15C18029   0.720   6.582   3.675  0.0121 -0.2438  0.0882
  161OSM    C1418030   0.466   6.647   3.613 -0.2717 -0.3447  0.1772
  161OSM   H14A18031   0.399   6.670   3.695 -1.1336 -0.7933 -0.3855
  161OSM   H14B18032   0.392   6.638   3.535 -2.4335  1.4290  1.8478
  161OSM   H14C18033   0.538   6.726   3.600 -0.1631  0.0352  2.6755
  161OSM    C1318034   0.565   6.458   3.490  0.4559  0.2102 -0.0337
  161OSM   H13A18035   0.482   6.415   3.436  0.9770 -1.7671  0.6942
  161OSM   H13B18036   0.641   6.382   3.495 -1.9703 -2.3587  0.3003
  161OSM   H13C18037   0.601   6.541   3.430 -0.2534  0.5292 -0.0338
  161OSM    C1218038   0.425   6.416   3.685  0.3672  0.3928  0.5649
  161OSM   H12A18039   0.425   6.430   3.792  0.8806  1.1925  0.4611
  161OSM   H12B18040   0.452   6.312   3.673 -1.8927 -0.0784 -1.3044
  161OSM    C1118041   0.274   6.440   3.647  0.4878 -0.7894 -0.3874
  161OSM   H11A18042   0.216   6.353   3.687 -0.6332  0.8378  1.7386
  161OSM   H11B18043   0.262   6.446   3.537  0.7301  0.8069 -0.3399
  161OSM      P18044   0.116   6.637   3.661 -0.1178 -0.3680  0.0950
  161OSM    O1318045   0.172   6.758   3.597  0.0411  0.0200  0.0597
  161OSM    O1418046   0.025   6.559   3.569  0.1574 -0.6124  0.4356
  161OSM    O1118047   0.038   6.680   3.785 -0.1848  0.3190 -0.3534
  161OSM    O1218048   0.236   6.556   3.711  0.1016 -0.1825 -0.8789
  161OSM    C1S18049   0.062   6.599   3.908  0.2029 -0.7246 -0.1195
  161OSM    H1S18050   0.171   6.590   3.927  0.3104  2.2399  1.2526
  161OSM    H1T18051   0.025   6.496   3.890 -0.3829 -0.6591  0.7049
  161OSM     NF18052   0.032   6.571   4.151 -0.6339 -0.1724  0.4860
  161OSM    HNF18053  -0.048   6.522   4.187 -0.0623 -1.2458  0.3489
  161OSM    C2S18054  -0.001   6.662   4.040  0.8311 -0.6586  0.1301
  161OSM    H2S18055   0.054   6.756   4.062  1.0861 -0.9159  0.6050
  161OSM    C3S18056  -0.159   6.693   4.024  0.0176  0.0380  0.3106
  161OSM    H3S18057  -0.214   6.599   4.003 -2.3558  2.1467 -4.1138
  161OSM     O318058  -0.184   6.768   3.904 -0.4447 -0.4388 -0.4174
  161OSM    HO318059  -0.108   6.751   3.849 -1.1300  0.5102 -1.7135
  161OSM    C4S18060  -0.223   6.747   4.150  0.4216 -1.0728 -0.1937
  161OSM    H4S18061  -0.282   6.674   4.207  0.1017 -0.8661 -0.2560
  161OSM    C5S18062  -0.220   6.877   4.185  0.0355  1.2655  0.5231
  161OSM    H5S18063  -0.184   6.944   4.106 -1.3428 -0.6912 -1.9213
  161OSM    C6S18064  -0.289   6.937   4.298 -0.1025  0.4062 -0.0863
  161OSM    H6S18065  -0.353   6.860   4.347 -2.6197  1.1974 -1.9154
  161OSM    H6T18066  -0.353   7.019   4.261  0.9447  0.6958 -1.3247
  161OSM    C7S18067  -0.185   6.993   4.399  0.3596 -0.5034 -0.9685
  161OSM    H7S18068  -0.110   7.067   4.362 -0.6894  0.6933 -0.7816
  161OSM    H7T18069  -0.124   6.908   4.435 -1.3194 -1.0041  0.8257
  161OSM    C8S18070  -0.234   7.066   4.527  0.2390  0.5110  0.2636
  161OSM    H8S18071  -0.301   7.150   4.499 -0.7720  0.0516  1.2177
  161OSM    H8T18072  -0.137   7.097   4.572  0.0996 -0.0608  0.9803
  161OSM    C9S18073  -0.305   6.965   4.625 -0.1217 -0.6107 -0.4888
  161OSM    H9S18074  -0.244   6.872   4.623  1.6096  0.4867 -2.2805
  161OSM    H9T18075  -0.406   6.933   4.592 -1.0852  0.0950  1.5849
  161OSM   C10S18076  -0.310   7.009   4.773 -0.3780  0.2978  0.4024
  161OSM   H10S18077  -0.390   7.082   4.797 -1.6523 -0.8476 -0.2537
  161OSM   H10T18078  -0.220   7.063   4.808  1.2175 -2.0461  0.1484
  161OSM   C11S18079  -0.332   6.889   4.872 -0.5517  1.2175 -0.5268
  161OSM   H11S18080  -0.252   6.816   4.846  0.0896  0.9833  1.8364
  161OSM   H11T18081  -0.427   6.838   4.844  0.5534 -1.4604  0.2560
  161OSM   C12S18082  -0.327   6.935   5.018 -0.1525 -0.1338  0.2522
  161OSM   H12S18083  -0.391   7.025   5.022  1.6999  1.3699 -1.6979
  161OSM   H12T18084  -0.227   6.977   5.040  0.3354 -0.3180 -1.4711
  161OSM   C13S18085  -0.370   6.831   5.127  0.2846 -0.4480 -0.1648
  161OSM   H13S18086  -0.319   6.735   5.102  1.2750 -0.0935  0.4548
  161OSM   H13T18087  -0.478   6.803   5.123  0.4017 -1.1357  1.0171
  161OSM   C14S18088  -0.337   6.871   5.269 -0.9778  0.7124  1.0421
  161OSM   H14S18089  -0.387   6.968   5.291 -1.7432  0.8486 -1.1261
  161OSM   H14T18090  -0.229   6.892   5.286 -0.1520 -1.2398 -1.3286
  161OSM   C15S18091  -0.393   6.764   5.362 -0.5949 -0.3388 -0.6157
  161OSM   H15S18092  -0.341   6.668   5.341 -2.7294 -1.4000 -1.2684
  161OSM   H15T18093  -0.500   6.748   5.338 -0.6679 -0.9351  0.0691
  161OSM   C16S18094  -0.372   6.794   5.511  0.8680 -0.4131  0.5013
  161OSM   H16S18095  -0.267   6.827   5.519  0.6398  0.3583  0.4075
  161OSM   H16T18096  -0.397   6.706   5.574 -3.3625 -0.7417 -1.2787
  161OSM   C17S18097  -0.470   6.896   5.571 -0.1829  0.1732  0.3550
  161OSM   H17S18098  -0.574   6.870   5.544  0.6449 -0.4714 -2.6931
  161OSM   H17T18099  -0.429   6.993   5.533 -1.3702  1.4983  2.2816
  161OSM   C18S18100  -0.454   6.904   5.724 -0.3380  0.3129  0.3296
  161OSM   H18S18101  -0.487   6.810   5.773  0.4130  0.2987  0.8309
  161OSM   H18T18102  -0.515   6.987   5.767 -0.0062  1.6935 -1.7648
  161OSM   H18U18103  -0.347   6.916   5.750 -0.0745 -1.2659  0.0509
  161OSM    C1F18104   0.156   6.551   4.197 -0.8132 -0.3201 -0.1649
  161OSM     OF18105   0.249   6.613   4.149  0.0699 -0.0204 -0.3469
  161OSM    C2F18106   0.183   6.451   4.310 -0.0048  0.5605  0.2478
  161OSM    H2F18107   0.281   6.404   4.290  0.9922  2.5176  0.3307
  161OSM    H2G18108   0.107   6.373   4.286 -0.1692  1.7275 -3.5478
  161OSM    C3F18109   0.182   6.512   4.448 -0.1587  0.0014  0.3232
  161OSM    H3F18110   0.229   6.612   4.449 -0.8335  0.3285  0.5119
  161OSM    H3G18111   0.230   6.443   4.521  0.2423 -0.8020 -0.6831
  161OSM    C4F18112   0.040   6.545   4.483  0.3046 -0.2953 -0.0484
  161OSM    H4F18113  -0.016   6.449   4.487  1.1340 -0.7956 -0.2005
  161OSM    H4G18114  -0.008   6.601   4.400 -0.9600  0.7519  1.3296
  161OSM    C5F18115   0.016   6.645   4.594  0.8451 -0.1167  1.1086
  161OSM    H5F18116  -0.095   6.658   4.602  0.3362 -2.3540 -1.0859
  161OSM    H5G18117   0.040   6.745   4.551 -1.1320  0.8500  2.0914
  161OSM    C6F18118   0.067   6.606   4.728  0.2817  0.5128 -0.4205
  161OSM    H6F18119   0.054   6.693   4.796 -0.2906  0.5170 -0.5348
  161OSM    H6G18120   0.178   6.596   4.727  0.4652  2.1823 -0.7122
  161OSM    C7F18121   0.004   6.483   4.783  0.1819 -0.0517  0.5044
  161OSM    H7F18122   0.028   6.399   4.714 -1.4604  0.0442 -0.2331
  161OSM    H7G18123  -0.106   6.498   4.780  0.0063 -1.1987  0.6592
  161OSM    C8F18124   0.059   6.452   4.915 -0.2121  0.7026 -0.0067
  161OSM    H8F18125   0.169   6.462   4.919 -0.1746  0.8075 -0.9922
  161OSM    H8G18126   0.063   6.342   4.926 -0.0081  0.7030 -0.0764
  161OSM    C9F18127   0.002   6.535   5.030  0.5423 -0.4468 -0.1957
  161OSM    H9F18128   0.021   6.644   5.028 -0.2277 -0.2582  1.3976
  161OSM   C10F18129  -0.079   6.491   5.122 -0.1216 -0.8686 -0.1439
  161OSM   H10F18130  -0.104   6.564   5.201  0.7154  0.6968 -1.2558
  161OSM   C11F18131  -0.116   6.344   5.146 -0.3279 -0.8831 -0.8599
  161OSM   H11F18132  -0.068   6.278   5.071  0.8833 -2.5332  1.2564
  161OSM   H11G18133  -0.227   6.339   5.141 -0.4405 -0.4121  0.6319
  161OSM   C12F18134  -0.073   6.304   5.288 -1.0894 -0.3328  0.6781
  161OSM   H12F18135   0.037   6.308   5.304 -1.0131 -0.1448  0.1473
  161OSM   H12G18136  -0.084   6.194   5.290  1.9297 -0.7192  0.7089
  161OSM   C13F18137  -0.158   6.368   5.398 -0.3901 -0.2889  0.6143
  161OSM   H13F18138  -0.265   6.345   5.377  0.1592 -0.6321 -2.1543
  161OSM   H13G18139  -0.156   6.479   5.402 -1.6269 -0.2897  3.4746
  161OSM   C14F18140  -0.116   6.330   5.543 -1.0284 -0.3858 -0.1602
  161OSM   H14F18141  -0.024   6.385   5.571 -1.8935  1.4772 -0.7557
  161OSM   H14G18142  -0.104   6.223   5.569  0.2672 -0.2223 -0.0646
  161OSM   C15F18143  -0.223   6.393   5.641 -0.4700 -0.2396  1.1667
  161OSM   H15F18144  -0.321   6.343   5.629 -1.5792  2.1871 -0.6374
  161OSM   H15G18145  -0.240   6.496   5.604 -2.6686 -1.6420 -2.2356
  161OSM   C16F18146  -0.166   6.400   5.788 -0.2859 -0.4627  0.0507
  161OSM   H16F18147  -0.061   6.434   5.796 -0.5421  0.2428  0.5206
  161OSM   H16G18148  -0.181   6.300   5.833  2.2043 -0.3499  1.2246
  161OSM   C17F18149  -0.252   6.494   5.870 -0.5437  0.9442  0.9827
  161OSM   H17F18150  -0.279   6.452   5.969 -1.9086 -0.4004  0.1050
  161OSM   H17G18151  -0.350   6.489   5.817  0.2716 -1.0171 -0.4752
  161OSM   C18F18152  -0.204   6.642   5.872  0.2456 -0.7617 -0.0051
  161OSM   H18F18153  -0.285   6.706   5.914  0.6974 -0.7904  0.9226
  161OSM   H18G18154  -0.175   6.672   5.769 -0.5930  0.2393  0.0325
  161OSM   H18H18155  -0.111   6.658   5.930 -1.2529 -0.6656  2.5305
  162OSM      N18156   1.113   0.826   3.259 -0.0697 -0.1917 -0.3175
  162OSM    C1518157   1.088   0.677   3.246  0.6756  0.3171  0.2534
  162OSM   H15A18158   1.003   0.665   3.181  0.9031 -0.2526  0.0534
  162OSM   H15B18159   1.060   0.633   3.340 -0.4111 -3.0049 -1.4367
  162OSM   H15C18160   1.177   0.632   3.203 -0.8214 -1.3182 -1.3115
  162OSM    C1418161   1.125   0.877   3.122  0.1312  0.0873 -0.5326
  162OSM   H14A18162   1.148   0.982   3.133  0.5154 -0.1917  2.0628
  162OSM   H14B18163   1.031   0.866   3.069  0.3195 -1.1013 -0.6395
  162OSM   H14C18164   1.203   0.829   3.065 -0.8179 -0.1556 -1.6893
  162OSM    C1318165   0.996   0.891   3.327 -0.0579 -0.2054 -0.2469
  162OSM   H13A18166   0.899   0.884   3.279 -2.1527  1.0226  3.3899
  162OSM   H13B18167   1.017   0.996   3.338  0.1081 -0.1605 -0.9163
  162OSM   H13C18168   0.976   0.856   3.427 -1.4628 -0.7000 -0.6637
  162OSM    C1218169   1.236   0.859   3.347 -0.9974  0.0491 -0.5281
  162OSM   H12A18170   1.261   0.964   3.349 -0.8752  0.0371 -1.1608
  162OSM   H12B18171   1.324   0.812   3.306 -1.2581  2.3675 -4.2878
  162OSM    C1118172   1.242   0.806   3.495 -0.0164  0.0207 -0.1927
  162OSM   H11A18173   1.160   0.847   3.557  0.4076  1.7896 -0.7307
  162OSM   H11B18174   1.336   0.829   3.550 -0.6330  0.0874  0.8518
  162OSM      P18175   1.348   0.568   3.544  0.2687 -0.4023 -0.1928
  162OSM    O1318176   1.287   0.437   3.568  0.2356 -0.0968  0.0473
  162OSM    O1418177   1.464   0.578   3.453 -0.1414  0.1583 -0.5946
  162OSM    O1118178   1.378   0.633   3.685  0.1075  0.0789 -0.2965
  162OSM    O1218179   1.234   0.669   3.493 -0.1970  0.5039  0.3977
  162OSM    C1S18180   1.283   0.625   3.789  0.1774 -0.3391 -0.9218
  162OSM    H1S18181   1.240   0.525   3.814 -2.2947  0.8958  0.1363
  162OSM    H1T18182   1.198   0.696   3.781  1.6781  1.5162 -1.1372
  162OSM     NF18183   1.286   0.644   4.040 -0.1313  0.1573  0.0931
  162OSM    HNF18184   1.263   0.713   4.109  0.8835 -0.7251  1.3772
  162OSM    C2S18185   1.359   0.670   3.924  0.4145  0.4823  0.7024
  162OSM    H2S18186   1.451   0.607   3.925  0.9913  1.2704 -0.3143
  162OSM    C3S18187   1.390   0.822   3.904 -0.2293 -0.5134  0.6502
  162OSM    H3S18188   1.309   0.892   3.935 -0.0158 -0.0192  0.1119
  162OSM     O318189   1.434   0.857   3.777  0.2263  0.6439  0.2060
  162OSM    HO318190   1.429   0.775   3.728  0.2042  0.0780  1.1401
  162OSM    C4S18191   1.509   0.857   3.999 -0.0224 -0.6668 -0.3912
  162OSM    H4S18192   1.484   0.867   4.106  1.5143 -2.2549  0.1821
  162OSM    C5S18193   1.641   0.885   3.983  0.1471  0.6316 -0.5630
  162OSM    H5S18194   1.688   0.855   3.888 -0.6379  0.2404 -0.8366
  162OSM    C6S18195   1.742   0.934   4.081 -0.5845 -0.3831  0.3042
  162OSM    H6S18196   1.817   0.995   4.027  0.4733 -1.2214  0.7776
  162OSM    H6T18197   1.802   0.846   4.115  0.2191  0.1932  0.4160
  162OSM    C7S18198   1.679   1.024   4.192  0.2652  0.4022  0.7607
  162OSM    H7S18199   1.618   0.965   4.263  0.5251  2.1704  2.5346
  162OSM    H7T18200   1.615   1.106   4.154 -0.2716 -0.1241  0.5231
  162OSM    C8S18201   1.785   1.092   4.284  0.9259  0.3487  0.0291
  162OSM    H8S18202   1.866   1.121   4.215  0.8962 -0.0228 -0.1629
  162OSM    H8T18203   1.836   1.016   4.347  2.0992  1.3358  0.3033
  162OSM    C9S18204   1.736   1.200   4.381 -0.5466  0.1282  0.6314
  162OSM    H9S18205   1.652   1.258   4.337 -1.9688 -1.8927  0.5635
  162OSM    H9T18206   1.813   1.277   4.404  0.5529 -0.9187  0.5460
  162OSM   C10S18207   1.687   1.143   4.518  0.3344 -0.7436  0.4188
  162OSM   H10S18208   1.752   1.064   4.560 -0.8163 -1.3646  1.0684
  162OSM   H10T18209   1.601   1.077   4.498 -1.0386  0.6257  1.5494
  162OSM   C11S18210   1.662   1.259   4.625  0.6237 -0.2142 -0.5904
  162OSM   H11S18211   1.585   1.329   4.587 -0.0382 -0.2382  0.6624
  162OSM   H11T18212   1.752   1.321   4.645 -1.7210  3.1388  0.3036
  162OSM   C12S18213   1.611   1.213   4.768 -0.1086 -0.2912  0.1324
  162OSM   H12S18214   1.660   1.117   4.798  1.1212  0.4979  0.7425
  162OSM   H12T18215   1.500   1.206   4.767 -0.1154 -0.3412  0.7181
  162OSM   C13S18216   1.632   1.318   4.874 -0.0657  0.0499 -0.5829
  162OSM   H13S18217   1.594   1.419   4.848  0.4014  0.3176 -0.2428
  162OSM   H13T18218   1.741   1.328   4.890 -0.4118  0.5922  1.7023
  162OSM   C14S18219   1.575   1.276   5.010  0.0357 -0.1435 -0.5749
  162OSM   H14S18220   1.634   1.185   5.035  1.7569  0.3881 -2.4626
  162OSM   H14T18221   1.469   1.241   5.009 -0.0936  0.1178  0.9237
  162OSM   C15S18222   1.595   1.391   5.116 -0.1569  0.5140 -0.3583
  162OSM   H15S18223   1.578   1.487   5.063  3.5523  0.2463 -2.3481
  162OSM   H15T18224   1.702   1.390   5.148 -1.2437  1.1779  3.9817
  162OSM   C16S18225   1.510   1.388   5.247  0.2988  0.6971  0.3656
  162OSM   H16S18226   1.502   1.295   5.307 -2.8953  0.4484 -0.2613
  162OSM   H16T18227   1.402   1.397   5.224  0.4937  1.9542 -0.1114
  162OSM   C17S18228   1.558   1.489   5.356 -0.7970 -0.2772  0.2353
  162OSM   H17S18229   1.521   1.585   5.314 -1.0776 -0.4672  0.0400
  162OSM   H17T18230   1.668   1.503   5.358 -0.7407 -0.7534  1.6127
  162OSM   C18S18231   1.504   1.461   5.498  0.5868 -0.1030 -0.2034
  162OSM   H18S18232   1.393   1.470   5.502  0.7492  2.4150  0.1114
  162OSM   H18T18233   1.553   1.529   5.571 -0.2395  2.6655 -2.0425
  162OSM   H18U18234   1.532   1.360   5.533  1.0144 -0.6897 -2.0944
  162OSM    C1F18235   1.270   0.514   4.091  0.3809  0.2661 -0.1691
  162OSM     OF18236   1.323   0.419   4.042 -0.2770  0.0620  0.2682
  162OSM    C2F18237   1.188   0.487   4.212 -0.0292 -0.1483 -0.2858
  162OSM    H2F18238   1.146   0.387   4.191 -0.8256  0.4389 -1.5733
  162OSM    H2G18239   1.114   0.569   4.199  0.7082  0.4344 -0.9249
  162OSM    C3F18240   1.272   0.500   4.338 -0.1319  0.2107 -0.7311
  162OSM    H3F18241   1.309   0.605   4.338  0.3375  0.0847  1.0958
  162OSM    H3G18242   1.362   0.435   4.335 -0.6686 -0.7110  1.4735
  162OSM    C4F18243   1.190   0.478   4.470 -0.3587  0.2456  0.0448
  162OSM    H4F18244   1.161   0.371   4.458 -1.8714  0.6806 -0.4378
  162OSM    H4G18245   1.095   0.536   4.479 -2.1892 -1.4080 -5.0573
  162OSM    C5F18246   1.271   0.491   4.602 -0.8054 -0.2831  0.4158
  162OSM    H5F18247   1.318   0.592   4.600  0.4614 -0.8677 -1.0293
  162OSM    H5G18248   1.363   0.428   4.596 -0.9749 -0.5329  0.4248
  162OSM    C6F18249   1.182   0.470   4.723  0.4370  0.1193 -0.0155
  162OSM    H6F18250   1.121   0.383   4.689  0.9585 -0.1843 -0.1755
  162OSM    H6G18251   1.117   0.560   4.737 -1.1000 -1.1442  1.4095
  162OSM    C7F18252   1.249   0.447   4.859  0.1884 -0.4586  0.1752
  162OSM    H7F18253   1.322   0.524   4.894  0.8412 -1.3292  0.7708
  162OSM    H7G18254   1.311   0.356   4.843  1.2535  0.5872 -2.2360
  162OSM    C8F18255   1.150   0.426   4.984 -0.3411  0.1521 -0.1168
  162OSM    H8F18256   1.083   0.337   4.978 -0.7866  0.5065 -0.5026
  162OSM    H8G18257   1.079   0.511   4.989 -0.5592  0.1069 -1.8439
  162OSM    C9F18258   1.237   0.437   5.107  0.6803 -0.5723  0.1246
  162OSM    H9F18259   1.288   0.535   5.111  1.4190 -0.9881  2.8407
  162OSM   C10F18260   1.237   0.351   5.212 -0.1539  0.2625 -0.0899
  162OSM   H10F18261   1.290   0.384   5.303 -0.8423 -0.4050  0.5696
  162OSM   C11F18262   1.158   0.218   5.227 -0.4640 -0.3028 -0.1745
  162OSM   H11F18263   1.228   0.133   5.243 -1.0180 -0.8513 -0.6055
  162OSM   H11G18264   1.102   0.191   5.135 -1.2683 -0.4887  0.3500
  162OSM   C12F18265   1.057   0.224   5.341 -0.1712 -0.0510  0.5151
  162OSM   H12F18266   0.998   0.130   5.335 -0.1687 -0.1618  1.8826
  162OSM   H12G18267   0.976   0.299   5.326  0.3129  0.2180 -0.9040
  162OSM   C13F18268   1.106   0.253   5.477 -0.1015 -0.2710 -0.6552
  162OSM   H13F18269   1.141   0.358   5.479 -2.5372  0.6053 -1.4164
  162OSM   H13G18270   1.195   0.188   5.491 -0.5910 -0.6308  0.9999
  162OSM   C14F18271   1.005   0.212   5.588 -0.6248  0.2560 -0.0076
  162OSM   H14F18272   0.978   0.105   5.573 -3.5282  1.1865 -2.2002
  162OSM   H14G18273   0.910   0.265   5.569 -1.1906 -0.4901  0.6531
  162OSM   C15F18274   1.059   0.262   5.726 -0.3040  0.1747 -0.2922
  162OSM   H15F18275   1.075   0.372   5.725  1.1465  0.0036  0.9371
  162OSM   H15G18276   1.162   0.227   5.745  0.8146  3.9006  1.2567
  162OSM   C16F18277   0.960   0.227   5.850  0.0540  0.8474 -0.2296
  162OSM   H16F18278   0.926   0.125   5.821  1.2017  0.5992 -0.7577
  162OSM   H16G18279   0.871   0.293   5.841 -0.2722  0.4903  0.3221
  162OSM   C17F18280   1.022   0.224   5.987  0.5206  0.6486  0.0945
  162OSM   H17F18281   1.048   0.329   6.009 -0.1084  1.1887 -1.5793
  162OSM   H17G18282   1.115   0.164   5.979  0.5820  0.9539 -2.5210
  162OSM   C18F18283   0.936   0.164   6.100  0.1632  0.2247  0.6161
  162OSM   H18F18284   0.986   0.174   6.199 -0.1145 -0.2976  0.8147
  162OSM   H18G18285   0.919   0.057   6.075  3.8736 -0.0737 -1.3007
  162OSM   H18H18286   0.835   0.209   6.110  0.4176  1.0727 -0.4502
  163OSM      N18287   5.739   0.695   3.938  0.4851 -0.7286 -0.5011
  163OSM    C1518288   5.611   0.702   3.863 -1.0478  0.3284  0.3948
  163OSM   H15A18289   5.524   0.648   3.899 -1.4967  1.6849  1.4198
  163OSM   H15B18290   5.625   0.673   3.759 -1.3934  4.1582 -0.8849
  163OSM   H15C18291   5.573   0.803   3.868 -1.3778  0.3482 -1.4747
  163OSM    C1418292   5.719   0.754   4.074  0.0957 -0.3750 -0.0419
  163OSM   H14A18293   5.642   0.714   4.138 -0.2005  2.2449  1.3414
  163OSM   H14B18294   5.695   0.859   4.072 -1.5339 -0.7086  0.3664
  163OSM   H14C18295   5.808   0.748   4.134 -0.0103  0.3933  0.2044
  163OSM    C1318296   5.804   0.561   3.952 -0.2186 -0.1216  0.4627
  163OSM   H13A18297   5.821   0.515   3.855  3.0009 -1.3014  1.4578
  163OSM   H13B18298   5.741   0.500   4.015  0.9124 -2.2418 -0.3560
  163OSM   H13C18299   5.898   0.566   4.004  0.5847  0.6716 -1.0260
  163OSM    C1218300   5.836   0.788   3.860 -0.2300  0.4288  0.0930
  163OSM   H12A18301   5.836   0.769   3.754  2.2528  0.4698  0.0336
  163OSM   H12B18302   5.935   0.763   3.895 -0.9374 -0.4784  1.5961
  163OSM    C1118303   5.801   0.939   3.850  0.1863  0.2389 -0.8158
  163OSM   H11A18304   5.799   0.994   3.947  0.0147  0.8109 -1.1402
  163OSM   H11B18305   5.697   0.936   3.812 -0.0930  2.3798 -0.3979
  163OSM      P18306   6.042   1.046   3.784 -0.1511  0.0622 -0.1334
  163OSM    O1318307   6.133   0.941   3.731  0.3423 -0.1360 -0.1671
  163OSM    O1418308   6.072   1.181   3.748 -0.2442  0.0784  0.4438
  163OSM    O1118309   6.048   1.043   3.942 -0.2738  0.5231 -0.3876
  163OSM    O1218310   5.896   0.998   3.754  0.0807 -0.2528 -0.1380
  163OSM    C1S18311   6.164   1.069   4.019  0.9810 -0.8753 -0.4703
  163OSM    H1S18312   6.215   1.153   3.966  1.2116 -2.2714 -2.5791
  163OSM    H1T18313   6.235   0.985   4.010  0.2747 -1.3481 -1.9432
  163OSM     NF18314   6.247   1.151   4.231  0.7433  0.0751 -0.0639
  163OSM    HNF18315   6.302   1.089   4.287  0.9961  0.2863 -0.0767
  163OSM    C2S18316   6.130   1.089   4.167  0.2842 -0.6603  1.1502
  163OSM    H2S18317   6.042   1.156   4.176 -0.1621 -1.2596  1.2795
  163OSM    C3S18318   6.091   0.954   4.235  0.8608 -0.1896 -1.2621
  163OSM    H3S18319   6.177   0.885   4.218  0.0485 -1.2193 -1.3016
  163OSM     O318320   5.988   0.881   4.165 -0.1102  0.3777 -0.3705
  163OSM    HO318321   5.976   0.932   4.085 -0.0121  0.2108 -0.4939
  163OSM    C4S18322   6.069   0.977   4.380 -0.7023  1.2089 -0.1513
  163OSM    H4S18323   6.149   0.947   4.449 -2.0957 -2.9059 -0.0993
  163OSM    C5S18324   5.954   1.006   4.441 -0.0692 -0.1988  0.0415
  163OSM    H5S18325   5.867   1.025   4.377 -2.5986 -1.9798  2.6509
  163OSM    C6S18326   5.923   0.998   4.591  0.6896  0.1928 -0.0123
  163OSM    H6S18327   5.821   0.958   4.608  0.6948  0.1024 -0.2014
  163OSM    H6T18328   5.928   1.107   4.611  0.5132  0.5041 -1.5796
  163OSM    C7S18329   6.024   0.928   4.683 -0.0575  0.0484  0.0450
  163OSM    H7S18330   6.116   0.991   4.683  0.5957 -0.8730 -1.1470
  163OSM    H7T18331   6.053   0.827   4.648  0.9956  1.1994 -2.6965
  163OSM    C8S18332   5.979   0.919   4.832  0.3067  0.0383  0.0717
  163OSM    H8S18333   6.059   0.868   4.890 -0.1079 -0.9304 -0.1820
  163OSM    H8T18334   5.887   0.857   4.838 -0.2156  0.1948 -3.9718
  163OSM    C9S18335   5.948   1.053   4.902  0.9807  0.8473 -0.1241
  163OSM    H9S18336   5.850   1.094   4.870  2.0234  3.1161 -0.6407
  163OSM    H9T18337   6.033   1.122   4.880  1.3520  0.4236 -0.0323
  163OSM   C10S18338   5.930   1.040   5.054 -0.6551  0.2253 -1.3473
  163OSM   H10S18339   5.895   1.136   5.097  1.4378  0.6857 -0.5473
  163OSM   H10T18340   6.034   1.024   5.088 -0.6819  0.9060 -0.9317
  163OSM   C11S18341   5.853   0.912   5.097 -0.1229 -0.7358 -0.6082
  163OSM   H11S18342   5.906   0.816   5.078  0.8828 -0.6198  1.3400
  163OSM   H11T18343   5.754   0.913   5.047  0.6051  0.0841 -2.1044
  163OSM   C12S18344   5.819   0.919   5.242 -0.2849 -0.2102 -0.3779
  163OSM   H12S18345   5.746   0.841   5.271  0.7596 -0.6210  1.2973
  163OSM   H12T18346   5.772   1.018   5.265 -2.5034 -0.9429 -1.4915
  163OSM   C13S18347   5.943   0.899   5.327  0.2802 -0.0448  0.0368
  163OSM   H13S18348   6.016   0.981   5.307 -0.1410  1.6174  4.3132
  163OSM   H13T18349   5.984   0.796   5.321 -0.0594 -0.2041  0.4635
  163OSM   C14S18350   5.910   0.911   5.471  0.1232 -0.1300 -0.5417
  163OSM   H14S18351   5.827   0.848   5.511 -0.1947  0.9331  0.5300
  163OSM   H14T18352   5.866   1.011   5.495  1.3356  0.4578 -0.7100
  163OSM   C15S18353   6.038   0.890   5.562  0.0617  0.3952  0.0693
  163OSM   H15S18354   6.102   0.975   5.530  0.8250 -1.1382 -2.8063
  163OSM   H15T18355   6.096   0.798   5.540  1.1566  0.7481  1.3332
  163OSM   C16S18356   6.014   0.894   5.710  0.9774  0.3436 -0.4351
  163OSM   H16S18357   6.109   0.880   5.765  0.1600  1.8621  1.5007
  163OSM   H16T18358   5.953   0.804   5.730 -0.0709  1.2596  0.7025
  163OSM   C17S18359   5.941   1.020   5.763 -0.2909 -0.4547 -0.2631
  163OSM   H17S18360   5.837   1.025   5.724 -0.2775  0.0895 -0.2375
  163OSM   H17T18361   6.006   1.104   5.732  0.1593 -0.8164 -0.3141
  163OSM   C18S18362   5.937   1.023   5.916  0.6371  0.6891  0.6029
  163OSM   H18S18363   5.902   1.126   5.939  0.5026  1.3265 -2.1317
  163OSM   H18T18364   6.041   1.004   5.952  0.9224 -3.2602 -1.6898
  163OSM   H18U18365   5.876   0.939   5.954  1.0918  0.8309  1.6931
  163OSM    C1F18366   6.296   1.274   4.192 -0.5922  1.0985 -0.3373
  163OSM     OF18367   6.236   1.341   4.109  0.0698  0.5859 -0.0145
  163OSM    C2F18368   6.437   1.310   4.236 -0.1287 -0.4263 -0.4751
  163OSM    H2F18369   6.443   1.420   4.221  1.9817 -0.5880 -1.1453
  163OSM    H2G18370   6.511   1.265   4.166 -0.0417 -0.0678 -0.6199
  163OSM    C3F18371   6.479   1.280   4.379 -0.6620 -0.1303  0.4730
  163OSM    H3F18372   6.587   1.305   4.386 -0.0979 -2.7868  2.8740
  163OSM    H3G18373   6.462   1.174   4.406  0.7921 -0.2144  1.1619
  163OSM    C4F18374   6.416   1.365   4.502 -0.8998  0.2425  0.3420
  163OSM    H4F18375   6.395   1.468   4.465  0.8894  0.4982 -0.0871
  163OSM    H4G18376   6.496   1.357   4.579 -2.0155  0.8088  1.6072
  163OSM    C5F18377   6.297   1.293   4.569  0.9656 -0.5013 -0.2124
  163OSM    H5F18378   6.333   1.242   4.661 -1.6000  0.7792  1.5944
  163OSM    H5G18379   6.265   1.217   4.493 -0.1042  1.9290 -2.3518
  163OSM    C6F18380   6.179   1.387   4.596 -0.2105 -0.4523  0.2439
  163OSM    H6F18381   6.213   1.474   4.657 -3.2864  1.0663  0.0181
  163OSM    H6G18382   6.100   1.342   4.659 -1.5511  1.9228  0.3799
  163OSM    C7F18383   6.109   1.435   4.464 -0.3108 -0.3740 -0.2427
  163OSM    H7F18384   6.097   1.354   4.389 -0.7950  1.8283 -2.6499
  163OSM    H7G18385   6.181   1.505   4.416 -2.0657  0.5041 -1.7122
  163OSM    C8F18386   5.970   1.489   4.500 -0.2796 -0.0416  0.3959
  163OSM    H8F18387   5.918   1.428   4.577 -1.8893 -1.9135 -2.0280
  163OSM    H8G18388   5.911   1.480   4.406  0.5615 -3.3776  0.0607
  163OSM    C9F18389   5.972   1.630   4.545 -0.5967  0.4706 -0.0364
  163OSM    H9F18390   6.028   1.700   4.481 -0.6067  1.9390  1.4972
  163OSM   C10F18391   5.912   1.688   4.656 -0.8176 -0.3414  0.7386
  163OSM   H10F18392   5.940   1.794   4.665 -1.7653  0.4193 -3.3350
  163OSM   C11F18393   5.815   1.627   4.749  0.4035 -0.4731  0.0627
  163OSM   H11F18394   5.792   1.520   4.727  0.3202 -0.3780 -0.3236
  163OSM   H11G18395   5.720   1.685   4.749  1.1089  0.7008 -0.1592
  163OSM   C12F18396   5.869   1.642   4.898  0.2708  0.1860 -0.0180
  163OSM   H12F18397   5.789   1.613   4.969 -1.6374 -0.3438 -2.2710
  163OSM   H12G18398   5.876   1.751   4.916 -0.4554  0.2899 -0.3284
  163OSM   C13F18399   5.996   1.563   4.920 -0.4984 -0.1343  0.3112
  163OSM   H13F18400   6.071   1.623   4.865 -0.5322 -0.6327 -0.2917
  163OSM   H13G18401   5.993   1.456   4.889  1.6587  0.1997 -1.2491
  163OSM   C14F18402   6.034   1.564   5.071  0.3654  0.6776  0.3762
  163OSM   H14F18403   6.014   1.667   5.109 -0.9200  0.9777 -1.0439
  163OSM   H14G18404   6.143   1.542   5.067  0.9847  3.2558  0.8921
  163OSM   C15F18405   5.971   1.444   5.141 -0.0030 -0.3844 -0.2605
  163OSM   H15F18406   5.998   1.341   5.110 -3.9228 -1.4711 -0.6591
  163OSM   H15G18407   5.860   1.440   5.137 -0.0285 -1.3869  0.8538
  163OSM   C16F18408   6.002   1.443   5.293 -0.7730 -0.4537  0.5300
  163OSM   H16F18409   5.966   1.537   5.341 -2.3393  0.2156 -1.7962
  163OSM   H16G18410   6.113   1.441   5.299 -0.7596 -0.7668  0.2254
  163OSM   C17F18411   5.954   1.317   5.362  0.6794 -0.3544  0.0773
  163OSM   H17F18412   5.973   1.223   5.307 -1.6655 -0.8022 -0.0658
  163OSM   H17G18413   5.844   1.329   5.376  0.8723  1.4211  0.3529
  163OSM   C18F18414   6.007   1.295   5.505  0.3518  0.1808 -0.5766
  163OSM   H18F18415   6.010   1.388   5.566 -2.1023 -0.5203  0.7534
  163OSM   H18G18416   6.102   1.237   5.494 -1.1727 -2.0070 -3.5800
  163OSM   H18H18417   5.945   1.217   5.554 -0.5765  0.9601 -0.4866
  164OSM      N18418   2.138   0.818   3.499  0.4009 -0.4260  0.4471
  164OSM    C1518419   2.088   0.937   3.413 -0.2699 -0.3468  0.2757
  164OSM   H15A18420   2.171   0.965   3.351 -2.6584 -0.1846 -3.0835
  164OSM   H15B18421   2.064   1.031   3.460  1.9123  1.2496 -1.6341
  164OSM   H15C18422   2.006   0.916   3.346 -0.5600  0.0629  0.4966
  164OSM    C1418423   2.164   0.709   3.407  0.2639 -0.4952  0.4942
  164OSM   H14A18424   2.074   0.676   3.357  1.9896 -0.4816 -2.9572
  164OSM   H14B18425   2.204   0.627   3.465 -0.0909 -2.0455 -1.3345
  164OSM   H14C18426   2.253   0.731   3.350  1.4101 -3.4085  0.9504
  164OSM    C1318427   2.272   0.870   3.551  0.2933  0.4820 -0.4023
  164OSM   H13A18428   2.265   0.963   3.605  3.8194 -0.2794  1.7009
  164OSM   H13B18429   2.354   0.873   3.480  1.3479 -0.0500  0.7591
  164OSM   H13C18430   2.307   0.807   3.632 -0.3674 -1.4277 -1.5407
  164OSM    C1218431   2.038   0.789   3.608  0.1659 -0.1266  0.1488
  164OSM   H12A18432   1.951   0.760   3.550  1.4038 -1.6846 -1.0361
  164OSM   H12B18433   2.019   0.878   3.666 -1.2941  0.2414 -0.8375
  164OSM    C1118434   2.063   0.674   3.714 -0.0633 -0.1330  0.7065
  164OSM   H11A18435   1.969   0.665   3.773 -0.1044 -1.1376  0.5034
  164OSM   H11B18436   2.138   0.695   3.792 -0.0761  0.2878  0.6107
  164OSM      P18437   1.962   0.468   3.589 -0.2921  0.4268  0.1232
  164OSM    O1318438   1.876   0.555   3.503 -0.4053  0.3693 -0.3399
  164OSM    O1418439   2.027   0.353   3.519 -0.5566 -0.5953  0.2361
  164OSM    O1118440   1.880   0.433   3.722  0.0377  0.4679  0.3963
  164OSM    O1218441   2.089   0.549   3.651 -0.2450  0.0260  0.6127
  164OSM    C1S18442   1.925   0.352   3.829  0.4707 -0.6978  0.2439
  164OSM    H1S18443   2.023   0.306   3.805  1.2436  0.9954  0.0090
  164OSM    H1T18444   1.850   0.271   3.827 -0.1675 -0.2553  2.7182
  164OSM     NF18445   2.000   0.378   4.060 -0.2103 -0.3524  0.5146
  164OSM    HNF18446   1.968   0.313   4.127 -0.3701  0.6064  1.3912
  164OSM    C2S18447   1.913   0.433   3.963  0.1622 -0.6775 -0.1684
  164OSM    H2S18448   1.940   0.540   3.952  0.6444 -0.6138  1.3342
  164OSM    C3S18449   1.758   0.437   3.994 -0.1319 -0.5457 -0.4126
  164OSM    H3S18450   1.725   0.332   4.006 -1.0818 -0.3495 -1.1196
  164OSM     O318451   1.671   0.494   3.895 -0.3907 -0.1601 -0.7389
  164OSM    HO318452   1.724   0.521   3.819 -0.8541  0.0283 -1.0010
  164OSM    C4S18453   1.736   0.519   4.115  0.5254 -0.3579 -0.3055
  164OSM    H4S18454   1.815   0.594   4.125  0.9753 -0.5192 -2.1802
  164OSM    C5S18455   1.639   0.502   4.210 -0.0159 -0.2666  0.6917
  164OSM    H5S18456   1.565   0.423   4.188  1.2715 -0.8133 -2.0470
  164OSM    C6S18457   1.613   0.572   4.341 -0.1985 -0.8710 -0.3907
  164OSM    H6S18458   1.594   0.501   4.424 -0.6295 -0.2962  0.0145
  164OSM    H6T18459   1.518   0.628   4.326 -0.4158 -1.3225 -0.7303
  164OSM    C7S18460   1.725   0.665   4.387  0.0267 -0.4162 -0.3078
  164OSM    H7S18461   1.758   0.726   4.301  1.5211 -3.5210 -2.1134
  164OSM    H7T18462   1.810   0.601   4.420 -1.0159 -1.0400  1.3232
  164OSM    C8S18463   1.677   0.769   4.487 -0.4100 -0.1674 -0.7290
  164OSM    H8S18464   1.577   0.805   4.454 -0.2808  1.9445  0.9406
  164OSM    H8T18465   1.749   0.853   4.488 -0.3479 -0.1747  1.5027
  164OSM    C9S18466   1.661   0.709   4.623 -0.3720 -0.8823 -0.0816
  164OSM    H9S18467   1.763   0.678   4.655  0.5998 -0.2247 -2.3213
  164OSM    H9T18468   1.590   0.625   4.630 -0.0593 -1.1247  0.2090
  164OSM   C10S18469   1.596   0.813   4.714  0.3824 -0.6334 -0.1712
  164OSM   H10S18470   1.493   0.838   4.681  0.3146 -1.6157 -0.7257
  164OSM   H10T18471   1.643   0.913   4.700  0.0851 -0.7895 -2.7295
  164OSM   C11S18472   1.580   0.777   4.862  0.9811  0.6883 -0.9956
  164OSM   H11S18473   1.669   0.719   4.896 -0.5041  0.0976  2.2683
  164OSM   H11T18474   1.501   0.700   4.877  2.3626 -0.5786  0.1061
  164OSM   C12S18475   1.545   0.900   4.957 -0.8806  0.5289  0.9598
  164OSM   H12S18476   1.470   0.959   4.901 -0.1740  0.5301 -0.0176
  164OSM   H12T18477   1.641   0.955   4.974 -0.0036 -0.6676  0.0664
  164OSM   C13S18478   1.502   0.859   5.096  0.1767  0.2111 -0.0463
  164OSM   H13S18479   1.588   0.811   5.147  2.0127  1.7334 -1.5882
  164OSM   H13T18480   1.415   0.792   5.075 -1.0100  1.7840 -0.3488
  164OSM   C14S18481   1.467   0.987   5.177 -0.3811  0.1142  0.5137
  164OSM   H14S18482   1.389   1.044   5.122 -0.0277  0.0796 -0.0366
  164OSM   H14T18483   1.547   1.064   5.175 -0.5559  0.2942  0.3880
  164OSM   C15S18484   1.429   0.949   5.315  0.7482  0.2905  0.1599
  164OSM   H15S18485   1.415   1.041   5.377  2.2670 -0.0984  1.1197
  164OSM   H15T18486   1.511   0.903   5.374  0.6163  0.4399  0.4652
  164OSM   C16S18487   1.298   0.863   5.322 -0.7743  0.5545  0.4016
  164OSM   H16S18488   1.339   0.762   5.298  1.1157  1.3456  0.1101
  164OSM   H16T18489   1.228   0.890   5.240  0.0247 -0.7226 -0.7434
  164OSM   C17S18490   1.232   0.847   5.457 -0.2250  0.2922  0.3919
  164OSM   H17S18491   1.173   0.936   5.489  1.0424  1.0846  0.6019
  164OSM   H17T18492   1.317   0.832   5.527 -0.2997 -0.1831  0.3848
  164OSM   C18S18493   1.136   0.733   5.461  0.9616  0.2936 -0.3965
  164OSM   H18S18494   1.189   0.642   5.425  0.3259 -0.1761 -0.1532
  164OSM   H18T18495   1.040   0.746   5.405  1.2916 -1.8941 -1.5752
  164OSM   H18U18496   1.097   0.726   5.564 -1.1257  0.9610 -1.0856
  164OSM    C1F18497   2.136   0.392   4.061 -0.2252  0.2025 -0.1547
  164OSM     OF18498   2.191   0.468   3.979  0.5343  0.1146 -0.2699
  164OSM    C2F18499   2.218   0.301   4.147  0.6576  0.2699  1.0891
  164OSM    H2F18500   2.295   0.262   4.077  0.7332 -0.8352  1.7680
  164OSM    H2G18501   2.157   0.216   4.183  0.3901 -0.8435 -1.7625
  164OSM    C3F18502   2.299   0.376   4.254 -0.4381 -0.2369  0.4320
  164OSM    H3F18503   2.221   0.409   4.325  0.0004 -1.0202  1.3105
  164OSM    H3G18504   2.362   0.454   4.206 -0.0615 -1.4849 -1.2353
  164OSM    C4F18505   2.382   0.276   4.333  0.4758 -0.0277 -0.2258
  164OSM    H4F18506   2.438   0.213   4.260 -2.3772 -3.0742  0.0170
  164OSM    H4G18507   2.318   0.202   4.383 -1.3594  1.3911 -0.3753
  164OSM    C5F18508   2.474   0.334   4.441  0.4017  0.7244 -0.2131
  164OSM    H5F18509   2.403   0.367   4.520  0.4938  1.9387 -0.6085
  164OSM    H5G18510   2.518   0.427   4.400 -2.0801  1.4524 -1.4492
  164OSM    C6F18511   2.562   0.225   4.499  0.0841 -0.0562  0.1579
  164OSM    H6F18512   2.645   0.198   4.430  0.7953 -0.1018  1.0111
  164OSM    H6G18513   2.508   0.130   4.522  0.0827 -0.1709 -0.3136
  164OSM    C7F18514   2.640   0.280   4.624  0.4233  0.4419 -0.5664
  164OSM    H7F18515   2.690   0.375   4.597  1.2645 -0.0373 -0.7173
  164OSM    H7G18516   2.716   0.204   4.652 -0.8518 -0.9947 -0.8230
  164OSM    C8F18517   2.550   0.293   4.752 -0.5170 -0.5045 -0.3809
  164OSM    H8F18518   2.520   0.191   4.785  1.9190 -1.8833 -2.1039
  164OSM    H8G18519   2.462   0.351   4.717  0.8136  0.7138 -1.8607
  164OSM    C9F18520   2.633   0.379   4.847  0.1677  0.4841 -0.5034
  164OSM    H9F18521   2.665   0.478   4.811 -0.2115  0.7847 -0.0255
  164OSM   C10F18522   2.646   0.352   4.982 -0.0200  0.2760  0.7113
  164OSM   H10F18523   2.717   0.417   5.036  2.5016 -0.0330 -1.9837
  164OSM   C11F18524   2.606   0.232   5.055  0.0486 -0.5781  0.4975
  164OSM   H11F18525   2.670   0.206   5.142 -1.9404 -1.4867  1.7542
  164OSM   H11G18526   2.592   0.142   4.991 -0.9306  0.6807 -1.1577
  164OSM   C12F18527   2.470   0.232   5.127  1.0063 -0.1520  0.1534
  164OSM   H12F18528   2.447   0.135   5.176  0.9859 -0.3259 -0.2001
  164OSM   H12G18529   2.385   0.262   5.061 -0.3823  2.0145  2.7122
  164OSM   C13F18530   2.483   0.330   5.244 -0.1131  0.8149 -0.7807
  164OSM   H13F18531   2.468   0.437   5.216 -0.9980  1.7914  2.8619
  164OSM   H13G18532   2.581   0.329   5.296  0.0089  0.3617 -1.0147
  164OSM   C14F18533   2.367   0.311   5.341 -0.2647 -1.1342 -0.0441
  164OSM   H14F18534   2.379   0.212   5.390  2.4245 -0.7948  0.1305
  164OSM   H14G18535   2.275   0.306   5.279 -0.4933  0.7234  0.0873
  164OSM   C15F18536   2.352   0.437   5.423  0.1950  0.3665  0.9516
  164OSM   H15F18537   2.325   0.519   5.353  4.1352  0.4013 -0.7946
  164OSM   H15G18538   2.451   0.466   5.464  0.5165 -1.0037  1.2219
  164OSM   C16F18539   2.248   0.412   5.527  0.1557 -0.1102 -0.2128
  164OSM   H16F18540   2.275   0.327   5.592 -1.5492 -2.2021 -2.0495
  164OSM   H16G18541   2.150   0.393   5.477 -0.7011 -1.9607  1.9762
  164OSM   C17F18542   2.234   0.525   5.626  0.8503 -0.4990  1.6103
  164OSM   H17F18543   2.223   0.618   5.566  0.5019 -1.1786  0.5970
  164OSM   H17G18544   2.326   0.538   5.687  2.2186  1.5565 -0.7034
  164OSM   C18F18545   2.103   0.507   5.699  0.1736  0.1189 -0.5769
  164OSM   H18F18546   2.103   0.417   5.764  0.6936 -0.6702 -1.6513
  164OSM   H18G18547   2.013   0.496   5.634 -2.3989  2.8277  2.1803
  164OSM   H18H18548   2.085   0.597   5.761 -0.8276  0.0158 -0.6979
  165SAPS     N18549   1.641   6.383   8.387  0.8099  0.0998  0.3360
  165SAPS   HN118550   1.583   6.344   8.309  2.2577 -0.2064 -0.6193
  165SAPS   HN218551   1.636   6.306   8.456 -1.1056 -1.8562 -1.7850
  165SAPS   HN318552   1.585   6.462   8.426  0.6898 -0.7481  1.9643
  165SAPS   C1218553   1.772   6.415   8.329  0.3724  0.0763 -0.0893
  165SAPS  H12A18554   1.837   6.443   8.411 -0.9959  1.1259  0.6841
  165SAPS   C1318555   1.837   6.297   8.257  0.5890  0.5558  0.7949
  165SAPS  O13A18556   1.791   6.178   8.272  0.8868 -0.1209 -0.0419
  165SAPS  O13B18557   1.960   6.315   8.222 -0.3812  0.5267  0.2765
  165SAPS   C1118558   1.757   6.544   8.234 -1.0570  0.0286 -0.4142
  165SAPS  H11A18559   1.690   6.506   8.154  0.3000 -2.7333 -0.3860
  165SAPS  H11B18560   1.859   6.560   8.192 -1.7286 -1.6535 -2.8903
  165SAPS     P18561   1.579   6.740   8.293  0.1074 -0.2239  0.1220
  165SAPS   O1318562   1.483   6.639   8.344  0.7167 -0.1202  0.2802
  165SAPS   O1418563   1.578   6.868   8.366 -0.1336 -0.3544  0.3728
  165SAPS   O1218564   1.722   6.671   8.306 -0.2155 -0.4814  0.2697
  165SAPS   O1118565   1.565   6.756   8.136  0.1311 -0.1244  0.6118
  165SAPS    C118566   1.443   6.740   8.064 -0.3872  0.5644  0.3892
  165SAPS    HA18567   1.365   6.698   8.131 -1.8002  2.2504 -0.1095
  165SAPS    HB18568   1.399   6.839   8.039 -3.7970 -0.2675  2.5286
  165SAPS    C218569   1.449   6.650   7.934 -0.2370  0.1267 -1.0110
  165SAPS    HS18570   1.486   6.556   7.980  1.5258  0.2371 -2.1263
  165SAPS   O2118571   1.551   6.697   7.849 -0.3844 -0.3868  0.3441
  165SAPS   C2118572   1.590   6.617   7.746  0.2297  0.7421 -0.0024
  165SAPS   O2218573   1.557   6.504   7.728 -0.2342 -0.1005 -0.3220
  165SAPS   C2218574   1.675   6.697   7.645  0.2181  0.1271 -0.3142
  165SAPS   H2R18575   1.743   6.762   7.704 -1.1158  0.4812  0.8758
  165SAPS   H2S18576   1.726   6.613   7.592 -1.1852 -0.5139 -0.6751
  165SAPS    C318577   1.306   6.639   7.873  0.2288  0.0281 -0.9360
  165SAPS    HX18578   1.243   6.594   7.953 -2.6618  3.3780 -1.1099
  165SAPS    HY18579   1.309   6.567   7.788 -1.8812 -0.6855 -0.4615
  165SAPS   O3118580   1.271   6.776   7.834 -0.1315 -0.4025  0.0469
  165SAPS   C3118581   1.175   6.831   7.896  0.1529 -0.5972 -0.5903
  165SAPS   O3218582   1.123   6.784   7.998 -0.4771  0.3897  1.0345
  165SAPS   C3218583   1.144   6.966   7.830 -0.5890 -0.1976 -0.1724
  165SAPS   H2X18584   1.166   7.044   7.906  0.5567 -0.8789  0.2185
  165SAPS   H2Y18585   1.035   6.986   7.820 -0.6742 -0.2894  0.5150
  165SAPS   C2318586   1.599   6.775   7.544  0.3180  0.0596  0.0580
  165SAPS   H3R18587   1.543   6.857   7.594  0.5800  0.5259 -0.4002
  165SAPS   H3S18588   1.522   6.710   7.497  0.0672 -0.3584  1.0213
  165SAPS   C2418589   1.696   6.837   7.440  0.4617  0.1879  0.2398
  165SAPS   H4R18590   1.762   6.762   7.392  1.4498  0.6920  0.7817
  165SAPS   H4S18591   1.775   6.899   7.488 -0.9982 -0.6393  4.0727
  165SAPS   C2518592   1.629   6.915   7.328  0.9866  0.5749 -0.2971
  165SAPS   H5R18593   1.528   6.879   7.306  0.4235  0.8496  1.6674
  165SAPS   C2618594   1.681   7.001   7.243 -0.3925 -0.3748 -0.7366
  165SAPS   H6R18595   1.617   7.060   7.175  0.9192  2.7538  0.5320
  165SAPS   C2718596   1.810   7.067   7.270 -0.4369  0.1822 -0.3018
  165SAPS   H7R18597   1.836   7.078   7.377  0.2129  0.2839 -0.4619
  165SAPS   H7S18598   1.805   7.169   7.226 -1.9741 -0.4918 -1.7969
  165SAPS   C2818599   1.920   6.982   7.213 -0.6845  0.1402 -0.1272
  165SAPS   H8R18600   1.942   6.884   7.257  2.8402  0.2422 -1.3050
  165SAPS   C2918601   2.010   7.024   7.122  0.2992  0.3970 -0.2826
  165SAPS   H9R18602   2.075   6.944   7.083 -1.1261 -1.4090  0.8588
  165SAPS  C21018603   2.015   7.155   7.052  0.2641 -0.6154 -0.1078
  165SAPS  H10R18604   1.986   7.236   7.123  1.4510 -0.6851  0.4776
  165SAPS  H10S18605   1.944   7.169   6.968  1.3807  1.5019 -0.7602
  165SAPS  C21118606   2.149   7.185   6.997  0.6303 -0.3109 -0.0946
  165SAPS  H11R18607   2.234   7.155   7.061 -0.6138 -2.3227  0.7125
  165SAPS  C21218608   2.181   7.263   6.891  0.3814  0.4527 -1.0226
  165SAPS  H12R18609   2.280   7.241   6.847  0.8060 -4.0132  1.6109
  165SAPS  C21318610   2.086   7.331   6.801 -0.3689  0.3202 -0.1324
  165SAPS  H13R18611   1.994   7.361   6.856  0.5850 -0.5570  2.0626
  165SAPS  H13S18612   2.049   7.251   6.733 -0.0201 -1.5211  1.7134
  165SAPS  C21418613   2.144   7.439   6.717 -0.0689 -0.2350  0.1588
  165SAPS  H14R18614   2.218   7.402   6.644 -2.0464 -1.7146 -1.2180
  165SAPS  C21518615   2.105   7.568   6.707 -0.3611  0.3880 -1.0970
  165SAPS  H15R18616   2.152   7.639   6.637 -0.0379 -0.3835 -1.6688
  165SAPS  C21618617   2.003   7.642   6.782 -0.6284  0.5119  0.3987
  165SAPS  H16R18618   1.913   7.579   6.800 -0.5886  0.0334 -0.9750
  165SAPS  H16S18619   1.961   7.719   6.714  0.7690  0.1492 -0.9179
  165SAPS  C21718620   2.055   7.704   6.918 -0.1366 -0.4107 -0.0141
  165SAPS  H17R18621   1.987   7.782   6.958 -0.9300 -1.0687 -0.0724
  165SAPS  H17S18622   2.155   7.750   6.899 -0.4571  0.3911  0.1799
  165SAPS  C21818623   2.069   7.603   7.031  0.4033  0.6053 -0.5767
  165SAPS  H18R18624   2.166   7.550   7.023  0.7130  1.1490 -0.5457
  165SAPS  H18S18625   1.982   7.536   7.018 -0.2719  0.9612  1.6545
  165SAPS  C21918626   2.041   7.663   7.172  0.2370 -0.0642  0.0790
  165SAPS  H19R18627   1.932   7.682   7.182 -0.4650 -0.8969 -4.2093
  165SAPS  H19S18628   2.103   7.753   7.192  0.1154 -0.1184  0.7291
  165SAPS  C22018629   2.068   7.571   7.289 -0.7305  0.1343  0.5459
  165SAPS  H20R18630   2.173   7.544   7.313 -0.2008  2.1951  0.7395
  165SAPS  H20S18631   2.018   7.478   7.255  1.0403 -0.5748 -0.2361
  165SAPS  H20T18632   2.017   7.612   7.379 -0.5995  0.3509  0.5244
  165SAPS   C3318633   1.223   6.993   7.697  0.3010  0.0363  0.0621
  165SAPS   H3X18634   1.180   6.922   7.623 -2.9106  1.7243  0.1322
  165SAPS   H3Y18635   1.332   6.988   7.720  0.5977  0.4641 -1.1290
  165SAPS   C3418636   1.184   7.133   7.650  0.0110  0.6858 -0.5220
  165SAPS   H4X18637   1.200   7.209   7.729 -0.3197 -0.7842  1.0114
  165SAPS   H4Y18638   1.076   7.127   7.623  0.1342 -1.2638 -0.7695
  165SAPS   C3518639   1.275   7.170   7.524  0.4396  0.0017  0.2527
  165SAPS   H5X18640   1.379   7.132   7.528  0.1233 -0.8885  0.1604
  165SAPS   H5Y18641   1.276   7.279   7.503 -1.8252  0.7430  3.3100
  165SAPS   C3618642   1.211   7.116   7.392 -0.1090  0.1727  0.9191
  165SAPS   H6X18643   1.112   7.165   7.388 -1.3571 -1.8034  4.0696
  165SAPS   H6Y18644   1.180   7.013   7.418  0.3785 -0.7387 -1.7880
  165SAPS   C3718645   1.300   7.128   7.261 -0.5177 -0.0286 -0.1725
  165SAPS   H7X18646   1.391   7.068   7.281 -0.8270 -0.8371 -1.1125
  165SAPS   H7Y18647   1.315   7.237   7.242 -3.3562  0.1243 -2.0943
  165SAPS   C3818648   1.237   7.055   7.142 -0.1324  0.0340  0.1941
  165SAPS   H8X18649   1.138   7.102   7.126  0.9648  1.7966 -2.1743
  165SAPS   H8Y18650   1.220   6.947   7.155  0.1637 -0.0789 -0.3166
  165SAPS   C3918651   1.308   7.077   7.007  0.7120  0.9490  0.5829
  165SAPS   H9X18652   1.419   7.070   7.016  0.7305 -0.6399 -0.5559
  165SAPS   H9Y18653   1.290   7.184   6.987 -1.2426  0.6573  0.6469
  165SAPS  C31018654   1.259   6.993   6.884 -0.5101  0.4747 -0.0773
  165SAPS  H10X18655   1.306   7.043   6.797 -2.2067 -0.7556 -1.8021
  165SAPS  H10Y18656   1.149   6.992   6.865 -0.4923  0.1994 -0.1711
  165SAPS  C31118657   1.287   6.844   6.895 -0.3753  0.0410  0.2419
  165SAPS  H11X18658   1.219   6.803   6.973 -1.0055 -0.8435 -0.7543
  165SAPS  H11Y18659   1.397   6.827   6.907 -0.3546 -0.3144 -0.3787
  165SAPS  C31218660   1.243   6.759   6.768 -0.4702  0.1846  0.2654
  165SAPS  H12X18661   1.292   6.820   6.688 -0.0804 -0.5950 -0.1064
  165SAPS  H12Y18662   1.134   6.775   6.762 -0.4521 -0.2528 -2.8505
  165SAPS  C31318663   1.265   6.607   6.781  0.0153 -0.7737  0.4143
  165SAPS  H13X18664   1.178   6.574   6.842 -0.8307 -1.9347 -1.3255
  165SAPS  H13Y18665   1.360   6.586   6.833 -0.8339 -0.7520  2.0430
  165SAPS  C31418666   1.270   6.529   6.654 -0.4323 -1.1130  0.6836
  165SAPS  H14X18667   1.281   6.424   6.689  0.2990 -0.7550  1.5486
  165SAPS  H14Y18668   1.364   6.546   6.597 -0.1505  0.0752  1.4784
  165SAPS  C31518669   1.160   6.562   6.548 -0.2580 -0.0812  0.9836
  165SAPS  H15X18670   1.184   6.660   6.501  2.1305 -0.8361  0.4615
  165SAPS  H15Y18671   1.059   6.564   6.594 -1.1937 -0.8958 -0.8839
  165SAPS  C31618672   1.140   6.451   6.437  0.1820 -0.1474 -0.6640
  165SAPS  H16X18673   1.112   6.355   6.485  2.1455 -1.6823 -2.3687
  165SAPS  H16Y18674   1.234   6.432   6.381 -0.8292 -0.8803 -2.1614
  165SAPS  C31718675   1.019   6.487   6.343 -0.7091 -0.0271 -0.2411
  165SAPS  H17X18676   1.066   6.568   6.283  1.3343 -1.4101 -0.6053
  165SAPS  H17Y18677   0.927   6.513   6.400 -1.3896 -0.0635 -1.3039
  165SAPS  C31818678   0.991   6.373   6.250 -0.2036 -0.0115 -0.1959
  165SAPS  H18X18679   0.900   6.396   6.191 -0.6747  0.2037  0.5981
  165SAPS  H18Y18680   0.970   6.281   6.308  0.4616  1.2393  2.1696
  165SAPS  H18Z18681   1.075   6.354   6.179  0.3476  1.7895 -0.0986
  166SAPS     N18682   5.458   3.957   8.503  0.7163 -0.2381  0.4318
  166SAPS   HN118683   5.368   3.910   8.481  0.5149  0.6095 -0.6846
  166SAPS   HN218684   5.450   3.974   8.605  1.4725  0.7554  0.3433
  166SAPS   HN318685   5.465   4.042   8.443 -0.3677 -1.7899 -2.0482
  166SAPS   C1218686   5.566   3.849   8.477  0.5614 -0.7309 -0.5350
  166SAPS  H12A18687   5.656   3.909   8.472  0.4200 -0.4277  0.3919
  166SAPS   C1318688   5.581   3.730   8.576  0.4815  0.2415 -0.0390
  166SAPS  O13A18689   5.507   3.731   8.674  0.3684  0.1629 -0.2664
  166SAPS  O13B18690   5.664   3.639   8.559  0.5324  0.5200  0.3645
  166SAPS   C1118691   5.528   3.802   8.341  0.4680  0.2241  0.4274
  166SAPS  H11A18692   5.428   3.758   8.358 -0.0480  1.6762  1.3306
  166SAPS  H11B18693   5.589   3.716   8.307  0.7819  0.9509 -0.9255
  166SAPS     P18694   5.647   3.959   8.161 -0.0726  0.1325  0.1716
  166SAPS   O1318695   5.623   4.099   8.120 -0.2775  0.2397  0.3246
  166SAPS   O1418696   5.767   3.931   8.240  0.2221 -0.3227 -0.3648
  166SAPS   O1218697   5.523   3.906   8.236 -0.1106 -0.0466 -0.4538
  166SAPS   O1118698   5.664   3.874   8.035  0.7751 -0.1229 -0.0154
  166SAPS    C118699   5.611   3.743   8.012 -0.5604 -0.6452 -0.0335
  166SAPS    HA18700   5.644   3.678   8.096 -0.3954 -0.5656 -0.0354
  166SAPS    HB18701   5.501   3.755   8.004 -0.5768 -0.4327  0.4699
  166SAPS    C218702   5.661   3.687   7.873  0.4012  1.4146  0.2958
  166SAPS    HS18703   5.568   3.662   7.818  0.9007 -1.8548  0.7209
  166SAPS   O2118704   5.753   3.575   7.886  0.5124 -0.6040  0.4866
  166SAPS   C2118705   5.690   3.454   7.897 -0.4421 -0.5297 -0.3877
  166SAPS   O2218706   5.569   3.440   7.898 -0.2327 -0.1563  0.3471
  166SAPS   C2218707   5.792   3.346   7.877 -0.1567  0.2889 -0.0566
  166SAPS   H2R18708   5.882   3.367   7.940  0.2473  0.4399 -0.6721
  166SAPS   H2S18709   5.748   3.247   7.903 -1.8199  1.2357  0.8944
  166SAPS    C318710   5.728   3.795   7.783 -0.3420  0.4113 -1.3451
  166SAPS    HX18711   5.797   3.854   7.846 -0.6779 -1.9687  1.4559
  166SAPS    HY18712   5.640   3.860   7.764  0.4289  1.3141 -1.9192
  166SAPS   O3118713   5.788   3.743   7.661 -0.0826 -0.3596  0.6315
  166SAPS   C3118714   5.781   3.830   7.560  0.0750 -0.1620 -0.3829
  166SAPS   O3218715   5.723   3.933   7.560  0.2461 -0.3977 -0.4641
  166SAPS   C3218716   5.824   3.749   7.435 -0.4702  0.3253  0.9233
  166SAPS   H2X18717   5.913   3.687   7.458 -2.4607 -2.8381  0.6192
  166SAPS   H2Y18718   5.852   3.816   7.351  0.7028 -0.6673  0.5051
  166SAPS   C2318719   5.839   3.348   7.726 -0.2501 -0.4632  0.1694
  166SAPS   H3R18720   5.935   3.294   7.715  1.3135  2.4024 -1.3810
  166SAPS   H3S18721   5.860   3.449   7.685 -0.0410 -1.3020 -1.8978
  166SAPS   C2418722   5.737   3.283   7.620 -0.4351 -0.0791 -0.2413
  166SAPS   H4R18723   5.781   3.295   7.520 -0.9355 -1.7706 -0.7081
  166SAPS   H4S18724   5.641   3.339   7.625 -1.7596 -2.1955 -0.6544
  166SAPS   C2518725   5.712   3.134   7.652  0.0016  0.6110  0.2186
  166SAPS   H5R18726   5.699   3.101   7.757 -0.8853 -1.7198 -0.5574
  166SAPS   C2618727   5.700   3.035   7.565 -0.6992 -0.7575  0.1586
  166SAPS   H6R18728   5.664   2.936   7.594 -0.5554 -0.4230  1.5353
  166SAPS   C2718729   5.719   3.071   7.412 -0.1053  0.3965  0.1086
  166SAPS   H7R18730   5.740   2.977   7.356 -2.2691  0.4868 -0.9535
  166SAPS   H7S18731   5.814   3.124   7.389  1.2304 -1.2267  1.5489
  166SAPS   C2818732   5.608   3.155   7.352  1.0897 -0.1029  0.0909
  166SAPS   H8R18733   5.564   3.232   7.417  0.1172 -0.4508 -0.1416
  166SAPS   C2918734   5.563   3.139   7.228  0.2533 -0.1216  0.8517
  166SAPS   H9R18735   5.487   3.211   7.191  0.2349  0.4936  2.0491
  166SAPS  C21018736   5.625   3.055   7.122 -0.6093  0.0915 -1.1921
  166SAPS  H10R18737   5.554   3.047   7.038 -1.8730 -0.7413 -0.0881
  166SAPS  H10S18738   5.640   2.951   7.156 -0.4263  0.2232 -0.8618
  166SAPS  C21118739   5.759   3.108   7.080 -0.0208 -0.3887  0.4059
  166SAPS  H11R18740   5.800   3.172   7.159  0.1119  0.3610 -0.2660
  166SAPS  C21218741   5.818   3.091   6.956  0.5489 -0.2074 -0.0675
  166SAPS  H12R18742   5.917   3.135   6.936  1.1011 -1.5810 -0.5377
  166SAPS  C21318743   5.759   3.006   6.845 -0.2435  0.8851  0.2672
  166SAPS  H13R18744   5.680   3.069   6.798  1.3921  2.2692 -0.7873
  166SAPS  H13S18745   5.702   2.920   6.885 -1.8389  0.4228 -2.6946
  166SAPS  C21418746   5.858   2.964   6.742  0.0552 -0.0322  0.3959
  166SAPS  H14R18747   5.954   2.935   6.788  0.9954  1.6568 -0.3860
  166SAPS  C21518748   5.850   2.969   6.610 -0.4657 -0.1960  0.0663
  166SAPS  H15R18749   5.933   2.937   6.545 -1.2280  1.2185 -1.6724
  166SAPS  C21618750   5.730   3.025   6.539 -0.1529  0.5930 -0.4065
  166SAPS  H16R18751   5.703   3.121   6.589  2.1122  1.6404 -1.0902
  166SAPS  H16S18752   5.639   2.961   6.533 -0.3056  0.7964 -0.2914
  166SAPS  C21718753   5.755   3.042   6.388 -0.7492  0.2085 -0.0866
  166SAPS  H17R18754   5.657   3.072   6.344 -1.0189  1.1230  1.0557
  166SAPS  H17S18755   5.784   2.946   6.340 -2.2597 -1.0366  1.3549
  166SAPS  C21818756   5.868   3.143   6.351 -0.7706  0.5838  0.2067
  166SAPS  H18R18757   5.954   3.139   6.421  0.1747  1.6269 -0.8441
  166SAPS  H18S18758   5.836   3.249   6.352  0.8113  1.0880  0.2014
  166SAPS  C21918759   5.930   3.115   6.205 -0.4121 -0.0151  0.2626
  166SAPS  H19R18760   6.002   3.199   6.194 -1.0962  0.6306  0.6404
  166SAPS  H19S18761   5.851   3.120   6.128  1.0431  0.4029 -1.2618
  166SAPS  C22018762   6.009   2.985   6.198  0.0955 -0.1731 -0.4724
  166SAPS  H20R18763   5.947   2.896   6.225 -0.9655  1.2114  2.0736
  166SAPS  H20S18764   6.090   2.986   6.274 -0.3520 -0.4842  0.0154
  166SAPS  H20T18765   6.052   2.971   6.097  2.5787  0.4112  0.4506
  166SAPS   C3318766   5.712   3.653   7.378 -0.9471 -0.3974 -0.6043
  166SAPS   H3X18767   5.611   3.697   7.372 -1.3202 -1.0772  0.4965
  166SAPS   H3Y18768   5.713   3.565   7.445  1.0788 -0.8987 -1.2102
  166SAPS   C3418769   5.752   3.606   7.240  0.0842  0.0281 -0.6200
  166SAPS   H4X18770   5.850   3.556   7.251  1.8198  2.7826 -2.2721
  166SAPS   H4Y18771   5.778   3.693   7.176 -0.7919 -0.0532 -1.0988
  166SAPS   C3518772   5.646   3.520   7.164  0.1623 -0.2584  0.6165
  166SAPS   H5X18773   5.558   3.588   7.156 -0.2351 -0.8923 -0.6217
  166SAPS   H5Y18774   5.616   3.433   7.226  0.5555 -1.7059 -1.1430
  166SAPS   C3618775   5.696   3.463   7.040 -0.0122  0.1382  0.3986
  166SAPS   H6X18776   5.615   3.400   6.998 -0.4623  1.2489 -0.4579
  166SAPS   H6Y18777   5.778   3.393   7.067  0.0267  0.2670  0.6220
  166SAPS   C3718778   5.725   3.556   6.922  0.6259  0.1972 -0.5430
  166SAPS   H7X18779   5.828   3.597   6.931  1.2514 -1.1054 -1.4313
  166SAPS   H7Y18780   5.666   3.650   6.916  0.5931  0.1362 -1.2164
  166SAPS   C3818781   5.731   3.484   6.787 -0.5338 -0.8364  0.5673
  166SAPS   H8X18782   5.634   3.437   6.763 -1.0014 -0.3089  1.3944
  166SAPS   H8Y18783   5.808   3.404   6.788 -0.7299 -1.2217 -3.1882
  166SAPS   C3918784   5.778   3.579   6.672  0.2441  0.1162 -0.6622
  166SAPS   H9X18785   5.876   3.622   6.702  0.2634 -0.2283 -0.2372
  166SAPS   H9Y18786   5.712   3.668   6.661  1.5584  1.3844  1.0294
  166SAPS  C31018787   5.810   3.507   6.544 -0.6004 -0.0095  0.2864
  166SAPS  H10X18788   5.713   3.464   6.511  0.0677 -0.0316 -1.7628
  166SAPS  H10Y18789   5.881   3.423   6.551 -0.4857  0.1628  1.4289
  166SAPS  C31118790   5.851   3.610   6.440 -0.4360 -0.1772  0.9852
  166SAPS  H11X18791   5.944   3.665   6.469 -1.8613  3.3502 -0.5769
  166SAPS  H11Y18792   5.761   3.673   6.430  0.8103  2.0823  2.9331
  166SAPS  C31218793   5.868   3.559   6.299 -0.5161  0.2614 -0.6548
  166SAPS  H12X18794   5.859   3.638   6.222  3.2621  0.1242 -1.4534
  166SAPS  H12Y18795   5.791   3.487   6.267  0.1651 -1.4222  1.3033
  166SAPS  C31318796   6.006   3.484   6.272  0.1062  0.1221 -0.2042
  166SAPS  H13X18797   6.005   3.387   6.326 -1.1466  0.3679  0.2705
  166SAPS  H13Y18798   6.089   3.543   6.318 -0.0753 -1.2522  2.0458
  166SAPS  C31418799   6.039   3.469   6.127 -0.1035 -0.4663  0.5225
  166SAPS  H14X18800   6.043   3.567   6.075  0.6603  0.5559  2.4342
  166SAPS  H14Y18801   5.964   3.403   6.078  0.3018  0.5640 -1.6174
  166SAPS  C31518802   6.180   3.411   6.116  1.0554 -0.1256  0.0908
  166SAPS  H15X18803   6.172   3.313   6.169 -0.8042 -1.3102 -2.1272
  166SAPS  H15Y18804   6.246   3.477   6.176  0.1837  0.9940 -0.1466
  166SAPS  C31618805   6.218   3.394   5.965 -0.3753  0.2625  0.2222
  166SAPS  H16X18806   6.327   3.373   5.970  0.3391  3.5950  4.0097
  166SAPS  H16Y18807   6.190   3.485   5.909 -0.0185  0.5916  0.5766
  166SAPS  C31718808   6.162   3.269   5.894 -0.2931  0.5064 -0.2178
  166SAPS  H17X18809   6.155   3.277   5.784  1.1624 -1.7217 -0.5326
  166SAPS  H17Y18810   6.057   3.254   5.927  0.0709 -2.5377 -0.2161
  166SAPS  C31818811   6.231   3.141   5.940  0.2386  0.1200 -0.4688
  166SAPS  H18X18812   6.187   3.101   6.035 -1.5109 -0.8840 -1.6464
  166SAPS  H18Y18813   6.338   3.155   5.968  0.1258 -0.5959  0.3829
  166SAPS  H18Z18814   6.223   3.058   5.866 -0.7682 -0.2602  0.0354
  167SAPS     N18815   2.751   5.536   8.419  0.5494  0.3566 -0.2123
  167SAPS   HN118816   2.786   5.627   8.455 -0.8839  0.1842  1.8328
  167SAPS   HN218817   2.785   5.522   8.322  2.3381 -0.1250  0.4517
  167SAPS   HN318818   2.649   5.527   8.438  1.1289  0.2981  3.8058
  167SAPS   C1218819   2.813   5.434   8.511  0.5874 -0.7193 -0.3834
  167SAPS  H12A18820   2.916   5.424   8.480  0.5335  0.7990 -1.1930
  167SAPS   C1318821   2.820   5.464   8.667 -0.3675 -0.2499  0.5699
  167SAPS  O13A18822   2.779   5.577   8.713  0.1315  0.6159  0.3745
  167SAPS  O13B18823   2.893   5.385   8.733 -0.0030 -0.3884 -0.1011
  167SAPS   C1118824   2.735   5.304   8.487  0.6797  0.1018  0.7599
  167SAPS  H11A18825   2.630   5.326   8.517  0.3319  0.8892 -0.8991
  167SAPS  H11B18826   2.776   5.228   8.557 -0.0157  1.1790  2.4172
  167SAPS     P18827   2.681   5.132   8.316  0.1411 -0.0585 -0.1844
  167SAPS   O1318828   2.755   5.032   8.395 -0.0391  0.6506  0.0490
  167SAPS   O1418829   2.533   5.140   8.343 -0.3337  0.0107 -0.4619
  167SAPS   O1218830   2.739   5.272   8.347  0.2566 -0.2021 -0.0877
  167SAPS   O1118831   2.708   5.112   8.162  0.2417 -0.4452  0.2627
  167SAPS    C118832   2.658   5.206   8.062  0.5027 -0.0096 -0.1016
  167SAPS    HA18833   2.643   5.309   8.101 -0.5518 -0.7063  1.4028
  167SAPS    HB18834   2.739   5.209   7.986  2.6095 -0.3439  2.0078
  167SAPS    C218835   2.518   5.177   8.003 -0.3852 -0.3354 -0.0422
  167SAPS    HS18836   2.449   5.209   8.085 -0.8965  2.2688 -1.3921
  167SAPS   O2118837   2.509   5.038   7.976 -0.2920  0.8618 -0.0042
  167SAPS   C2118838   2.380   4.997   7.976 -0.6455 -0.2346  0.6696
  167SAPS   O2218839   2.282   5.071   7.978 -0.0500 -0.4785  0.1184
  167SAPS   C2218840   2.379   4.843   7.949 -0.1629  0.5911 -0.2040
  167SAPS   H2R18841   2.484   4.812   7.929  1.1712  2.6224  2.7914
  167SAPS   H2S18842   2.343   4.808   8.049  1.5417  4.8514  2.1801
  167SAPS    C318843   2.490   5.263   7.876  0.9070  0.3667 -0.1308
  167SAPS    HX18844   2.520   5.366   7.903 -1.2821  0.8066  0.8788
  167SAPS    HY18845   2.385   5.272   7.842  1.1472  0.5544 -0.8308
  167SAPS   O3118846   2.567   5.215   7.767 -0.1072  0.0841 -0.2235
  167SAPS   C3118847   2.547   5.286   7.650 -0.3501  0.2739  0.1411
  167SAPS   O3218848   2.468   5.379   7.641 -0.1971  0.1085 -0.3881
  167SAPS   C3218849   2.644   5.262   7.543  0.9866  0.4550  0.2972
  167SAPS   H2X18850   2.609   5.162   7.509  1.6951  0.2242  0.2224
  167SAPS   H2Y18851   2.749   5.252   7.578  0.6287 -2.3021  0.8210
  167SAPS   C2318852   2.276   4.807   7.837 -0.5007 -0.4185 -0.0917
  167SAPS   H3R18853   2.318   4.863   7.750  1.1625 -0.1919  0.8199
  167SAPS   H3S18854   2.180   4.858   7.860  0.4404  1.7446 -0.6988
  167SAPS   C2418855   2.266   4.659   7.809  0.5623 -0.2947  0.2893
  167SAPS   H4R18856   2.203   4.641   7.719  1.2906  0.7736 -0.4567
  167SAPS   H4S18857   2.200   4.625   7.892 -0.5518  1.2265  0.0737
  167SAPS   C2518858   2.400   4.588   7.793  0.8771  0.4831  0.0314
  167SAPS   H5R18859   2.453   4.575   7.888  1.0792 -0.9254 -0.2535
  167SAPS   C2618860   2.458   4.550   7.673 -0.2697 -0.3551  0.5569
  167SAPS   H6R18861   2.551   4.491   7.685 -0.7168 -1.2791 -0.4120
  167SAPS   C2718862   2.413   4.561   7.526  0.3416 -0.6115  0.0416
  167SAPS   H7R18863   2.501   4.595   7.468  0.8384  0.2721  1.2514
  167SAPS   H7S18864   2.329   4.632   7.513  0.3218 -0.2440  1.8338
  167SAPS   C2818865   2.369   4.432   7.471 -0.2096 -0.4790 -0.5935
  167SAPS   H8R18866   2.284   4.388   7.525  1.7304 -1.3128  1.9851
  167SAPS   C2918867   2.415   4.374   7.358 -0.5259  0.6646  0.5226
  167SAPS   H9R18868   2.390   4.271   7.327  3.2997  0.5051 -2.8475
  167SAPS  C21018869   2.522   4.422   7.262 -0.4260 -0.1901  0.5592
  167SAPS  H10R18870   2.481   4.514   7.214  0.5664  0.7825  1.4940
  167SAPS  H10S18871   2.536   4.343   7.186 -0.3664 -0.1503  0.5288
  167SAPS  C21118872   2.661   4.454   7.312 -0.4136 -0.5346  0.1355
  167SAPS  H11R18873   2.676   4.447   7.421  3.4137  2.3923  0.0147
  167SAPS  C21218874   2.756   4.511   7.230  0.6412  0.3051  0.5325
  167SAPS  H12R18875   2.857   4.534   7.266  2.0182  1.7241 -3.7027
  167SAPS  C21318876   2.752   4.531   7.079  0.4373 -0.7928 -0.0734
  167SAPS  H13R18877   2.755   4.640   7.058 -0.4910 -1.1159 -2.0639
  167SAPS  H13S18878   2.653   4.494   7.046 -0.0536 -0.3575  0.8640
  167SAPS  C21418879   2.868   4.475   7.001 -0.1147 -0.8288 -0.0353
  167SAPS  H14R18880   2.961   4.533   7.007 -0.7108  0.1384  0.0059
  167SAPS  C21518881   2.883   4.355   6.944 -0.1411  0.8446 -0.4247
  167SAPS  H15R18882   2.977   4.328   6.896  0.2931  0.4780  0.6035
  167SAPS  C21618883   2.774   4.249   6.930  0.4119  0.4247 -0.2230
  167SAPS  H16R18884   2.671   4.287   6.911  0.2979 -0.2962 -1.1167
  167SAPS  H16S18885   2.775   4.188   7.023  3.1556  0.7444  0.0397
  167SAPS  C21718886   2.802   4.162   6.803  0.0172 -0.5538  0.0274
  167SAPS  H17R18887   2.737   4.072   6.795  0.6779 -1.0525  0.1851
  167SAPS  H17S18888   2.903   4.120   6.818  1.6771  1.9747 -2.8670
  167SAPS  C21818889   2.805   4.238   6.667  0.2522  0.7237  0.0124
  167SAPS  H18R18890   2.897   4.300   6.677  1.5023 -0.8868 -0.9658
  167SAPS  H18S18891   2.715   4.299   6.645 -0.6404 -0.3938  0.4836
  167SAPS  C21918892   2.827   4.141   6.553 -0.2277  0.3385 -0.0628
  167SAPS  H19R18893   2.908   4.073   6.588 -0.7555 -0.8183 -1.0492
  167SAPS  H19S18894   2.867   4.190   6.461 -2.7480 -1.1841 -2.0794
  167SAPS  C22018895   2.704   4.059   6.511  0.0101  0.2076  0.1388
  167SAPS  H20R18896   2.748   3.966   6.467 -0.1348 -0.7574  1.9570
  167SAPS  H20S18897   2.630   4.112   6.447 -0.5132  0.1446  0.6910
  167SAPS  H20T18898   2.644   4.028   6.598  1.1521  1.3588  1.3891
  167SAPS   C3318899   2.645   5.367   7.431 -0.0601  0.6469 -0.0401
  167SAPS   H3X18900   2.687   5.461   7.471  0.9259  0.6617 -1.0592
  167SAPS   H3Y18901   2.541   5.400   7.408  0.4713  0.2625 -3.4597
  167SAPS   C3418902   2.730   5.318   7.311 -0.2322  0.1270  0.0496
  167SAPS   H4X18903   2.812   5.254   7.350 -0.1015  0.4327  0.2781
  167SAPS   H4Y18904   2.776   5.405   7.261 -1.0722 -0.0065 -1.0145
  167SAPS   C3518905   2.646   5.241   7.210  0.0944  0.3477 -0.1993
  167SAPS   H5X18906   2.558   5.295   7.169 -0.6945 -1.4636 -0.9813
  167SAPS   H5Y18907   2.609   5.146   7.252  1.4497  0.3839  1.1591
  167SAPS   C3618908   2.731   5.211   7.089  0.0287 -0.2275  0.8539
  167SAPS   H6X18909   2.830   5.165   7.106  2.5430  3.4040 -2.2874
  167SAPS   H6Y18910   2.757   5.311   7.048  3.0779  0.8106  4.7248
  167SAPS   C3718911   2.667   5.115   6.987  0.0399 -0.2910 -0.1017
  167SAPS   H7X18912   2.564   5.156   6.980  0.1345 -0.0060  0.1686
  167SAPS   H7Y18913   2.664   5.009   7.020 -0.9203 -1.1767 -2.7681
  167SAPS   C3818914   2.731   5.123   6.849  0.3130  0.9672 -0.2751
  167SAPS   H8X18915   2.837   5.089   6.853  0.0904  0.3383  0.6263
  167SAPS   H8Y18916   2.725   5.224   6.803 -1.4509  2.4235  2.7884
  167SAPS   C3918917   2.655   5.029   6.755 -0.1515  0.6393 -0.3843
  167SAPS   H9X18918   2.546   5.049   6.754 -0.1162  0.8892  0.2166
  167SAPS   H9Y18919   2.682   4.923   6.776  2.4859  1.1795 -0.7015
  167SAPS  C31018920   2.676   5.055   6.603  0.0959 -0.1039 -0.7869
  167SAPS  H10X18921   2.779   5.025   6.573  0.5677  0.6834  0.0100
  167SAPS  H10Y18922   2.677   5.166   6.589  1.2983 -0.1770 -1.4676
  167SAPS  C31118923   2.569   4.982   6.513 -0.4518 -0.0639  0.5078
  167SAPS  H11X18924   2.465   5.001   6.549 -0.1934 -2.1394  2.6301
  167SAPS  H11Y18925   2.574   4.871   6.522  0.8820 -0.0701 -0.1258
  167SAPS  C31218926   2.593   5.009   6.356  0.5794 -0.1532 -0.5887
  167SAPS  H12X18927   2.606   5.119   6.348 -1.7930  0.1101 -1.7767
  167SAPS  H12Y18928   2.500   4.993   6.297  0.5544 -1.4225 -0.2352
  167SAPS  C31318929   2.719   4.941   6.315 -0.0760  0.0933  0.5475
  167SAPS  H13X18930   2.696   4.835   6.337 -2.0250  0.3404 -0.0456
  167SAPS  H13Y18931   2.800   4.991   6.372 -1.1909  1.9238  0.6159
  167SAPS  C31418932   2.747   4.954   6.166  0.0505  0.0085  0.1629
  167SAPS  H14X18933   2.850   4.922   6.138  0.3292  2.3522 -1.8929
  167SAPS  H14Y18934   2.758   5.062   6.144  2.4614  0.3250  2.3988
  167SAPS  C31518935   2.645   4.888   6.071  0.0738  0.4094  0.4905
  167SAPS  H15X18936   2.542   4.922   6.095 -0.5621 -1.5760  0.7581
  167SAPS  H15Y18937   2.654   4.779   6.093 -0.7907 -0.2307 -2.0077
  167SAPS  C31618938   2.665   4.909   5.917 -0.3127 -0.5340  0.1010
  167SAPS  H16X18939   2.768   4.884   5.885 -0.8696 -1.0915 -1.3057
  167SAPS  H16Y18940   2.665   5.020   5.913  2.5480 -0.2992  2.7895
  167SAPS  C31718941   2.551   4.835   5.845  0.4267  0.6352  0.1388
  167SAPS  H17X18942   2.453   4.870   5.883  0.1855  0.9666 -0.7612
  167SAPS  H17Y18943   2.564   4.728   5.872  0.7938  0.2898 -1.3039
  167SAPS  C31818944   2.547   4.847   5.697 -0.6658 -0.3702 -0.2049
  167SAPS  H18X18945   2.452   4.809   5.654 -1.3833  0.1936  0.8641
  167SAPS  H18Y18946   2.635   4.793   5.654 -0.6856  0.3667 -1.2076
  167SAPS  H18Z18947   2.552   4.957   5.677  0.6738 -0.2100  0.8655
  168SAPS     N18948   0.108   5.093   8.354 -0.2574 -0.0818  0.3036
  168SAPS   HN118949   0.160   5.067   8.440 -1.5258 -0.3370  1.0155
  168SAPS   HN218950   0.010   5.059   8.352  0.2342 -1.5629  0.4628
  168SAPS   HN318951   0.164   5.042   8.282 -0.5627 -1.3614  0.9575
  168SAPS   C1218952   0.119   5.246   8.335 -0.5215  0.4818  0.2949
  168SAPS  H12A18953   0.059   5.293   8.412 -1.8135  0.0548 -0.4109
  168SAPS   C1318954   0.259   5.301   8.325  0.4379  0.1363  0.2338
  168SAPS  O13A18955   0.360   5.239   8.363  0.0298 -0.0560 -0.0599
  168SAPS  O13B18956   0.276   5.424   8.308  0.1781  1.1479  0.1743
  168SAPS   C1118957   0.053   5.263   8.199  0.4210  0.1217 -0.3275
  168SAPS  H11A18958   0.094   5.190   8.126  1.1512 -1.1567  1.3062
  168SAPS  H11B18959   0.077   5.365   8.162 -0.1110  0.0986 -0.7533
  168SAPS     P18960  -0.188   5.191   8.119  0.3684  0.2006 -0.0577
  168SAPS   O1318961  -0.161   5.044   8.114 -0.2555  0.4187 -0.3363
  168SAPS   O1418962  -0.319   5.242   8.162  0.7431 -0.3740  0.0875
  168SAPS   O1218963  -0.079   5.250   8.219  0.4926 -0.5940  0.4062
  168SAPS   O1118964  -0.138   5.259   7.982 -0.3864  0.2474  0.2747
  168SAPS    C118965  -0.133   5.395   7.949  0.1468 -0.3250  0.2183
  168SAPS    HA18966  -0.208   5.441   8.017  0.1688 -0.8570  0.6055
  168SAPS    HB18967  -0.039   5.436   7.991  0.7431 -1.3880 -0.0453
  168SAPS    C218968  -0.154   5.423   7.796 -0.4608 -0.1504 -0.3473
  168SAPS    HS18969  -0.158   5.533   7.781  0.4203  0.2820  2.0365
  168SAPS   O2118970  -0.275   5.357   7.744  0.0665 -0.0174 -0.3373
  168SAPS   C2118971  -0.393   5.423   7.775  0.1312 -0.5263  0.0202
  168SAPS   O2218972  -0.404   5.524   7.840 -0.4447  0.3897 -0.3517
  168SAPS   C2218973  -0.511   5.361   7.704 -0.8715  0.0119  0.2714
  168SAPS   H2R18974  -0.581   5.326   7.783 -1.1572 -0.0910 -0.0240
  168SAPS   H2S18975  -0.551   5.434   7.631  0.1631  2.8000  2.3151
  168SAPS    C318976  -0.027   5.373   7.714 -0.4008  0.6979  0.1863
  168SAPS    HX18977  -0.010   5.271   7.752  1.0222  0.7261 -0.3374
  168SAPS    HY18978   0.059   5.428   7.756 -0.3588  0.2524  0.6798
  168SAPS   O3118979  -0.041   5.391   7.572  0.0177  0.2998  0.0461
  168SAPS   C3118980  -0.105   5.289   7.507  0.2675  0.0796 -0.1331
  168SAPS   O3218981  -0.142   5.182   7.552  0.1922 -0.6122 -0.2247
  168SAPS   C3218982  -0.141   5.333   7.364  0.2576 -0.0208 -0.2075
  168SAPS   H2X18983  -0.113   5.441   7.363  1.2764 -0.2747 -0.5620
  168SAPS   H2Y18984  -0.251   5.341   7.358  0.2983  1.3940  0.3827
  168SAPS   C2318985  -0.478   5.232   7.618  0.0127  0.5042  0.0629
  168SAPS   H3R18986  -0.421   5.160   7.681  3.1277  2.3519 -0.4487
  168SAPS   H3S18987  -0.408   5.267   7.539  1.7367  1.1803  1.8173
  168SAPS   C2418988  -0.599   5.169   7.556 -0.4547  0.2517 -0.4816
  168SAPS   H4R18989  -0.656   5.132   7.644  0.0528  1.0073  0.1674
  168SAPS   H4S18990  -0.558   5.078   7.506  1.3593 -0.4446  2.0817
  168SAPS   C2518991  -0.686   5.263   7.471 -0.4494  0.9425  0.1666
  168SAPS   H5R18992  -0.762   5.310   7.534  0.6917  0.7877  1.6962
  168SAPS   C2618993  -0.664   5.291   7.341  0.3032  0.5958  0.8312
  168SAPS   H6R18994  -0.732   5.361   7.290 -1.0573 -0.9502  0.4217
  168SAPS   C2718995  -0.559   5.231   7.251  0.8338  0.3823 -0.3996
  168SAPS   H7R18996  -0.622   5.166   7.186 -0.3310  2.0975 -1.0332
  168SAPS   H7S18997  -0.496   5.152   7.297  0.7163 -0.5430 -1.7526
  168SAPS   C2818998  -0.484   5.324   7.164 -0.3165 -0.1577  0.1785
  168SAPS   H8R18999  -0.393   5.365   7.209 -0.8991  1.5606 -0.1579
  168SAPS   C2919000  -0.503   5.354   7.033 -0.6783 -0.3686  0.6181
  168SAPS   H9R19001  -0.433   5.433   7.005 -0.3483 -0.2299  1.7959
  168SAPS  C21019002  -0.619   5.314   6.945  0.7006  0.0778 -0.0268
  168SAPS  H10R19003  -0.677   5.231   6.991 -1.1571 -0.4612 -3.0729
  168SAPS  H10S19004  -0.585   5.267   6.851  0.1692 -2.9009  1.1481
  168SAPS  C21119005  -0.719   5.420   6.935 -0.1121  0.2052  0.1214
  168SAPS  H11R19006  -0.781   5.425   7.026  0.2710 -1.9514  0.5365
  168SAPS  C21219007  -0.751   5.499   6.831 -1.7776 -0.0549  0.0588
  168SAPS  H12R19008  -0.820   5.584   6.844 -0.6447  1.1850 -1.6241
  168SAPS  C21319009  -0.673   5.499   6.701 -0.2412  0.3418  0.0903
  168SAPS  H13R19010  -0.587   5.431   6.715 -0.0759  0.6177  0.4364
  168SAPS  H13S19011  -0.634   5.601   6.682  1.4608 -0.0548  1.1856
  168SAPS  C21419012  -0.762   5.451   6.587  0.3409  0.7504  0.0316
  168SAPS  H14R19013  -0.824   5.363   6.612 -0.6917  1.6176  0.6296
  168SAPS  C21519014  -0.751   5.482   6.460 -0.4306 -0.0344 -1.0060
  168SAPS  H15R19015  -0.815   5.434   6.385 -1.2708 -1.7157  0.7167
  168SAPS  C21619016  -0.664   5.589   6.407  0.3023  0.5086 -0.6657
  168SAPS  H16R19017  -0.566   5.598   6.460 -0.3216 -0.3817  0.6910
  168SAPS  H16S19018  -0.718   5.684   6.423  2.3375  1.3377  1.8394
  168SAPS  C21719019  -0.630   5.578   6.249 -0.0072 -0.6302 -0.2644
  168SAPS  H17R19020  -0.561   5.492   6.236 -0.5222 -0.6747 -3.2387
  168SAPS  H17S19021  -0.568   5.666   6.223 -0.5006  0.7971  2.8593
  168SAPS  C21819022  -0.738   5.572   6.150  0.8197  0.1054 -0.2927
  168SAPS  H18R19023  -0.787   5.672   6.142 -1.0788 -0.9168 -3.2949
  168SAPS  H18S19024  -0.814   5.495   6.176  0.5432  1.2785  2.7151
  168SAPS  C21919025  -0.684   5.554   6.002  0.0744 -0.0642 -0.3364
  168SAPS  H19R19026  -0.621   5.463   5.997  2.2346  1.3603 -0.5302
  168SAPS  H19S19027  -0.611   5.637   5.989 -0.6972  0.5639 -0.7409
  168SAPS  C22019028  -0.790   5.569   5.897 -0.0264 -1.1851 -0.2045
  168SAPS  H20R19029  -0.858   5.654   5.924  0.6013 -0.7754  0.1241
  168SAPS  H20S19030  -0.861   5.484   5.888 -3.2034  1.2451 -0.1527
  168SAPS  H20T19031  -0.746   5.578   5.796 -0.1225 -0.2646 -0.1763
  168SAPS   C3319032  -0.076   5.252   7.248 -0.5003  0.3313 -0.0003
  168SAPS   H3X19033  -0.131   5.160   7.221  0.4868  0.2680 -1.9471
  168SAPS   H3Y19034   0.022   5.222   7.291 -0.6647  0.6490  0.6103
  168SAPS   C3419035  -0.068   5.345   7.129 -0.4681  0.2960 -0.4005
  168SAPS   H4X19036  -0.015   5.440   7.150 -0.7470  0.2838  0.3979
  168SAPS   H4Y19037  -0.162   5.374   7.076 -0.2900 -0.8090 -1.3729
  168SAPS   C3519038   0.017   5.276   7.017 -0.3976  0.4733  0.1595
  168SAPS   H5X19039  -0.036   5.185   6.981  0.8979  0.0394 -0.7334
  168SAPS   H5Y19040   0.116   5.248   7.060  0.4914  2.0386 -0.7974
  168SAPS   C3619041   0.056   5.358   6.893 -0.1843  0.5165 -0.4033
  168SAPS   H6X19042   0.103   5.450   6.933 -1.2880  0.9292 -0.0056
  168SAPS   H6Y19043  -0.037   5.388   6.839 -0.0440  0.3590 -0.7328
  168SAPS   C3719044   0.146   5.283   6.792  0.3451  0.0328 -0.3445
  168SAPS   H7X19045   0.085   5.195   6.761  0.5328 -1.0761  2.1662
  168SAPS   H7Y19046   0.226   5.239   6.855 -0.9837 -2.8112 -0.4821
  168SAPS   C3819047   0.193   5.362   6.675 -0.6575 -0.3873  0.3992
  168SAPS   H8X19048   0.270   5.441   6.685 -0.3148 -0.6333 -0.2271
  168SAPS   H8Y19049   0.107   5.428   6.651  0.5085  0.9012 -0.3810
  168SAPS   C3919050   0.229   5.283   6.550 -0.3895 -0.5023  0.4682
  168SAPS   H9X19051   0.146   5.232   6.497  0.2308 -0.2933 -0.7308
  168SAPS   H9Y19052   0.301   5.200   6.562  1.6938  1.2807  0.8068
  168SAPS  C31019053   0.292   5.375   6.442  0.1945 -0.4953 -0.7295
  168SAPS  H10X19054   0.388   5.421   6.474  0.2747 -1.4858  0.5598
  168SAPS  H10Y19055   0.230   5.467   6.449  2.0613  0.7986 -0.4875
  168SAPS  C31119056   0.308   5.318   6.304 -0.4972  0.5000 -0.1285
  168SAPS  H11X19057   0.355   5.218   6.313 -0.0273  0.7084 -0.2408
  168SAPS  H11Y19058   0.380   5.380   6.246  0.4871 -3.3327 -3.4364
  168SAPS  C31219059   0.179   5.311   6.218  0.2673 -0.1113  0.0069
  168SAPS  H12X19060   0.137   5.412   6.202 -1.0437 -0.6888 -0.4026
  168SAPS  H12Y19061   0.112   5.257   6.289  0.3777  0.5364  0.6165
  168SAPS  C31319062   0.192   5.231   6.088 -0.2435 -0.4399  0.0569
  168SAPS  H13X19063   0.248   5.138   6.107  0.3629 -0.1269 -0.1790
  168SAPS  H13Y19064   0.263   5.283   6.020 -1.5437  0.2808 -0.8046
  168SAPS  C31419065   0.060   5.222   6.013 -0.0789  0.3253  0.0354
  168SAPS  H14X19066   0.025   5.325   5.991  1.5019  0.5563 -1.5781
  168SAPS  H14Y19067  -0.014   5.164   6.074 -1.3043 -1.9762 -3.3461
  168SAPS  C31519068   0.057   5.151   5.875  0.5102  0.2501 -0.1799
  168SAPS  H15X19069   0.087   5.044   5.872 -1.8197 -0.4475 -0.8043
  168SAPS  H15Y19070   0.127   5.204   5.806 -0.0564 -0.6887 -1.5203
  168SAPS  C31619071  -0.084   5.170   5.815  0.3404 -0.2330  0.0106
  168SAPS  H16X19072  -0.076   5.118   5.717 -0.2451  2.6872 -1.6913
  168SAPS  H16Y19073  -0.104   5.275   5.785 -2.5642 -1.1298 -1.5162
  168SAPS  C31719074  -0.200   5.113   5.899  0.0087  0.1295  0.0933
  168SAPS  H17X19075  -0.207   5.164   5.998 -2.5361 -3.0573  1.7566
  168SAPS  H17Y19076  -0.183   5.004   5.912  0.9327  0.0297 -1.5765
  168SAPS  C31819077  -0.335   5.128   5.819 -0.0554  1.1196 -0.2260
  168SAPS  H18X19078  -0.389   5.224   5.837 -0.3155  1.1683 -1.2048
  168SAPS  H18Y19079  -0.419   5.059   5.841  1.7069 -0.9345  0.3782
  168SAPS  H18Z19080  -0.323   5.124   5.709  0.6383 -3.7102 -0.1643
  169SAPS     N19081   2.620   0.312   7.842 -0.2912 -0.3336 -0.1307
  169SAPS   HN119082   2.581   0.343   7.751  2.2383  1.7968 -0.6315
  169SAPS   HN219083   2.685   0.379   7.888 -1.5823  0.9065 -0.0528
  169SAPS   HN319084   2.672   0.222   7.847 -1.1359 -0.7831  3.9667
  169SAPS   C1219085   2.515   0.275   7.935  0.2372  0.0783 -0.3461
  169SAPS  H12A19086   2.443   0.209   7.890 -0.0642  0.7249 -0.8411
  169SAPS   C1319087   2.556   0.209   8.067  0.0168  0.0911 -0.2785
  169SAPS  O13A19088   2.682   0.188   8.097  0.0421  0.6479 -0.1405
  169SAPS  O13B19089   2.475   0.190   8.162  0.7475  0.5934  0.2780
  169SAPS   C1119090   2.443   0.406   7.961  0.6774  0.0025  0.6783
  169SAPS  H11A19091   2.495   0.485   8.020  0.5227 -0.2240  1.1242
  169SAPS  H11B19092   2.353   0.392   8.024  0.2630  2.3535  0.6873
  169SAPS     P19093   2.324   0.603   7.860  0.0939 -0.0777 -0.2472
  169SAPS   O1319094   2.221   0.595   7.965  0.0841 -0.7921  0.0213
  169SAPS   O1419095   2.430   0.699   7.885 -0.7734 -0.8335 -0.1606
  169SAPS   O1219096   2.389   0.462   7.838 -0.2156 -0.3261  0.1444
  169SAPS   O1119097   2.264   0.644   7.725  0.8000 -0.1620 -0.2038
  169SAPS    C119098   2.350   0.684   7.612  0.1311 -0.0641  0.3757
  169SAPS    HA19099   2.300   0.758   7.545  1.6898  0.0088 -0.7633
  169SAPS    HB19100   2.432   0.749   7.650 -0.0721 -0.3562  1.3288
  169SAPS    C219101   2.414   0.574   7.524 -0.0454  0.1554  0.4910
  169SAPS    HS19102   2.509   0.544   7.572  0.1944 -0.3227 -0.2655
  169SAPS   O2119103   2.432   0.629   7.390 -0.2750 -0.6590 -0.0761
  169SAPS   C2119104   2.533   0.577   7.317 -0.0414  0.0589 -0.4276
  169SAPS   O2219105   2.619   0.505   7.360  0.1423 -0.8214 -0.5207
  169SAPS   C2219106   2.508   0.617   7.178 -1.2667  0.3045  0.2395
  169SAPS   H2R19107   2.407   0.586   7.145 -0.2322 -2.5128 -0.5646
  169SAPS   H2S19108   2.518   0.728   7.177 -1.5492  0.3786  1.9613
  169SAPS    C319109   2.319   0.456   7.507 -0.6522  0.4561  0.3802
  169SAPS    HX19110   2.226   0.491   7.458  0.0662 -1.1379 -2.3351
  169SAPS    HY19111   2.282   0.416   7.604  0.1549 -3.2886 -0.6855
  169SAPS   O3119112   2.364   0.348   7.416 -0.8237  0.0422  0.1430
  169SAPS   C3119113   2.454   0.269   7.480 -0.2914 -0.2815 -0.0052
  169SAPS   O3219114   2.506   0.299   7.592  0.2220  0.8580 -0.0554
  169SAPS   C3219115   2.484   0.143   7.399 -0.1187 -0.3362 -0.3639
  169SAPS   H2X19116   2.395   0.077   7.407 -1.6248  1.6018 -0.4856
  169SAPS   H2Y19117   2.573   0.107   7.456  0.8215  1.7340 -0.4491
  169SAPS   C2319118   2.615   0.566   7.076 -0.5921  0.4647 -0.4139
  169SAPS   H3R19119   2.618   0.455   7.085 -1.8106  0.0896 -3.5189
  169SAPS   H3S19120   2.715   0.606   7.102 -0.8916  1.0019 -0.0796
  169SAPS   C2419121   2.597   0.605   6.928  0.8726  0.5863  0.5082
  169SAPS   H4R19122   2.488   0.602   6.907  0.6529 -1.3610  1.7364
  169SAPS   H4S19123   2.653   0.531   6.866 -1.3643 -0.5906 -0.1989
  169SAPS   C2519124   2.648   0.742   6.891 -0.2835  0.3137  0.1937
  169SAPS   H5R19125   2.713   0.778   6.972  2.5022 -0.3810 -1.5622
  169SAPS   C2619126   2.603   0.826   6.797 -0.1891  0.0076 -0.1720
  169SAPS   H6R19127   2.649   0.925   6.783  2.3091 -1.2027 -1.2621
  169SAPS   C2719128   2.489   0.792   6.701  0.1157  0.1271  0.0242
  169SAPS   H7R19129   2.400   0.824   6.760  1.2669 -0.9180  2.4898
  169SAPS   H7S19130   2.479   0.683   6.683 -1.4962  0.7433 -3.9739
  169SAPS   C2819131   2.491   0.855   6.563 -0.7908 -0.1018  0.0009
  169SAPS   H8R19132   2.491   0.774   6.489 -1.3492 -0.0805 -0.0255
  169SAPS   C2919133   2.484   0.985   6.521 -0.1496  0.5118  0.4542
  169SAPS   H9R19134   2.485   1.011   6.415 -0.3829 -0.7961  0.1063
  169SAPS  C21019135   2.459   1.099   6.613 -0.2361  0.5533  0.0999
  169SAPS  H10R19136   2.467   1.077   6.721 -0.5842 -0.7676 -0.1215
  169SAPS  H10S19137   2.360   1.140   6.582  0.1355 -0.5211 -2.8539
  169SAPS  C21119138   2.572   1.193   6.588  0.1402 -0.3526  0.1689
  169SAPS  H11R19139   2.677   1.173   6.612  0.3535  0.1046 -0.3599
  169SAPS  C21219140   2.559   1.315   6.525  0.2107 -0.1294 -0.0009
  169SAPS  H12R19141   2.650   1.376   6.541  0.5864 -0.5740 -0.4301
  169SAPS  C21319142   2.429   1.382   6.486 -0.6115 -0.0439  0.3454
  169SAPS  H13R19143   2.408   1.460   6.562  0.3605  1.3171 -0.7370
  169SAPS  H13S19144   2.339   1.317   6.490 -0.7058  0.0662  0.0414
  169SAPS  C21419145   2.416   1.449   6.354  0.2264 -0.5102  0.1303
  169SAPS  H14R19146   2.456   1.552   6.352 -1.0231  0.0076  0.7093
  169SAPS  C21519147   2.356   1.393   6.256  0.6085 -0.0213 -0.0656
  169SAPS  H15R19148   2.342   1.459   6.169  1.0698  1.7732  1.1784
  169SAPS  C21619149   2.295   1.257   6.259  0.3156  0.2070 -0.5247
  169SAPS  H16R19150   2.188   1.281   6.280  0.4295 -0.6886  1.2537
  169SAPS  H16S19151   2.338   1.192   6.338 -3.0408 -0.9152  0.5784
  169SAPS  C21719152   2.323   1.192   6.123  0.6543 -0.3537 -0.5925
  169SAPS  H17R19153   2.429   1.200   6.088  1.2829 -3.0495  0.4223
  169SAPS  H17S19154   2.272   1.252   6.044  1.5247  1.4104  0.1242
  169SAPS  C21819155   2.274   1.042   6.112 -0.6050  0.4589  0.2041
  169SAPS  H18R19156   2.164   1.057   6.117 -0.6506 -0.0403  3.7825
  169SAPS  H18S19157   2.295   0.989   6.208 -1.3658  0.9383  0.6422
  169SAPS  C21919158   2.324   0.955   5.998 -0.1244 -0.1632  0.6071
  169SAPS  H19R19159   2.268   0.860   5.988  0.8878 -0.6174 -1.1536
  169SAPS  H19S19160   2.425   0.916   6.022 -0.5811 -0.7149  1.7070
  169SAPS  C22019161   2.321   1.021   5.865  0.0505  0.3337  1.2464
  169SAPS  H20R19162   2.225   1.072   5.844 -0.8749 -1.8825 -0.3380
  169SAPS  H20S19163   2.352   0.950   5.785  0.0579  1.7565 -0.0508
  169SAPS  H20T19164   2.403   1.096   5.860  3.2319 -2.9066 -1.7338
  169SAPS   C3319165   2.535   0.178   7.258 -0.2391  0.9112 -0.1245
  169SAPS   H3X19166   2.617   0.252   7.272 -0.3592  0.5624  2.9636
  169SAPS   H3Y19167   2.457   0.228   7.196  0.5908 -1.0674 -2.9937
  169SAPS   C3419168   2.610   0.066   7.181 -0.0329  0.0856 -0.9113
  169SAPS   H4X19169   2.541  -0.013   7.143 -0.6814  1.0604 -1.8108
  169SAPS   H4Y19170   2.681   0.018   7.252 -1.6906 -0.1994  0.6084
  169SAPS   C3519171   2.691   0.122   7.062 -0.2418  0.7795 -0.4034
  169SAPS   H5X19172   2.772   0.050   7.038 -0.3142  0.5840 -0.0685
  169SAPS   H5Y19173   2.742   0.218   7.085  1.4279 -0.2498  0.3992
  169SAPS   C3619174   2.604   0.144   6.939 -0.9170  0.1822 -0.0681
  169SAPS   H6X19175   2.535   0.228   6.960 -1.3507 -0.0941 -0.3729
  169SAPS   H6Y19176   2.540   0.055   6.922 -1.4126  0.1085  1.9466
  169SAPS   C3719177   2.688   0.186   6.819  0.3897  0.3097 -0.1456
  169SAPS   H7X19178   2.779   0.123   6.814  0.6860  0.6277  0.9121
  169SAPS   H7Y19179   2.728   0.290   6.825  1.5180 -0.0186 -1.5619
  169SAPS   C3819180   2.612   0.157   6.688 -0.5240  1.2933  0.6447
  169SAPS   H8X19181   2.595   0.048   6.685 -2.3421  1.5338  0.7673
  169SAPS   H8Y19182   2.692   0.171   6.612  1.1236  0.3415  2.1344
  169SAPS   C3919183   2.499   0.250   6.671  1.4347 -0.5458  0.5063
  169SAPS   H9X19184   2.523   0.353   6.706  0.8528  0.5394 -2.0345
  169SAPS   H9Y19185   2.417   0.219   6.740  0.0368  2.2127  0.2443
  169SAPS  C31019186   2.457   0.268   6.530  0.4350 -0.3468  0.3904
  169SAPS  H10X19187   2.535   0.313   6.465  0.2691  0.4249  0.7051
  169SAPS  H10Y19188   2.364   0.329   6.529  0.8501  0.2964 -0.3316
  169SAPS  C31119189   2.426   0.132   6.462 -0.8055  0.2041  0.6300
  169SAPS  H11X19190   2.354   0.069   6.519  0.3199 -0.3671  1.4654
  169SAPS  H11Y19191   2.521   0.075   6.459 -0.6520  0.2127  3.0300
  169SAPS  C31219192   2.388   0.140   6.315 -0.2224 -0.0858 -0.4640
  169SAPS  H12X19193   2.476   0.175   6.256 -0.4830 -0.7111 -1.2423
  169SAPS  H12Y19194   2.305   0.213   6.308  2.1103  3.1850  2.4896
  169SAPS  C31319195   2.346   0.005   6.254 -0.3879  0.3644 -1.1090
  169SAPS  H13X19196   2.260  -0.043   6.307  0.3099  1.7123  1.4167
  169SAPS  H13Y19197   2.430  -0.067   6.262  1.7454  2.9122  2.2917
  169SAPS  C31419198   2.329   0.027   6.103 -0.4025 -0.5177  0.1096
  169SAPS  H14X19199   2.318  -0.078   6.069 -2.3868  0.1891 -1.6145
  169SAPS  H14Y19200   2.421   0.067   6.056  0.6739 -0.7597  1.9161
  169SAPS  C31519201   2.203   0.107   6.058 -0.1318  0.0370  0.4497
  169SAPS  H15X19202   2.198   0.115   5.947 -1.4295  0.5248  0.5324
  169SAPS  H15Y19203   2.222   0.211   6.090 -1.1597  1.3788 -2.8314
  169SAPS  C31619204   2.065   0.059   6.118 -0.4908 -0.2137  0.2450
  169SAPS  H16X19205   2.080   0.034   6.225  2.0304  2.2234  0.5588
  169SAPS  H16Y19206   2.034  -0.040   6.077 -0.5261  0.2015 -0.7452
  169SAPS  C31719207   1.952   0.165   6.113  0.5476 -0.3147 -0.3192
  169SAPS  H17X19208   1.937   0.193   6.007 -0.6205  2.2550  0.4650
  169SAPS  H17Y19209   1.967   0.247   6.187  1.0047 -1.6054  1.0909
  169SAPS  C31819210   1.813   0.100   6.150 -0.0156  0.8338 -0.3261
  169SAPS  H18X19211   1.848   0.055   6.245  0.7390 -0.4821 -1.2035
  169SAPS  H18Y19212   1.787   0.011   6.088 -0.3898  1.4469 -1.0755
  169SAPS  H18Z19213   1.728   0.171   6.156 -1.7866 -1.2216  0.2073
  170SAPS     N19214   3.516   3.556   8.098 -0.2805  0.3553 -0.9047
  170SAPS   HN119215   3.540   3.475   8.158  1.7128 -0.2111 -2.3626
  170SAPS   HN219216   3.412   3.558   8.095 -0.4469 -3.2236 -1.1924
  170SAPS   HN319217   3.559   3.551   8.003 -2.2746 -2.6787 -1.8113
  170SAPS   C1219218   3.561   3.677   8.175 -0.4910 -0.1405  0.4632
  170SAPS  H12A19219   3.529   3.763   8.117 -3.1101  0.2427  2.3309
  170SAPS   C1319220   3.495   3.707   8.306 -0.1671 -0.1186 -0.3491
  170SAPS  O13A19221   3.430   3.623   8.374  0.9124 -0.7789 -0.0202
  170SAPS  O13B19222   3.522   3.814   8.363 -0.4273 -0.2027 -0.1283
  170SAPS   C1119223   3.715   3.691   8.187 -0.6424 -0.3083 -0.3317
  170SAPS  H11A19224   3.738   3.634   8.280 -1.3574  2.0515  1.3803
  170SAPS  H11B19225   3.747   3.795   8.207 -3.1040  0.6241 -0.8952
  170SAPS     P19226   3.917   3.694   8.027 -0.1566 -0.3661  0.3391
  170SAPS   O1319227   3.970   3.771   8.146  0.6316  0.0391 -0.6539
  170SAPS   O1419228   4.010   3.604   7.957  0.0433  0.0174  0.2459
  170SAPS   O1219229   3.774   3.635   8.065 -0.8264  0.0032 -0.0865
  170SAPS   O1119230   3.867   3.807   7.932 -0.0987  0.2567  0.9223
  170SAPS    C119231   3.768   3.805   7.831 -0.8136 -0.5714 -0.3727
  170SAPS    HA19232   3.695   3.731   7.870  1.7302 -1.9473  2.1993
  170SAPS    HB19233   3.717   3.903   7.834  1.6260  0.7665 -0.6921
  170SAPS    C219234   3.839   3.759   7.700  0.2962 -0.7115  0.5614
  170SAPS    HS19235   3.889   3.662   7.717 -0.1175 -0.8056  1.3179
  170SAPS   O2119236   3.918   3.865   7.652  0.2191 -0.3744  0.4169
  170SAPS   C2119237   4.031   3.830   7.596  0.3432  0.0093 -0.0314
  170SAPS   O2219238   4.073   3.715   7.586 -0.3677  0.3992 -0.3780
  170SAPS   C2219239   4.082   3.949   7.524 -0.3308 -0.0491 -0.8587
  170SAPS   H2R19240   3.999   3.985   7.459  1.5029  2.0735 -2.1708
  170SAPS   H2S19241   4.113   4.026   7.598  0.5932  0.2096 -1.5056
  170SAPS    C319242   3.734   3.717   7.589  0.5080  0.2667 -0.2361
  170SAPS    HX19243   3.666   3.804   7.599  0.3515  0.1681 -0.4230
  170SAPS    HY19244   3.687   3.621   7.622  0.3995  0.2968 -0.3015
  170SAPS   O3119245   3.788   3.709   7.454  0.0247 -0.2787  0.2362
  170SAPS   C3119246   3.837   3.595   7.416 -0.0377  0.5016 -0.1429
  170SAPS   O3219247   3.804   3.482   7.456 -0.1761  0.2916 -0.1703
  170SAPS   C3219248   3.928   3.621   7.296  0.5884  0.2183 -0.3116
  170SAPS   H2X19249   3.977   3.721   7.306 -0.7132  0.7354  1.4151
  170SAPS   H2Y19250   3.864   3.619   7.206 -0.4506 -2.5773  0.4194
  170SAPS   C2319251   4.210   3.924   7.437  0.9523 -0.1690 -0.6100
  170SAPS   H3R19252   4.189   3.837   7.371 -1.4088  0.3236 -0.5981
  170SAPS   H3S19253   4.285   3.885   7.510  1.1413  1.1105 -0.1013
  170SAPS   C2419254   4.256   4.048   7.362 -0.8327 -0.0012  0.7482
  170SAPS   H4R19255   4.362   4.025   7.340 -0.8180  0.1909  0.6146
  170SAPS   H4S19256   4.253   4.142   7.421 -0.9222  1.4312 -1.4156
  170SAPS   C2519257   4.170   4.076   7.239  0.6341  0.7386  0.0915
  170SAPS   H5R19258   4.077   4.135   7.242  0.3656  0.4887 -1.8865
  170SAPS   C2619259   4.211   4.038   7.110  0.2561 -0.6327 -0.3796
  170SAPS   H6R19260   4.146   4.060   7.024  0.2665  0.8864 -0.0349
  170SAPS   C2719261   4.339   3.961   7.071  0.1285 -0.3479  0.7654
  170SAPS   H7R19262   4.303   3.889   6.995  0.4971 -0.7360  0.9569
  170SAPS   H7S19263   4.374   3.891   7.150  1.7633  1.5970  1.8574
  170SAPS   C2819264   4.431   4.066   7.014 -0.0570 -0.2224  0.1199
  170SAPS   H8R19265   4.502   4.105   7.089  0.9004  0.1390 -0.9385
  170SAPS   C2919266   4.451   4.099   6.887 -0.1657  0.4762 -0.4234
  170SAPS   H9R19267   4.525   4.175   6.858  1.2847 -0.9131 -0.5010
  170SAPS  C21019268   4.379   4.038   6.766  0.5548 -0.0290  0.5705
  170SAPS  H10R19269   4.377   3.929   6.789 -0.1120 -0.3975 -1.0860
  170SAPS  H10S19270   4.447   4.049   6.679 -0.7828  0.9723 -0.3844
  170SAPS  C21119271   4.244   4.089   6.736 -0.3259  0.2106 -0.0908
  170SAPS  H11R19272   4.236   4.193   6.702 -0.7940  0.3001  0.2782
  170SAPS  C21219273   4.127   4.024   6.744 -0.3500  0.0233 -0.3248
  170SAPS  H12R19274   4.032   4.079   6.734 -0.5326 -0.2107  0.0830
  170SAPS  C21319275   4.100   3.884   6.793  0.0170 -0.4160 -0.1462
  170SAPS  H13R19276   4.121   3.866   6.901  0.8915  1.1562 -0.0191
  170SAPS  H13S19277   4.179   3.829   6.738  0.6509  1.7182 -1.5002
  170SAPS  C21419278   3.962   3.836   6.749  0.3783 -0.4859  0.8429
  170SAPS  H14R19279   3.953   3.818   6.641 -2.1456  2.8653  0.3288
  170SAPS  C21519280   3.856   3.809   6.824  0.3706  0.7892 -0.9084
  170SAPS  H15R19281   3.765   3.779   6.769  0.3193  1.4511 -1.1951
  170SAPS  C21619282   3.843   3.841   6.966  0.1916 -0.2481 -0.1583
  170SAPS  H16R19283   3.939   3.844   7.022 -1.0970  0.8166  2.1855
  170SAPS  H16S19284   3.785   3.762   7.018 -1.9345 -1.2933 -3.7937
  170SAPS  C21719285   3.773   3.969   6.992  0.0386  0.1846 -0.0725
  170SAPS  H17R19286   3.674   3.970   6.940 -0.0319  2.0116  0.0492
  170SAPS  H17S19287   3.836   4.046   6.943  1.7895 -1.9025 -1.2649
  170SAPS  C21819288   3.761   3.991   7.145 -0.3884  0.0927 -0.0130
  170SAPS  H18R19289   3.857   4.036   7.176 -0.0312 -0.8152  0.2280
  170SAPS  H18S19290   3.749   3.896   7.202 -2.9283  1.0434  1.1858
  170SAPS  C21919291   3.653   4.075   7.205  0.9082 -0.2362  0.4422
  170SAPS  H19R19292   3.562   4.011   7.211  0.5250  0.2361 -0.2840
  170SAPS  H19S19293   3.633   4.145   7.122  1.5488 -0.2015  0.3180
  170SAPS  C22019294   3.674   4.160   7.333 -0.3827  0.4657  0.2774
  170SAPS  H20R19295   3.589   4.224   7.362 -1.5170 -0.6826 -0.3812
  170SAPS  H20S19296   3.764   4.224   7.325 -0.3250  0.5362  1.4528
  170SAPS  H20T19297   3.685   4.094   7.422  0.7185 -0.4334 -0.4820
  170SAPS   C3319298   4.033   3.495   7.283  0.6646 -0.0546 -0.3804
  170SAPS   H3X19299   3.973   3.403   7.265  1.1417 -0.2527 -0.9986
  170SAPS   H3Y19300   4.088   3.471   7.377 -0.3954 -2.4213 -0.2870
  170SAPS   C3419301   4.118   3.525   7.165  0.2708 -0.3885  0.0527
  170SAPS   H4X19302   4.218   3.486   7.194 -0.4998 -2.3067  0.2541
  170SAPS   H4Y19303   4.134   3.633   7.144  0.0017 -0.3764 -0.0839
  170SAPS   C3519304   4.084   3.454   7.037  0.0178  0.0989 -0.1285
  170SAPS   H5X19305   3.986   3.500   7.011  0.6610  1.1864 -0.7151
  170SAPS   H5Y19306   4.070   3.345   7.051 -3.0158  0.3324 -0.6784
  170SAPS   C3619307   4.183   3.490   6.927  0.4003  0.1381  0.3799
  170SAPS   H6X19308   4.285   3.455   6.954 -0.5337 -1.7120  1.6437
  170SAPS   H6Y19309   4.185   3.599   6.904  1.4935 -0.1982 -1.2976
  170SAPS   C3719310   4.145   3.414   6.797 -0.3018  0.2374  0.1868
  170SAPS   H7X19311   4.099   3.478   6.719  1.3274  0.2655 -0.7976
  170SAPS   H7Y19312   4.079   3.328   6.818  0.4596 -0.9169 -1.8329
  170SAPS   C3819313   4.273   3.355   6.737 -0.7698  0.2478  0.4985
  170SAPS   H8X19314   4.316   3.279   6.806  1.8197 -0.6508 -1.9079
  170SAPS   H8Y19315   4.353   3.429   6.716  1.6007 -1.9920  1.1070
  170SAPS   C3919316   4.231   3.295   6.602  0.2012  0.6991 -0.7897
  170SAPS   H9X19317   4.199   3.375   6.533 -1.7794 -0.0174 -0.7658
  170SAPS   H9Y19318   4.153   3.219   6.625  0.7826 -0.8764 -3.6090
  170SAPS  C31019319   4.334   3.205   6.529 -0.3879 -0.1677  0.7544
  170SAPS  H10X19320   4.310   3.104   6.568 -0.6516 -0.3344  0.1822
  170SAPS  H10Y19321   4.436   3.244   6.549  0.8772 -0.6843 -3.5591
  170SAPS  C31119322   4.319   3.197   6.379  0.2778 -0.3375 -0.4493
  170SAPS  H11X19323   4.399   3.144   6.324 -0.9527 -1.2317 -1.4339
  170SAPS  H11Y19324   4.313   3.302   6.342  2.4893  0.4601  1.2875
  170SAPS  C31219325   4.178   3.133   6.344 -0.4403 -0.3167  0.2555
  170SAPS  H12X19326   4.101   3.140   6.425  0.4353 -1.0938  1.1878
  170SAPS  H12Y19327   4.189   3.022   6.335 -1.6630 -0.4118 -0.3057
  170SAPS  C31319328   4.111   3.180   6.201  0.9448 -0.2766 -0.4639
  170SAPS  H13X19329   4.067   3.281   6.190 -1.5394 -1.0551  1.4566
  170SAPS  H13Y19330   4.028   3.109   6.184 -0.1224  1.1776 -1.5360
  170SAPS  C31419331   4.220   3.160   6.095 -0.2237 -0.2307 -0.0802
  170SAPS  H14X19332   4.266   3.059   6.093  1.9742  0.7288 -1.2098
  170SAPS  H14Y19333   4.303   3.233   6.109  0.3006 -0.1394 -3.0118
  170SAPS  C31519334   4.166   3.195   5.956  0.0121 -0.2441 -0.2493
  170SAPS  H15X19335   4.129   3.300   5.953 -0.0072 -0.2649 -0.8011
  170SAPS  H15Y19336   4.085   3.123   5.932  1.2394 -0.9297 -2.5956
  170SAPS  C31619337   4.288   3.174   5.860  0.1163 -0.5621 -0.6180
  170SAPS  H16X19338   4.325   3.071   5.877 -2.1869 -1.4148 -0.4409
  170SAPS  H16Y19339   4.365   3.251   5.883  0.6614  0.0344 -3.9080
  170SAPS  C31719340   4.255   3.195   5.708  0.1588  0.7664  0.2554
  170SAPS  H17X19341   4.211   3.296   5.693 -1.4126 -0.0814 -1.1547
  170SAPS  H17Y19342   4.169   3.131   5.680 -0.1599  0.8999  0.9075
  170SAPS  C31819343   4.380   3.181   5.619 -0.3390  0.5178 -0.3807
  170SAPS  H18X19344   4.450   3.257   5.659  0.1955 -1.6047  3.1657
  170SAPS  H18Y19345   4.348   3.213   5.517 -0.1463 -0.5932 -0.8046
  170SAPS  H18Z19346   4.406   3.073   5.628 -0.4472  0.4882 -0.4221
  171SAPS     N19347   5.221   4.071   8.259  0.7672  0.2055 -0.5830
  171SAPS   HN119348   5.323   4.061   8.246  0.9959  2.6062 -1.1232
  171SAPS   HN219349   5.198   4.151   8.196  0.8787  1.7909  1.2924
  171SAPS   HN319350   5.184   4.100   8.352  0.2730 -0.9132 -0.4121
  171SAPS   C1219351   5.152   3.940   8.223 -0.4273  0.5111 -0.2855
  171SAPS  H12A19352   5.202   3.899   8.137  2.0061  2.2027  0.2159
  171SAPS   C1319353   5.154   3.837   8.336 -0.0489  0.0669 -0.1028
  171SAPS  O13A19354   5.199   3.866   8.448 -0.2080  0.5333 -0.4057
  171SAPS  O13B19355   5.107   3.725   8.312  0.1313  0.1100 -0.1085
  171SAPS   C1119356   5.007   3.942   8.165 -0.0313 -0.4842 -0.3356
  171SAPS  H11A19357   4.922   3.978   8.227  0.7716  1.0536 -0.0807
  171SAPS  H11B19358   4.977   3.839   8.136 -1.0634 -0.0390 -0.9056
  171SAPS     P19359   4.934   4.007   7.913  0.2910  0.1991 -0.4814
  171SAPS   O1319360   4.796   4.062   7.926 -0.0485 -0.9921 -0.4939
  171SAPS   O1419361   5.014   4.074   7.810 -0.3007 -0.0804  0.4032
  171SAPS   O1219362   5.006   4.021   8.050 -0.3112  0.0200  0.2959
  171SAPS   O1119363   4.941   3.853   7.876 -1.0305  0.4170 -0.4493
  171SAPS    C119364   4.831   3.760   7.878 -0.0490 -0.1219  0.1509
  171SAPS    HA19365   4.786   3.751   7.980 -1.1895  0.0852 -0.3189
  171SAPS    HB19366   4.747   3.801   7.817 -0.3152 -0.9285 -0.0404
  171SAPS    C219367   4.860   3.625   7.816 -0.0332 -0.3406 -1.2257
  171SAPS    HS19368   4.954   3.589   7.863 -0.2530  1.4160  0.6966
  171SAPS   O2119369   4.878   3.655   7.678  0.2606  0.0560 -0.2657
  171SAPS   C2119370   4.933   3.561   7.607 -0.7478 -0.4471  0.0381
  171SAPS   O2219371   4.946   3.445   7.648  0.7859 -0.5191 -0.1190
  171SAPS   C2219372   4.984   3.605   7.465  0.2212  0.3798  0.3054
  171SAPS   H2R19373   4.922   3.691   7.432  1.8872  1.6473  0.3555
  171SAPS   H2S19374   5.092   3.630   7.478 -0.1446  2.0092  0.3361
  171SAPS    C319375   4.738   3.526   7.847 -0.4115 -0.4159  0.4737
  171SAPS    HX19376   4.733   3.521   7.958  0.9053 -0.9614  0.5287
  171SAPS    HY19377   4.759   3.422   7.813  0.2242 -1.4452  3.6755
  171SAPS   O3119378   4.617   3.580   7.799 -0.0129 -0.0736  0.1261
  171SAPS   C3119379   4.576   3.537   7.678  0.1985 -0.8543 -0.0381
  171SAPS   O3219380   4.627   3.456   7.611 -0.3015  0.3984 -0.6447
  171SAPS   C3219381   4.460   3.632   7.634 -0.5400 -0.5075 -0.2347
  171SAPS   H2X19382   4.509   3.731   7.625 -0.2062 -0.5421  1.0319
  171SAPS   H2Y19383   4.383   3.636   7.714 -0.2994 -2.4775  0.1399
  171SAPS   C2319384   4.961   3.494   7.353  0.8522 -0.1615  0.0200
  171SAPS   H3R19385   4.852   3.486   7.335  1.0846 -1.9915 -0.8492
  171SAPS   H3S19386   4.987   3.392   7.388  0.3486 -1.2337 -2.5143
  171SAPS   C2419387   5.030   3.526   7.219 -0.0081  0.9249 -0.5137
  171SAPS   H4R19388   5.135   3.557   7.237  1.2026 -2.8713 -0.1654
  171SAPS   H4S19389   4.977   3.608   7.167  0.9838  0.6097 -2.0720
  171SAPS   C2519390   5.035   3.407   7.122 -0.0356 -0.5285 -0.3333
  171SAPS   H5R19391   5.015   3.307   7.164  0.2835  0.1295  1.4847
  171SAPS   C2619392   5.075   3.416   7.000 -0.1640  0.9601 -0.6188
  171SAPS   H6R19393   5.084   3.328   6.935  3.5853  1.5461 -1.0997
  171SAPS   C2719394   5.099   3.538   6.926 -0.0151  0.1383  0.4865
  171SAPS   H7R19395   5.207   3.539   6.898  0.2593 -3.0094  1.0947
  171SAPS   H7S19396   5.073   3.625   6.989 -1.1987 -1.1346  1.8194
  171SAPS   C2819397   5.014   3.543   6.801 -0.3445 -0.2335 -0.3556
  171SAPS   H8R19398   4.907   3.562   6.817  0.1991  2.8622  0.3422
  171SAPS   C2919399   5.050   3.535   6.671  0.6107 -0.3916  0.0388
  171SAPS   H9R19400   4.963   3.543   6.603  1.8394 -0.6826 -1.6308
  171SAPS  C21019401   5.181   3.513   6.599 -0.4308  0.1087 -1.3041
  171SAPS  H10R19402   5.240   3.437   6.654 -0.7617  2.2571  2.3623
  171SAPS  H10S19403   5.235   3.609   6.615 -1.6958  0.6876 -0.3825
  171SAPS  C21119404   5.172   3.485   6.454  0.2165 -0.2103 -0.1282
  171SAPS  H11R19405   5.069   3.491   6.416  0.3589  1.9030 -0.3413
  171SAPS  C21219406   5.262   3.461   6.365  0.0513  0.2024 -1.0624
  171SAPS  H12R19407   5.226   3.446   6.263  0.0504 -0.2619 -0.9964
  171SAPS  C21319408   5.408   3.443   6.387 -0.2201  0.0329 -0.3734
  171SAPS  H13R19409   5.433   3.338   6.413 -2.2006 -0.6952 -1.1827
  171SAPS  H13S19410   5.452   3.495   6.474  0.4145 -2.0980  0.6586
  171SAPS  C21419411   5.486   3.485   6.265  0.5747  0.4472 -0.1929
  171SAPS  H14R19412   5.511   3.592   6.267 -0.7190  0.7816  1.7725
  171SAPS  C21519413   5.527   3.407   6.161 -0.8546 -0.7897  0.5677
  171SAPS  H15R19414   5.593   3.453   6.086 -0.5467  5.6073  4.0904
  171SAPS  C21619415   5.504   3.258   6.159 -0.5210  0.1160 -0.2492
  171SAPS  H16R19416   5.453   3.215   6.248 -0.4720  1.8117  0.6361
  171SAPS  H16S19417   5.609   3.220   6.165 -1.3313 -2.2875 -0.1971
  171SAPS  C21719418   5.420   3.202   6.048  0.7316  0.1155 -0.4741
  171SAPS  H17R19419   5.433   3.257   5.952 -0.7827  1.3002 -0.0319
  171SAPS  H17S19420   5.314   3.224   6.073  1.3115  1.8273  0.7214
  171SAPS  C21819421   5.437   3.051   6.029  0.5038  0.0012 -0.7613
  171SAPS  H18R19422   5.358   3.030   5.953 -0.1602  0.5353 -0.2403
  171SAPS  H18S19423   5.420   2.979   6.112 -0.3575  1.7841  0.6796
  171SAPS  C21919424   5.566   3.023   5.956 -0.2763 -0.5360 -0.1249
  171SAPS  H19R19425   5.648   3.035   6.030  1.6363  0.8785 -2.3636
  171SAPS  H19S19426   5.576   3.088   5.867 -3.4849 -1.0533 -0.9863
  171SAPS  C22019427   5.571   2.874   5.917  0.2792  0.2257  0.1087
  171SAPS  H20R19428   5.561   2.825   6.016  2.0596 -1.6470 -0.5861
  171SAPS  H20S19429   5.672   2.846   5.880  0.7017 -0.0910  1.4570
  171SAPS  H20T19430   5.497   2.847   5.839 -0.7995 -0.9992  1.5025
  171SAPS   C3319431   4.393   3.594   7.501  0.4619  0.3352 -0.3244
  171SAPS   H3X19432   4.291   3.637   7.505 -0.2495 -1.1738 -1.4175
  171SAPS   H3Y19433   4.386   3.485   7.480 -0.9462  0.4123 -0.3548
  171SAPS   C3419434   4.444   3.665   7.370 -0.3979 -0.7581  0.1042
  171SAPS   H4X19435   4.445   3.774   7.395  2.0799 -0.8468  0.6230
  171SAPS   H4Y19436   4.371   3.654   7.287  0.6732  0.7770 -1.0811
  171SAPS   C3519437   4.581   3.612   7.329 -0.2713 -0.2906  0.2511
  171SAPS   H5X19438   4.583   3.503   7.309  1.4245  0.0399 -1.6746
  171SAPS   H5Y19439   4.649   3.620   7.417  1.0837 -1.7297 -0.6076
  171SAPS   C3619440   4.634   3.674   7.193 -0.1373  0.3419 -0.4887
  171SAPS   H6X19441   4.744   3.657   7.190  0.1102  1.4222  0.8879
  171SAPS   H6Y19442   4.626   3.785   7.198  0.2755  0.3219  1.4705
  171SAPS   C3719443   4.566   3.611   7.070  0.7063  0.5394  0.5045
  171SAPS   H7X19444   4.464   3.651   7.051 -0.0236 -0.5809  1.9222
  171SAPS   H7Y19445   4.545   3.502   7.082  0.7392  0.6431  1.6058
  171SAPS   C3819446   4.641   3.635   6.935 -0.8483  0.1339  0.2761
  171SAPS   H8X19447   4.732   3.572   6.938  0.3781  1.7972 -0.4876
  171SAPS   H8Y19448   4.664   3.744   6.931 -1.2442  0.1805 -1.4888
  171SAPS   C3919449   4.566   3.592   6.810 -0.1903 -0.1557  0.4220
  171SAPS   H9X19450   4.480   3.661   6.792  0.4277  0.9590  1.6242
  171SAPS   H9Y19451   4.524   3.492   6.834 -0.9703  0.2828  0.9273
  171SAPS  C31019452   4.660   3.596   6.686  0.5183  0.0333  0.2141
  171SAPS  H10X19453   4.733   3.519   6.720 -0.1253 -0.1511  1.2142
  171SAPS  H10Y19454   4.710   3.693   6.666 -0.7397  0.5703 -0.4287
  171SAPS  C31119455   4.595   3.534   6.557  0.6903  0.2740 -0.9965
  171SAPS  H11X19456   4.512   3.596   6.516  1.8048  1.9734 -0.7752
  171SAPS  H11Y19457   4.556   3.434   6.586  1.6759  0.2757  0.4540
  171SAPS  C31219458   4.695   3.517   6.445  0.2533  0.3972  0.3307
  171SAPS  H12X19459   4.795   3.489   6.483  1.1811  2.2910 -0.6005
  171SAPS  H12Y19460   4.703   3.619   6.401 -0.7410  0.2663 -0.1722
  171SAPS  C31319461   4.659   3.419   6.333 -0.2763  0.5069  0.2055
  171SAPS  H13X19462   4.578   3.450   6.264 -0.5280 -2.1704 -0.7904
  171SAPS  H13Y19463   4.604   3.334   6.378  0.5912  0.1041  0.5296
  171SAPS  C31419464   4.777   3.367   6.252  0.6834 -0.4179  0.0046
  171SAPS  H14X19465   4.733   3.292   6.183  1.2065 -0.6333 -0.1006
  171SAPS  H14Y19466   4.855   3.307   6.303  1.0792  1.6300  1.9768
  171SAPS  C31519467   4.831   3.480   6.161 -0.0884 -0.5904  0.5734
  171SAPS  H15X19468   4.864   3.563   6.227  1.2396  0.2253 -1.0407
  171SAPS  H15Y19469   4.756   3.514   6.087  0.0748 -1.7991 -0.1714
  171SAPS  C31619470   4.941   3.419   6.070 -0.4388 -0.2183 -0.1890
  171SAPS  H16X19471   4.911   3.336   6.003  0.7211 -0.7121 -0.1159
  171SAPS  H16Y19472   5.013   3.357   6.127  0.3234  0.5119 -0.3488
  171SAPS  C31719473   5.008   3.528   5.982  0.2830  0.2160  0.6143
  171SAPS  H17X19474   5.037   3.610   6.051 -0.9890 -0.2022  1.6745
  171SAPS  H17Y19475   4.931   3.567   5.913 -0.5436  1.9028  2.3862
  171SAPS  C31819476   5.132   3.471   5.913  0.7724 -0.5753  0.1395
  171SAPS  H18X19477   5.170   3.550   5.845 -0.2148 -1.4680 -1.4988
  171SAPS  H18Y19478   5.103   3.385   5.850 -1.8449  0.0090  0.4182
  171SAPS  H18Z19479   5.209   3.444   5.988  0.0287 -0.4114  0.9908
  172SAPS     N19480   2.488   1.492   8.688  0.3488 -0.0360 -0.0822
  172SAPS   HN119481   2.463   1.577   8.743 -0.4152  0.4253 -1.1063
  172SAPS   HN219482   2.457   1.497   8.589  3.7305 -1.5868 -1.3648
  172SAPS   HN319483   2.448   1.413   8.742 -1.4456  1.2089  0.4984
  172SAPS   C1219484   2.636   1.485   8.700  0.7276  0.7297 -0.4139
  172SAPS  H12A19485   2.666   1.584   8.668 -0.4086  1.0001 -0.7157
  172SAPS   C1319486   2.704   1.452   8.843 -0.1086 -0.1915 -0.0368
  172SAPS  O13A19487   2.632   1.477   8.945  0.5310  0.2396  0.1220
  172SAPS  O13B19488   2.828   1.419   8.842 -0.0470  0.1409 -0.1101
  172SAPS   C1119489   2.692   1.399   8.588 -0.4375  0.4813  0.8801
  172SAPS  H11A19490   2.801   1.420   8.577  0.4564 -3.7971 -0.5532
  172SAPS  H11B19491   2.644   1.430   8.493  1.2887 -1.3383 -0.6850
  172SAPS     P19492   2.685   1.155   8.478  0.1348  0.0770 -0.2436
  172SAPS   O1319493   2.783   1.050   8.509 -0.2023 -0.0316  0.3380
  172SAPS   O1419494   2.550   1.114   8.456  0.3370 -0.3297 -0.3102
  172SAPS   O1219495   2.671   1.259   8.598  0.1100  0.4016 -0.0205
  172SAPS   O1119496   2.742   1.235   8.348  0.3133  0.1608 -0.7337
  172SAPS    C119497   2.865   1.300   8.348  0.1421 -0.6389 -0.8038
  172SAPS    HA19498   2.839   1.408   8.357  0.0812 -0.8078  1.6344
  172SAPS    HB19499   2.920   1.277   8.441 -1.4899 -0.3774  0.2587
  172SAPS    C219500   2.952   1.267   8.221  0.1628  0.8891  0.1448
  172SAPS    HS19501   3.019   1.355   8.209  0.7167  0.3584 -0.8602
  172SAPS   O2119502   2.869   1.244   8.104  0.1822  0.0703 -0.2094
  172SAPS   C2119503   2.910   1.284   7.992  0.2027 -0.4608  0.0895
  172SAPS   O2219504   3.017   1.335   7.968 -0.7138 -0.0741 -0.0186
  172SAPS   C2219505   2.799   1.270   7.884  0.6401 -0.8641  0.6403
  172SAPS   H2R19506   2.779   1.165   7.855  3.5194 -0.6692 -2.8248
  172SAPS   H2S19507   2.704   1.315   7.918 -0.3854 -2.6797  0.2796
  172SAPS    C319508   3.035   1.130   8.239  0.1531 -0.2307  0.2483
  172SAPS    HX19509   2.966   1.044   8.248  0.7226 -1.0567 -2.4823
  172SAPS    HY19510   3.102   1.147   8.326 -1.1416 -0.0343  1.2465
  172SAPS   O3119511   3.123   1.097   8.128  0.0844 -1.2491  0.0778
  172SAPS   C3119512   3.236   1.173   8.110  0.2260 -0.2407  0.5254
  172SAPS   O3219513   3.270   1.268   8.179  0.6038 -0.0417  0.0324
  172SAPS   C3219514   3.315   1.107   7.994  0.3234  0.5013 -0.4224
  172SAPS   H2X19515   3.359   1.016   8.040 -3.1538 -0.8068  0.6564
  172SAPS   H2Y19516   3.391   1.180   7.958  1.1587  0.6661  1.5419
  172SAPS   C2319517   2.847   1.350   7.760  0.5605  0.4746 -0.3901
  172SAPS   H3R19518   2.953   1.329   7.733  0.1450 -0.8547 -1.0799
  172SAPS   H3S19519   2.843   1.454   7.799 -1.1860 -0.4935  2.2714
  172SAPS   C2419520   2.749   1.331   7.643 -0.7195  0.0072 -0.5402
  172SAPS   H4R19521   2.756   1.427   7.587 -0.4357  1.5114  1.9230
  172SAPS   H4S19522   2.642   1.320   7.667 -0.9684  2.7849  0.0083
  172SAPS   C2519523   2.790   1.210   7.570  0.4737  0.0224  0.5524
  172SAPS   H5R19524   2.768   1.112   7.613  1.9007 -0.1237  1.0005
  172SAPS   C2619525   2.829   1.206   7.440  0.9419  0.2624  0.0161
  172SAPS   H6R19526   2.842   1.102   7.407  0.2114  0.1569  0.0547
  172SAPS   C2719527   2.859   1.322   7.351 -0.1171  0.4118  0.0714
  172SAPS   H7R19528   2.823   1.414   7.401  2.2710  1.7894 -0.5966
  172SAPS   H7S19529   2.810   1.317   7.251  2.3910 -4.3498 -1.2415
  172SAPS   C2819530   3.006   1.347   7.339 -0.0315 -0.1358  0.3813
  172SAPS   H8R19531   3.065   1.301   7.420 -0.6037 -0.9433  0.3590
  172SAPS   C2919532   3.063   1.411   7.237 -0.2704 -0.2086  0.5548
  172SAPS   H9R19533   3.167   1.445   7.244 -0.6149  0.9903  0.1792
  172SAPS  C21019534   3.000   1.478   7.119  0.3955 -0.6816  0.2861
  172SAPS  H10R19535   2.969   1.387   7.063 -3.2914  0.2984  0.4368
  172SAPS  H10S19536   3.074   1.518   7.046 -0.3053 -2.5094 -1.5433
  172SAPS  C21119537   2.892   1.584   7.130  0.1552 -0.0101 -0.3269
  172SAPS  H11R19538   2.878   1.622   7.232  3.2120 -1.4332  0.7294
  172SAPS  C21219539   2.809   1.649   7.045 -0.0229  0.2679  0.6578
  172SAPS  H12R19540   2.737   1.715   7.096  1.9180  1.5661  1.8850
  172SAPS  C21319541   2.805   1.632   6.895  0.3423  0.0125 -0.0794
  172SAPS  H13R19542   2.898   1.579   6.866  1.8304  2.3741  0.1409
  172SAPS  H13S19543   2.813   1.732   6.849  1.0504  1.0912  2.2250
  172SAPS  C21419544   2.681   1.555   6.855 -0.4138 -1.2046 -0.4737
  172SAPS  H14R19545   2.686   1.450   6.887  2.2897  0.1288  4.3243
  172SAPS  C21519546   2.585   1.596   6.774 -0.2264 -0.6979  0.3310
  172SAPS  H15R19547   2.511   1.517   6.757  0.2685 -1.0575 -0.2027
  172SAPS  C21619548   2.560   1.734   6.709 -0.3791 -0.4147  0.4768
  172SAPS  H16R19549   2.647   1.801   6.723  0.7681 -1.8801  0.5630
  172SAPS  H16S19550   2.487   1.792   6.770  0.4251  1.4261 -0.2608
  172SAPS  C21719551   2.531   1.736   6.557 -0.1522  0.7814 -0.7733
  172SAPS  H17R19552   2.424   1.708   6.548  0.0823 -0.1327 -0.8451
  172SAPS  H17S19553   2.589   1.661   6.499  0.4044  1.4993 -1.1675
  172SAPS  C21819554   2.557   1.866   6.485 -0.2478  0.1056  0.3208
  172SAPS  H18R19555   2.666   1.886   6.486  0.1173 -1.6827 -0.6479
  172SAPS  H18S19556   2.496   1.945   6.534  1.4678  0.4170  2.0788
  172SAPS  C21919557   2.502   1.876   6.344 -0.1010 -0.5288  0.1746
  172SAPS  H19R19558   2.397   1.838   6.341 -0.3044 -0.1766  1.7151
  172SAPS  H19S19559   2.565   1.808   6.283  2.4420  0.0830  1.9838
  172SAPS  C22019560   2.506   2.018   6.296 -0.3030  0.1799 -0.1580
  172SAPS  H20R19561   2.608   2.055   6.275  0.3365 -0.3429  1.8357
  172SAPS  H20S19562   2.453   2.082   6.370  0.2249 -0.0370  0.4193
  172SAPS  H20T19563   2.453   2.022   6.199 -1.2215 -0.1072  0.3128
  172SAPS   C3319564   3.220   1.062   7.874 -0.5167 -0.7380  0.4066
  172SAPS   H3X19565   3.117   1.043   7.910  0.0976 -1.2406  1.9606
  172SAPS   H3Y19566   3.257   0.961   7.846  0.3561 -0.1201 -0.8025
  172SAPS   C3419567   3.226   1.158   7.759  0.1620  0.1444  0.2715
  172SAPS   H4X19568   3.331   1.191   7.747 -0.3210  1.8309  0.3965
  172SAPS   H4Y19569   3.167   1.251   7.776  0.7962  0.5604  0.1956
  172SAPS   C3519570   3.176   1.098   7.622  0.0249 -0.2066 -0.1044
  172SAPS   H5X19571   3.174   1.182   7.549  0.3980  0.9011  1.1133
  172SAPS   H5Y19572   3.069   1.071   7.635 -0.8047  3.0063  0.6509
  172SAPS   C3619573   3.262   0.987   7.558  0.2944  0.0390  0.3863
  172SAPS   H6X19574   3.271   0.901   7.627  2.8481  1.2086  1.6715
  172SAPS   H6Y19575   3.368   1.021   7.547 -0.5449  2.4965 -1.0421
  172SAPS   C3719576   3.216   0.950   7.412  0.4583 -0.3047 -0.5643
  172SAPS   H7X19577   3.287   0.873   7.373  0.8856 -0.6207  0.7673
  172SAPS   H7Y19578   3.218   1.034   7.340  0.3159  0.1617 -0.0336
  172SAPS   C3819579   3.073   0.894   7.420 -0.9162  0.0956  1.0669
  172SAPS   H8X19580   3.006   0.982   7.429  0.4471  1.1656  1.0954
  172SAPS   H8Y19581   3.055   0.821   7.502 -2.7690 -1.0746 -0.2984
  172SAPS   C3919582   3.015   0.825   7.292  0.4179 -0.9046  0.1398
  172SAPS   H9X19583   2.904   0.821   7.299  0.1801  1.5283 -0.9947
  172SAPS   H9Y19584   3.047   0.721   7.274  3.5232  0.1448 -1.1359
  172SAPS  C31019585   3.059   0.897   7.163 -0.3564 -0.7179  0.4377
  172SAPS  H10X19586   3.170   0.903   7.159 -0.4746  2.1138 -0.8358
  172SAPS  H10Y19587   3.033   1.004   7.175  1.0569 -0.4352  1.2257
  172SAPS  C31119588   3.006   0.845   7.029 -0.4864  0.6320  0.1448
  172SAPS  H11X19589   3.045   0.908   6.947  0.4168  1.3270  1.0781
  172SAPS  H11Y19590   2.897   0.864   7.042 -1.0521 -0.9442 -1.8200
  172SAPS  C31219591   3.037   0.702   7.001  0.1170 -0.3343  0.0393
  172SAPS  H12X19592   2.965   0.639   7.057  1.1256 -0.6998  0.9534
  172SAPS  H12Y19593   3.142   0.686   7.033 -0.1206 -1.4931  0.2826
  172SAPS  C31319594   3.034   0.678   6.845 -0.4077 -0.2228  0.2535
  172SAPS  H13X19595   3.108   0.744   6.795  0.8793 -2.5477 -1.1150
  172SAPS  H13Y19596   2.934   0.715   6.815  0.4860 -1.1814 -4.7353
  172SAPS  C31419597   3.043   0.540   6.779 -0.9668  0.4883 -0.1378
  172SAPS  H14X19598   2.956   0.480   6.813 -1.0358  0.8119  0.2690
  172SAPS  H14Y19599   3.130   0.479   6.811  0.5856  2.4122 -0.5636
  172SAPS  C31519600   3.051   0.563   6.630 -0.5081  0.4967  0.0341
  172SAPS  H15X19601   3.139   0.627   6.605  0.0732 -0.6120 -0.8583
  172SAPS  H15Y19602   2.954   0.614   6.609 -0.6431 -0.6591 -2.4930
  172SAPS  C31619603   3.060   0.436   6.550 -0.0190 -0.6370 -0.2646
  172SAPS  H16X19604   3.162   0.392   6.556 -0.4732 -1.5610  1.1457
  172SAPS  H16Y19605   2.982   0.364   6.584  0.7876 -2.3268 -1.8069
  172SAPS  C31719606   3.025   0.455   6.405  0.2292 -0.1357 -0.4661
  172SAPS  H17X19607   2.959   0.543   6.408  0.5115  0.4077 -4.5052
  172SAPS  H17Y19608   2.969   0.362   6.380  0.0720  0.0009 -0.6190
  172SAPS  C31819609   3.145   0.471   6.307  0.3610 -0.2689 -0.3207
  172SAPS  H18X19610   3.217   0.386   6.304 -1.3752 -1.8764  0.8913
  172SAPS  H18Y19611   3.202   0.564   6.330 -0.2001  1.4434 -4.9324
  172SAPS  H18Z19612   3.116   0.471   6.200 -0.0778 -3.0441 -0.2876
  173SAPS     N19613   5.748   4.166   3.247 -0.1558 -0.1175  0.0599
  173SAPS   HN119614   5.835   4.184   3.193 -2.5481  0.2954 -4.0687
  173SAPS   HN219615   5.766   4.088   3.314 -1.9723  1.6797  2.8598
  173SAPS   HN319616   5.691   4.137   3.166  0.7681  0.7010 -0.9138
  173SAPS   C1219617   5.682   4.290   3.301 -0.1982 -0.7749  0.3487
  173SAPS  H12A19618   5.690   4.359   3.218  1.4010 -0.8847  0.3841
  173SAPS   C1319619   5.533   4.292   3.342  0.2172  0.0958  0.1328
  173SAPS  O13A19620   5.461   4.191   3.314 -0.2077 -0.5737 -0.5618
  173SAPS  O13B19621   5.480   4.398   3.379 -0.5772 -0.1395  0.1294
  173SAPS   C1119622   5.761   4.351   3.427 -0.1226  0.7100 -0.7012
  173SAPS  H11A19623   5.749   4.281   3.512  1.0534  0.2582 -0.8845
  173SAPS  H11B19624   5.702   4.442   3.450 -1.2441  0.0766 -1.0190
  173SAPS     P19625   5.940   4.509   3.311  0.0236 -0.1120 -0.0955
  173SAPS   O1319626   6.065   4.487   3.245  0.4093 -0.4710  0.4247
  173SAPS   O1419627   5.835   4.563   3.217  0.3149 -0.0824  0.7164
  173SAPS   O1219628   5.898   4.373   3.391 -0.5831 -0.5353  0.6728
  173SAPS   O1119629   5.968   4.609   3.432  0.4611  0.2941  1.1216
  173SAPS    C119630   6.042   4.584   3.543  0.0267  0.1050 -0.4363
  173SAPS    HA19631   6.124   4.511   3.523 -1.0842 -1.4349  0.3872
  173SAPS    HB19632   6.096   4.678   3.566  0.3080 -0.5006  1.4956
  173SAPS    C219633   5.959   4.528   3.661  0.5551  0.3120 -0.3985
  173SAPS    HS19634   5.932   4.425   3.630 -0.2563  0.0948  0.9303
  173SAPS   O2119635   5.848   4.615   3.674  0.1230  0.0585  0.0201
  173SAPS   C2119636   5.744   4.558   3.717  0.2491  0.1287 -0.1390
  173SAPS   O2219637   5.724   4.441   3.730  0.4617 -0.1503  0.3321
  173SAPS   C2219638   5.660   4.674   3.768 -0.0464 -0.3355  0.4431
  173SAPS   H2R19639   5.645   4.741   3.680 -1.6160 -1.3509 -0.1164
  173SAPS   H2S19640   5.559   4.633   3.791  0.0802 -0.3835  0.9070
  173SAPS    C319641   6.039   4.527   3.788 -0.3909 -0.3268 -0.2696
  173SAPS    HX19642   5.969   4.499   3.869  0.2750  2.7560  1.5494
  173SAPS    HY19643   6.066   4.628   3.827 -0.1479 -0.8495  0.9499
  173SAPS   O3119644   6.156   4.442   3.768 -0.2820  0.5545  0.0973
  173SAPS   C3119645   6.245   4.448   3.858 -0.4852  0.2027 -0.8259
  173SAPS   O3219646   6.244   4.517   3.959  0.7447 -0.2815  0.8621
  173SAPS   C3219647   6.361   4.348   3.826  0.2716 -0.2538  0.0055
  173SAPS   H2X19648   6.459   4.378   3.868  0.8743 -2.9491  0.7083
  173SAPS   H2Y19649   6.373   4.345   3.716  2.1671 -0.7786  0.1994
  173SAPS   C2319650   5.712   4.735   3.897  0.0319  0.0842  0.2447
  173SAPS   H3R19651   5.651   4.827   3.912  1.1380  0.5378  2.2020
  173SAPS   H3S19652   5.820   4.763   3.897  0.3196 -0.9156 -1.2074
  173SAPS   C2419653   5.673   4.647   4.017  0.0055  1.2658 -0.2507
  173SAPS   H4R19654   5.702   4.547   3.979 -0.3015  1.8967 -2.2937
  173SAPS   H4S19655   5.562   4.639   4.022  0.1394 -0.3677  1.1128
  173SAPS   C2519656   5.715   4.691   4.153 -1.1321 -0.6273 -0.2493
  173SAPS   H5R19657   5.665   4.780   4.195 -0.3691 -0.2133 -0.2042
  173SAPS   C2619658   5.797   4.626   4.233  0.3294  0.1507 -0.0973
  173SAPS   H6R19659   5.822   4.676   4.328  2.4586 -0.8939 -0.0513
  173SAPS   C2719660   5.879   4.501   4.201  0.1406  0.3535  0.4495
  173SAPS   H7R19661   5.875   4.459   4.098 -0.7334 -2.0345  1.3994
  173SAPS   H7S19662   5.858   4.415   4.268  0.5911 -0.4883 -0.4752
  173SAPS   C2819663   6.024   4.524   4.225 -0.6589 -0.1469  0.5114
  173SAPS   H8R19664   6.081   4.530   4.130  1.0274 -1.1073  1.4176
  173SAPS   C2919665   6.089   4.559   4.335  0.3711  0.7005  0.1903
  173SAPS   H9R19666   6.186   4.603   4.308  0.6006 -1.0085 -1.9829
  173SAPS  C21019667   6.041   4.564   4.481 -0.4116  0.4044  0.2792
  173SAPS  H10R19668   6.085   4.478   4.536 -1.4816 -0.5135 -0.2457
  173SAPS  H10S19669   5.936   4.529   4.489 -0.1598 -0.1624  1.1727
  173SAPS  C21119670   6.064   4.694   4.539  0.9703  0.1320 -0.1794
  173SAPS  H11R19671   6.028   4.780   4.482 -0.6854 -0.9137 -0.8025
  173SAPS  C21219672   6.104   4.722   4.666 -0.9256  0.2028  0.1046
  173SAPS  H12R19673   6.107   4.827   4.700  1.1988  0.0817  0.3861
  173SAPS  C21319674   6.161   4.622   4.765 -0.1730  0.2737 -0.0266
  173SAPS  H13R19675   6.113   4.524   4.744 -1.8495  1.2693 -1.0572
  173SAPS  H13S19676   6.141   4.644   4.872 -1.5658 -0.5167 -0.1047
  173SAPS  C21419677   6.317   4.617   4.749  0.1335 -0.7947 -0.5188
  173SAPS  H14R19678   6.351   4.557   4.663  1.2284  1.3930 -1.6877
  173SAPS  C21519679   6.403   4.674   4.839  0.5311  0.1478 -0.4158
  173SAPS  H15R19680   6.511   4.677   4.819  0.6732  1.7207  0.4328
  173SAPS  C21619681   6.360   4.755   4.962 -0.2418  0.0530  0.3988
  173SAPS  H16R19682   6.265   4.715   5.004  0.2548 -1.6920 -0.0475
  173SAPS  H16S19683   6.355   4.862   4.932 -0.0978  0.0662  0.4261
  173SAPS  C21719684   6.466   4.728   5.078  0.9975  0.1904  0.1685
  173SAPS  H17R19685   6.567   4.751   5.038  0.8623  0.2711 -0.1305
  173SAPS  H17S19686   6.447   4.626   5.117  1.5301  1.0843  3.0089
  173SAPS  C21819687   6.422   4.816   5.196  0.1740  0.5727  0.8260
  173SAPS  H18R19688   6.317   4.795   5.225  0.4486  0.0984  1.4865
  173SAPS  H18S19689   6.432   4.923   5.167  2.1995  0.3660  0.6553
  173SAPS  C21919690   6.501   4.786   5.324 -1.2615  0.3812  0.8979
  173SAPS  H19R19691   6.609   4.806   5.305 -1.4513 -0.1822 -0.9780
  173SAPS  H19S19692   6.495   4.676   5.335 -0.0980 -0.1852 -2.7998
  173SAPS  C22019693   6.469   4.865   5.449  0.4778 -0.3119 -0.4651
  173SAPS  H20R19694   6.542   4.865   5.533  0.8168  1.0274 -0.7454
  173SAPS  H20S19695   6.376   4.827   5.496  1.1722  1.8890  3.1039
  173SAPS  H20T19696   6.447   4.968   5.416 -2.2770 -0.9030 -0.6549
  173SAPS   C3319697   6.327   4.200   3.879 -0.3608  0.0104  0.3074
  173SAPS   H3X19698   6.410   4.133   3.851 -1.2021 -0.9793  0.1357
  173SAPS   H3Y19699   6.235   4.172   3.823  0.1161 -0.2353 -0.3610
  173SAPS   C3419700   6.295   4.186   4.027 -0.1740 -0.3716 -0.5370
  173SAPS   H4X19701   6.273   4.078   4.046  2.3798 -1.0004 -0.7439
  173SAPS   H4Y19702   6.197   4.227   4.060  0.2502 -1.4189  2.3434
  173SAPS   C3519703   6.405   4.241   4.125 -0.4142  0.2574 -0.3084
  173SAPS   H5X19704   6.411   4.349   4.099 -0.6780  0.9188  2.1481
  173SAPS   H5Y19705   6.504   4.192   4.118 -0.7415 -0.4888  0.1546
  173SAPS   C3619706   6.368   4.235   4.275 -0.2413 -0.5030  0.4437
  173SAPS   H6X19707   6.359   4.134   4.320  1.5436 -0.2733  1.3838
  173SAPS   H6Y19708   6.269   4.281   4.297 -2.1140 -3.5486 -0.7864
  173SAPS   C3719709   6.478   4.304   4.358 -0.1347 -0.0917  0.0905
  173SAPS   H7X19710   6.502   4.410   4.333  1.4722 -0.0641  1.5154
  173SAPS   H7Y19711   6.577   4.254   4.350  0.0405 -0.1804  2.1368
  173SAPS   C3819712   6.436   4.298   4.507 -0.7431  0.2008 -0.0867
  173SAPS   H8X19713   6.393   4.197   4.521 -1.8001  0.8891  2.1398
  173SAPS   H8Y19714   6.352   4.370   4.511 -0.4568  0.7228 -2.2374
  173SAPS   C3919715   6.548   4.337   4.601  0.3049 -0.2938  0.3852
  173SAPS   H9X19716   6.574   4.445   4.596 -3.5088  0.7458  0.2686
  173SAPS   H9Y19717   6.640   4.284   4.568  1.6875  1.2329  1.5966
  173SAPS  C31019718   6.528   4.301   4.747  0.0790 -0.4601  0.2122
  173SAPS  H10X19719   6.530   4.190   4.751  1.7385 -0.4731 -0.1630
  173SAPS  H10Y19720   6.430   4.329   4.789 -0.6203 -2.3445 -0.0635
  173SAPS  C31119721   6.638   4.369   4.834 -0.0475  0.2323  0.3844
  173SAPS  H11X19722   6.634   4.476   4.807  0.9684  0.4693  1.0972
  173SAPS  H11Y19723   6.744   4.338   4.822  0.2367  1.8653 -1.8504
  173SAPS  C31219724   6.608   4.361   4.979 -0.3415  0.2206  0.5859
  173SAPS  H12X19725   6.500   4.384   4.998 -0.0585 -0.2529  3.0968
  173SAPS  H12Y19726   6.662   4.451   5.016 -2.4824  2.2620 -0.8618
  173SAPS  C31319727   6.655   4.228   5.043 -0.0533  0.0026  0.3905
  173SAPS  H13X19728   6.761   4.210   5.013 -0.1145 -1.1973  0.8307
  173SAPS  H13Y19729   6.585   4.150   5.007 -1.4395  1.9516 -1.3202
  173SAPS  C31419730   6.640   4.234   5.199  0.5414 -0.5587 -0.3152
  173SAPS  H14X19731   6.684   4.144   5.248 -1.4181 -1.6111 -0.3968
  173SAPS  H14Y19732   6.532   4.239   5.224 -0.0316 -4.2236 -1.3984
  173SAPS  C31519733   6.704   4.349   5.273  0.6316  0.1679  0.4239
  173SAPS  H15X19734   6.694   4.329   5.382  0.8626  1.4329  0.6953
  173SAPS  H15Y19735   6.650   4.445   5.256  0.2235 -0.4523 -2.1164
  173SAPS  C31619736   6.850   4.367   5.249  0.6153  0.4384 -0.2089
  173SAPS  H16X19737   6.869   4.436   5.164  0.9820  0.9534  0.2878
  173SAPS  H16Y19738   6.898   4.270   5.221 -0.6385 -0.5484  0.9643
  173SAPS  C31719739   6.923   4.418   5.371  0.1054  0.4535 -0.2708
  173SAPS  H17X19740   7.033   4.423   5.360  0.5105 -1.1559  2.1959
  173SAPS  H17Y19741   6.899   4.349   5.455  0.0726 -1.5759 -1.8662
  173SAPS  C31819742   6.882   4.556   5.424 -0.0451 -0.9914 -0.0652
  173SAPS  H18X19743   6.947   4.598   5.504  0.5815 -0.4784 -0.8307
  173SAPS  H18Y19744   6.784   4.564   5.476  0.5242 -0.8323  1.0257
  173SAPS  H18Z19745   6.894   4.637   5.350  4.0765  0.3653  1.8025
  174SAPS     N19746   1.748   2.742   3.432  0.2799  0.3573 -0.1865
  174SAPS   HN119747   1.822   2.755   3.504 -0.2268 -0.9345  0.6106
  174SAPS   HN219748   1.695   2.661   3.470 -0.0893  1.1636  1.0896
  174SAPS   HN319749   1.787   2.715   3.340  0.6684  3.5985 -1.0883
  174SAPS   C1219750   1.669   2.866   3.429  0.5176 -0.0381 -0.6611
  174SAPS  H12A19751   1.739   2.947   3.435  0.1082  0.2305  0.8114
  174SAPS   C1319752   1.579   2.895   3.306  0.2256 -0.1707  0.0208
  174SAPS  O13A19753   1.576   2.811   3.216  0.0991  0.1525 -0.0612
  174SAPS  O13B19754   1.538   3.014   3.295  0.2519  0.5437 -0.1261
  174SAPS   C1119755   1.579   2.868   3.554 -0.1836  0.1451 -0.4114
  174SAPS  H11A19756   1.505   2.785   3.562  0.2151 -0.0804  1.1459
  174SAPS  H11B19757   1.522   2.964   3.560 -2.0306 -0.9138 -0.2517
  174SAPS     P19758   1.644   2.951   3.796 -0.3179 -0.0410  0.5943
  174SAPS   O1319759   1.779   2.982   3.856 -0.4095 -0.4587  0.1760
  174SAPS   O1419760   1.557   3.064   3.762  0.2964 -0.8308 -0.2113
  174SAPS   O1219761   1.659   2.858   3.669  0.3788 -0.0194  0.3570
  174SAPS   O1119762   1.569   2.857   3.890 -0.2810  0.2137 -0.0149
  174SAPS    C119763   1.631   2.801   4.012  1.1217  0.2552 -0.2795
  174SAPS    HA19764   1.646   2.694   3.987 -2.3468 -0.2201 -0.8038
  174SAPS    HB19765   1.735   2.839   4.023  1.3269 -0.3793  0.0778
  174SAPS    C219766   1.532   2.798   4.134  0.9955 -0.1268 -0.4228
  174SAPS    HS19767   1.428   2.795   4.097  1.0328  2.3067 -0.8546
  174SAPS   O2119768   1.548   2.917   4.222 -0.5707  0.3506  0.1483
  174SAPS   C2119769   1.435   2.949   4.276  0.6604  0.3560  0.1374
  174SAPS   O2219770   1.327   2.888   4.255 -0.1435  0.0977 -0.2296
  174SAPS   C2219771   1.464   3.054   4.380 -0.2434 -0.0170  0.2379
  174SAPS   H2R19772   1.539   3.021   4.455 -0.1648 -1.9879 -0.6450
  174SAPS   H2S19773   1.500   3.146   4.328  1.7123 -0.3823  0.8525
  174SAPS    C319774   1.558   2.671   4.217  0.2441 -0.8806  0.1110
  174SAPS    HX19775   1.524   2.581   4.161 -0.5715 -0.8665  0.5652
  174SAPS    HY19776   1.494   2.678   4.308  1.7313 -1.5545  1.2538
  174SAPS   O3119777   1.695   2.656   4.247  0.4691 -0.4786 -0.4403
  174SAPS   C3119778   1.734   2.721   4.351 -0.0806 -0.2435  0.0384
  174SAPS   O3219779   1.665   2.778   4.432 -0.6370  0.2117  0.0412
  174SAPS   C3219780   1.887   2.727   4.342 -0.9295 -0.4772  0.4674
  174SAPS   H2X19781   1.921   2.833   4.339  0.3840 -0.8513  1.2743
  174SAPS   H2Y19782   1.923   2.677   4.250  2.5387  2.2900  0.1346
  174SAPS   C2319783   1.333   3.095   4.458  0.0253 -0.0175  0.0925
  174SAPS   H3R19784   1.307   3.003   4.515 -0.1927 -0.5244 -0.8099
  174SAPS   H3S19785   1.251   3.131   4.393  0.0960 -0.4323 -0.2308
  174SAPS   C2419786   1.354   3.201   4.565  0.7187  0.0912  0.6427
  174SAPS   H4R19787   1.401   3.292   4.522 -1.6272  1.7186  1.3305
  174SAPS   H4S19788   1.430   3.159   4.634  0.1045 -0.5928  0.9238
  174SAPS   C2519789   1.222   3.231   4.643 -0.7520  0.2509 -0.0493
  174SAPS   H5R19790   1.125   3.228   4.593 -2.6122  0.1043  3.2819
  174SAPS   C2619791   1.211   3.290   4.761 -0.3160  0.2752  0.5530
  174SAPS   H6R19792   1.108   3.297   4.801 -0.1868 -0.9779  1.1421
  174SAPS   C2719793   1.323   3.334   4.846  0.4937  0.0760  0.9687
  174SAPS   H7R19794   1.312   3.444   4.862 -0.4889 -0.2192  2.5006
  174SAPS   H7S19795   1.426   3.320   4.808 -0.2036  1.1872 -1.5250
  174SAPS   C2819796   1.307   3.271   4.981 -0.1730  0.4929 -0.6195
  174SAPS   H8R19797   1.279   3.165   4.976 -0.2359  0.3537  1.6616
  174SAPS   C2919798   1.311   3.336   5.100 -0.3923 -0.1682  0.0257
  174SAPS   H9R19799   1.318   3.280   5.194  0.0507  1.5085  1.0337
  174SAPS  C21019800   1.355   3.479   5.120 -0.1778 -0.1527  0.2687
  174SAPS  H10R19801   1.264   3.528   5.161  0.9658 -0.4271  3.4056
  174SAPS  H10S19802   1.375   3.529   5.023 -0.5319  0.2962  0.4191
  174SAPS  C21119803   1.474   3.496   5.207  0.2363  0.2649 -0.8364
  174SAPS  H11R19804   1.562   3.436   5.179 -0.8637 -2.5106  1.0952
  174SAPS  C21219805   1.489   3.571   5.319 -0.5757  0.3925  0.0552
  174SAPS  H12R19806   1.584   3.562   5.374 -0.1525 -0.8436 -0.8433
  174SAPS  C21319807   1.388   3.664   5.387 -0.0330 -1.2464  0.5033
  174SAPS  H13R19808   1.297   3.687   5.326  0.4037  0.1332  0.3343
  174SAPS  H13S19809   1.449   3.756   5.399 -1.5001 -0.0973 -0.4010
  174SAPS  C21419810   1.361   3.611   5.517  0.2331 -0.3232  0.4238
  174SAPS  H14R19811   1.282   3.537   5.500  1.9362 -1.5236 -3.0353
  174SAPS  C21519812   1.404   3.652   5.639 -0.2392  0.6705 -0.8762
  174SAPS  H15R19813   1.371   3.589   5.723  1.8695  0.4911 -0.1172
  174SAPS  C21619814   1.518   3.751   5.680 -0.3811  0.2759  0.2552
  174SAPS  H16R19815   1.559   3.784   5.583 -3.4985  0.5081 -1.1146
  174SAPS  H16S19816   1.590   3.703   5.750 -0.8621  0.1152  0.6476
  174SAPS  C21719817   1.471   3.879   5.757 -0.3581 -0.0269 -0.3050
  174SAPS  H17R19818   1.426   3.944   5.679 -0.1074 -0.0569 -0.4783
  174SAPS  H17S19819   1.567   3.928   5.784  0.7007 -2.5353  0.8261
  174SAPS  C21819820   1.387   3.853   5.879  0.3935 -0.3651  0.2836
  174SAPS  H18R19821   1.438   3.775   5.940  0.9840 -0.1307  0.0960
  174SAPS  H18S19822   1.283   3.824   5.854  1.0130 -2.0494 -0.4381
  174SAPS  C21919823   1.382   3.974   5.971  0.0514  0.2516  0.3007
  174SAPS  H19R19824   1.485   4.003   6.000  0.6216  1.8720 -2.8407
  174SAPS  H19S19825   1.339   3.938   6.067  2.9515 -2.1870  0.8622
  174SAPS  C22019826   1.323   4.101   5.902  0.3392  0.4037 -0.0379
  174SAPS  H20R19827   1.227   4.072   5.855  1.2814 -0.8302 -1.2751
  174SAPS  H20S19828   1.378   4.151   5.820 -0.5435  1.4233 -0.0179
  174SAPS  H20T19829   1.313   4.178   5.981  0.7042  2.5737 -2.0299
  174SAPS   C3319830   1.957   2.662   4.457  0.1564 -1.5992 -0.2726
  174SAPS   H3X19831   2.053   2.634   4.409  1.8337 -0.4432  2.1840
  174SAPS   H3Y19832   1.897   2.577   4.495  0.4308 -0.8493  2.0308
  174SAPS   C3419833   1.960   2.750   4.586 -0.2998  0.0728  0.3181
  174SAPS   H4X19834   1.859   2.753   4.634 -0.4390  1.6710 -0.0173
  174SAPS   H4Y19835   1.992   2.856   4.573 -0.5798  0.0468 -0.6389
  174SAPS   C3519836   2.056   2.695   4.690 -0.0860 -0.2393  0.1710
  174SAPS   H5X19837   2.120   2.780   4.721  0.5936  0.5277 -2.9595
  174SAPS   H5Y19838   2.122   2.617   4.646 -0.1821  0.1191 -0.6231
  174SAPS   C3619839   1.987   2.622   4.806  0.4059  0.2589 -0.0146
  174SAPS   H6X19840   2.055   2.543   4.845 -1.0883 -0.4706  1.2218
  174SAPS   H6Y19841   1.898   2.570   4.764  1.7558 -2.0304 -0.2184
  174SAPS   C3719842   1.953   2.709   4.926  0.3274  0.1877  0.8086
  174SAPS   H7X19843   1.892   2.794   4.888 -1.7383 -1.5231  0.1110
  174SAPS   H7Y19844   2.038   2.760   4.975 -1.1611  3.4994  0.2206
  174SAPS   C3819845   1.871   2.640   5.035  0.3174  0.5046  0.4569
  174SAPS   H8X19846   1.926   2.547   5.061  2.1634  0.9199 -1.6588
  174SAPS   H8Y19847   1.770   2.614   4.997  1.1227 -1.8356 -0.2693
  174SAPS   C3919848   1.866   2.731   5.159 -0.4281  0.2767  0.0021
  174SAPS   H9X19849   1.848   2.835   5.127 -0.8923  0.4738  0.8937
  174SAPS   H9Y19850   1.968   2.739   5.202 -0.0741 -0.9733 -0.5410
  174SAPS  C31019851   1.761   2.684   5.257  0.4553  0.0841 -0.4876
  174SAPS  H10X19852   1.781   2.578   5.284  0.0849  0.1298 -0.0140
  174SAPS  H10Y19853   1.666   2.687   5.201  0.7080 -0.9654 -1.0034
  174SAPS  C31119854   1.774   2.776   5.379  0.1412 -0.0517  0.1617
  174SAPS  H11X19855   1.740   2.879   5.354  0.4027  1.0991  3.9724
  174SAPS  H11Y19856   1.879   2.781   5.412  1.2825 -3.5783 -2.3413
  174SAPS  C31219857   1.677   2.732   5.496 -0.4742  0.1923  0.3525
  174SAPS  H12X19858   1.704   2.635   5.543  0.2825 -0.6838 -1.7495
  174SAPS  H12Y19859   1.577   2.721   5.449  0.3580  0.5446 -1.6031
  174SAPS  C31319860   1.668   2.839   5.607  0.0591  0.5461 -0.7856
  174SAPS  H13X19861   1.630   2.934   5.562  1.6613  0.9027 -1.4937
  174SAPS  H13Y19862   1.770   2.868   5.641 -0.5390  1.8712 -0.0602
  174SAPS  C31419863   1.594   2.787   5.731 -0.0940 -0.3999 -0.3925
  174SAPS  H14X19864   1.639   2.693   5.767 -0.2874 -0.4591 -0.3003
  174SAPS  H14Y19865   1.486   2.768   5.710  0.1432 -0.9303 -1.1629
  174SAPS  C31519866   1.590   2.900   5.843 -0.2988  0.2577 -0.0160
  174SAPS  H15X19867   1.548   2.997   5.809  1.3765  0.1031 -2.8699
  174SAPS  H15Y19868   1.692   2.928   5.878 -0.2266  1.2976 -1.0049
  174SAPS  C31619869   1.518   2.845   5.968 -0.2325 -0.6416  0.5722
  174SAPS  H16X19870   1.554   2.740   5.976 -0.2040 -0.6071  0.9043
  174SAPS  H16Y19871   1.412   2.824   5.940  0.1157 -1.5157 -0.1385
  174SAPS  C31719872   1.545   2.917   6.101  0.2868  0.0175  0.0281
  174SAPS  H17X19873   1.513   3.023   6.087  0.1098 -0.1857 -1.1843
  174SAPS  H17Y19874   1.651   2.899   6.127  0.1912 -2.9231 -1.2155
  174SAPS  C31819875   1.467   2.848   6.212 -0.4053  0.0870  0.2307
  174SAPS  H18X19876   1.361   2.829   6.187 -0.3145  0.4953 -0.4787
  174SAPS  H18Y19877   1.461   2.909   6.305 -0.2409 -0.7738  0.8130
  174SAPS  H18Z19878   1.513   2.747   6.220  5.1786  2.2702  0.4126
  175SAPS     N19879   3.637   0.706   3.662 -0.2536 -0.6866 -0.4174
  175SAPS   HN119880   3.688   0.795   3.645 -1.3812  0.5753  2.2742
  175SAPS   HN219881   3.568   0.737   3.733  0.7603 -1.7537  1.0647
  175SAPS   HN319882   3.695   0.632   3.706 -1.3168 -0.7709  0.9079
  175SAPS   C1219883   3.584   0.652   3.532 -0.3806 -0.1147 -0.4150
  175SAPS  H12A19884   3.527   0.565   3.556  0.6810 -0.7352 -0.0683
  175SAPS   C1319885   3.477   0.735   3.456 -0.3566 -0.5335  0.6145
  175SAPS  O13A19886   3.444   0.847   3.505 -0.8647  0.0440 -0.1072
  175SAPS  O13B19887   3.452   0.697   3.336  0.4069 -0.3870 -0.3914
  175SAPS   C1119888   3.699   0.604   3.447 -0.2053  0.1654  1.1932
  175SAPS  H11A19889   3.764   0.684   3.403  0.9851 -1.1967  0.3841
  175SAPS  H11B19890   3.659   0.550   3.359  2.7276 -0.6463  0.2353
  175SAPS     P19891   3.874   0.396   3.463 -0.1667  0.1116 -0.2913
  175SAPS   O1319892   3.851   0.265   3.539  0.3735 -0.7635 -0.0703
  175SAPS   O1419893   3.865   0.390   3.317 -0.1598  0.3413 -0.2040
  175SAPS   O1219894   3.778   0.511   3.519 -0.0973 -0.0137  0.8347
  175SAPS   O1119895   4.016   0.451   3.496 -1.0346  0.7700  0.0189
  175SAPS    C119896   4.048   0.550   3.590 -0.4197  0.0093 -0.0213
  175SAPS    HA19897   4.152   0.582   3.568 -0.4208 -0.9974 -1.6952
  175SAPS    HB19898   3.974   0.632   3.582 -0.8153 -0.2850  0.5282
  175SAPS    C219899   4.047   0.475   3.732  0.4844 -0.3182  0.0925
  175SAPS    HS19900   3.941   0.443   3.747  0.0979  0.7217 -0.3037
  175SAPS   O2119901   4.070   0.578   3.830 -0.1805  0.0138 -0.2467
  175SAPS   C2119902   3.966   0.645   3.876  0.0569 -0.3545 -0.3314
  175SAPS   O2219903   3.852   0.629   3.838  0.0960 -0.2915 -0.5416
  175SAPS   C2219904   4.024   0.747   3.965  0.0511 -0.8248 -0.3774
  175SAPS   H2R19905   4.081   0.818   3.901 -0.2703  1.6262  1.8789
  175SAPS   H2S19906   3.941   0.808   4.006  0.8978  1.2642 -1.6013
  175SAPS    C319907   4.143   0.360   3.755 -0.8862  0.3920  0.1242
  175SAPS    HX19908   4.243   0.392   3.791 -1.3743 -1.6805  3.8418
  175SAPS    HY19909   4.145   0.307   3.657 -1.6782 -1.1570  0.9049
  175SAPS   O3119910   4.095   0.272   3.862  0.0405  0.3662  0.0554
  175SAPS   C3119911   4.142   0.148   3.851  0.1644  0.7879  0.2903
  175SAPS   O3219912   4.228   0.114   3.771 -0.4071  0.5540 -0.3318
  175SAPS   C3219913   4.079   0.063   3.961 -0.0889  0.1596 -0.2219
  175SAPS   H2X19914   3.976   0.042   3.927 -0.1520 -0.1873  0.1797
  175SAPS   H2Y19915   4.068   0.115   4.059  0.1967 -0.6159  0.2324
  175SAPS   C2319916   4.107   0.683   4.073  0.0600  0.3489  0.0226
  175SAPS   H3R19917   4.135   0.770   4.136  1.0259  0.4457 -0.5240
  175SAPS   H3S19918   4.205   0.641   4.040 -0.9710 -1.2087 -1.1790
  175SAPS   C2419919   4.032   0.579   4.156 -0.3248  0.4986 -0.2379
  175SAPS   H4R19920   4.098   0.550   4.240 -1.4667 -3.2074 -0.4646
  175SAPS   H4S19921   4.036   0.500   4.078  4.3348  0.2857 -0.0400
  175SAPS   C2519922   3.885   0.608   4.192 -0.1407 -0.5148  0.3668
  175SAPS   H5R19923   3.811   0.574   4.118  1.1491  1.7893 -2.1591
  175SAPS   C2619924   3.854   0.672   4.306 -0.1909 -0.3428 -0.1067
  175SAPS   H6R19925   3.747   0.662   4.332 -0.4410  0.0904 -0.9170
  175SAPS   C2719926   3.951   0.718   4.416  0.4450 -0.2400 -0.1763
  175SAPS   H7R19927   4.048   0.752   4.373  2.0052  0.2018  3.3316
  175SAPS   H7S19928   3.973   0.627   4.474 -0.7201  0.3298  1.2147
  175SAPS   C2819929   3.890   0.834   4.500  0.0110  0.6188  0.1889
  175SAPS   H8R19930   3.818   0.901   4.450 -1.2264  1.3874  2.8386
  175SAPS   C2919931   3.900   0.853   4.632 -0.3661 -0.0358  0.9675
  175SAPS   H9R19932   3.827   0.923   4.676 -0.1022  0.1945  1.0383
  175SAPS  C21019933   3.984   0.768   4.726 -0.4267 -0.4327 -0.7176
  175SAPS  H10R19934   4.036   0.835   4.798  1.5000 -2.5420  0.0140
  175SAPS  H10S19935   4.067   0.720   4.670  1.6970  2.6135 -0.3961
  175SAPS  C21119936   3.898   0.669   4.799  0.9366 -0.3376 -1.2922
  175SAPS  H11R19937   3.858   0.589   4.735 -2.0059 -0.8430  1.0040
  175SAPS  C21219938   3.851   0.686   4.928  0.0945  0.9593  0.5139
  175SAPS  H12R19939   3.792   0.606   4.974  0.4245  1.4378  1.8365
  175SAPS  C21319940   3.893   0.783   5.038  0.3626  0.0818  0.6944
  175SAPS  H13R19941   4.001   0.755   5.046  0.9567  2.1066  0.3703
  175SAPS  H13S19942   3.840   0.742   5.127  0.2847 -2.1661 -0.3108
  175SAPS  C21419943   3.860   0.930   5.024  0.0906 -0.4060 -0.3249
  175SAPS  H14R19944   3.823   0.959   4.925  0.4631 -0.8514 -0.5994
  175SAPS  C21519945   3.843   1.009   5.137  0.5391  0.0826  0.0423
  175SAPS  H15R19946   3.818   1.114   5.117 -0.8747  0.4150  2.9699
  175SAPS  C21619947   3.862   0.973   5.283  0.3747  0.1102 -0.5020
  175SAPS  H16R19948   3.879   0.867   5.310  0.5616  0.7645  2.3393
  175SAPS  H16S19949   3.770   0.990   5.345  0.0088 -0.8818 -0.7554
  175SAPS  C21719950   3.981   1.056   5.332  0.4386 -0.3562  0.3931
  175SAPS  H17R19951   3.962   1.165   5.328 -0.6904 -0.5292 -3.4342
  175SAPS  H17S19952   4.068   1.035   5.267 -0.6873  2.0981 -2.1238
  175SAPS  C21819953   4.006   1.026   5.481  0.0874  0.2953  0.2234
  175SAPS  H18R19954   4.031   0.918   5.484  0.1031  0.2372 -1.2188
  175SAPS  H18S19955   3.913   1.047   5.538 -0.2510 -0.1541 -0.1661
  175SAPS  C21919956   4.121   1.103   5.541 -0.5190  0.1934  0.1460
  175SAPS  H19R19957   4.107   1.213   5.533 -1.4243  0.1481  0.9104
  175SAPS  H19S19958   4.214   1.074   5.488  0.2502 -1.2020  2.1367
  175SAPS  C22019959   4.146   1.080   5.694  0.3768  0.3134  0.6155
  175SAPS  H20R19960   4.078   1.142   5.757  0.3821  0.7094  0.2364
  175SAPS  H20S19961   4.252   1.100   5.720  0.0415  2.7663  0.3623
  175SAPS  H20T19962   4.137   0.974   5.724  1.8481  0.0655  0.2879
  175SAPS   C3319963   4.155  -0.064   3.991 -0.3286  0.2936 -0.3512
  175SAPS   H3X19964   4.263  -0.040   4.003 -0.2879  0.6494 -1.3362
  175SAPS   H3Y19965   4.140  -0.135   3.906  1.8857 -0.2464 -0.3467
  175SAPS   C3419966   4.105  -0.131   4.121 -0.5619 -0.2085  0.3720
  175SAPS   H4X19967   3.999  -0.162   4.108 -0.0707 -1.2132 -1.5639
  175SAPS   H4Y19968   4.113  -0.052   4.199  1.9605  0.2951 -0.3210
  175SAPS   C3519969   4.179  -0.251   4.167 -0.7653 -0.2485  0.3479
  175SAPS   H5X19970   4.289  -0.245   4.165 -0.7433 -0.8141 -0.5660
  175SAPS   H5Y19971   4.148  -0.334   4.100  0.9550 -0.2699 -0.4643
  175SAPS   C3619972   4.136  -0.285   4.312 -0.9086  0.3214 -0.2371
  175SAPS   H6X19973   4.153  -0.392   4.336  2.0542  1.2834  2.5768
  175SAPS   H6Y19974   4.027  -0.270   4.330 -1.0670 -0.5369 -0.4268
  175SAPS   C3719975   4.207  -0.213   4.432  0.6832  0.0911 -0.6008
  175SAPS   H7X19976   4.232  -0.107   4.410 -1.4588  0.7921  0.0809
  175SAPS   H7Y19977   4.300  -0.273   4.443  0.2234 -0.8166 -1.5762
  175SAPS   C3819978   4.124  -0.217   4.563  0.3546  0.5048 -0.5269
  175SAPS   H8X19979   4.081  -0.318   4.578 -1.9674  1.2481 -1.6819
  175SAPS   H8Y19980   4.044  -0.140   4.555 -0.8611 -0.4480  1.5740
  175SAPS   C3919981   4.217  -0.183   4.683 -0.4040  0.0197  0.0661
  175SAPS   H9X19982   4.247  -0.077   4.667  0.6543 -0.5173 -1.8211
  175SAPS   H9Y19983   4.312  -0.236   4.659 -1.1509 -0.7341 -1.3527
  175SAPS  C31019984   4.155  -0.207   4.819 -0.7800 -0.0057 -0.9215
  175SAPS  H10X19985   4.122  -0.313   4.812 -0.9614 -0.1284  1.1799
  175SAPS  H10Y19986   4.063  -0.147   4.834 -0.6670 -0.3237  1.4548
  175SAPS  C31119987   4.252  -0.190   4.943 -0.3519 -0.5460  0.1833
  175SAPS  H11X19988   4.289  -0.085   4.949 -0.6527 -0.5115  1.8362
  175SAPS  H11Y19989   4.332  -0.265   4.929  0.6670  0.6240 -0.4909
  175SAPS  C31219990   4.184  -0.238   5.070  0.3287  0.4971  0.1499
  175SAPS  H12X19991   4.260  -0.269   5.145 -0.7544  0.8431  1.4407
  175SAPS  H12Y19992   4.119  -0.327   5.054 -0.9692  1.5028 -0.3336
  175SAPS  C31319993   4.098  -0.131   5.139 -0.0475 -0.6075 -0.0459
  175SAPS  H13X19994   4.013  -0.112   5.071 -1.2694 -0.5688  1.4227
  175SAPS  H13Y19995   4.159  -0.038   5.146 -0.2828 -0.3545 -1.1710
  175SAPS  C31419996   4.053  -0.170   5.278 -0.2955 -0.0154  0.8240
  175SAPS  H14X19997   4.138  -0.183   5.350  1.2277  0.2705 -0.8555
  175SAPS  H14Y19998   4.007  -0.270   5.287  1.8277 -1.0136  1.3728
  175SAPS  C31519999   3.953  -0.067   5.336 -0.3843  0.3156  0.0608
  175SAPS  H15X20000   3.870  -0.056   5.263 -1.7752  1.5140  1.7553
  175SAPS  H15Y20001   3.995   0.036   5.336  0.8048 -0.1549  1.1225
  175SAPS  C31620002   3.897  -0.089   5.486  0.4247  0.3189 -0.0603
  175SAPS  H16X20003   3.835  -0.002   5.518  0.1199  0.2888 -0.5527
  175SAPS  H16Y20004   3.967  -0.103   5.571 -1.5397 -0.6726  1.5103
  175SAPS  C31720005   3.817  -0.211   5.504 -0.0247  0.8423  0.4604
  175SAPS  H17X20006   3.870  -0.307   5.484  0.4677  1.1631  0.2433
  175SAPS  H17Y20007   3.730  -0.200   5.435 -0.5636  0.4557  1.0624
  175SAPS  C31820008   3.754  -0.229   5.639 -0.1849  0.4292 -0.0548
  175SAPS  H18X20009   3.836  -0.263   5.705 -1.8735 -1.1889  1.3010
  175SAPS  H18Y20010   3.673  -0.305   5.631 -0.3062  0.6593 -1.1228
  175SAPS  H18Z20011   3.709  -0.134   5.675 -3.1354 -0.3808 -1.3241
  176SAPS     N20012   5.698   0.090   3.429  0.4849  0.2314  0.2083
  176SAPS   HN120013   5.802   0.089   3.426  0.6277  1.7251  2.1395
  176SAPS   HN220014   5.683   0.176   3.372  1.3517 -1.3017 -2.5243
  176SAPS   HN320015   5.668   0.101   3.528  3.6845 -0.4392  1.3727
  176SAPS   C1220016   5.630  -0.039   3.361  0.3570 -0.4524 -0.0910
  176SAPS  H12A20017   5.622  -0.117   3.435 -0.5733  0.1983  0.5232
  176SAPS   C1320018   5.490  -0.000   3.316 -0.3394  0.2634  0.6739
  176SAPS  O13A20019   5.455   0.124   3.320 -0.2582  0.1910  0.6557
  176SAPS  O13B20020   5.409  -0.085   3.268  0.3566 -0.2820  0.7205
  176SAPS   C1120021   5.714  -0.096   3.249 -0.6760 -0.4183 -0.0749
  176SAPS  H11A20022   5.726  -0.020   3.169 -1.4482  0.4542  0.6133
  176SAPS  H11B20023   5.662  -0.174   3.189  1.1083 -0.3194 -1.8420
  176SAPS     P20024   5.912  -0.275   3.251  0.0935  0.2983  0.1811
  176SAPS   O1320025   5.855  -0.339   3.129 -0.1774  0.2079 -0.6202
  176SAPS   O1420026   6.056  -0.255   3.253 -0.2607  0.0917 -0.1772
  176SAPS   O1220027   5.841  -0.137   3.292 -0.1940  0.2279  0.2677
  176SAPS   O1120028   5.890  -0.375   3.368 -0.0845 -0.4919 -0.0100
  176SAPS    C120029   5.777  -0.385   3.452  0.0402  0.2940 -0.0255
  176SAPS    HA20030   5.683  -0.338   3.416 -0.7926  0.6901  2.4625
  176SAPS    HB20031   5.759  -0.491   3.481  0.4502 -0.0590 -1.0272
  176SAPS    C220032   5.806  -0.323   3.591  0.4033  0.0846  0.1034
  176SAPS    HS20033   5.830  -0.216   3.575  1.3553 -0.4477 -2.5442
  176SAPS   O2120034   5.916  -0.397   3.649  0.3340 -0.4468 -0.2158
  176SAPS   C2120035   6.034  -0.348   3.636 -0.5046 -0.2602  0.4826
  176SAPS   O2220036   6.067  -0.236   3.595 -0.0163 -0.0859  0.3509
  176SAPS   C2220037   6.131  -0.441   3.707  0.2386 -0.5170  0.2915
  176SAPS   H2R20038   6.094  -0.546   3.703 -2.1009  0.2436 -0.0410
  176SAPS   H2S20039   6.224  -0.414   3.652 -0.6044 -1.2984 -1.6121
  176SAPS    C320040   5.678  -0.333   3.678  0.7137  0.2625  0.4528
  176SAPS    HX20041   5.652  -0.441   3.669  0.2447  0.3494  0.7400
  176SAPS    HY20042   5.595  -0.272   3.637 -0.8150 -2.4610 -0.7854
  176SAPS   O3120043   5.704  -0.289   3.810  0.6308 -0.0572 -1.0757
  176SAPS   C3120044   5.620  -0.344   3.905 -0.4048 -0.0249 -0.6979
  176SAPS   O3220045   5.509  -0.384   3.880  0.2536  0.2720  0.2106
  176SAPS   C3220046   5.682  -0.324   4.047 -0.2405 -0.4320 -0.8101
  176SAPS   H2X20047   5.700  -0.215   4.044 -0.3492 -0.3911 -0.2128
  176SAPS   H2Y20048   5.779  -0.378   4.056  0.6417  0.9148 -1.8525
  176SAPS   C2320049   6.148  -0.392   3.851  0.3045  0.6042 -0.4813
  176SAPS   H3R20050   6.194  -0.291   3.842  3.5787 -0.6681  0.5025
  176SAPS   H3S20051   6.219  -0.455   3.909 -1.0907 -1.1892 -0.6505
  176SAPS   C2420052   6.024  -0.423   3.939 -0.1305 -0.2447 -0.0867
  176SAPS   H4R20053   5.943  -0.364   3.891  0.5894  1.1400  0.3342
  176SAPS   H4S20054   6.063  -0.381   4.034  2.3947  1.4374 -1.7493
  176SAPS   C2520055   5.997  -0.574   3.960  0.9226 -0.4712 -0.5875
  176SAPS   H5R20056   5.964  -0.631   3.871  0.9268  1.4536 -1.8775
  176SAPS   C2620057   6.025  -0.654   4.065 -0.1046 -0.1350  0.5752
  176SAPS   H6R20058   6.004  -0.762   4.064  0.1916 -0.2140 -1.7440
  176SAPS   C2720059   6.072  -0.605   4.199 -0.3196 -0.9160 -0.3313
  176SAPS   H7R20060   5.992  -0.556   4.258 -0.5469 -0.8240 -0.7094
  176SAPS   H7S20061   6.139  -0.519   4.177  0.9180 -1.3517  1.5605
  176SAPS   C2820062   6.153  -0.699   4.285 -0.3003 -0.2148  0.5084
  176SAPS   H8R20063   6.240  -0.742   4.233  0.6588  0.7693  1.2447
  176SAPS   C2920064   6.136  -0.735   4.413  0.5998 -0.9777 -0.0526
  176SAPS   H9R20065   6.212  -0.786   4.473  1.0836 -0.3370 -0.1002
  176SAPS  C21020066   6.028  -0.682   4.506 -0.1797  0.0364  0.1690
  176SAPS  H10R20067   5.982  -0.586   4.473  0.4400  0.0123 -0.8186
  176SAPS  H10S20068   6.087  -0.653   4.596  1.3798  1.2527 -1.1541
  176SAPS  C21120069   5.920  -0.784   4.539 -0.2706  0.7872 -0.1096
  176SAPS  H11R20070   5.869  -0.832   4.453 -2.9726  0.1509  1.7084
  176SAPS  C21220071   5.875  -0.822   4.662  0.1105 -0.5482 -0.2016
  176SAPS  H12R20072   5.796  -0.899   4.663 -1.0695  0.4795 -3.0738
  176SAPS  C21320073   5.923  -0.771   4.796  0.0858 -0.5240 -0.4022
  176SAPS  H13R20074   5.971  -0.671   4.793 -1.7254  0.6488  3.3828
  176SAPS  H13S20075   5.994  -0.844   4.839 -2.8316 -1.5938  3.1345
  176SAPS  C21420076   5.808  -0.777   4.905 -0.0708  0.2343 -0.3090
  176SAPS  H14R20077   5.708  -0.758   4.864 -0.2179 -1.0365 -0.5724
  176SAPS  C21520078   5.817  -0.784   5.040 -0.4699 -0.2414 -0.2865
  176SAPS  H15R20079   5.723  -0.775   5.098 -0.8708 -1.6465 -0.6937
  176SAPS  C21620080   5.946  -0.811   5.117 -0.9515  0.2038 -0.3080
  176SAPS  H16R20081   6.035  -0.782   5.057 -0.5766  0.7572  0.4947
  176SAPS  H16S20082   5.959  -0.920   5.136 -1.4673 -0.3700 -2.9039
  176SAPS  C21720083   5.953  -0.730   5.247  0.1592  0.4060 -0.5461
  176SAPS  H17R20084   5.947  -0.623   5.218  0.8881  0.4221 -0.6592
  176SAPS  H17S20085   6.050  -0.748   5.298 -0.2376  0.1187  0.1193
  176SAPS  C21820086   5.836  -0.769   5.346  0.7545  0.3381  0.9326
  176SAPS  H18R20087   5.849  -0.879   5.346 -1.7314 -0.0792 -1.9037
  176SAPS  H18S20088   5.736  -0.754   5.301  1.5730 -0.2799 -1.2056
  176SAPS  C21920089   5.862  -0.714   5.493 -0.1814  0.3626  0.8845
  176SAPS  H19R20090   5.768  -0.698   5.550 -0.6879 -3.3556  1.3179
  176SAPS  H19S20091   5.897  -0.610   5.474 -0.7264  0.2620 -0.8688
  176SAPS  C22020092   5.958  -0.795   5.582 -0.7520 -0.1324 -0.9372
  176SAPS  H20R20093   6.059  -0.805   5.537  0.3998  2.2083  0.9125
  176SAPS  H20S20094   5.918  -0.895   5.612  1.2887 -0.6768  0.2298
  176SAPS  H20T20095   5.983  -0.742   5.676  1.8234 -2.0210 -0.4189
  176SAPS   C3320096   5.592  -0.364   4.163 -0.8327  0.6599 -1.0138
  176SAPS   H3X20097   5.543  -0.461   4.141 -2.6477  1.0806  0.8512
  176SAPS   H3Y20098   5.514  -0.286   4.178 -0.4011  1.6861 -3.4904
  176SAPS   C3420099   5.667  -0.392   4.295 -0.0649 -0.3382 -0.8025
  176SAPS   H4X20100   5.724  -0.300   4.320 -1.7878  0.1640  1.5444
  176SAPS   H4Y20101   5.741  -0.475   4.288  0.6085  0.1438  0.4296
  176SAPS   C3520102   5.576  -0.425   4.416 -0.1335 -1.0726  0.6959
  176SAPS   H5X20103   5.531  -0.524   4.397  0.1138 -0.8238 -1.3647
  176SAPS   H5Y20104   5.496  -0.350   4.431  0.6198 -0.1877  0.3884
  176SAPS   C3620105   5.664  -0.413   4.551  1.6225  0.7248  0.1945
  176SAPS   H6X20106   5.710  -0.314   4.570 -0.4961  2.0681 -1.1817
  176SAPS   H6Y20107   5.748  -0.483   4.537  0.4990 -1.1179  2.0671
  176SAPS   C3720108   5.590  -0.467   4.680  0.4648 -0.5990 -0.6376
  176SAPS   H7X20109   5.559  -0.573   4.667  2.2071 -1.5117  2.0012
  176SAPS   H7Y20110   5.506  -0.394   4.685  0.7184 -0.3759  0.6784
  176SAPS   C3820111   5.673  -0.457   4.810 -0.6095 -0.5930  0.1918
  176SAPS   H8X20112   5.728  -0.361   4.824 -0.8329 -0.4315 -0.0226
  176SAPS   H8Y20113   5.741  -0.544   4.825 -0.0492  0.1048  2.0738
  176SAPS   C3920114   5.576  -0.459   4.934  0.1746  0.3847  0.3056
  176SAPS   H9X20115   5.520  -0.555   4.941  0.0720  0.3715 -0.5965
  176SAPS   H9Y20116   5.495  -0.386   4.913  0.4459  1.6087  3.1307
  176SAPS  C31020117   5.641  -0.411   5.067 -0.5145 -0.1173  0.2389
  176SAPS  H10X20118   5.675  -0.306   5.051  0.2510 -0.2821  0.7219
  176SAPS  H10Y20119   5.736  -0.458   5.101 -0.5132 -0.2764  0.0140
  176SAPS  C31120120   5.542  -0.431   5.189 -0.3779  0.7189 -0.1310
  176SAPS  H11X20121   5.538  -0.535   5.226 -2.4863  1.0015  0.5743
  176SAPS  H11Y20122   5.438  -0.399   5.166 -1.0154 -2.5282 -2.4881
  176SAPS  C31220123   5.608  -0.367   5.313  0.0836 -0.1337 -0.2337
  176SAPS  H12X20124   5.619  -0.258   5.296 -2.0609 -0.0476 -1.4870
  176SAPS  H12Y20125   5.703  -0.423   5.329 -1.0600 -1.9725  0.4393
  176SAPS  C31320126   5.529  -0.386   5.447 -0.1089  0.5644  0.2936
  176SAPS  H13X20127   5.535  -0.490   5.485  2.3715  1.0005  1.3285
  176SAPS  H13Y20128   5.420  -0.372   5.431 -0.2110 -1.3221 -0.9098
  176SAPS  C31420129   5.576  -0.287   5.563 -0.3825  1.2610  0.0602
  176SAPS  H14X20130   5.573  -0.183   5.524 -1.3851  1.7379  1.3602
  176SAPS  H14Y20131   5.683  -0.309   5.582 -0.2355  1.4274 -0.5464
  176SAPS  C31520132   5.496  -0.298   5.693 -0.0115  0.3231  0.2523
  176SAPS  H15X20133   5.392  -0.278   5.661  0.3566  0.7438 -0.7062
  176SAPS  H15Y20134   5.514  -0.209   5.757 -0.6690  0.1000  0.7596
  176SAPS  C31620135   5.519  -0.421   5.789  0.7865 -0.2965  0.4871
  176SAPS  H16X20136   5.466  -0.509   5.749  2.4122 -1.8194  1.5335
  176SAPS  H16Y20137   5.475  -0.390   5.887  0.4566  0.8302  0.0038
  176SAPS  C31720138   5.657  -0.475   5.813  0.4514  0.2702 -0.4521
  176SAPS  H17X20139   5.721  -0.398   5.861  1.3601  0.3918 -1.8103
  176SAPS  H17Y20140   5.711  -0.500   5.719  0.8183  0.4407 -0.2895
  176SAPS  C31820141   5.661  -0.594   5.902 -0.5650  0.7558 -0.5674
  176SAPS  H18X20142   5.598  -0.679   5.868 -1.3118  1.2456 -0.4613
  176SAPS  H18Y20143   5.608  -0.580   5.999  0.1135  1.0120 -0.2290
  176SAPS  H18Z20144   5.767  -0.619   5.923 -0.9314  0.3121  0.8773
  177SAPS     N20145   1.693   4.901   3.512 -0.1716  0.2626 -0.3457
  177SAPS   HN120146   1.718   4.974   3.442  0.8593 -0.1930 -0.4722
  177SAPS   HN220147   1.598   4.880   3.475 -0.3347  0.4257 -0.0246
  177SAPS   HN320148   1.687   4.949   3.604 -1.7590  1.1647 -0.8697
  177SAPS   C1220149   1.756   4.770   3.493 -0.7217 -0.1560 -0.4703
  177SAPS  H12A20150   1.699   4.711   3.563 -0.2757 -0.9177 -0.7296
  177SAPS   C1320151   1.732   4.698   3.361  0.7046 -0.1273  0.9153
  177SAPS  O13A20152   1.681   4.759   3.263 -0.7906 -0.4751  0.4090
  177SAPS  O13B20153   1.779   4.582   3.347  0.4231  0.7769 -0.0546
  177SAPS   C1120154   1.908   4.762   3.538 -0.2697 -0.9844 -0.0403
  177SAPS  H11A20155   1.968   4.830   3.474 -0.2264 -1.6523 -0.7266
  177SAPS  H11B20156   1.944   4.658   3.523  0.0555 -0.9333  0.3791
  177SAPS     P20157   2.049   4.780   3.762 -0.3149 -0.0324 -0.1304
  177SAPS   O1320158   2.168   4.759   3.680  0.5436  0.1207  0.2923
  177SAPS   O1420159   2.062   4.884   3.863 -0.6584  0.1294  0.0741
  177SAPS   O1220160   1.921   4.794   3.676  0.6181 -0.0327  0.3199
  177SAPS   O1120161   2.032   4.650   3.845 -0.1000  0.4106  0.3204
  177SAPS    C120162   1.897   4.626   3.903 -0.1512  0.4697  0.9228
  177SAPS    HA20163   1.817   4.682   3.850  1.3027  0.9491 -0.8775
  177SAPS    HB20164   1.862   4.521   3.901  0.4044  0.2710  1.2784
  177SAPS    C220165   1.906   4.664   4.054  0.3206 -0.2689 -0.1158
  177SAPS    HS20166   1.912   4.775   4.056 -4.4864  0.2095 -0.5895
  177SAPS   O2120167   2.019   4.618   4.129 -0.0172  0.5760  0.0358
  177SAPS   C2120168   2.023   4.491   4.131  0.2678  0.3819  0.4477
  177SAPS   O2220169   1.950   4.408   4.080  0.3148  0.2051 -0.2331
  177SAPS   C2220170   2.145   4.452   4.213 -0.0666  0.6282  0.0734
  177SAPS   H2R20171   2.233   4.479   4.151 -0.6435  2.0940 -0.1293
  177SAPS   H2S20172   2.138   4.520   4.300 -3.3691 -1.1267  1.3776
  177SAPS    C320173   1.774   4.641   4.137 -0.8999  0.2775 -0.4929
  177SAPS    HX20174   1.733   4.539   4.122  0.6241 -0.6066  0.9872
  177SAPS    HY20175   1.705   4.722   4.106 -0.1955  1.4761  0.9250
  177SAPS   O3120176   1.798   4.643   4.283  0.8202  0.1458  0.7084
  177SAPS   C3120177   1.817   4.758   4.343 -0.2216 -0.1424 -0.1004
  177SAPS   O3220178   1.827   4.866   4.286 -0.3001 -0.3779  0.6925
  177SAPS   C3220179   1.842   4.734   4.495 -0.0742 -0.2135 -0.1419
  177SAPS   H2X20180   1.740   4.713   4.535  0.7420 -2.4680  0.9065
  177SAPS   H2Y20181   1.881   4.828   4.541 -0.7003 -1.3283  2.9334
  177SAPS   C2320182   2.143   4.301   4.252 -0.6933 -0.3958  0.1644
  177SAPS   H3R20183   2.132   4.237   4.162 -1.8204  1.6720 -1.2685
  177SAPS   H3S20184   2.067   4.291   4.332 -1.1572 -1.2126 -0.3639
  177SAPS   C2420185   2.281   4.266   4.316  0.2681  0.4668  0.0248
  177SAPS   H4R20186   2.305   4.340   4.395 -0.9007  0.7817  0.1132
  177SAPS   H4S20187   2.369   4.276   4.249  1.4280 -2.7740  0.8923
  177SAPS   C2520188   2.275   4.124   4.374 -0.2311 -0.4395  0.1410
  177SAPS   H5R20189   2.266   4.050   4.292 -0.7354 -0.7152  0.4420
  177SAPS   C2620190   2.259   4.089   4.502  0.6217  0.3851  0.6312
  177SAPS   H6R20191   2.278   3.982   4.521  0.3567  0.0166 -0.9992
  177SAPS   C2720192   2.263   4.172   4.620  0.2378 -0.1488 -0.0819
  177SAPS   H7R20193   2.286   4.276   4.587 -2.2719 -0.4037 -3.0867
  177SAPS   H7S20194   2.335   4.138   4.698  0.8200 -0.2085 -0.6332
  177SAPS   C2820195   2.118   4.178   4.659 -0.0014 -0.1597  0.2831
  177SAPS   H8R20196   2.048   4.178   4.574  0.1571  0.0179  0.1526
  177SAPS   C2920197   2.076   4.203   4.782  0.1599  0.6756 -0.5098
  177SAPS   H9R20198   1.966   4.200   4.793 -0.0568  0.7104 -2.3161
  177SAPS  C21020199   2.155   4.219   4.904 -0.2431  0.1659 -0.3048
  177SAPS  H10R20200   2.157   4.327   4.930 -0.8940  0.3302 -0.9211
  177SAPS  H10S20201   2.261   4.188   4.891 -0.3380 -1.1531  1.5902
  177SAPS  C21120202   2.102   4.146   5.026 -0.0163 -0.1599  0.0922
  177SAPS  H11R20203   2.065   4.044   5.007 -0.1801 -0.1954  0.5907
  177SAPS  C21220204   2.091   4.178   5.154 -0.0693 -0.5346  0.2384
  177SAPS  H12R20205   2.061   4.102   5.228 -0.0362 -0.5337  0.2528
  177SAPS  C21320206   2.131   4.314   5.223 -0.1916  0.6969  0.4442
  177SAPS  H13R20207   2.141   4.390   5.143 -3.8548  0.7531 -0.1583
  177SAPS  H13S20208   2.233   4.304   5.266 -0.0481 -2.0967 -0.3233
  177SAPS  C21420209   2.013   4.352   5.310  0.2885 -0.7886  0.8291
  177SAPS  H14R20210   1.931   4.381   5.243  1.6136  1.9582  0.2449
  177SAPS  C21520211   2.010   4.376   5.440 -0.0863  0.8751  0.2369
  177SAPS  H15R20212   1.922   4.424   5.485 -2.3065 -0.9009 -1.8821
  177SAPS  C21620213   2.129   4.374   5.528 -0.5977 -0.2549 -0.5097
  177SAPS  H16R20214   2.225   4.374   5.473  0.5450 -2.8597  1.2639
  177SAPS  H16S20215   2.121   4.284   5.593 -0.0694 -1.6981 -2.3719
  177SAPS  C21720216   2.125   4.502   5.622  0.2562  0.1913  0.4143
  177SAPS  H17R20217   2.033   4.502   5.686  0.3351  0.1632  0.5297
  177SAPS  H17S20218   2.124   4.584   5.548  0.8275 -2.4579 -2.7773
  177SAPS  C21820219   2.248   4.512   5.714 -0.0586 -0.5323 -0.2693
  177SAPS  H18R20220   2.245   4.619   5.741 -3.0742 -0.2304 -1.4677
  177SAPS  H18S20221   2.340   4.482   5.659  0.4011  0.1489  0.1160
  177SAPS  C21920222   2.230   4.432   5.848  0.1051 -0.2343  0.0199
  177SAPS  H19R20223   2.189   4.329   5.848  1.7650 -0.9299  1.0855
  177SAPS  H19S20224   2.151   4.489   5.902 -2.5766 -0.5320 -3.2910
  177SAPS  C22020225   2.362   4.437   5.930  0.2590  0.8162  0.0961
  177SAPS  H20R20226   2.407   4.533   5.897  0.8459  0.5082 -0.0296
  177SAPS  H20S20227   2.435   4.353   5.926 -1.7286 -1.0190  0.5598
  177SAPS  H20T20228   2.346   4.452   6.039 -1.2494  2.1258 -0.2852
  177SAPS   C3320229   1.944   4.621   4.510 -0.1959 -0.2070  0.2808
  177SAPS   H3X20230   2.045   4.653   4.474 -0.8815  0.2660 -1.3538
  177SAPS   H3Y20231   1.912   4.528   4.459 -2.2307 -0.7040  2.3403
  177SAPS   C3420232   1.972   4.574   4.659  0.2031  0.5776  0.6203
  177SAPS   H4X20233   2.040   4.486   4.654  1.1641  1.2596  1.2810
  177SAPS   H4Y20234   1.873   4.547   4.700 -0.4223 -2.7945 -2.6176
  177SAPS   C3520235   2.042   4.680   4.742 -0.4002 -0.0985  0.5125
  177SAPS   H5X20236   1.984   4.774   4.747  1.7857  1.3934 -0.2610
  177SAPS   H5Y20237   2.139   4.711   4.698 -1.4450  1.3693 -0.8546
  177SAPS   C3620238   2.087   4.643   4.888  0.1541  0.5653  0.4195
  177SAPS   H6X20239   2.148   4.551   4.878 -2.0831 -1.0647  0.8195
  177SAPS   H6Y20240   1.994   4.618   4.945 -1.4479  0.8653 -1.9121
  177SAPS   C3720241   2.173   4.750   4.951  0.7294 -0.2435  0.2647
  177SAPS   H7X20242   2.115   4.845   4.945  1.6774  0.3493  0.2616
  177SAPS   H7Y20243   2.263   4.758   4.886  0.0176  3.2238 -0.4935
  177SAPS   C3820244   2.210   4.719   5.099  0.4643  0.3243  0.2129
  177SAPS   H8X20245   2.291   4.643   5.112  1.4036  1.6476  2.9681
  177SAPS   H8Y20246   2.122   4.671   5.145  1.0967 -0.2915  0.8128
  177SAPS   C3920247   2.262   4.845   5.168 -0.4053  0.2444 -0.1124
  177SAPS   H9X20248   2.190   4.928   5.152  0.5471  1.0919 -0.0675
  177SAPS   H9Y20249   2.363   4.867   5.127 -0.4644  2.9805  0.9970
  177SAPS  C31020250   2.267   4.829   5.322 -0.7322  0.1842  0.2908
  177SAPS  H10X20251   2.353   4.760   5.340 -0.2156  1.3746  2.7602
  177SAPS  H10Y20252   2.184   4.767   5.361 -0.8581  0.4788  0.4887
  177SAPS  C31120253   2.283   4.961   5.398 -0.1881 -0.0966 -0.7154
  177SAPS  H11X20254   2.341   5.039   5.344 -1.0746  1.8474  1.0268
  177SAPS  H11Y20255   2.328   4.941   5.498 -1.9036 -0.0122  0.1057
  177SAPS  C31220256   2.144   5.014   5.436 -0.2944 -0.2460 -0.0719
  177SAPS  H12X20257   2.097   4.941   5.505  2.9562 -1.8260  0.7126
  177SAPS  H12Y20258   2.078   5.012   5.347 -0.2755 -0.8181 -0.0804
  177SAPS  C31320259   2.147   5.156   5.503  0.1732 -1.0346 -0.7993
  177SAPS  H13X20260   2.195   5.234   5.440  2.4780  0.6194  2.7113
  177SAPS  H13Y20261   2.193   5.160   5.604  0.8467  1.5608 -1.1550
  177SAPS  C31420262   2.002   5.211   5.522  0.1584 -0.5240 -0.3458
  177SAPS  H14X20263   1.941   5.175   5.436  0.8069 -0.1562 -0.9679
  177SAPS  H14Y20264   2.011   5.322   5.518  2.4015 -0.5366  1.7693
  177SAPS  C31520265   1.940   5.194   5.659 -0.1483 -0.2433  0.3146
  177SAPS  H15X20266   1.955   5.095   5.706 -0.2823 -0.0952  0.6818
  177SAPS  H15Y20267   1.829   5.203   5.650 -0.2485 -0.1952  1.3969
  177SAPS  C31620268   1.977   5.303   5.744 -0.9736 -0.2582 -0.3860
  177SAPS  H16X20269   1.930   5.399   5.713 -1.1816 -0.4830 -0.7654
  177SAPS  H16Y20270   2.084   5.327   5.731 -0.2741 -2.6245  0.5810
  177SAPS  C31720271   1.958   5.262   5.894 -0.3779  0.3647  0.0059
  177SAPS  H17X20272   2.002   5.339   5.961 -0.3494 -0.3748  0.8663
  177SAPS  H17Y20273   2.015   5.169   5.915  1.4643  1.7091  1.3408
  177SAPS  C31820274   1.816   5.242   5.948 -0.3427 -0.2771 -0.2098
  177SAPS  H18X20275   1.749   5.324   5.915 -2.8032 -0.9849  2.5824
  177SAPS  H18Y20276   1.816   5.250   6.059  1.8661 -0.5759 -0.1442
  177SAPS  H18Z20277   1.767   5.146   5.920 -0.2707 -0.6300  0.8373
  178SAPS     N20278   6.394   0.929   3.678  0.0454 -0.5037 -0.4714
  178SAPS   HN120279   6.296   0.920   3.713  0.0366  1.4364  0.1286
  178SAPS   HN220280   6.455   0.939   3.762 -0.6415 -1.3939  0.1422
  178SAPS   HN320281   6.396   1.013   3.616  1.4343 -0.2525 -0.1101
  178SAPS   C1220282   6.437   0.813   3.599  0.0490  0.2276  0.1336
  178SAPS  H12A20283   6.372   0.825   3.513  0.4262  4.8248  0.2470
  178SAPS   C1320284   6.579   0.817   3.547 -0.5424 -0.4359  1.2665
  178SAPS  O13A20285   6.647   0.922   3.558 -0.4466 -0.0395 -0.2684
  178SAPS  O13B20286   6.631   0.712   3.486  0.1470 -0.1599  0.6281
  178SAPS   C1120287   6.408   0.682   3.677 -0.2645 -1.1111 -0.0383
  178SAPS  H11A20288   6.489   0.670   3.752 -0.7452  1.7606  1.0752
  178SAPS  H11B20289   6.426   0.603   3.600 -0.5397  0.1314 -1.4391
  178SAPS     P20290   6.208   0.566   3.792  0.2347  0.3551 -0.4264
  178SAPS   O1320291   6.076   0.602   3.849 -0.4439 -0.1798 -0.7201
  178SAPS   O1420292   6.211   0.448   3.697  0.2490  0.1550  0.7264
  178SAPS   O1220293   6.281   0.688   3.731  0.5145 -0.2454  0.6806
  178SAPS   O1120294   6.312   0.519   3.910 -0.0410 -0.1325  0.1417
  178SAPS    C120295   6.328   0.622   4.017  0.0999  0.5725 -0.5788
  178SAPS    HA20296   6.396   0.702   3.980  0.2453  1.0072  0.5789
  178SAPS    HB20297   6.229   0.660   4.048 -1.9857 -3.2225 -2.0346
  178SAPS    C220298   6.387   0.562   4.148  0.3976  0.1167  0.5245
  178SAPS    HS20299   6.370   0.632   4.233  0.3800 -0.5754  1.1051
  178SAPS   O2120300   6.533   0.546   4.127 -0.2541  0.4396 -0.2157
  178SAPS   C2120301   6.599   0.667   4.133  0.0196  0.1039 -0.5596
  178SAPS   O2220302   6.547   0.776   4.165 -0.4848 -0.2527 -0.1703
  178SAPS   C2220303   6.739   0.640   4.076 -0.0061  0.0006  0.2675
  178SAPS   H2R20304   6.723   0.560   4.000 -2.1742  0.2577  0.4018
  178SAPS   H2S20305   6.772   0.734   4.028 -0.1786  0.6540  1.3984
  178SAPS    C320306   6.315   0.431   4.172 -0.8393  0.2636 -0.3099
  178SAPS    HX20307   6.370   0.403   4.264  1.9147 -0.6996 -2.1302
  178SAPS    HY20308   6.343   0.368   4.085  1.9184  1.6016 -0.5148
  178SAPS   O3120309   6.175   0.453   4.186 -0.1760  0.0666 -0.9511
  178SAPS   C3120310   6.146   0.483   4.314  0.1043 -1.0517  0.3759
  178SAPS   O3220311   6.221   0.491   4.408  0.1354  0.2158 -0.9642
  178SAPS   C3220312   6.000   0.519   4.324  0.3698  0.0524  0.3861
  178SAPS   H2X20313   5.928   0.440   4.293 -0.0784  0.8222 -0.5847
  178SAPS   H2Y20314   5.977   0.603   4.256  1.8486 -0.0314 -0.2362
  178SAPS   C2320315   6.848   0.596   4.176  0.4128 -0.1499 -0.2862
  178SAPS   H3R20316   6.862   0.666   4.261  2.9545  0.3530 -1.0291
  178SAPS   H3S20317   6.942   0.590   4.117 -0.5662  0.4505 -1.9485
  178SAPS   C2420318   6.830   0.458   4.246 -0.5471  0.3762 -0.3514
  178SAPS   H4R20319   6.728   0.465   4.289 -0.5507 -1.1540 -0.0583
  178SAPS   H4S20320   6.897   0.433   4.331 -0.9667  0.8607  0.1241
  178SAPS   C2520321   6.855   0.354   4.131  0.6391  0.1871  0.2649
  178SAPS   H5R20322   6.785   0.357   4.047  1.5991 -0.0469 -0.5652
  178SAPS   C2620323   6.955   0.269   4.117 -0.3638 -0.3973  0.5265
  178SAPS   H6R20324   6.948   0.197   4.034 -2.5166 -1.0747  1.2295
  178SAPS   C2720325   7.075   0.246   4.200  0.1604  0.4680 -0.2667
  178SAPS   H7R20326   7.088   0.312   4.288  1.5250  0.8501 -0.7181
  178SAPS   H7S20327   7.167   0.256   4.138 -0.8201  1.3976 -1.6171
  178SAPS   C2820328   7.073   0.110   4.254  0.5410  0.1024 -0.1025
  178SAPS   H8R20329   7.086   0.036   4.174  0.4853  0.2971 -0.2925
  178SAPS   C2920330   7.077   0.065   4.381  0.4003  1.1616  0.0364
  178SAPS   H9R20331   7.080  -0.045   4.390  0.8011  0.9163 -2.3952
  178SAPS  C21020332   7.074   0.154   4.509  0.4472 -0.4545 -0.2353
  178SAPS  H10R20333   6.967   0.182   4.524  0.5015  1.4369 -2.7884
  178SAPS  H10S20334   7.120   0.254   4.492 -0.9901  0.6444  1.8637
  178SAPS  C21120335   7.137   0.081   4.628  0.0505  0.2553 -0.4951
  178SAPS  H11R20336   7.219   0.010   4.604  0.7751  1.2668 -1.0887
  178SAPS  C21220337   7.080   0.078   4.749  0.6131  0.5608 -0.0311
  178SAPS  H12R20338   7.145   0.030   4.823 -1.0265 -2.9379 -0.6468
  178SAPS  C21320339   6.956   0.144   4.806 -0.5339  0.6502  0.3820
  178SAPS  H13R20340   6.898   0.056   4.842 -1.4286  0.8274 -0.5903
  178SAPS  H13S20341   6.897   0.195   4.727 -1.9878 -0.7922  0.4853
  178SAPS  C21420342   6.965   0.237   4.923 -0.2323  0.2982 -0.5431
  178SAPS  H14R20343   6.979   0.344   4.899  0.0195  0.4132  0.0937
  178SAPS  C21520344   6.956   0.199   5.050  0.4094 -0.3949 -0.5467
  178SAPS  H15R20345   6.970   0.283   5.120 -1.6561 -0.2705 -0.2185
  178SAPS  C21620346   6.931   0.057   5.107 -0.2034  0.0470  0.4234
  178SAPS  H16R20347   6.993  -0.006   5.040 -0.1498  2.4747 -2.0094
  178SAPS  H16S20348   6.827   0.023   5.094 -0.3357  0.5898 -0.0197
  178SAPS  C21720349   6.967   0.047   5.256 -0.5522  0.7216  0.6083
  178SAPS  H17R20350   6.919   0.123   5.321  1.2573  2.6570 -0.2193
  178SAPS  H17S20351   7.077   0.063   5.257 -0.6102  1.1199  1.5546
  178SAPS  C21820352   6.944  -0.094   5.301  0.1671  0.4907 -0.1595
  178SAPS  H18R20353   6.992  -0.157   5.224 -1.6524  0.5287 -1.3894
  178SAPS  H18S20354   6.836  -0.123   5.308 -0.1730  1.6809 -0.2684
  178SAPS  C21920355   7.024  -0.122   5.434 -0.2716  0.1312  0.6074
  178SAPS  H19R20356   6.971  -0.081   5.522 -0.4743  1.1928  0.0061
  178SAPS  H19S20357   7.123  -0.071   5.442  0.5574 -1.4475  1.0363
  178SAPS  C22020358   7.033  -0.280   5.453 -0.5512 -0.9714  0.4021
  178SAPS  H20R20359   7.056  -0.289   5.562  1.4317  0.2136  0.1372
  178SAPS  H20S20360   7.114  -0.308   5.382 -1.9316  0.0983 -1.6649
  178SAPS  H20T20361   6.939  -0.334   5.429 -1.1063  1.1377 -2.6921
  178SAPS   C3320362   5.972   0.572   4.469 -0.0167  0.4161 -0.8209
  178SAPS   H3X20363   5.867   0.605   4.479 -0.4192 -0.7814 -0.9479
  178SAPS   H3Y20364   6.040   0.652   4.503 -0.0536  0.1536 -0.1260
  178SAPS   C3420365   5.971   0.467   4.583  1.0773 -0.3125  1.3035
  178SAPS   H4X20366   6.064   0.407   4.586  1.2347 -0.2685 -1.0883
  178SAPS   H4Y20367   5.888   0.396   4.561  1.2673 -0.5773  1.4375
  178SAPS   C3520368   5.944   0.537   4.719  0.0563  0.1442 -0.0005
  178SAPS   H5X20369   5.868   0.617   4.707  1.1795  1.1792 -0.4348
  178SAPS   H5Y20370   6.039   0.591   4.737  0.4126  0.1390 -1.6445
  178SAPS   C3620371   5.902   0.446   4.839  0.4335 -0.0305 -0.1526
  178SAPS   H6X20372   5.968   0.359   4.857 -1.0710 -0.9979  0.8980
  178SAPS   H6Y20373   5.807   0.392   4.819  1.7406 -1.9573 -1.5640
  178SAPS   C3720374   5.897   0.526   4.968  0.4917 -0.1499  0.2486
  178SAPS   H7X20375   5.810   0.595   4.963  0.8945  0.4784  1.4280
  178SAPS   H7Y20376   5.984   0.592   4.989  2.6511 -1.6465 -3.1485
  178SAPS   C3820377   5.887   0.432   5.091 -0.7859  0.7064  0.0460
  178SAPS   H8X20378   5.969   0.358   5.080 -1.6853 -0.0130 -2.5381
  178SAPS   H8Y20379   5.795   0.373   5.071 -0.2294 -0.2111  0.1220
  178SAPS   C3920380   5.881   0.489   5.231  0.1143 -0.2268 -0.5606
  178SAPS   H9X20381   5.787   0.547   5.231  0.9958  1.2633  0.4415
  178SAPS   H9Y20382   5.973   0.548   5.250  0.3983 -1.2351  1.4942
  178SAPS  C31020383   5.869   0.368   5.326  0.1852 -0.6859 -0.0066
  178SAPS  H10X20384   5.956   0.300   5.306 -0.4930 -1.2241 -1.2138
  178SAPS  H10Y20385   5.777   0.313   5.298 -1.1933  1.5347  0.0207
  178SAPS  C31120386   5.856   0.410   5.474 -0.1042 -0.5140 -0.4961
  178SAPS  H11X20387   5.945   0.474   5.494  2.4393 -2.7494 -3.4819
  178SAPS  H11Y20388   5.858   0.315   5.532  1.9699 -0.5324 -0.5316
  178SAPS  C31220389   5.731   0.498   5.508 -0.8437 -0.2563 -0.3820
  178SAPS  H12X20390   5.640   0.451   5.466  0.3694 -1.6076 -1.5836
  178SAPS  H12Y20391   5.745   0.598   5.462 -1.2559 -0.3585 -0.7310
  178SAPS  C31320392   5.703   0.498   5.655  0.1505  0.1574 -0.5504
  178SAPS  H13X20393   5.804   0.493   5.702  1.2458  0.3978 -2.7469
  178SAPS  H13Y20394   5.650   0.406   5.687  2.3591 -0.9152  0.2407
  178SAPS  C31420395   5.638   0.625   5.713 -0.1554 -0.1900  0.1151
  178SAPS  H14X20396   5.530   0.624   5.687 -0.3941  1.5689  0.8959
  178SAPS  H14Y20397   5.677   0.715   5.662 -0.2545  0.0637  0.4796
  178SAPS  C31520398   5.648   0.628   5.864  0.0224  0.4633  0.4678
  178SAPS  H15X20399   5.755   0.616   5.893 -0.6909 -2.1588  2.3882
  178SAPS  H15Y20400   5.603   0.542   5.918  0.4458  1.5673  2.7155
  178SAPS  C31620401   5.594   0.756   5.937 -0.2564 -0.1132  0.0007
  178SAPS  H16X20402   5.485   0.768   5.917 -0.2296  2.5589  1.0362
  178SAPS  H16Y20403   5.632   0.850   5.891 -2.2332 -0.2243 -2.0614
  178SAPS  C31720404   5.628   0.745   6.081  0.4131  0.4075  0.3592
  178SAPS  H17X20405   5.738   0.736   6.096  0.2873 -0.5099  0.8782
  178SAPS  H17Y20406   5.584   0.655   6.131  1.5833 -0.7200 -0.5590
  178SAPS  C31820407   5.574   0.864   6.156 -0.1142  0.3823 -0.0381
  178SAPS  H18X20408   5.463   0.858   6.154 -0.1699  1.4439 -1.2739
  178SAPS  H18Y20409   5.607   0.956   6.102  1.9790  0.4814  1.3036
  178SAPS  H18Z20410   5.599   0.873   6.263 -2.8499 -0.1506  0.7256
  179SAPS     N20411   1.253   1.571   3.644 -0.0892  0.3901  0.3076
  179SAPS   HN120412   1.266   1.661   3.694  1.0736 -0.5772  1.8408
  179SAPS   HN220413   1.158   1.564   3.604  0.0683 -2.8539  0.2335
  179SAPS   HN320414   1.277   1.488   3.703  1.9186  0.7402  0.0783
  179SAPS   C1220415   1.350   1.554   3.524 -0.2677 -0.2635 -0.3764
  179SAPS  H12A20416   1.324   1.631   3.452 -0.7353 -0.0722 -0.0068
  179SAPS   C1320417   1.505   1.561   3.563  0.1346 -0.0554  0.1979
  179SAPS  O13A20418   1.544   1.614   3.670  0.4659 -0.5981  0.3702
  179SAPS  O13B20419   1.585   1.545   3.465 -0.1040 -0.6053  0.2753
  179SAPS   C1120420   1.337   1.409   3.470  0.1940  0.2472  0.4188
  179SAPS  H11A20421   1.375   1.330   3.538 -0.3866 -2.8322 -2.5292
  179SAPS  H11B20422   1.395   1.385   3.377 -0.0508  1.3019 -0.0211
  179SAPS     P20423   1.156   1.235   3.424 -0.0715  0.1246 -0.1372
  179SAPS   O1320424   1.005   1.219   3.415 -0.1663 -0.4209  0.4599
  179SAPS   O1420425   1.239   1.174   3.321  0.0190  0.2053  0.1017
  179SAPS   O1220426   1.197   1.387   3.443  0.0096 -0.4495 -0.2411
  179SAPS   O1120427   1.200   1.165   3.562 -0.3085 -0.4041 -0.2310
  179SAPS    C120428   1.108   1.112   3.660  0.5269 -0.7006  0.2203
  179SAPS    HA20429   1.011   1.083   3.616  1.4857 -1.2164 -1.6704
  179SAPS    HB20430   1.142   1.012   3.694  2.6407  0.0023  0.3675
  179SAPS    C220431   1.082   1.199   3.784 -1.1515 -0.5054 -0.3700
  179SAPS    HS20432   1.070   1.301   3.741 -2.8507 -0.9259 -0.9615
  179SAPS   O2120433   1.196   1.180   3.877 -0.1399 -0.4504  0.4999
  179SAPS   C2120434   1.301   1.260   3.871 -0.2322 -0.0502  0.9927
  179SAPS   O2220435   1.299   1.360   3.800 -0.0030 -0.6111  0.3336
  179SAPS   C2220436   1.415   1.224   3.967 -0.3032 -0.6789 -0.3872
  179SAPS   H2R20437   1.385   1.175   4.062  1.8454 -0.4850  0.4502
  179SAPS   H2S20438   1.481   1.155   3.910 -0.0079 -0.0519 -0.8203
  179SAPS    C320439   0.955   1.166   3.869  0.0940 -0.2203  0.6765
  179SAPS    HX20440   0.869   1.212   3.816 -0.2007  0.2210  1.5101
  179SAPS    HY20441   0.958   1.203   3.974  3.0866 -0.1727  0.6378
  179SAPS   O3120442   0.933   1.024   3.878 -0.1930  0.1746 -0.2440
  179SAPS   C3120443   0.973   0.962   3.984  0.1828  0.2308 -0.0139
  179SAPS   O3220444   1.047   1.000   4.077 -0.5583  0.0292  0.2211
  179SAPS   C3220445   0.910   0.815   3.987 -0.5649 -0.9500 -0.6129
  179SAPS   H2X20446   0.991   0.740   3.981 -0.2607 -0.5831 -1.1613
  179SAPS   H2Y20447   0.863   0.794   3.888  1.7585 -1.7435 -1.6088
  179SAPS   C2320448   1.490   1.348   4.018  0.2398 -0.1937  0.2262
  179SAPS   H3R20449   1.528   1.408   3.933  0.9770 -0.7937  0.1146
  179SAPS   H3S20450   1.575   1.309   4.078 -0.0591 -1.8971 -0.3953
  179SAPS   C2420451   1.396   1.444   4.092 -0.2584 -0.0276  0.0194
  179SAPS   H4R20452   1.352   1.389   4.178 -0.3628 -0.8744 -0.5610
  179SAPS   H4S20453   1.321   1.474   4.016 -0.6465 -0.9805  0.0037
  179SAPS   C2520454   1.487   1.554   4.143  0.0633 -0.8292  0.0459
  179SAPS   H5R20455   1.513   1.623   4.061 -0.3898 -1.1838 -0.4082
  179SAPS   C2620456   1.508   1.594   4.271 -0.4971 -0.2738 -0.3977
  179SAPS   H6R20457   1.568   1.685   4.283 -1.2701  0.0567  1.3370
  179SAPS   C2720458   1.456   1.529   4.399 -0.2479 -0.0251 -0.2550
  179SAPS   H7R20459   1.510   1.565   4.489  0.9931 -0.9498 -0.6111
  179SAPS   H7S20460   1.485   1.423   4.384  3.0593  0.9336 -1.4623
  179SAPS   C2820461   1.311   1.545   4.422  0.1759 -0.0151 -0.0568
  179SAPS   H8R20462   1.236   1.494   4.360 -1.8086  0.3209  1.9415
  179SAPS   C2920463   1.262   1.618   4.528 -0.6170 -0.4062  0.4468
  179SAPS   H9R20464   1.153   1.623   4.534 -0.7040 -1.1815 -0.3273
  179SAPS  C21020465   1.338   1.705   4.627  0.7081  0.2867  0.1667
  179SAPS  H10R20466   1.282   1.798   4.649 -0.8243 -0.5337 -0.0938
  179SAPS  H10S20467   1.432   1.745   4.583  2.0095 -2.0060  0.6797
  179SAPS  C21120468   1.366   1.632   4.757  0.5363  0.4950 -0.3489
  179SAPS  H11R20469   1.360   1.523   4.749  0.7592  0.5376 -1.2160
  179SAPS  C21220470   1.386   1.691   4.879  0.4120 -0.3845 -0.0767
  179SAPS  H12R20471   1.402   1.627   4.967  0.2730 -0.3513 -0.0267
  179SAPS  C21320472   1.386   1.837   4.904  0.0088  0.3143 -0.5347
  179SAPS  H13R20473   1.281   1.874   4.909  0.2649  1.0582 -0.5731
  179SAPS  H13S20474   1.438   1.890   4.821 -0.4698  0.3567 -0.8140
  179SAPS  C21420475   1.468   1.868   5.024  0.1928 -1.1082 -0.3428
  179SAPS  H14R20476   1.564   1.916   5.000  0.3662  1.1456  3.9173
  179SAPS  C21520477   1.433   1.866   5.155  0.2773 -0.1891 -0.4990
  179SAPS  H15R20478   1.511   1.884   5.229 -1.3246  1.2008  0.9417
  179SAPS  C21620479   1.301   1.809   5.206  0.1030 -0.1891 -0.3619
  179SAPS  H16R20480   1.307   1.716   5.265 -2.6670  1.5157  2.9621
  179SAPS  H16S20481   1.225   1.788   5.127  1.1337  0.6126 -1.6284
  179SAPS  C21720482   1.238   1.909   5.312 -0.0928  0.2058 -0.2822
  179SAPS  H17R20483   1.132   1.890   5.337  0.2141 -0.4793  0.5660
  179SAPS  H17S20484   1.240   2.010   5.265  1.2026 -0.1132 -0.9743
  179SAPS  C21820485   1.308   1.887   5.449  0.2513  0.2423  0.3910
  179SAPS  H18R20486   1.417   1.873   5.432  0.1186  0.5355 -0.7936
  179SAPS  H18S20487   1.264   1.796   5.496 -0.2366  0.6433  0.7282
  179SAPS  C21920488   1.294   2.013   5.549  0.0210  0.2071  0.8004
  179SAPS  H19R20489   1.188   2.042   5.566  0.1415  2.1227 -1.2235
  179SAPS  H19S20490   1.347   2.100   5.505 -1.1896  0.1030 -0.9976
  179SAPS  C22020491   1.357   1.981   5.682 -0.5859 -0.5585 -0.2791
  179SAPS  H20R20492   1.465   2.002   5.697  0.0220 -2.0250 -2.2133
  179SAPS  H20S20493   1.347   1.872   5.702  0.5749 -0.5797  0.2779
  179SAPS  H20T20494   1.295   2.040   5.754  0.3524 -0.5046  0.5004
  179SAPS   C3320495   0.803   0.797   4.092  0.3739  0.4857  0.8331
  179SAPS   H3X20496   0.772   0.692   4.075  2.2482  0.3311 -2.4031
  179SAPS   H3Y20497   0.719   0.869   4.085  1.2936  1.4201 -1.6285
  179SAPS   C3420498   0.861   0.802   4.231 -0.3634  0.2427 -0.1317
  179SAPS   H4X20499   0.888   0.907   4.258  0.6724 -0.2790  0.9769
  179SAPS   H4Y20500   0.951   0.740   4.211 -0.2708  0.9906 -2.2019
  179SAPS   C3520501   0.766   0.743   4.333  0.1185 -0.0565  0.6023
  179SAPS   H5X20502   0.751   0.637   4.306 -0.6624 -0.3610  2.1175
  179SAPS   H5Y20503   0.670   0.799   4.334  0.5940  0.8605  2.9035
  179SAPS   C3620504   0.823   0.752   4.468  0.2202 -0.5457  0.5790
  179SAPS   H6X20505   0.877   0.849   4.476  2.1294 -1.3959 -1.0701
  179SAPS   H6Y20506   0.904   0.677   4.482 -1.7342 -2.5877  1.3947
  179SAPS   C3720507   0.716   0.738   4.580  0.1020  0.4523 -0.1436
  179SAPS   H7X20508   0.655   0.646   4.571 -0.6318  0.9922 -0.9607
  179SAPS   H7Y20509   0.634   0.811   4.560 -0.4003  0.3926  1.5542
  179SAPS   C3820510   0.771   0.760   4.726  0.0884  0.4942  0.5807
  179SAPS   H8X20511   0.840   0.847   4.720 -2.4037  2.4605 -1.3591
  179SAPS   H8Y20512   0.830   0.672   4.761 -1.8062 -1.6047 -1.1977
  179SAPS   C3920513   0.660   0.776   4.835  0.4063 -0.3929 -0.0436
  179SAPS   H9X20514   0.590   0.690   4.822 -1.5652  0.4481  3.5677
  179SAPS   H9Y20515   0.599   0.868   4.827  1.1922  0.3175  1.5102
  179SAPS  C31020516   0.719   0.796   4.973  0.0423 -0.7331 -0.2356
  179SAPS  H10X20517   0.633   0.815   5.041 -0.2364 -0.9229 -0.5282
  179SAPS  H10Y20518   0.777   0.891   4.974  0.3226 -0.8952  1.4546
  179SAPS  C31120519   0.804   0.684   5.035  0.1708  0.1019 -0.5307
  179SAPS  H11X20520   0.913   0.691   5.015  0.1426  0.1394 -0.6722
  179SAPS  H11Y20521   0.771   0.585   4.998  0.8505  0.1545 -1.2960
  179SAPS  C31220522   0.776   0.683   5.183  0.0954 -0.7878  0.8631
  179SAPS  H12X20523   0.670   0.692   5.214 -0.5941 -0.7348 -1.3516
  179SAPS  H12Y20524   0.832   0.771   5.221  1.0029 -1.1877  0.4885
  179SAPS  C31320525   0.827   0.562   5.256  0.1785  0.0006  0.4926
  179SAPS  H13X20526   0.930   0.552   5.214 -1.0432 -0.1032 -2.7700
  179SAPS  H13Y20527   0.787   0.467   5.215  1.2548 -1.1654  2.0068
  179SAPS  C31420528   0.828   0.568   5.412 -0.4758  0.8239 -0.4386
  179SAPS  H14X20529   0.822   0.674   5.445  3.2976  0.2174  3.0362
  179SAPS  H14Y20530   0.923   0.518   5.443 -0.1079  1.4362 -0.5732
  179SAPS  C31520531   0.708   0.490   5.461 -0.0814  0.2462 -0.3722
  179SAPS  H15X20532   0.703   0.393   5.406 -0.7441  2.1388 -3.9726
  179SAPS  H15Y20533   0.615   0.545   5.435 -0.5519  0.2876  1.3359
  179SAPS  C31620534   0.706   0.479   5.607  0.2178 -0.6959 -0.6834
  179SAPS  H16X20535   0.804   0.446   5.647  0.4255 -0.1309 -0.7154
  179SAPS  H16Y20536   0.629   0.405   5.637  2.0870 -2.5224 -0.2020
  179SAPS  C31720537   0.658   0.611   5.674 -0.9602  0.2317 -0.3521
  179SAPS  H17X20538   0.556   0.638   5.641 -0.3961  0.6351 -1.8199
  179SAPS  H17Y20539   0.717   0.700   5.643  0.4502 -0.5887 -0.0992
  179SAPS  C31820540   0.656   0.603   5.830  0.4801  0.0933  0.4370
  179SAPS  H18X20541   0.630   0.702   5.874 -1.0050 -0.0707 -0.0106
  179SAPS  H18Y20542   0.759   0.568   5.852  0.6142 -1.0685 -1.7075
  179SAPS  H18Z20543   0.588   0.522   5.864  0.2438  1.0838  2.4398
  180SAPS     N20544   1.488   2.320   3.164 -0.1806  0.1076 -0.3444
  180SAPS   HN120545   1.508   2.222   3.137  0.7990  0.3282 -0.4722
  180SAPS   HN220546   1.450   2.370   3.082  0.8273  0.0318 -0.8720
  180SAPS   HN320547   1.581   2.356   3.192  0.2506 -0.6016 -0.8340
  180SAPS   C1220548   1.389   2.324   3.273  0.3045  0.0500 -0.0963
  180SAPS  H12A20549   1.383   2.426   3.309  1.9331  0.3965 -0.7168
  180SAPS   C1320550   1.251   2.277   3.216 -0.2047  0.1225  0.1937
  180SAPS  O13A20551   1.236   2.263   3.093 -0.0576 -0.0108 -0.2808
  180SAPS  O13B20552   1.154   2.272   3.296  0.3972  0.4662  0.4422
  180SAPS   C1120553   1.429   2.233   3.389 -0.2837  0.5526  0.2941
  180SAPS  H11A20554   1.412   2.127   3.360 -0.7861  0.3550  1.2417
  180SAPS  H11B20555   1.365   2.242   3.480 -0.8724  0.5869 -0.1144
  180SAPS     P20556   1.626   2.148   3.530  0.1071  0.3393 -0.0648
  180SAPS   O1320557   1.595   2.011   3.478 -0.0209 -0.2542 -0.0316
  180SAPS   O1420558   1.774   2.171   3.540  0.6807 -0.0766 -0.1040
  180SAPS   O1220559   1.561   2.257   3.433  0.4118  0.4131  0.2064
  180SAPS   O1120560   1.547   2.183   3.669 -0.4167 -0.2832 -0.3733
  180SAPS    C120561   1.575   2.095   3.782  0.2550 -0.2832 -0.5720
  180SAPS    HA20562   1.673   2.042   3.781  0.2684 -0.2638 -0.3898
  180SAPS    HB20563   1.584   2.154   3.876  1.2417 -0.2638 -0.6605
  180SAPS    C220564   1.477   1.971   3.792 -0.2104 -0.2507  0.6469
  180SAPS    HS20565   1.469   1.908   3.701  0.4092 -1.6757  1.5284
  180SAPS   O2120566   1.345   2.014   3.833 -0.3033 -0.2710  0.2651
  180SAPS   C2120567   1.258   1.916   3.825 -0.0492 -0.0714 -0.0692
  180SAPS   O2220568   1.275   1.801   3.792 -0.4385  0.6437 -0.7386
  180SAPS   C2220569   1.119   1.966   3.865  0.5436  0.3643  0.0664
  180SAPS   H2R20570   1.119   2.031   3.955 -1.9804  1.5537 -0.6775
  180SAPS   H2S20571   1.073   2.029   3.786 -2.7139  0.5898  1.9538
  180SAPS    C320572   1.537   1.879   3.905 -0.4950 -0.3479 -0.0198
  180SAPS    HX20573   1.645   1.858   3.890 -0.5183 -2.6617  2.3591
  180SAPS    HY20574   1.489   1.779   3.899  0.8268 -1.0048  0.1569
  180SAPS   O3120575   1.520   1.929   4.041 -0.1235  0.5553  0.0276
  180SAPS   C3120576   1.633   1.981   4.097 -0.0995 -0.5282 -0.9177
  180SAPS   O3220577   1.744   1.979   4.046  0.0971 -0.2109 -0.0363
  180SAPS   C3220578   1.605   2.017   4.249  0.3786  0.2021 -0.1920
  180SAPS   H2X20579   1.683   1.963   4.306  1.1325  2.0825  0.6656
  180SAPS   H2Y20580   1.507   1.974   4.280  0.7639  0.4873  1.5668
  180SAPS   C2320581   1.021   1.848   3.882  1.0572  0.7157  0.0101
  180SAPS   H3R20582   1.016   1.792   3.786 -2.7012 -0.9417  0.9867
  180SAPS   H3S20583   0.920   1.891   3.899  0.0771 -0.6834 -1.8052
  180SAPS   C2420584   1.058   1.747   4.004  0.6506  0.3704 -0.4761
  180SAPS   H4R20585   1.051   1.802   4.101 -1.0547 -0.1600 -0.2699
  180SAPS   H4S20586   1.159   1.701   4.004  0.3692 -0.4552  2.2970
  180SAPS   C2520587   0.959   1.632   3.999 -0.2295 -0.4725  0.6402
  180SAPS   H5R20588   0.928   1.611   3.895  0.6848  0.0374  0.2513
  180SAPS   C2620589   0.889   1.578   4.098  0.7648  0.0034 -1.4152
  180SAPS   H6R20590   0.820   1.495   4.078  0.1202  0.3927 -0.8525
  180SAPS   C2720591   0.914   1.599   4.248 -0.4511 -0.0711  0.4196
  180SAPS   H7R20592   1.008   1.658   4.255  0.9161 -1.9749 -0.8289
  180SAPS   H7S20593   0.926   1.501   4.299  0.6762  0.2835  0.8686
  180SAPS   C2820594   0.813   1.689   4.307  0.2581  0.0351  0.2258
  180SAPS   H8R20595   0.784   1.774   4.243 -0.0514  0.4904  0.9542
  180SAPS   C2920596   0.756   1.672   4.428  0.5983 -0.1552  0.2150
  180SAPS   H9R20597   0.685   1.754   4.452 -0.9483 -0.9815 -1.3438
  180SAPS  C21020598   0.770   1.559   4.525  0.6078  0.3497 -0.5503
  180SAPS  H10R20599   0.765   1.468   4.462 -1.6031  0.9674 -1.3784
  180SAPS  H10S20600   0.685   1.546   4.596  0.7026 -0.5390 -0.5931
  180SAPS  C21120601   0.892   1.581   4.612  0.6007  0.4763 -0.6993
  180SAPS  H11R20602   0.966   1.505   4.585  0.7822  1.4077 -3.0949
  180SAPS  C21220603   0.918   1.672   4.706  0.2985  0.4988 -0.3203
  180SAPS  H12R20604   1.018   1.672   4.752  1.6231  0.1058 -2.9807
  180SAPS  C21320605   0.827   1.778   4.758 -0.4411 -0.7483 -0.7343
  180SAPS  H13R20606   0.728   1.770   4.709 -1.1323  0.5432  0.3999
  180SAPS  H13S20607   0.868   1.879   4.737  1.4083 -1.0313  1.1565
  180SAPS  C21420608   0.793   1.770   4.904 -0.6448 -0.4337 -0.2067
  180SAPS  H14R20609   0.748   1.677   4.942 -0.6253  0.6343  2.6982
  180SAPS  C21520610   0.816   1.864   4.999  0.0139 -0.4572  0.1749
  180SAPS  H15R20611   0.791   1.846   5.105  0.8125 -0.0970  0.4353
  180SAPS  C21620612   0.901   1.989   4.990  0.0513 -0.1051 -0.2239
  180SAPS  H16R20613   0.831   2.062   4.943 -0.5490 -1.3050 -1.2615
  180SAPS  H16S20614   0.986   1.979   4.920 -0.9968  0.6080 -1.6767
  180SAPS  C21720615   0.938   2.045   5.123 -0.3696 -0.2786 -0.1093
  180SAPS  H17R20616   1.016   2.122   5.102  1.2310 -1.5704  0.7753
  180SAPS  H17S20617   0.977   1.966   5.192  0.2867 -0.6014 -0.8367
  180SAPS  C21820618   0.839   2.136   5.202  0.0973  0.8137  0.6491
  180SAPS  H18R20619   0.752   2.067   5.212  0.1869  0.6024  0.0009
  180SAPS  H18S20620   0.813   2.236   5.161  0.8985  0.8811  0.2731
  180SAPS  C21920621   0.898   2.157   5.338  0.0157  0.1645  0.0639
  180SAPS  H19R20622   0.982   2.229   5.334 -0.2935  0.5586  0.4278
  180SAPS  H19S20623   0.938   2.062   5.380  0.1813  0.4429  0.5400
  180SAPS  C22020624   0.800   2.210   5.451 -0.6100 -0.5024  0.2909
  180SAPS  H20R20625   0.847   2.259   5.538 -2.0914  0.6216  0.4965
  180SAPS  H20S20626   0.728   2.273   5.393 -0.6233 -1.1988 -0.4634
  180SAPS  H20T20627   0.743   2.120   5.483  0.4553 -0.6204  1.9504
  180SAPS   C3320628   1.604   2.167   4.274 -0.3638 -0.1677  0.9216
  180SAPS   H3X20629   1.524   2.197   4.344 -0.3907 -0.6798  1.1091
  180SAPS   H3Y20630   1.588   2.224   4.180 -0.4473 -1.0491  0.3927
  180SAPS   C3420631   1.737   2.216   4.346  0.1238 -0.2686  0.0668
  180SAPS   H4X20632   1.820   2.206   4.273  0.1379 -0.0582  0.0532
  180SAPS   H4Y20633   1.753   2.140   4.426  0.0891 -0.2771  0.0660
  180SAPS   C3520634   1.736   2.357   4.395 -0.2234 -0.1139 -0.2336
  180SAPS   H5X20635   1.719   2.427   4.311  1.3416  0.0501 -0.4500
  180SAPS   H5Y20636   1.839   2.379   4.432 -0.1490  0.4136 -0.7518
  180SAPS   C3620637   1.648   2.398   4.520  0.2718  0.3746 -0.4253
  180SAPS   H6X20638   1.544   2.363   4.504  0.0750  0.1539  1.1376
  180SAPS   H6Y20639   1.639   2.508   4.522 -0.0507  0.4241 -2.5014
  180SAPS   C3720640   1.708   2.338   4.654  0.0671 -0.4613  1.0243
  180SAPS   H7X20641   1.818   2.353   4.650  0.6540 -4.0257 -0.5615
  180SAPS   H7Y20642   1.696   2.229   4.635  0.1906  0.0130 -2.3072
  180SAPS   C3820643   1.645   2.371   4.791 -0.2233  0.1786  0.3535
  180SAPS   H8X20644   1.539   2.337   4.783  0.1740 -0.8898 -0.6343
  180SAPS   H8Y20645   1.632   2.481   4.804  0.1309  0.2602  0.0480
  180SAPS   C3920646   1.716   2.304   4.908 -0.5271  0.4315  0.0942
  180SAPS   H9X20647   1.822   2.334   4.919 -0.3972  0.1084 -0.2152
  180SAPS   H9Y20648   1.719   2.194   4.888 -0.4374  0.4264  0.1354
  180SAPS  C31020649   1.648   2.330   5.043 -0.0863 -0.0769 -0.6731
  180SAPS  H10X20650   1.550   2.278   5.032 -1.4199  2.2748 -0.5925
  180SAPS  H10Y20651   1.617   2.435   5.060  1.9844  0.3627  0.7883
  180SAPS  C31120652   1.731   2.288   5.164  0.0966  0.6095  0.3569
  180SAPS  H11X20653   1.685   2.340   5.251 -1.5839  3.0900 -1.8453
  180SAPS  H11Y20654   1.833   2.331   5.162 -0.3675  1.7162 -0.0178
  180SAPS  C31220655   1.717   2.135   5.177 -0.0726 -0.2094  0.1945
  180SAPS  H12X20656   1.754   2.080   5.088  0.9578  1.7225 -0.6278
  180SAPS  H12Y20657   1.610   2.108   5.173  0.0955 -0.9810  0.7144
  180SAPS  C31320658   1.786   2.083   5.308  0.1224 -0.0462  0.1163
  180SAPS  H13X20659   1.768   2.159   5.387  2.3563  2.1945 -1.3746
  180SAPS  H13Y20660   1.897   2.086   5.307  0.2833  0.8913  4.1639
  180SAPS  C31420661   1.744   1.946   5.355  0.0812 -0.2666 -0.2222
  180SAPS  H14X20662   1.735   1.867   5.277  0.9094  0.1594 -0.7699
  180SAPS  H14Y20663   1.640   1.946   5.394  0.2219 -2.7924  0.2777
  180SAPS  C31520664   1.837   1.891   5.468  0.6200  0.3245 -0.7202
  180SAPS  H15X20665   1.816   1.939   5.566  0.7017  0.3750 -0.7270
  180SAPS  H15Y20666   1.944   1.915   5.450  0.6450  1.7981  1.0691
  180SAPS  C31620667   1.811   1.734   5.471  0.8134  0.2296 -0.2179
  180SAPS  H16X20668   1.846   1.690   5.375  0.0030  0.9326 -0.8560
  180SAPS  H16Y20669   1.701   1.732   5.485  0.5443  3.6862 -0.7889
  180SAPS  C31720670   1.890   1.657   5.579 -0.8267  0.7262 -0.2285
  180SAPS  H17X20671   1.861   1.549   5.581  0.6644  0.3057  1.6988
  180SAPS  H17Y20672   1.863   1.708   5.674 -0.0393  0.7098  0.0066
  180SAPS  C31820673   2.038   1.673   5.551  0.0937 -0.2994  0.4688
  180SAPS  H18X20674   2.104   1.611   5.616 -1.1200  0.5282  2.5904
  180SAPS  H18Y20675   2.077   1.776   5.562  2.9015 -0.6662 -3.6224
  180SAPS  H18Z20676   2.068   1.652   5.446 -2.7165  0.7300 -0.6161
  181POPC     N20677   1.477   3.456   8.506 -0.0637  0.4077  0.0954
  181POPC   C1220678   1.377   3.567   8.506 -0.0726  0.0370  0.1074
  181POPC  H12A20679   1.318   3.565   8.597 -1.1048 -1.4835 -0.5455
  181POPC  H12B20680   1.290   3.550   8.445  0.2309  0.0396 -0.3301
  181POPC   C1320681   1.404   3.324   8.534  0.1012 -0.0720  0.8417
  181POPC  H13A20682   1.479   3.248   8.516  0.8750  0.5465  1.3978
  181POPC  H13B20683   1.376   3.309   8.637 -0.7781 -0.2512  0.5887
  181POPC  H13C20684   1.327   3.298   8.463  0.6001 -1.5606  0.8206
  181POPC   C1420685   1.539   3.446   8.372  0.0963 -0.1628  0.5640
  181POPC  H14A20686   1.470   3.461   8.290 -1.5484 -2.8998  1.3282
  181POPC  H14B20687   1.615   3.522   8.364  0.8676 -0.8882  0.9402
  181POPC  H14C20688   1.594   3.355   8.360 -2.1623 -1.7242  1.3199
  181POPC   C1520689   1.580   3.482   8.612 -0.0754  0.3623  0.8230
  181POPC  H15A20690   1.530   3.524   8.698 -1.9046  0.4996 -0.2460
  181POPC  H15B20691   1.666   3.544   8.589 -1.7344  2.2789 -0.6215
  181POPC  H15C20692   1.619   3.386   8.643 -0.8078 -0.1710  0.1418
  181POPC   C1120693   1.424   3.712   8.482  0.3114 -0.3474 -0.0025
  181POPC  H11A20694   1.516   3.734   8.541  1.7790 -0.3942 -2.1830
  181POPC  H11B20695   1.343   3.780   8.516  0.6653 -0.5962  1.4373
  181POPC     P20696   1.341   3.758   8.235 -0.0651 -0.4208  0.3941
  181POPC   O1320697   1.355   3.900   8.200  0.3371 -0.0427  0.2769
  181POPC   O1420698   1.210   3.711   8.291  0.0853 -0.1213 -0.4452
  181POPC   O1220699   1.455   3.725   8.344  0.4085 -0.0362 -0.0541
  181POPC   O1120700   1.393   3.667   8.114  0.2565 -0.6463 -0.2277
  181POPC    C120701   1.535   3.657   8.093 -0.1381 -0.4045  0.5239
  181POPC    HA20702   1.576   3.566   8.142 -2.4163 -0.5853  2.2739
  181POPC    HB20703   1.583   3.749   8.131 -3.0416  0.8207  1.5001
  181POPC    C220704   1.576   3.641   7.950 -0.9022 -0.6659  0.6467
  181POPC    HS20705   1.533   3.724   7.890 -0.1212 -2.6675 -2.9178
  181POPC   O2120706   1.548   3.509   7.891 -0.3044 -0.0566 -0.0798
  181POPC   C2120707   1.462   3.511   7.797 -0.1770  0.1979 -0.0163
  181POPC   O2220708   1.395   3.609   7.759 -0.2558  0.0490  0.2007
  181POPC   C2220709   1.456   3.375   7.724 -0.3674 -0.4799 -0.9322
  181POPC   H2R20710   1.370   3.320   7.767  0.8912 -1.6999  0.1281
  181POPC   H2S20711   1.551   3.321   7.744  0.1559  0.9847  0.8872
  181POPC    C320712   1.736   3.656   7.943  0.7673  0.4087 -0.8225
  181POPC    HX20713   1.781   3.565   7.987  1.3375  0.6215 -0.9516
  181POPC    HY20714   1.762   3.736   8.016 -3.1501  1.0175  0.1320
  181POPC   O3120715   1.784   3.680   7.806  1.1594  0.4320  0.1631
  181POPC   C3120716   1.757   3.801   7.764 -0.3965  0.2503 -0.1944
  181POPC   O3220717   1.744   3.899   7.831 -0.1271 -0.3969  0.3833
  181POPC   C3220718   1.730   3.806   7.608  0.2261 -0.8685  0.3539
  181POPC   H2X20719   1.653   3.729   7.588 -0.2156 -0.9557  2.2452
  181POPC   H2Y20720   1.821   3.783   7.548  0.0323  0.4782 -0.4985
  181POPC   C2320721   1.446   3.372   7.569  1.2189 -0.4356 -0.0186
  181POPC   H3R20722   1.343   3.396   7.537  0.7905 -1.6754  0.4109
  181POPC   H3S20723   1.467   3.267   7.539  0.1736 -0.1199 -1.9834
  181POPC   C2420724   1.538   3.472   7.506 -0.6390 -0.0557  0.7239
  181POPC   H4R20725   1.502   3.574   7.532 -4.1300 -0.5020 -1.6456
  181POPC   H4S20726   1.521   3.456   7.398  0.0520 -0.6810  0.6987
  181POPC   C2520727   1.695   3.460   7.518  0.4221  0.5085 -0.9615
  181POPC   H5R20728   1.720   3.352   7.517  0.0622  0.3873  0.6425
  181POPC   H5S20729   1.733   3.498   7.615  0.8589 -0.5549 -0.6982
  181POPC   C2620730   1.787   3.508   7.408 -0.2127 -0.4432  0.2607
  181POPC   H6R20731   1.791   3.618   7.396  1.5794 -0.4107  0.8929
  181POPC   H6S20732   1.757   3.477   7.306 -0.8158 -0.6609  0.4953
  181POPC   C2720733   1.933   3.457   7.417 -0.4369 -0.0812 -0.1395
  181POPC   H7R20734   1.932   3.347   7.433  0.7199 -0.0991 -0.1197
  181POPC   H7S20735   1.981   3.512   7.501  1.6548 -1.2716 -0.4911
  181POPC   C2820736   2.017   3.488   7.291  0.2352 -0.0668 -0.7640
  181POPC   H8R20737   1.995   3.590   7.251  0.0388 -0.7994 -2.6357
  181POPC   H8S20738   1.981   3.416   7.214  0.4260 -0.7403 -0.2296
  181POPC   C2920739   2.167   3.467   7.312  0.2311 -0.2607 -0.0954
  181POPC   H9120740   2.197   3.510   7.408  0.7551  1.3612 -0.9577
  181POPC  C21020741   2.256   3.401   7.230 -0.1496 -0.1894  0.0099
  181POPC  H10120742   2.353   3.378   7.278 -1.5628 -0.0413  3.2220
  181POPC  C21120743   2.212   3.340   7.099 -0.8185 -0.2446  0.2537
  181POPC  H11R20744   2.295   3.344   7.024 -1.0536  4.2810 -0.0035
  181POPC  H11S20745   2.137   3.395   7.039  1.5223  2.0578 -0.7345
  181POPC  C21220746   2.162   3.202   7.130 -0.0101 -0.4644 -0.6399
  181POPC  H12R20747   2.085   3.199   7.210 -0.3932 -4.7946 -0.9232
  181POPC  H12S20748   2.249   3.142   7.166 -2.4136 -2.6656  1.9545
  181POPC  C21320749   2.104   3.138   7.007  0.3165 -0.8935  0.4503
  181POPC  H13R20750   2.182   3.135   6.928  0.0098 -1.3390  0.1567
  181POPC  H13S20751   2.034   3.205   6.953  1.3915 -1.3218 -1.5809
  181POPC  C21420752   2.038   3.004   7.017 -1.2158  1.1057 -0.0585
  181POPC  H14R20753   1.952   3.006   7.087 -1.0875  0.3428  0.1268
  181POPC  H14S20754   2.103   2.920   7.050 -3.2850 -1.6010 -2.3821
  181POPC  C21520755   1.977   2.968   6.874 -0.6078  0.1067  0.1099
  181POPC  H15R20756   1.901   3.044   6.844 -0.9324  0.0436  0.7492
  181POPC  H15S20757   1.929   2.868   6.864 -1.2421  0.1094  2.5339
  181POPC  C21620758   2.082   2.969   6.763 -0.1908  0.1107 -0.3921
  181POPC  H16R20759   2.168   2.904   6.786 -0.8417 -1.7893 -2.8222
  181POPC  H16S20760   2.117   3.073   6.745  0.3862  0.3477  1.8747
  181POPC  C21720761   2.019   2.930   6.626  0.4445 -0.5898  0.5841
  181POPC  H17R20762   1.920   2.979   6.618  0.4850 -0.8311 -3.3581
  181POPC  H17S20763   2.016   2.819   6.622  0.7885 -0.6077  0.7184
  181POPC  C21820764   2.112   2.992   6.518 -0.4217 -0.0632 -0.0684
  181POPC  H18R20765   2.067   2.986   6.417  2.6768 -1.0245 -1.5160
  181POPC  H18S20766   2.215   2.950   6.517 -0.4402 -0.1723 -2.5042
  181POPC  H18T20767   2.118   3.100   6.543 -2.0218 -0.5835  3.1874
  181POPC   C3320768   1.672   3.946   7.572 -0.0067 -0.2431  0.3712
  181POPC   H3X20769   1.752   4.020   7.594  2.2636 -1.9407 -1.6798
  181POPC   H3Y20770   1.584   3.972   7.634 -1.2164  0.0379 -1.3925
  181POPC   C3420771   1.634   3.957   7.426  0.1065 -0.9906  0.8747
  181POPC   H4X20772   1.589   4.057   7.408 -2.2322 -2.1194  0.0493
  181POPC   H4Y20773   1.554   3.888   7.391 -0.9508  0.0684  1.1570
  181POPC   C3520774   1.752   3.954   7.334 -0.3901  0.0445 -0.1827
  181POPC   H5X20775   1.807   3.858   7.331  0.9725  0.8158 -2.2460
  181POPC   H5Y20776   1.827   4.025   7.376  1.0617 -2.2895  1.3551
  181POPC   C3620777   1.705   4.000   7.192  0.4492  0.0255 -0.3171
  181POPC   H6X20778   1.732   4.108   7.202 -1.6937  0.4788  1.3340
  181POPC   H6Y20779   1.597   3.980   7.173 -0.2002  3.3752 -0.8560
  181POPC   C3720780   1.780   3.937   7.073  0.5552  0.0790 -0.0490
  181POPC   H7X20781   1.773   3.828   7.093  0.1010  0.2147  0.5539
  181POPC   H7Y20782   1.885   3.970   7.084  0.5089  1.3326 -2.6789
  181POPC   C3820783   1.730   3.970   6.933 -0.4534 -0.4094  0.0476
  181POPC   H8X20784   1.620   3.980   6.922 -0.2929  0.4512 -0.8454
  181POPC   H8Y20785   1.748   3.892   6.856 -1.7286 -1.7024  0.9996
  181POPC   C3920786   1.787   4.104   6.877  0.3277 -0.2127  0.5664
  181POPC   H9X20787   1.897   4.089   6.872  0.6284  1.9880 -0.6951
  181POPC   H9Y20788   1.767   4.182   6.953 -1.4431 -0.0009 -0.0643
  181POPC  C31020789   1.741   4.150   6.741  0.1315  0.5201  0.2269
  181POPC  H10X20790   1.639   4.192   6.755 -0.0078 -0.1574  1.3375
  181POPC  H10Y20791   1.727   4.068   6.667 -0.8818 -0.4757  1.4798
  181POPC  C31120792   1.829   4.258   6.684  0.1233  0.6300 -0.6092
  181POPC  H11X20793   1.931   4.214   6.674  0.0015  0.4525 -1.0729
  181POPC  H11Y20794   1.843   4.337   6.761  3.3911  0.2044 -0.6222
  181POPC  C31220795   1.787   4.306   6.548 -0.1376  0.3947  0.2317
  181POPC  H12X20796   1.680   4.334   6.552 -0.6948 -1.6121  0.4078
  181POPC  H12Y20797   1.810   4.233   6.468  1.3251  2.7002 -1.6070
  181POPC  C31320798   1.870   4.434   6.509 -0.1332 -0.7246  0.6268
  181POPC  H13X20799   1.884   4.498   6.600 -1.6790  0.6889 -0.0574
  181POPC  H13Y20800   1.810   4.497   6.439 -1.6450 -0.6315  1.9305
  181POPC  C31420801   2.013   4.413   6.452 -0.1026 -0.0360  0.4402
  181POPC  H14X20802   2.070   4.345   6.518  1.8235  0.1511 -0.9396
  181POPC  H14Y20803   2.068   4.509   6.466 -3.1688  1.9370  0.0898
  181POPC  C31520804   2.023   4.356   6.312 -0.1894 -0.8749 -0.2618
  181POPC  H15X20805   1.976   4.436   6.251 -0.0491 -0.1535  0.5542
  181POPC  H15Y20806   1.960   4.265   6.306 -1.7928  0.1382  0.5432
  181POPC  C31620807   2.156   4.323   6.240 -0.0766  0.4189  0.1185
  181POPC  H16X20808   2.133   4.272   6.144  2.6133  1.5932 -1.2642
  181POPC  H16Y20809   2.217   4.249   6.296  0.8273  0.3218 -0.9518
  181POPC  H16Z20810   2.210   4.420   6.232  0.2793  0.1775 -0.5208
  182POPC     N20811   3.831   0.686   8.496  0.4352 -0.5485 -0.1368
  182POPC   C1220812   3.699   0.605   8.463 -0.7431 -0.5478  0.1067
  182POPC  H12A20813   3.693   0.581   8.358 -0.2087  0.7326 -0.2420
  182POPC  H12B20814   3.620   0.674   8.493 -0.6867 -1.5895  3.0356
  182POPC   C1320815   3.826   0.726   8.636  0.2428 -0.5949  0.6218
  182POPC  H13A20816   3.737   0.786   8.653  0.2664 -0.7239  1.2172
  182POPC  H13B20817   3.827   0.640   8.701  1.9483 -2.2013 -1.3983
  182POPC  H13C20818   3.920   0.773   8.660  0.2485 -0.0882 -0.3354
  182POPC   C1420819   3.947   0.595   8.471  0.1883 -0.0565  0.6838
  182POPC  H14A20820   4.041   0.648   8.476 -0.7196  1.9136 -1.5078
  182POPC  H14B20821   3.945   0.520   8.549  2.4819 -0.2906  0.5832
  182POPC  H14C20822   3.945   0.552   8.372 -0.5323 -0.3935  0.8367
  182POPC   C1520823   3.836   0.808   8.407 -1.1562  0.9029  0.0947
  182POPC  H15A20824   3.824   0.792   8.300  1.3322 -0.1022 -0.1142
  182POPC  H15B20825   3.938   0.844   8.408 -0.0788 -1.7991 -1.1042
  182POPC  H15C20826   3.763   0.877   8.447 -1.4275 -0.4406  2.0530
  182POPC   C1120827   3.665   0.466   8.529 -0.0543 -0.6338  0.3583
  182POPC  H11A20828   3.557   0.442   8.537 -0.1036 -0.4862  0.1579
  182POPC  H11B20829   3.687   0.489   8.635  1.6999  0.0569 -0.1187
  182POPC     P20830   3.735   0.307   8.339  0.1275  0.6248 -0.3187
  182POPC   O1320831   3.610   0.229   8.326 -0.7011 -0.1160  0.5085
  182POPC   O1420832   3.864   0.238   8.313 -0.2823 -0.3860 -0.1128
  182POPC   O1220833   3.752   0.360   8.488  0.3320 -0.7593 -0.1524
  182POPC   O1120834   3.722   0.433   8.242  0.5661 -0.0970 -0.8738
  182POPC    C120835   3.672   0.416   8.111  0.1523 -0.1478  0.0935
  182POPC    HA20836   3.594   0.493   8.096  1.3811  0.8927 -1.1263
  182POPC    HB20837   3.623   0.319   8.086  0.1871  0.0743 -0.8693
  182POPC    C220838   3.780   0.434   8.002  0.7471  0.2284 -0.5811
  182POPC    HS20839   3.853   0.351   8.017  0.9179  0.7794  2.3422
  182POPC   O2120840   3.835   0.570   8.004 -0.3455 -0.0106 -0.4047
  182POPC   C2120841   3.954   0.578   8.069 -0.5579 -0.4859 -0.4556
  182POPC   O2220842   4.013   0.485   8.121  0.3275 -0.5829 -0.1828
  182POPC   C2220843   4.019   0.717   8.064 -0.5987  0.2561  0.2722
  182POPC   H2R20844   4.117   0.710   8.115  0.8129 -1.3970 -2.4823
  182POPC   H2S20845   3.956   0.788   8.123 -1.0195 -0.6848  0.9880
  182POPC    C320846   3.716   0.420   7.858 -0.7288  0.9252  0.5144
  182POPC    HX20847   3.801   0.434   7.788  0.2878 -1.5578  1.1273
  182POPC    HY20848   3.633   0.492   7.844 -1.8955  0.2570  3.2643
  182POPC   O3120849   3.665   0.287   7.842 -0.5303 -0.1741 -0.4508
  182POPC   C3120850   3.611   0.269   7.727  1.3076  0.1353 -0.0246
  182POPC   O3220851   3.622   0.339   7.624  0.3420 -0.8119 -0.0415
  182POPC   C3220852   3.515   0.149   7.733 -0.5065 -0.7076  0.4922
  182POPC   H2X20853   3.416   0.184   7.770 -0.2267  0.3838  0.2326
  182POPC   H2Y20854   3.555   0.073   7.804  0.7904 -0.6234 -0.1256
  182POPC   C2320855   4.050   0.763   7.923  0.1561  0.0427  0.6233
  182POPC   H3R20856   4.079   0.870   7.935 -0.6647  0.1440  1.8773
  182POPC   H3S20857   3.961   0.766   7.857  0.1484 -0.8146  0.5802
  182POPC   C2420858   4.167   0.683   7.864  0.3606  0.2316 -0.3210
  182POPC   H4R20859   4.148   0.574   7.866 -0.6286  0.4107  0.3286
  182POPC   H4S20860   4.258   0.703   7.925  1.6245  1.2367 -2.4019
  182POPC   C2520861   4.197   0.725   7.722  0.4920  0.6788 -0.1825
  182POPC   H5R20862   4.222   0.833   7.722 -0.3254  0.9016 -2.0017
  182POPC   H5S20863   4.104   0.702   7.666  0.9342 -0.2491 -0.5468
  182POPC   C2620864   4.302   0.641   7.656 -0.4058 -0.4272  0.6413
  182POPC   H6R20865   4.276   0.539   7.622 -0.5401  0.8026 -3.5273
  182POPC   H6S20866   4.380   0.629   7.734  1.0819  1.8963 -0.3470
  182POPC   C2720867   4.349   0.711   7.529 -0.3769 -0.4888 -0.4373
  182POPC   H7R20868   4.436   0.652   7.492  0.7207  1.9281 -1.9638
  182POPC   H7S20869   4.393   0.810   7.552  0.1118 -0.2757 -2.1012
  182POPC   C2820870   4.246   0.724   7.412 -0.7334 -0.2470  0.1047
  182POPC   H8R20871   4.275   0.811   7.349 -3.8332  0.9173  0.1469
  182POPC   H8S20872   4.147   0.761   7.446 -0.5353 -0.2826  0.7406
  182POPC   C2920873   4.240   0.599   7.332 -0.2373 -0.1816 -0.4111
  182POPC   H9120874   4.176   0.521   7.375  3.1954 -1.9760  1.9479
  182POPC  C21020875   4.313   0.564   7.221 -0.1117 -0.3663  0.4987
  182POPC  H10120876   4.299   0.469   7.166  1.1781 -0.0025 -0.5136
  182POPC  C21120877   4.427   0.650   7.167  0.1088 -0.2206  0.1300
  182POPC  H11R20878   4.517   0.584   7.164  0.0125 -0.3632  0.4278
  182POPC  H11S20879   4.450   0.741   7.226  3.0400 -0.0285 -1.1368
  182POPC  C21220880   4.383   0.699   7.025  0.0676 -0.6176 -0.7117
  182POPC  H12R20881   4.473   0.754   6.991  0.4726 -1.8469 -1.7166
  182POPC  H12S20882   4.293   0.762   7.036 -1.1975 -2.3394 -0.8409
  182POPC  C21320883   4.349   0.578   6.924  0.0380  0.0757  0.2280
  182POPC  H13R20884   4.259   0.530   6.968 -1.2313  2.2522  0.1907
  182POPC  H13S20885   4.439   0.516   6.942 -0.5690  0.1517  4.4291
  182POPC  C21420886   4.331   0.628   6.779 -0.4062  0.0601  0.6192
  182POPC  H14R20887   4.360   0.735   6.779  0.3564 -0.1057  2.4064
  182POPC  H14S20888   4.228   0.630   6.736  0.3577 -0.5767 -1.3460
  182POPC  C21520889   4.423   0.567   6.681  0.5070 -0.1119 -0.0454
  182POPC  H15R20890   4.380   0.469   6.652  0.6653 -0.4353  0.7968
  182POPC  H15S20891   4.521   0.551   6.730  1.5673  0.2298 -1.9385
  182POPC  C21620892   4.443   0.660   6.556 -0.4375  0.2287 -0.6077
  182POPC  H16R20893   4.547   0.698   6.553 -0.2800 -0.1108  0.2815
  182POPC  H16S20894   4.391   0.758   6.561  0.5510  0.7096  1.5177
  182POPC  C21720895   4.409   0.592   6.427  0.0655 -0.1782 -0.1516
  182POPC  H17R20896   4.303   0.560   6.427 -0.1683  0.5739 -0.1741
  182POPC  H17S20897   4.472   0.501   6.418 -0.7832 -1.0541  1.9999
  182POPC  C21820898   4.423   0.684   6.295 -0.0702  0.8698 -0.4922
  182POPC  H18R20899   4.357   0.770   6.320  2.0768  1.8827  2.1209
  182POPC  H18S20900   4.388   0.648   6.196 -3.0391  3.4438 -0.5548
  182POPC  H18T20901   4.528   0.720   6.299 -0.7330  2.8266  2.1131
  182POPC   C3320902   3.482   0.089   7.599 -0.7927  0.0974  0.2189
  182POPC   H3X20903   3.581   0.068   7.554  0.0729  3.2411  0.3770
  182POPC   H3Y20904   3.420   0.153   7.532  0.5531  0.4053 -0.7751
  182POPC   C3420905   3.417  -0.045   7.607 -0.3590  0.7584  0.0930
  182POPC   H4X20906   3.306  -0.039   7.618 -0.3281  1.5737 -0.0205
  182POPC   H4Y20907   3.456  -0.094   7.699 -0.2540 -0.5586 -0.6234
  182POPC   C3520908   3.449  -0.135   7.484  0.1800  0.7735 -0.0508
  182POPC   H5X20909   3.555  -0.163   7.469 -0.3897 -0.9601 -1.1151
  182POPC   H5Y20910   3.418  -0.076   7.395  2.2916  0.8549 -0.7797
  182POPC   C3620911   3.360  -0.257   7.473  0.9627  0.2288 -0.9126
  182POPC   H6X20912   3.258  -0.226   7.504  0.4180 -2.0856 -0.1274
  182POPC   H6Y20913   3.411  -0.333   7.537  1.1705 -0.9992 -2.4781
  182POPC   C3720914   3.354  -0.317   7.336 -0.4842 -0.0304  0.6722
  182POPC   H7X20915   3.457  -0.303   7.297 -0.9886  1.8590 -0.0997
  182POPC   H7Y20916   3.302  -0.242   7.273 -0.4475  0.0194  0.7011
  182POPC   C3820917   3.305  -0.464   7.337 -0.3216  0.0206 -0.7330
  182POPC   H8X20918   3.220  -0.482   7.406  1.6645 -0.9146  1.6264
  182POPC   H8Y20919   3.385  -0.526   7.382 -1.2768 -1.0868 -0.5098
  182POPC   C3920920   3.283  -0.521   7.194 -0.5620 -0.3070  0.7291
  182POPC   H9X20921   3.262  -0.630   7.202 -2.8396  0.0729  0.4829
  182POPC   H9Y20922   3.372  -0.516   7.128 -1.1863 -0.2595 -0.1218
  182POPC  C31020923   3.190  -0.440   7.114  1.1562 -0.0211  0.5432
  182POPC  H10X20924   3.222  -0.334   7.117  0.4481  0.1875  0.9218
  182POPC  H10Y20925   3.093  -0.437   7.168  1.5567  1.2355  1.2389
  182POPC  C31120926   3.171  -0.486   6.968 -0.1495  0.9759 -0.0249
  182POPC  H11X20927   3.267  -0.476   6.912 -1.9214 -0.1223 -3.5854
  182POPC  H11Y20928   3.094  -0.422   6.920  1.1635  1.1950 -2.0081
  182POPC  C31220929   3.129  -0.630   6.957 -0.1782  0.5093  0.3570
  182POPC  H12X20930   3.041  -0.634   7.025  0.6493 -0.5251  1.3998
  182POPC  H12Y20931   3.213  -0.695   6.989 -0.1769  0.1464 -0.3814
  182POPC  C31320932   3.063  -0.667   6.828 -0.7728 -0.6380  0.7734
  182POPC  H13X20933   3.128  -0.634   6.745 -0.8495 -3.0378 -0.3070
  182POPC  H13Y20934   2.961  -0.627   6.808  0.6056  1.7736 -2.2827
  182POPC  C31420935   3.054  -0.820   6.818 -0.7396 -1.1622  0.0757
  182POPC  H14X20936   3.007  -0.859   6.910  2.5041 -0.5010  2.1943
  182POPC  H14Y20937   3.162  -0.846   6.813  0.1794  2.0207  0.9980
  182POPC  C31520938   3.013  -0.889   6.685  0.4652 -0.4611 -0.3279
  182POPC  H15X20939   3.045  -0.995   6.686  0.0111 -0.6166 -1.4770
  182POPC  H15Y20940   3.071  -0.830   6.611  0.8699 -1.0976 -0.5257
  182POPC  C31620941   2.863  -0.887   6.663  0.4073 -0.1080 -1.0376
  182POPC  H16X20942   2.846  -0.918   6.557  1.2405 -1.0812 -0.9089
  182POPC  H16Y20943   2.827  -0.784   6.681 -0.6937 -0.3069 -1.9741
  182POPC  H16Z20944   2.816  -0.961   6.731 -0.2902  0.5162 -0.8239
  183POPC     N20945   6.159   6.388   8.608  0.4204  0.1593  0.3719
  183POPC   C1220946   6.044   6.342   8.524  0.2321  0.3154  0.2642
  183POPC  H12A20947   6.069   6.367   8.422  0.4387 -1.5802 -0.1937
  183POPC  H12B20948   5.957   6.403   8.542 -0.2845 -0.6570  1.1495
  183POPC   C1320949   6.288   6.327   8.559  0.0289 -1.1392 -0.3638
  183POPC  H13A20950   6.284   6.219   8.557 -2.2987 -1.1947  1.7587
  183POPC  H13B20951   6.301   6.367   8.460 -0.0371 -0.7994 -0.2376
  183POPC  H13C20952   6.363   6.372   8.622 -3.4744  1.6286  2.2766
  183POPC   C1420953   6.166   6.538   8.596 -0.1058  0.3394 -0.1650
  183POPC  H14A20954   6.074   6.572   8.641 -1.1257 -1.2582 -0.9389
  183POPC  H14B20955   6.262   6.569   8.635  1.3547 -1.1536 -2.3473
  183POPC  H14C20956   6.161   6.563   8.491 -0.4916 -2.7268 -0.9840
  183POPC   C1520957   6.127   6.349   8.745  0.5877  0.2396 -0.0819
  183POPC  H15A20958   6.038   6.404   8.774  1.6310  2.3126 -0.5923
  183POPC  H15B20959   6.208   6.379   8.811 -0.5266  1.3115  0.8605
  183POPC  H15C20960   6.110   6.243   8.754 -0.8913  0.5789  2.0314
  183POPC   C1120961   5.997   6.199   8.522 -0.2653 -0.5714 -0.7897
  183POPC  H11A20962   5.903   6.187   8.465 -0.2432  0.3408 -1.0310
  183POPC  H11B20963   5.972   6.172   8.627  1.4961  1.2932  0.1864
  183POPC     P20964   6.131   6.093   8.327 -0.5157  0.2109  0.3348
  183POPC   O1320965   6.065   5.974   8.276 -0.2842  0.0624  0.3108
  183POPC   O1420966   6.280   6.085   8.322 -0.1152 -0.3109 -0.5390
  183POPC   O1220967   6.100   6.112   8.480 -0.2537  0.0324 -0.2030
  183POPC   O1120968   6.087   6.231   8.260  0.0916 -0.1037 -0.0550
  183POPC    C120969   5.966   6.233   8.187 -0.1734  0.2865 -0.1613
  183POPC    HA20970   5.922   6.335   8.186  0.3073  0.6127  2.7889
  183POPC    HB20971   5.881   6.172   8.225  0.6437 -0.3409  0.7081
  183POPC    C220972   5.994   6.208   8.034 -0.6262  0.6777  0.4022
  183POPC    HS20973   6.063   6.121   8.039  0.1716  1.1784 -1.1174
  183POPC   O2120974   6.056   6.322   7.980 -0.0497 -0.7962  0.5886
  183POPC   C2120975   6.178   6.314   7.935  0.6395 -0.0836 -0.0067
  183POPC   O2220976   6.225   6.211   7.882  0.8558 -0.2263 -0.3428
  183POPC   C2220977   6.250   6.444   7.953  0.3248  0.6459  0.1359
  183POPC   H2R20978   6.352   6.431   7.993 -0.0465  1.7009  1.5031
  183POPC   H2S20979   6.196   6.503   8.030 -0.2992 -0.4424  0.5614
  183POPC    C320980   5.865   6.166   7.964  0.3882 -0.7063  0.6952
  183POPC    HX20981   5.781   6.230   8.000 -0.2369 -1.0049 -0.2037
  183POPC    HY20982   5.834   6.068   8.006 -3.6420  0.1271  0.1347
  183POPC   O3120983   5.877   6.166   7.816  0.6592 -0.1335  0.4001
  183POPC   C3120984   5.938   6.064   7.779 -0.1434 -0.0592 -0.2933
  183POPC   O3220985   5.985   5.980   7.852  0.0870 -0.1548  0.0375
  183POPC   C3220986   5.947   6.065   7.627  0.7004 -0.4882 -0.0224
  183POPC   H2X20987   5.868   6.125   7.577  0.1738  0.1401  1.4830
  183POPC   H2Y20988   5.936   5.958   7.600 -0.0262 -0.8019  1.3960
  183POPC   C2320989   6.253   6.522   7.818 -0.0454  0.2205 -0.2042
  183POPC   H3R20990   6.309   6.614   7.845  1.2471 -0.3732 -0.7779
  183POPC   H3S20991   6.148   6.550   7.792 -0.7433 -1.6005  0.5106
  183POPC   C2420992   6.328   6.447   7.713 -0.0043  0.1213  0.1980
  183POPC   H4R20993   6.270   6.359   7.677  1.1661  0.0956 -1.8015
  183POPC   H4S20994   6.428   6.430   7.756 -0.4508 -0.6842  0.9571
  183POPC   C2520995   6.364   6.534   7.584  0.1189 -0.4112  0.0468
  183POPC   H5R20996   6.441   6.608   7.613 -0.4513  0.2198 -0.0064
  183POPC   H5S20997   6.271   6.590   7.561  0.6876 -0.2684 -2.0790
  183POPC   C2620998   6.402   6.452   7.463  0.4738 -0.7163  0.7122
  183POPC   H6R20999   6.349   6.356   7.447  2.6702 -2.0053  0.7561
  183POPC   H6S21000   6.510   6.426   7.464  1.0305  1.0811 -2.1520
  183POPC   C2721001   6.388   6.540   7.334 -0.4232  0.8447 -0.6674
  183POPC   H7R21002   6.455   6.628   7.340 -1.1346  1.3079  2.4353
  183POPC   H7S21003   6.281   6.569   7.333 -0.6903  0.1106  1.6473
  183POPC   C2821004   6.408   6.457   7.207  0.3063  0.1276  0.0521
  183POPC   H8R21005   6.361   6.505   7.118  0.6880 -0.1295 -0.2911
  183POPC   H8S21006   6.345   6.365   7.212 -0.6733  0.5041 -3.0163
  183POPC   C2921007   6.553   6.410   7.194 -0.1750  0.1145 -0.1666
  183POPC   H9121008   6.575   6.308   7.229 -1.7452 -0.6478 -1.2888
  183POPC  C21021009   6.648   6.472   7.120 -0.2055  0.0386  0.1468
  183POPC  H10121010   6.751   6.433   7.113 -0.3894 -0.7822  1.6182
  183POPC  C21121011   6.635   6.593   7.031 -0.2786 -0.0077 -0.5991
  183POPC  H11R21012   6.682   6.684   7.074  0.5122 -2.3813  4.2947
  183POPC  H11S21013   6.527   6.617   7.016 -0.3912 -0.9482 -1.3635
  183POPC  C21221014   6.694   6.553   6.896 -0.1393  0.5946  0.0619
  183POPC  H12R21015   6.803   6.535   6.908  0.0371  1.9359  0.6538
  183POPC  H12S21016   6.695   6.645   6.834 -0.3208  2.7855  3.0856
  183POPC  C21321017   6.621   6.441   6.816  0.1559  0.3290  0.1349
  183POPC  H13R21018   6.513   6.466   6.807  0.1335  0.1544 -0.0943
  183POPC  H13S21019   6.635   6.344   6.869  0.2150  0.0870 -0.3212
  183POPC  C21421020   6.693   6.426   6.680 -0.4373 -0.2953  0.2584
  183POPC  H14R21021   6.803   6.439   6.680 -0.5190  0.4584  1.0012
  183POPC  H14S21022   6.655   6.505   6.612  0.4829 -0.1036 -0.0405
  183POPC  C21521023   6.645   6.306   6.596  0.4212 -0.0060 -0.0788
  183POPC  H15R21024   6.534   6.303   6.597  0.4122 -0.1710  1.8510
  183POPC  H15S21025   6.689   6.213   6.638 -0.6693 -0.8478 -0.7262
  183POPC  C21621026   6.683   6.316   6.444  0.1979 -0.7312  0.1349
  183POPC  H16R21027   6.794   6.310   6.436  0.2839 -1.2932  1.4049
  183POPC  H16S21028   6.662   6.414   6.397 -0.3183 -0.3277  1.1685
  183POPC  C21721029   6.587   6.227   6.362  0.3243  0.0729  0.1475
  183POPC  H17R21030   6.489   6.260   6.401  0.7848 -0.3652  1.7452
  183POPC  H17S21031   6.598   6.117   6.379 -1.7985 -0.4088 -1.2370
  183POPC  C21821032   6.591   6.234   6.206  0.2948 -0.2801 -0.8011
  183POPC  H18R21033   6.562   6.336   6.171  0.5230  0.5154  1.1945
  183POPC  H18S21034   6.516   6.163   6.166 -0.2271 -1.0635  1.4552
  183POPC  H18T21035   6.688   6.192   6.173 -0.8678 -3.4246 -0.5004
  183POPC   C3321036   6.086   6.111   7.580  0.2180 -0.2535  0.1866
  183POPC   H3X21037   6.166   6.036   7.598 -2.4110 -2.9756  1.4347
  183POPC   H3Y21038   6.098   6.207   7.635 -0.5605 -0.4219  0.6636
  183POPC   C3421039   6.087   6.138   7.426  0.2920  0.0800  0.0865
  183POPC   H4X21040   6.180   6.193   7.401 -0.0446  0.2492 -0.8427
  183POPC   H4Y21041   6.004   6.207   7.395  0.6693  0.8810  0.8174
  183POPC   C3521042   6.089   6.013   7.341 -0.3183 -0.1800  0.1684
  183POPC   H5X21043   6.023   5.936   7.386  0.2246 -0.0991  1.1559
  183POPC   H5Y21044   6.195   5.980   7.354  1.2301  2.2252 -4.2580
  183POPC   C3621045   6.058   6.028   7.195 -0.8054  0.0706 -0.2959
  183POPC   H6X21046   6.144   6.067   7.137  0.4765 -3.3340 -0.9376
  183POPC   H6Y21047   5.969   6.092   7.176  1.7213  3.7956 -0.5909
  183POPC   C3721048   6.026   5.895   7.135  0.2694  0.0837 -0.7853
  183POPC   H7X21049   5.946   5.861   7.204  0.0579  0.8428 -0.6414
  183POPC   H7Y21050   6.113   5.829   7.151 -0.1997 -0.6206 -1.0747
  183POPC   C3821051   5.969   5.899   6.996 -0.1929  0.0340  0.0163
  183POPC   H8X21052   5.905   5.989   6.981 -1.2119 -0.8283 -1.0928
  183POPC   H8Y21053   5.912   5.807   6.969  0.5421  0.2928 -2.7484
  183POPC   C3921054   6.086   5.906   6.898 -0.3483 -0.3545  0.3732
  183POPC   H9X21055   6.144   5.813   6.880 -1.3854 -0.5518 -2.4117
  183POPC   H9Y21056   6.149   5.992   6.930 -0.2711  0.1963 -1.1894
  183POPC  C31021057   6.044   5.950   6.754 -0.0488 -0.1439  0.1112
  183POPC  H10X21058   5.978   6.040   6.754 -1.8038 -1.3695  0.7883
  183POPC  H10Y21059   5.978   5.869   6.717 -0.0766  0.0438 -0.2601
  183POPC  C31121060   6.166   5.980   6.659  0.1920 -0.0674 -0.0146
  183POPC  H11X21061   6.227   5.887   6.655  3.9047  2.1478  0.7217
  183POPC  H11Y21062   6.231   6.056   6.706  0.2625 -0.7349  1.0070
  183POPC  C31221063   6.128   6.001   6.511 -0.3746  0.4575  0.0497
  183POPC  H12X21064   6.091   6.105   6.496 -0.3691  0.4681  0.1067
  183POPC  H12Y21065   6.046   5.933   6.483 -2.1116  2.9041 -1.1589
  183POPC  C31321066   6.248   5.986   6.419 -0.0197 -0.1331 -0.0600
  183POPC  H13X21067   6.316   5.907   6.456  0.5461  0.8208  0.9973
  183POPC  H13Y21068   6.305   6.081   6.428  1.6461 -1.0371 -0.6837
  183POPC  C31421069   6.231   5.963   6.265 -0.0433 -0.2073  0.2918
  183POPC  H14X21070   6.172   5.870   6.255 -1.4702  0.0573  4.3027
  183POPC  H14Y21071   6.332   5.948   6.221  0.4485  1.6390  0.6885
  183POPC  C31521072   6.169   6.082   6.204 -0.5912 -0.0886  0.5349
  183POPC  H15X21073   6.244   6.164   6.199 -0.7481  0.0114 -2.7404
  183POPC  H15Y21074   6.081   6.126   6.256 -3.0833 -2.9031 -0.9859
  183POPC  C31621075   6.124   6.055   6.059 -0.6412  0.3295 -0.4113
  183POPC  H16X21076   6.074   5.956   6.064 -1.0182  0.5292 -0.1330
  183POPC  H16Y21077   6.214   6.045   5.995 -0.3774 -0.1945  0.0304
  183POPC  H16Z21078   6.048   6.131   6.032 -2.0348 -0.6752  0.5267
  184POPC     N21079   5.639   5.746   8.583  0.6483 -0.5093  0.0787
  184POPC   C1221080   5.648   5.825   8.450 -0.6064  0.3523  0.7304
  184POPC  H12A21081   5.549   5.844   8.411 -0.6212 -0.7388  0.2126
  184POPC  H12B21082   5.692   5.763   8.373  0.4618  0.8107  0.9527
  184POPC   C1321083   5.542   5.822   8.673 -0.6340  0.1259 -0.0459
  184POPC  H13A21084   5.449   5.836   8.620 -0.4608 -0.0143 -0.3877
  184POPC  H13B21085   5.532   5.761   8.762  1.7830  0.5248  0.5738
  184POPC  H13C21086   5.590   5.915   8.697  0.1322 -0.8403  2.5979
  184POPC   C1421087   5.576   5.611   8.560 -0.0594 -0.0196 -0.2072
  184POPC  H14A21088   5.476   5.629   8.522 -0.7046 -0.4337  1.2376
  184POPC  H14B21089   5.637   5.541   8.505  1.7757 -1.5889  3.5163
  184POPC  H14C21090   5.555   5.561   8.653  0.0467  0.7260  0.2285
  184POPC   C1521091   5.772   5.722   8.643 -0.0465 -0.5277 -0.6108
  184POPC  H15A21092   5.757   5.693   8.746 -2.8827 -1.0502 -1.0947
  184POPC  H15B21093   5.820   5.818   8.630 -2.1179  0.2656 -3.1874
  184POPC  H15C21094   5.829   5.650   8.586 -1.1722 -0.4711 -1.8469
  184POPC   C1121095   5.728   5.962   8.458  1.0354 -0.3012 -0.2409
  184POPC  H11A21096   5.764   5.994   8.358 -0.3001  1.3709 -0.2272
  184POPC  H11B21097   5.815   5.945   8.524 -0.7666 -2.1081  1.8263
  184POPC     P21098   5.522   6.138   8.425 -0.0341  0.2126 -0.3515
  184POPC   O1321099   5.497   6.263   8.504  0.3896 -0.0608  0.2640
  184POPC   O1421100   5.417   6.037   8.405  0.4108  0.5166  0.2807
  184POPC   O1221101   5.638   6.067   8.507  0.0848  0.1899 -0.4513
  184POPC   O1121102   5.578   6.180   8.283 -0.3649  1.2091 -1.1103
  184POPC    C121103   5.622   6.309   8.252 -0.2919 -0.6834 -0.0353
  184POPC    HA21104   5.699   6.306   8.172  1.1981 -1.8487  1.3768
  184POPC    HB21105   5.667   6.372   8.331  1.8156 -1.7174 -0.3363
  184POPC    C221106   5.510   6.376   8.174  0.4558  1.0129 -0.3211
  184POPC    HS21107   5.428   6.396   8.246  0.3859  1.1962 -0.4510
  184POPC   O2121108   5.471   6.290   8.062  0.2349  0.7606 -0.1305
  184POPC   C2121109   5.348   6.315   8.018 -0.0883  0.0319  0.1766
  184POPC   O2221110   5.274   6.400   8.066 -0.0163  0.9953 -0.2440
  184POPC   C2221111   5.332   6.236   7.892  0.3190 -1.0479  0.5605
  184POPC   H2R21112   5.241   6.277   7.842  0.5405 -2.1966 -0.8535
  184POPC   H2S21113   5.299   6.136   7.929 -1.5632 -0.8135 -0.3571
  184POPC    C321114   5.555   6.524   8.131 -0.6587  0.0117  0.3047
  184POPC    HX21115   5.587   6.560   8.232  0.0865 -0.4074  0.2222
  184POPC    HY21116   5.462   6.575   8.098 -1.1723 -1.0590  0.0894
  184POPC   O3121117   5.656   6.538   8.040 -0.3230  0.0570  0.0040
  184POPC   C3121118   5.725   6.655   8.028  0.0353  0.1864  0.0314
  184POPC   O3221119   5.711   6.748   8.108 -0.0724 -0.0973  0.2925
  184POPC   C3221120   5.829   6.644   7.919  0.2000  0.3108 -0.3627
  184POPC   H2X21121   5.901   6.564   7.947  0.5910  0.2656 -1.4657
  184POPC   H2Y21122   5.883   6.741   7.910 -0.5787  0.8977  0.9176
  184POPC   C2321123   5.444   6.243   7.787  0.4446 -0.5415  0.0278
  184POPC   H3R21124   5.537   6.210   7.838 -0.0803 -0.5344  1.0196
  184POPC   H3S21125   5.467   6.349   7.762 -1.1790  0.1016  1.1469
  184POPC   C2421126   5.410   6.163   7.661  0.0563  0.0143  0.4087
  184POPC   H4R21127   5.317   6.202   7.615  0.7802  1.8356  0.3928
  184POPC   H4S21128   5.404   6.053   7.671  0.0273 -0.2109 -1.6561
  184POPC   C2521129   5.534   6.191   7.568  0.4494 -0.1053  0.6309
  184POPC   H5R21130   5.633   6.153   7.600  0.3146 -0.6401  0.4259
  184POPC   H5S21131   5.558   6.300   7.565  2.3838 -0.5051  0.2195
  184POPC   C2621132   5.509   6.134   7.429  0.4310  1.2190  0.5011
  184POPC   H6R21133   5.424   6.185   7.379  0.0949 -0.1196 -0.3343
  184POPC   H6S21134   5.484   6.026   7.438 -0.2443  1.4485  1.6534
  184POPC   C2721135   5.629   6.167   7.344 -0.5516  0.1176 -0.2475
  184POPC   H7R21136   5.722   6.114   7.372 -0.4578  1.1746  1.5741
  184POPC   H7S21137   5.662   6.269   7.371 -0.4175  0.0782 -0.2621
  184POPC   C2821138   5.593   6.175   7.198 -0.1102  0.0504 -0.0394
  184POPC   H8R21139   5.670   6.233   7.144 -0.3539  0.6145  0.2199
  184POPC   H8S21140   5.505   6.240   7.186 -0.8740 -1.0458 -0.6012
  184POPC   C2921141   5.568   6.039   7.143 -0.6473 -0.0059 -0.1948
  184POPC   H9121142   5.597   5.961   7.215  1.8086  0.8156 -0.1941
  184POPC  C21021143   5.527   6.010   7.021 -0.0862  0.7034  0.7126
  184POPC  H10121144   5.524   5.905   6.987  0.1324  1.1712 -0.7911
  184POPC  C21121145   5.515   6.101   6.907 -0.1566 -0.1183  0.0530
  184POPC  H11R21146   5.583   6.188   6.920  2.1425 -1.4129 -2.3548
  184POPC  H11S21147   5.411   6.141   6.910  0.0894  0.4809  0.8632
  184POPC  C21221148   5.562   6.040   6.769 -0.5284 -0.4995 -0.9805
  184POPC  H12R21149   5.496   5.954   6.745 -1.7801  0.0832  0.2370
  184POPC  H12S21150   5.666   6.004   6.784  0.0052  1.4008  0.2378
  184POPC  C21321151   5.558   6.136   6.650  0.2958 -0.3130 -0.5682
  184POPC  H13R21152   5.636   6.214   6.658 -0.3906  0.4941 -1.5011
  184POPC  H13S21153   5.456   6.175   6.668  0.7856  0.8611 -0.2573
  184POPC  C21421154   5.582   6.065   6.515 -0.0277 -0.6477 -0.3386
  184POPC  H14R21155   5.543   6.120   6.426  0.0548 -0.6689 -0.3882
  184POPC  H14S21156   5.526   5.969   6.509 -0.3603 -0.6741  2.2686
  184POPC  C21521157   5.732   6.042   6.484 -0.2596  0.1945 -0.7518
  184POPC  H15R21158   5.757   6.008   6.586 -1.7616  0.2695 -0.3297
  184POPC  H15S21159   5.792   6.131   6.454  1.2201 -0.7648 -0.7196
  184POPC  C21621160   5.761   5.929   6.380 -0.0286  0.0734 -0.7690
  184POPC  H16R21161   5.680   5.858   6.403  0.5802  0.5155  3.6787
  184POPC  H16S21162   5.857   5.882   6.410  0.9292  1.1069 -2.0848
  184POPC  C21721163   5.775   5.989   6.235  0.4069 -0.1277  0.0258
  184POPC  H17R21164   5.879   6.027   6.220  0.9134 -1.9945 -1.5716
  184POPC  H17S21165   5.704   6.072   6.214 -1.4086 -2.1107 -2.2369
  184POPC  C21821166   5.744   5.891   6.126 -0.2285 -0.6545  0.0296
  184POPC  H18R21167   5.767   5.932   6.025  2.4318 -1.0904  0.3803
  184POPC  H18S21168   5.636   5.865   6.135 -0.4619 -0.0194 -0.8873
  184POPC  H18T21169   5.803   5.797   6.123 -1.2198 -1.2629 -1.3779
  184POPC   C3321170   5.778   6.606   7.779  0.0035  0.2284  0.6781
  184POPC   H3X21171   5.725   6.694   7.736 -0.1835 -0.5363 -0.7103
  184POPC   H3Y21172   5.698   6.528   7.781  0.1491 -0.0923 -2.1893
  184POPC   C3421173   5.892   6.561   7.684  0.0714  0.2944  0.0898
  184POPC   H4X21174   5.929   6.458   7.700  0.2992  0.2608 -0.6144
  184POPC   H4Y21175   5.983   6.624   7.689  0.9047 -0.9056  0.5108
  184POPC   C3521176   5.842   6.565   7.538 -0.4034 -0.0724 -0.3682
  184POPC   H5X21177   5.823   6.670   7.506  2.7959  0.2104 -1.7250
  184POPC   H5Y21178   5.751   6.502   7.531  0.2735 -1.0053 -1.0314
  184POPC   C3621179   5.933   6.496   7.431  0.6362  0.0729  0.2915
  184POPC   H6X21180   5.925   6.386   7.441  0.1683  0.0203 -0.6309
  184POPC   H6Y21181   6.040   6.523   7.448  0.4166  0.0340  1.9296
  184POPC   C3721182   5.897   6.525   7.284 -1.2009  0.0083  0.1809
  184POPC   H7X21183   5.939   6.627   7.265  1.7500 -1.1816 -0.3486
  184POPC   H7Y21184   5.789   6.518   7.262 -1.1535  1.1363 -0.5160
  184POPC   C3821185   5.957   6.433   7.176  0.6362  0.5082  0.3768
  184POPC   H8X21186   5.925   6.326   7.179  1.4837  0.2422  3.7075
  184POPC   H8Y21187   6.067   6.426   7.185  0.6907  1.3444  0.4553
  184POPC   C3921188   5.930   6.504   7.037  0.4586  0.1210  1.1410
  184POPC   H9X21189   5.975   6.605   7.027 -1.4810  0.9724  0.4471
  184POPC   H9Y21190   5.822   6.532   7.040  0.4056  0.0385  0.2892
  184POPC  C31021191   5.958   6.416   6.915  0.1727 -0.6668  0.1178
  184POPC  H10X21192   5.894   6.450   6.831  0.9006  2.3336  0.6495
  184POPC  H10Y21193   5.932   6.312   6.946 -1.1566 -0.9887 -1.8716
  184POPC  C31121194   6.110   6.423   6.868 -0.0580 -0.6884  0.9301
  184POPC  H11X21195   6.161   6.364   6.947 -1.3718 -2.3856  0.5649
  184POPC  H11Y21196   6.156   6.525   6.870 -0.0003 -0.5121 -2.6116
  184POPC  C31221197   6.119   6.372   6.719 -0.1363 -0.2390 -0.2000
  184POPC  H12X21198   6.041   6.294   6.706  0.4057 -1.1847  1.7613
  184POPC  H12Y21199   6.223   6.342   6.695 -0.3303 -2.4762  1.4359
  184POPC  C31321200   6.088   6.478   6.616  0.4057  0.5526  0.0899
  184POPC  H13X21201   6.149   6.568   6.642  0.6647  0.5619 -0.5241
  184POPC  H13Y21202   5.984   6.509   6.640 -0.4773 -2.0280 -0.0750
  184POPC  C31421203   6.105   6.443   6.473  0.3729 -0.0384  0.6638
  184POPC  H14X21204   6.063   6.531   6.420  0.9157  1.1785  2.2085
  184POPC  H14Y21205   6.041   6.354   6.455 -1.3026  1.0300  1.1539
  184POPC  C31521206   6.245   6.414   6.421 -0.3874 -0.2751 -0.6102
  184POPC  H15X21207   6.234   6.398   6.311 -0.9189 -0.9145 -0.4738
  184POPC  H15Y21208   6.268   6.315   6.466  0.4099  0.3372  0.3511
  184POPC  C31621209   6.356   6.520   6.447 -0.3677  0.3593  0.6424
  184POPC  H16X21210   6.457   6.486   6.417 -0.2819  1.4908 -0.4092
  184POPC  H16Y21211   6.367   6.555   6.552  1.0343  0.1134  0.5895
  184POPC  H16Z21212   6.331   6.617   6.400  0.5669  1.1214  1.6621
  185POPC     N21213   4.625   2.318   3.523 -0.5860  0.2699 -0.7704
  185POPC   C1221214   4.697   2.305   3.657  0.5447  0.2946  0.3397
  185POPC  H12A21215   4.801   2.285   3.641  0.3292 -1.2330  0.7255
  185POPC  H12B21216   4.656   2.218   3.707  2.6001 -0.3651  0.9896
  185POPC   C1321217   4.478   2.343   3.539  0.0457 -0.7716 -1.0288
  185POPC  H13A21218   4.424   2.369   3.450 -1.4749 -2.2458 -0.5881
  185POPC  H13B21219   4.435   2.255   3.585  0.4413 -0.0761  0.7735
  185POPC  H13C21220   4.465   2.425   3.608  1.3266 -2.0687  0.8679
  185POPC   C1421221   4.692   2.420   3.447 -0.1750 -0.2091  0.5918
  185POPC  H14A21222   4.643   2.436   3.352  1.6131 -0.5064 -0.4228
  185POPC  H14B21223   4.694   2.513   3.502  2.4961 -0.5370  1.1538
  185POPC  H14C21224   4.794   2.401   3.420  0.3825 -0.1322  2.4896
  185POPC   C1521225   4.630   2.192   3.446 -0.6953 -0.1200  0.0871
  185POPC  H15A21226   4.548   2.126   3.471 -0.0927 -1.4813 -1.3183
  185POPC  H15B21227   4.715   2.128   3.460  0.9351  1.0524 -3.3196
  185POPC  H15C21228   4.621   2.209   3.339 -3.5156  1.4492  0.4745
  185POPC   C1121229   4.679   2.423   3.759 -0.4522  0.2545  0.8863
  185POPC  H11A21230   4.705   2.388   3.861  0.5517 -0.9602  0.2491
  185POPC  H11B21231   4.572   2.453   3.757 -0.5426  0.0184  1.7817
  185POPC     P21232   4.722   2.672   3.715 -0.0376  0.2319 -0.1726
  185POPC   O1321233   4.730   2.695   3.568  0.1975  0.2023  0.0129
  185POPC   O1421234   4.807   2.754   3.806 -0.0009  0.0621 -0.1430
  185POPC   O1221235   4.769   2.523   3.731  0.8532 -0.3964 -0.1467
  185POPC   O1121236   4.566   2.676   3.763  0.1690  0.3570  0.7631
  185POPC    C121237   4.532   2.756   3.875 -0.4933 -0.2018 -0.0005
  185POPC    HA21238   4.435   2.805   3.850 -0.9998 -1.3976 -0.4774
  185POPC    HB21239   4.605   2.838   3.887  1.5026 -1.8067 -0.6352
  185POPC    C221240   4.501   2.672   4.000 -0.1682 -0.6260  0.4307
  185POPC    HS21241   4.454   2.737   4.077 -0.3977  1.0261 -1.0663
  185POPC   O2121242   4.623   2.623   4.059  0.3661  0.0691  0.4428
  185POPC   C2121243   4.705   2.713   4.106  0.6090  0.0664 -0.0767
  185POPC   O2221244   4.680   2.835   4.110 -0.4322 -0.1528  0.2037
  185POPC   C2221245   4.835   2.659   4.159 -0.2078  0.0695 -0.3428
  185POPC   H2R21246   4.922   2.715   4.118 -1.0779  1.8384  0.1300
  185POPC   H2S21247   4.853   2.553   4.130 -1.6732 -0.2240 -0.2431
  185POPC    C321248   4.409   2.553   3.974 -0.1155  0.4435 -0.0909
  185POPC    HX21249   4.482   2.476   3.942 -1.3352 -0.2859 -1.1992
  185POPC    HY21250   4.332   2.554   3.895 -0.9158 -0.6732  0.6499
  185POPC   O3121251   4.343   2.515   4.098 -0.1921 -0.7847  0.1883
  185POPC   C3121252   4.301   2.394   4.114 -0.5028 -0.4434 -0.4966
  185POPC   O3221253   4.327   2.296   4.044  0.1545  0.3812 -0.0195
  185POPC   C3221254   4.215   2.389   4.244  0.1583 -0.9537  0.0273
  185POPC   H2X21255   4.131   2.459   4.225  1.6018  0.8132 -0.0581
  185POPC   H2Y21256   4.275   2.425   4.330 -0.9814 -0.7083  0.7407
  185POPC   C2321257   4.849   2.664   4.314  0.2277 -0.6955  0.3609
  185POPC   H3R21258   4.762   2.613   4.360  0.0393  1.3378  2.4291
  185POPC   H3S21259   4.846   2.771   4.344 -1.4743 -0.6692  0.2142
  185POPC   C2421260   4.981   2.616   4.366 -0.2096 -0.1763 -0.8591
  185POPC   H4R21261   5.064   2.688   4.352 -3.0422  3.3241 -1.2203
  185POPC   H4S21262   4.999   2.513   4.330 -1.0055 -0.4046 -0.6252
  185POPC   C2521263   4.965   2.603   4.518  0.3289  0.2434 -0.2632
  185POPC   H5R21264   4.909   2.510   4.540 -0.1183  0.3070 -1.0903
  185POPC   H5S21265   4.894   2.682   4.551 -1.3853 -1.0782 -0.6380
  185POPC   C2621266   5.095   2.607   4.597 -0.8134  0.0046 -0.6420
  185POPC   H6R21267   5.160   2.692   4.567  0.0359  0.4090  2.0688
  185POPC   H6S21268   5.140   2.505   4.589 -2.2273 -0.8309  1.3087
  185POPC   C2721269   5.079   2.628   4.750  0.0676  0.0788  0.0023
  185POPC   H7R21270   4.996   2.563   4.783  1.0767 -0.6970  1.0607
  185POPC   H7S21271   5.056   2.737   4.756 -0.6497  0.0568 -1.7988
  185POPC   C2821272   5.202   2.594   4.832 -0.1167 -0.3300 -0.0249
  185POPC   H8R21273   5.293   2.640   4.789 -0.0031 -0.5345 -0.0065
  185POPC   H8S21274   5.230   2.486   4.841  3.8698  0.4506 -1.1514
  185POPC   C2921275   5.177   2.660   4.966 -0.4747  0.4835  0.2493
  185POPC   H9121276   5.165   2.769   4.963 -0.2133  0.4977 -0.4787
  185POPC  C21021277   5.159   2.589   5.083  0.1708 -0.4345  0.3185
  185POPC  H10121278   5.120   2.651   5.166 -1.2187 -1.5848  0.5547
  185POPC  C21121279   5.174   2.447   5.109  0.4156  1.1533 -0.1230
  185POPC  H11R21280   5.189   2.388   5.016  0.5620 -0.5849  0.9587
  185POPC  H11S21281   5.084   2.407   5.160 -0.5325 -0.0146 -2.5318
  185POPC  C21221282   5.303   2.422   5.194  0.9766  0.2369  0.5651
  185POPC  H12R21283   5.293   2.464   5.296  0.2574 -0.7574  0.9275
  185POPC  H12S21284   5.382   2.481   5.145  0.4099  0.8767  0.4100
  185POPC  C21321285   5.330   2.276   5.196  0.4833  0.2561 -0.4340
  185POPC  H13R21286   5.427   2.250   5.244  0.4974  0.4690 -0.3425
  185POPC  H13S21287   5.333   2.235   5.093  3.4314 -0.4013 -0.1859
  185POPC  C21421288   5.232   2.178   5.268  0.2090  0.0648 -0.2498
  185POPC  H14R21289   5.248   2.071   5.242  0.5598  0.3091 -1.0573
  185POPC  H14S21290   5.129   2.202   5.235  0.4161  1.3561  0.0048
  185POPC  C21521291   5.223   2.183   5.418 -0.2666  0.0375  0.3910
  185POPC  H15R21292   5.182   2.285   5.428  0.8369  0.4567  0.7953
  185POPC  H15S21293   5.320   2.178   5.474  0.4423 -1.1704 -0.8815
  185POPC  C21621294   5.113   2.090   5.482 -0.5678 -0.2229  0.1467
  185POPC  H16R21295   5.164   2.001   5.525  0.8789 -0.1692 -1.3642
  185POPC  H16S21296   5.034   2.052   5.414 -0.6997  0.4939 -0.1079
  185POPC  C21721297   5.046   2.160   5.607  1.1963 -0.2725  0.0209
  185POPC  H17R21298   4.955   2.102   5.634 -0.7518  1.0949 -3.0533
  185POPC  H17S21299   5.003   2.260   5.584  1.0585 -0.4691 -0.6007
  185POPC  C21821300   5.139   2.179   5.725  0.1039 -0.0211  0.3828
  185POPC  H18R21301   5.086   2.226   5.811 -0.4329 -0.5327  0.3364
  185POPC  H18S21302   5.231   2.234   5.695  0.9061 -2.0409 -1.0918
  185POPC  H18T21303   5.169   2.084   5.774  1.0913 -0.0690 -0.2914
  185POPC   C3321304   4.155   2.253   4.274 -0.6210  0.5412  0.0110
  185POPC   H3X21305   4.236   2.178   4.259  0.1486  1.1711  0.9074
  185POPC   H3Y21306   4.082   2.218   4.197  2.8069 -1.6115 -2.5863
  185POPC   C3421307   4.128   2.240   4.420  0.8415  0.3152  0.1217
  185POPC   H4X21308   4.214   2.280   4.478  3.3394 -2.3179 -1.4785
  185POPC   H4Y21309   4.106   2.132   4.434  1.1390 -0.0227 -1.6993
  185POPC   C3521310   3.983   2.292   4.447 -0.7771 -0.1253  0.7265
  185POPC   H5X21311   3.915   2.252   4.368  0.1022 -2.0247  0.8621
  185POPC   H5Y21312   3.985   2.402   4.431  1.7667 -0.2344 -0.1279
  185POPC   C3621313   3.942   2.254   4.592 -0.4427  0.0923  0.6464
  185POPC   H6X21314   3.939   2.143   4.590 -1.3549  0.1143 -0.7290
  185POPC   H6Y21315   3.839   2.296   4.602 -0.1610  1.1123 -0.4427
  185POPC   C3721316   4.021   2.312   4.701 -0.5435 -0.2021 -0.4938
  185POPC   H7X21317   4.041   2.418   4.677  0.5865 -0.3639 -0.3576
  185POPC   H7Y21318   4.115   2.253   4.711 -0.6445 -0.1115  1.2667
  185POPC   C3821319   3.959   2.299   4.846  0.1925  0.7082  0.7921
  185POPC   H8X21320   3.932   2.196   4.879 -1.5191  1.2251  1.0817
  185POPC   H8Y21321   3.865   2.358   4.853  0.8335  1.5586  2.9733
  185POPC   C3921322   4.054   2.348   4.956  0.6758  0.7137 -0.6980
  185POPC   H9X21323   4.094   2.443   4.914  0.0214  2.2937  2.0295
  185POPC   H9Y21324   4.138   2.276   4.972 -1.5751 -2.2480 -1.2920
  185POPC  C31021325   3.975   2.382   5.089 -0.3873  0.6034  0.2070
  185POPC  H10X21326   3.938   2.287   5.133 -0.6780  0.9147  0.6441
  185POPC  H10Y21327   3.890   2.448   5.063 -0.3829  0.9679  1.0862
  185POPC  C31121328   4.057   2.452   5.198  0.8249 -0.7718 -0.6174
  185POPC  H11X21329   3.987   2.489   5.275  1.8855 -0.4366  0.2035
  185POPC  H11Y21330   4.098   2.548   5.159 -1.6441  0.3786 -0.5942
  185POPC  C31221331   4.171   2.380   5.253  0.0826  0.2021  0.5161
  185POPC  H12X21332   4.253   2.446   5.287  1.5264 -1.6201  0.7145
  185POPC  H12Y21333   4.226   2.317   5.180  1.2261  1.1341  0.5605
  185POPC  C31321334   4.129   2.278   5.361  0.0186  0.3508  0.0167
  185POPC  H13X21335   4.052   2.210   5.319  0.8498  0.4228 -1.7118
  185POPC  H13Y21336   4.085   2.333   5.447 -0.6909 -3.3137  2.1858
  185POPC  C31421337   4.251   2.202   5.417 -0.1392 -0.7580 -0.2927
  185POPC  H14X21338   4.318   2.278   5.462 -0.9035 -1.6482  2.5100
  185POPC  H14Y21339   4.303   2.157   5.329  2.4940  1.5789 -0.0880
  185POPC  C31521340   4.214   2.090   5.509 -0.1005 -0.1656  0.2616
  185POPC  H15X21341   4.142   2.033   5.447 -0.2696 -0.0432  0.3442
  185POPC  H15Y21342   4.153   2.127   5.595  1.2891  1.7265  0.4926
  185POPC  C31621343   4.331   2.005   5.554  0.3259 -0.3977  0.3201
  185POPC  H16X21344   4.392   1.976   5.466 -0.1558  0.5666 -0.3434
  185POPC  H16Y21345   4.293   1.911   5.598  0.6819 -1.1867 -1.0055
  185POPC  H16Z21346   4.394   2.061   5.627 -2.8796  2.7311  0.9546
  186POPC     N21347   6.417   5.847   3.437  0.5775 -0.1992 -0.0824
  186POPC   C1221348   6.368   5.922   3.559 -0.4601  0.8239  0.1772
  186POPC  H12A21349   6.285   5.987   3.534 -4.6190 -3.5232  0.9985
  186POPC  H12B21350   6.449   5.983   3.594 -0.1768  0.7247 -0.3032
  186POPC   C1321351   6.527   5.743   3.477  0.7014 -0.3406 -0.4300
  186POPC  H13A21352   6.485   5.676   3.550 -3.0700  0.7430 -1.3420
  186POPC  H13B21353   6.557   5.684   3.392 -2.6760 -0.7560 -1.5073
  186POPC  H13C21354   6.608   5.795   3.526 -1.1388  0.1781  2.3049
  186POPC   C1421355   6.312   5.757   3.383  0.6387 -0.0034 -0.3446
  186POPC  H14A21356   6.278   5.688   3.459 -0.4768  1.3063  0.3956
  186POPC  H14B21357   6.229   5.814   3.343  1.9181  0.7304 -2.0615
  186POPC  H14C21358   6.358   5.703   3.302  0.6241  0.9928 -1.0296
  186POPC   C1521359   6.450   5.937   3.323  0.0723 -0.1266 -0.5799
  186POPC  H15A21360   6.463   5.879   3.233  0.7395 -1.6929  0.4830
  186POPC  H15B21361   6.532   5.996   3.361  0.4432  0.3639 -2.0632
  186POPC  H15C21362   6.362   5.997   3.305 -0.7907 -1.0515  0.3721
  186POPC   C1121363   6.332   5.847   3.695 -0.2429 -0.0724 -0.0797
  186POPC  H11A21364   6.254   5.770   3.672  0.1649 -0.8474  1.0742
  186POPC  H11B21365   6.284   5.918   3.765 -0.3970  0.5064 -0.7612
  186POPC     P21366   6.552   5.827   3.847 -0.2826  0.3871 -0.3554
  186POPC   O1321367   6.648   5.914   3.774  0.1086 -0.2358  0.1883
  186POPC   O1421368   6.614   5.710   3.911  0.1701 -0.2252  0.1272
  186POPC   O1221369   6.437   5.773   3.755  0.2316  0.2167  0.4036
  186POPC   O1121370   6.481   5.913   3.955  0.3399  0.7812 -0.8435
  186POPC    C121371   6.460   6.048   3.951 -0.2452 -0.3192 -0.6649
  186POPC    HA21372   6.371   6.075   4.012 -0.6616  0.7878 -1.7191
  186POPC    HB21373   6.423   6.087   3.854 -0.5821  1.6037  0.2053
  186POPC    C221374   6.587   6.132   3.989  0.0827  0.8549 -0.6446
  186POPC    HS21375   6.668   6.109   3.917  0.8257 -0.1262  0.4606
  186POPC   O2121376   6.631   6.071   4.116  0.3111  0.1335  0.0371
  186POPC   C2121377   6.766   6.098   4.139  1.0592  0.7309 -0.1763
  186POPC   O2221378   6.839   6.159   4.065  0.3256  0.0883 -0.1816
  186POPC   C2221379   6.799   6.022   4.262  0.3325  0.3394 -0.4739
  186POPC   H2R21380   6.878   5.955   4.224  1.9401  1.7568  0.2518
  186POPC   H2S21381   6.715   5.961   4.301  1.3459 -0.1039  1.0744
  186POPC    C321382   6.559   6.284   3.982  0.2303 -0.4373 -0.1079
  186POPC    HX21383   6.521   6.309   3.881  1.0288 -1.4427 -0.6700
  186POPC    HY21384   6.659   6.334   3.985  0.1484 -0.0174 -2.4796
  186POPC   O3121385   6.469   6.333   4.093  0.1923  0.3866 -0.0058
  186POPC   C3121386   6.528   6.389   4.201  0.1902  0.7113  0.0143
  186POPC   O3221387   6.649   6.415   4.211 -0.0591  0.3997 -0.6604
  186POPC   C3221388   6.428   6.406   4.306  0.0348 -0.2368 -0.7419
  186POPC   H2X21389   6.371   6.311   4.313  3.2591 -2.2800  0.1034
  186POPC   H2Y21390   6.356   6.490   4.295 -1.1736 -1.1072  0.2555
  186POPC   C2321391   6.872   6.112   4.376  0.1870  0.4196 -0.2778
  186POPC   H3R21392   6.818   6.205   4.403  0.0772  0.6721 -1.3221
  186POPC   H3S21393   6.965   6.151   4.330  1.4965 -0.8841  1.1306
  186POPC   C2421394   6.904   6.018   4.494 -0.5593 -0.0833  0.4330
  186POPC   H4R21395   6.958   5.928   4.458  0.9049  0.5315  1.0144
  186POPC   H4S21396   6.805   5.982   4.530 -0.5177 -0.6691 -0.0205
  186POPC   C2521397   6.978   6.083   4.607  0.4387  0.0835  0.4194
  186POPC   H5R21398   6.936   6.180   4.642  0.2708  0.2985 -0.3559
  186POPC   H5S21399   7.086   6.104   4.590  0.1501  0.9230 -0.4436
  186POPC   C2621400   6.984   5.981   4.729  0.0793 -0.3058 -0.0346
  186POPC   H6R21401   7.022   5.882   4.695 -2.5718 -2.3375  2.4163
  186POPC   H6S21402   6.880   5.962   4.763  0.1198 -0.3542  0.0619
  186POPC   C2721403   7.073   6.034   4.845 -0.1056  0.2239  0.3002
  186POPC   H7R21404   7.040   6.139   4.859  1.8639  1.0791 -0.9479
  186POPC   H7S21405   7.182   6.043   4.822 -0.1404  1.7315  0.5960
  186POPC   C2821406   7.054   5.954   4.976  0.3213 -0.4151  0.4711
  186POPC   H8R21407   7.131   5.972   5.054  1.0374 -1.1526 -0.0467
  186POPC   H8S21408   7.069   5.851   4.937  0.3645  0.4767 -2.0370
  186POPC   C2921409   6.918   5.968   5.040 -0.3491  0.1553  0.4356
  186POPC   H9121410   6.834   5.972   4.969  0.2966 -1.8371 -0.5293
  186POPC  C21021411   6.893   6.005   5.163 -0.2490 -0.0880 -0.2987
  186POPC  H10121412   6.790   6.023   5.196 -0.9661 -0.7005 -2.0775
  186POPC  C21121413   6.990   6.018   5.277 -0.8454  0.2373  0.5317
  186POPC  H11R21414   7.027   6.122   5.285  0.7895 -0.2911  0.2845
  186POPC  H11S21415   7.081   5.956   5.257  0.0295  1.3336  0.9959
  186POPC  C21221416   6.922   5.964   5.402 -0.0594  0.5637  0.2755
  186POPC  H12R21417   6.893   5.859   5.384  0.8577  0.0759  1.5369
  186POPC  H12S21418   6.834   6.026   5.429  1.5365  2.6567  0.9666
  186POPC  C21321419   7.016   5.955   5.527  0.5471  0.6105  0.2873
  186POPC  H13R21420   7.113   5.915   5.491  1.8356  2.6744  1.2843
  186POPC  H13S21421   6.969   5.897   5.610  2.1508  0.7272  1.3142
  186POPC  C21421422   7.056   6.088   5.575 -0.2936  0.2946 -0.0120
  186POPC  H14R21423   6.957   6.140   5.582 -1.5977 -1.8042 -1.5638
  186POPC  H14S21424   7.105   6.151   5.498 -1.6266 -0.5660 -1.6453
  186POPC  C21521425   7.160   6.081   5.692 -0.2484 -0.0590  0.0437
  186POPC  H15R21426   7.253   6.033   5.657 -1.2942 -1.3156 -1.1575
  186POPC  H15S21427   7.118   6.026   5.779  1.3980 -1.5416 -0.0503
  186POPC  C21621428   7.195   6.221   5.746 -0.0709  0.1689  0.1812
  186POPC  H16R21429   7.239   6.269   5.656 -1.5697 -0.5082 -0.9675
  186POPC  H16S21430   7.270   6.206   5.826 -0.1446 -1.9005 -0.0824
  186POPC  C21721431   7.074   6.287   5.810  0.4814 -0.5818  0.3156
  186POPC  H17R21432   7.010   6.212   5.862 -0.6325  0.7298  0.8897
  186POPC  H17S21433   7.007   6.331   5.734  0.5862  5.5829  3.2167
  186POPC  C21821434   7.104   6.388   5.916 -0.1832  0.5855 -0.1142
  186POPC  H18R21435   7.121   6.348   6.018 -0.6611 -1.3969 -0.7611
  186POPC  H18S21436   7.197   6.445   5.895 -0.2221  0.6486 -0.1171
  186POPC  H18T21437   7.029   6.470   5.914  0.0918  0.8219 -1.9083
  186POPC   C3321438   6.494   6.426   4.442 -0.3230 -0.0831 -0.8373
  186POPC   H3X21439   6.566   6.511   4.451 -1.1613  0.4403  1.7770
  186POPC   H3Y21440   6.552   6.338   4.475  2.1243  2.1485  1.3234
  186POPC   C3421441   6.390   6.453   4.547 -0.6142  0.8200  0.2055
  186POPC   H4X21442   6.324   6.365   4.539  0.4321  0.1912 -3.1594
  186POPC   H4Y21443   6.345   6.551   4.518  1.1739  1.1505 -1.7112
  186POPC   C3521444   6.453   6.467   4.691  0.1370 -0.1094  0.2714
  186POPC   H5X21445   6.530   6.547   4.694 -0.4178  0.4813 -0.6802
  186POPC   H5Y21446   6.495   6.365   4.705  0.0218  0.0172  1.7071
  186POPC   C3621447   6.344   6.501   4.794  0.1029  0.0246 -0.1142
  186POPC   H6X21448   6.258   6.433   4.778  1.6944 -2.2835  0.5809
  186POPC   H6Y21449   6.313   6.607   4.781 -0.9464 -0.4676 -1.9354
  186POPC   C3721450   6.392   6.449   4.929  0.1960 -0.3594 -0.2164
  186POPC   H7X21451   6.471   6.517   4.966 -0.2083 -0.1113  0.1929
  186POPC   H7Y21452   6.420   6.343   4.913  1.7349 -0.4471  2.4728
  186POPC   C3821453   6.283   6.449   5.040 -0.0463  0.4790 -0.5748
  186POPC   H8X21454   6.192   6.395   5.005 -0.5542  2.0294 -1.7350
  186POPC   H8Y21455   6.255   6.556   5.046  1.5615  0.8655  0.5027
  186POPC   C3921456   6.339   6.400   5.184  0.2201 -0.3364 -0.3523
  186POPC   H9X21457   6.422   6.464   5.219 -0.3219 -0.6936  1.7219
  186POPC   H9Y21458   6.370   6.293   5.176  1.3993 -0.2283  1.8846
  186POPC  C31021459   6.237   6.400   5.303 -0.5731 -0.3681  0.3911
  186POPC  H10X21460   6.181   6.304   5.303 -0.7301 -0.2884  1.3125
  186POPC  H10Y21461   6.157   6.476   5.292  0.0010 -0.0118 -1.8686
  186POPC  C31121462   6.288   6.410   5.444  0.2490  0.1322  0.1502
  186POPC  H11X21463   6.334   6.510   5.457 -1.5360  1.0175  0.0031
  186POPC  H11Y21464   6.371   6.339   5.466  0.0758  0.3858  1.7470
  186POPC  C31221465   6.177   6.412   5.549 -0.2115  0.1766  0.2549
  186POPC  H12X21466   6.146   6.306   5.557 -0.7461  0.2847 -0.3692
  186POPC  H12Y21467   6.099   6.481   5.510 -1.4274  0.8809  3.5853
  186POPC  C31321468   6.233   6.455   5.687  0.2829 -0.0912  0.1091
  186POPC  H13X21469   6.249   6.564   5.675  0.5557 -0.3980 -3.2929
  186POPC  H13Y21470   6.329   6.401   5.703  1.4032  2.5509  3.7111
  186POPC  C31421471   6.140   6.422   5.800 -0.7178  0.3856 -0.1352
  186POPC  H14X21472   6.121   6.312   5.796  0.6739  0.0968  0.5471
  186POPC  H14Y21473   6.049   6.485   5.792  0.3987  1.8028 -2.6278
  186POPC  C31521474   6.215   6.433   5.936 -0.8649 -0.8163 -1.1045
  186POPC  H15X21475   6.309   6.375   5.926  0.6227  1.5349 -1.5201
  186POPC  H15Y21476   6.155   6.384   6.016 -1.5372  2.1299  0.3475
  186POPC  C31621477   6.246   6.574   5.983  0.3683 -0.3492  0.1313
  186POPC  H16X21478   6.297   6.575   6.081 -1.7159 -1.4141  1.2912
  186POPC  H16Y21479   6.149   6.627   5.996  0.1799 -0.7123  0.2286
  186POPC  H16Z21480   6.313   6.625   5.910  1.7316 -1.2195  0.7302
  187POPC     N21481   5.419   2.069   3.317 -0.0489  0.5782  0.3013
  187POPC   C1221482   5.319   1.950   3.334  0.6127  0.0811 -0.0854
  187POPC  H12A21483   5.339   1.879   3.256 -0.8668 -2.0135  1.3465
  187POPC  H12B21484   5.218   1.981   3.313 -0.0675 -2.4933 -0.9954
  187POPC   C1321485   5.558   2.022   3.325  0.1732  0.0426  0.1893
  187POPC  H13A21486   5.585   2.006   3.428 -0.0286 -0.5399  0.1571
  187POPC  H13B21487   5.573   1.924   3.283  1.5433  1.1488 -2.1047
  187POPC  H13C21488   5.631   2.085   3.276  0.8431  0.5062  1.7257
  187POPC   C1421489   5.398   2.121   3.177 -0.3726 -0.3121 -0.4429
  187POPC  H14A21490   5.298   2.146   3.146 -1.0136 -2.7526 -0.5322
  187POPC  H14B21491   5.459   2.205   3.147 -1.8275  0.8059 -0.3970
  187POPC  H14C21492   5.419   2.042   3.106  1.7359 -0.9700  0.8260
  187POPC   C1521493   5.385   2.184   3.414 -0.3069  0.4180  0.2921
  187POPC  H15A21494   5.405   2.163   3.518  1.5791  0.8958  0.0531
  187POPC  H15B21495   5.278   2.193   3.405 -0.2389  2.0420  0.7603
  187POPC  H15C21496   5.429   2.275   3.376  0.5549 -0.1941 -0.2086
  187POPC   C1121497   5.317   1.874   3.472 -0.2979  0.6799  0.0327
  187POPC  H11A21498   5.220   1.821   3.488  0.5317 -0.4862  1.4280
  187POPC  H11B21499   5.319   1.960   3.541 -0.0078  0.6929  0.0080
  187POPC     P21500   5.428   1.642   3.490  0.0300  0.1327 -0.0957
  187POPC   O1321501   5.559   1.579   3.454  0.1342  0.5546  0.5597
  187POPC   O1421502   5.308   1.593   3.418 -0.0564 -0.2265 -0.2290
  187POPC   O1221503   5.438   1.799   3.485 -0.1098  0.0568 -0.1437
  187POPC   O1121504   5.406   1.610   3.642  0.4203  0.2563  0.0741
  187POPC    C121505   5.299   1.666   3.719  0.1937  0.5286 -0.2919
  187POPC    HA21506   5.247   1.587   3.777 -0.1599  1.2307  0.3779
  187POPC    HB21507   5.218   1.710   3.658 -0.9057 -1.3439 -0.2397
  187POPC    C221508   5.349   1.767   3.825  0.4194 -0.3254  0.5388
  187POPC    HS21509   5.418   1.837   3.773  1.6680 -2.3479 -0.6764
  187POPC   O2121510   5.437   1.706   3.922  0.5276 -0.0548  0.1716
  187POPC   C2121511   5.511   1.790   3.983 -0.3128 -0.2235 -0.0701
  187POPC   O2221512   5.531   1.907   3.956  0.4756  0.2173 -0.2488
  187POPC   C2221513   5.598   1.714   4.084 -0.2069  0.3810 -0.3726
  187POPC   H2R21514   5.646   1.633   4.024  1.9814  0.4559  1.1462
  187POPC   H2S21515   5.534   1.668   4.163 -0.2598  1.4565  0.2247
  187POPC    C321516   5.234   1.833   3.901  0.5478  0.3558 -0.5224
  187POPC    HX21517   5.168   1.887   3.830 -1.7125  0.9150  1.8185
  187POPC    HY21518   5.271   1.908   3.975 -0.1583 -2.1651  2.5964
  187POPC   O3121519   5.160   1.723   3.963 -0.3759 -0.4698  0.2732
  187POPC   C3121520   5.144   1.720   4.097  0.5109  0.1339 -0.4701
  187POPC   O3221521   5.204   1.791   4.175 -0.9025  0.0408  0.9512
  187POPC   C3221522   5.033   1.621   4.129  0.3247  0.5735  0.7794
  187POPC   H2X21523   5.021   1.549   4.045  1.3412 -0.5090  1.5247
  187POPC   H2Y21524   4.936   1.676   4.137 -0.5422 -0.6491 -0.7516
  187POPC   C2321525   5.712   1.805   4.136  0.0704  0.4477 -0.5051
  187POPC   H3R21526   5.741   1.877   4.056 -1.5211 -0.1544 -1.6621
  187POPC   H3S21527   5.801   1.742   4.159 -0.1137 -0.6946 -2.7308
  187POPC   C2421528   5.658   1.885   4.254  0.1874  0.0938  1.1933
  187POPC   H4R21529   5.570   1.940   4.215  0.3077 -1.2415 -1.1199
  187POPC   H4S21530   5.722   1.971   4.281  0.2874 -0.2572  2.1257
  187POPC   C2521531   5.620   1.803   4.380 -0.9913 -0.5749 -0.6047
  187POPC   H5R21532   5.705   1.815   4.451 -0.3527  0.1767 -1.4811
  187POPC   H5S21533   5.606   1.696   4.354  1.4302 -0.9700 -0.5191
  187POPC   C2621534   5.483   1.859   4.438 -0.4487  0.0834 -1.1165
  187POPC   H6R21535   5.408   1.858   4.356  0.2378  0.1247 -1.7647
  187POPC   H6S21536   5.501   1.963   4.472  0.3904  0.1273 -1.6520
  187POPC   C2721537   5.441   1.771   4.557  0.6294  0.2435  0.7835
  187POPC   H7R21538   5.517   1.752   4.635  0.1711 -2.4920  0.6650
  187POPC   H7S21539   5.407   1.677   4.509  2.3023 -0.2282  0.4501
  187POPC   C2821540   5.331   1.833   4.646  0.0099 -0.1777  0.0825
  187POPC   H8R21541   5.277   1.759   4.709  0.0118 -0.6053 -0.4178
  187POPC   H8S21542   5.265   1.888   4.575  1.6341 -0.5312 -1.7880
  187POPC   C2921543   5.388   1.941   4.740  0.7404  0.0761  0.7317
  187POPC   H9121544   5.388   2.042   4.696 -0.2438  1.1289  2.9973
  187POPC  C21021545   5.438   1.931   4.859 -0.1384  0.0465 -0.2760
  187POPC  H10121546   5.466   2.023   4.912 -0.6359  0.0444 -0.0083
  187POPC  C21121547   5.461   1.813   4.946  0.3502  0.3354 -0.0733
  187POPC  H11R21548   5.552   1.823   5.009  1.2911  0.6108 -1.4257
  187POPC  H11S21549   5.504   1.729   4.887  2.7975  0.0215  1.9829
  187POPC  C21221550   5.339   1.760   5.032  0.2115 -0.2136  0.2765
  187POPC  H12R21551   5.264   1.717   4.962  0.7839 -0.0461 -0.4511
  187POPC  H12S21552   5.293   1.837   5.099 -2.1408 -0.9968 -0.3509
  187POPC  C21321553   5.373   1.646   5.132 -0.0167 -0.2244 -0.1179
  187POPC  H13R21554   5.443   1.565   5.100  0.2035 -0.6660  1.4131
  187POPC  H13S21555   5.284   1.583   5.153 -0.8513  0.6985 -0.8263
  187POPC  C21421556   5.431   1.701   5.263 -0.0715 -0.2850 -0.1627
  187POPC  H14R21557   5.356   1.763   5.317  0.6823  1.6717 -1.2440
  187POPC  H14S21558   5.514   1.773   5.243  0.3790 -0.2541  1.6292
  187POPC  C21521559   5.484   1.588   5.354 -0.8044 -0.2490  0.2943
  187POPC  H15R21560   5.558   1.526   5.300  0.5999  1.3776  0.2441
  187POPC  H15S21561   5.395   1.534   5.391 -0.5321 -0.2388  0.9802
  187POPC  C21621562   5.567   1.652   5.466  0.4638 -0.2096  0.6752
  187POPC  H16R21563   5.491   1.721   5.508 -1.4108 -1.0476 -1.1818
  187POPC  H16S21564   5.645   1.711   5.412 -0.5106 -0.1879 -0.7737
  187POPC  C21721565   5.616   1.561   5.575  0.5374  0.2163 -0.2351
  187POPC  H17R21566   5.692   1.494   5.529  1.0668  1.5909 -1.4229
  187POPC  H17S21567   5.535   1.495   5.612  0.5376  1.3002  1.8378
  187POPC  C21821568   5.673   1.644   5.691  1.5675 -0.4035  0.3785
  187POPC  H18R21569   5.735   1.732   5.664  1.2358 -0.0681  0.6830
  187POPC  H18S21570   5.727   1.581   5.765 -0.9267  1.4687  4.1970
  187POPC  H18T21571   5.581   1.697   5.726 -0.7233 -1.7059 -3.1625
  187POPC   C3321572   5.061   1.545   4.263  0.0433 -0.6298 -0.1488
  187POPC   H3X21573   5.170   1.542   4.286 -0.1624  1.1845  1.2876
  187POPC   H3Y21574   5.030   1.438   4.257  0.9140 -0.8434 -1.1084
  187POPC   C3421575   4.998   1.617   4.390  0.0644 -0.4054  0.7646
  187POPC   H4X21576   4.896   1.658   4.371  0.8484  0.3007 -2.7402
  187POPC   H4Y21577   5.040   1.718   4.407 -1.0117  0.0524  0.7770
  187POPC   C3521578   5.018   1.538   4.518 -0.4582  0.2795  0.7379
  187POPC   H5X21579   5.120   1.494   4.509 -0.6176 -0.0074  0.2271
  187POPC   H5Y21580   4.951   1.450   4.504  0.2434 -0.1298 -0.1826
  187POPC   C3621581   4.991   1.615   4.645  0.5412  0.8075  0.0445
  187POPC   H6X21582   4.890   1.657   4.660  1.1954  1.7012  2.3960
  187POPC   H6Y21583   5.067   1.696   4.657  1.4179 -0.1891  1.6762
  187POPC   C3721584   5.010   1.525   4.767  0.2136  0.1102 -0.2025
  187POPC   H7X21585   5.112   1.482   4.760  0.5098  0.7350  0.1289
  187POPC   H7Y21586   4.946   1.436   4.751 -0.3717  0.5914 -0.6166
  187POPC   C3821587   4.989   1.586   4.898 -0.0171  0.1838  0.6861
  187POPC   H8X21588   4.883   1.614   4.913  0.0559  0.1860  1.2157
  187POPC   H8Y21589   5.039   1.686   4.905  1.5160 -0.5423  0.6173
  187POPC   C3921590   5.038   1.499   5.021 -0.5073 -0.0940  0.4279
  187POPC   H9X21591   5.149   1.492   5.016 -0.4058 -2.8188  3.3505
  187POPC   H9Y21592   4.996   1.396   5.014  0.7502 -0.5862 -0.0967
  187POPC  C31021593   5.005   1.571   5.154  0.2158  0.5527 -0.2646
  187POPC  H10X21594   4.895   1.577   5.148  0.0854 -0.5412  0.6322
  187POPC  H10Y21595   5.045   1.674   5.149  3.2129 -0.4815  0.2740
  187POPC  C31121596   5.031   1.513   5.288  0.0038  0.6047  0.3281
  187POPC  H11X21597   5.130   1.463   5.290 -0.8686 -1.3737 -1.6037
  187POPC  H11Y21598   4.959   1.430   5.306  1.1848 -0.6553 -0.5639
  187POPC  C31221599   5.020   1.619   5.401 -0.1583  0.4803  0.5077
  187POPC  H12X21600   4.922   1.667   5.380 -1.0584 -0.4076  2.3779
  187POPC  H12Y21601   5.104   1.691   5.398 -1.1263  1.7644  2.0773
  187POPC  C31321602   5.033   1.548   5.537  0.2704  0.4876 -0.3414
  187POPC  H13X21603   5.131   1.498   5.549  0.2799  0.3909 -0.7861
  187POPC  H13Y21604   4.958   1.467   5.550 -0.1132  1.1409  1.8094
  187POPC  C31421605   5.030   1.641   5.660 -0.0881 -0.3599  0.3134
  187POPC  H14X21606   4.991   1.580   5.744  2.0772 -1.0420  0.8832
  187POPC  H14Y21607   4.950   1.715   5.634  1.4338  0.8947 -1.0179
  187POPC  C31521608   5.167   1.695   5.682  0.1181  0.2704 -0.0664
  187POPC  H15X21609   5.191   1.777   5.610  0.4609  2.1912  2.1193
  187POPC  H15Y21610   5.239   1.611   5.670 -0.9801 -0.5587 -1.0992
  187POPC  C31621611   5.198   1.740   5.822 -0.7340  0.3710  0.3986
  187POPC  H16X21612   5.177   1.659   5.896 -0.5723  0.2382  0.3015
  187POPC  H16Y21613   5.142   1.833   5.844  0.0810  1.2549 -1.0851
  187POPC  H16Z21614   5.306   1.766   5.827 -0.5397 -0.4329  0.6713
  188POPC     N21615   0.381   4.144   3.693  0.4157  0.4532  0.0548
  188POPC   C1221616   0.266   4.246   3.719  0.7479  0.1001  0.1699
  188POPC  H12A21617   0.289   4.337   3.666  1.8096 -0.5501 -0.5192
  188POPC  H12B21618   0.255   4.269   3.824 -1.5676 -0.7861  0.1895
  188POPC   C1321619   0.372   4.096   3.549 -0.7055  0.4762  0.1146
  188POPC  H13A21620   0.285   4.032   3.542  1.0970 -2.0522 -0.8564
  188POPC  H13B21621   0.362   4.180   3.483  2.7581  0.3123 -0.8132
  188POPC  H13C21622   0.465   4.045   3.527 -0.5192 -0.3637  2.5210
  188POPC   C1421623   0.518   4.201   3.723 -0.3646  0.3033 -0.3638
  188POPC  H14A21624   0.592   4.123   3.722 -0.2097  0.2160  3.1874
  188POPC  H14B21625   0.537   4.287   3.660  0.6799 -0.0525 -0.5506
  188POPC  H14C21626   0.526   4.225   3.828  1.8705 -0.5980 -0.2669
  188POPC   C1521627   0.372   4.024   3.784 -0.7427  0.5759 -0.2811
  188POPC  H15A21628   0.411   4.036   3.884  0.6286 -2.1885 -0.3591
  188POPC  H15B21629   0.430   3.945   3.737  1.1655  2.4231 -1.1748
  188POPC  H15C21630   0.268   3.996   3.788 -0.2991 -1.5005 -1.6141
  188POPC   C1121631   0.123   4.209   3.674  0.6190 -0.3914  0.4368
  188POPC  H11A21632   0.097   4.108   3.713 -0.2175 -0.2932  0.1464
  188POPC  H11B21633   0.126   4.199   3.564  0.9700  0.4537  0.3589
  188POPC     P21634  -0.019   4.314   3.867 -0.2915 -0.3165  0.0279
  188POPC   O1321635  -0.152   4.382   3.861 -0.2194 -0.0976 -0.4354
  188POPC   O1421636   0.086   4.376   3.949 -0.1189  0.2818  0.0307
  188POPC   O1221637   0.026   4.302   3.718  0.0946 -0.2962  0.0044
  188POPC   O1121638  -0.027   4.169   3.921  0.0575  0.6062 -0.4240
  188POPC    C121639  -0.097   4.141   4.048  0.8823  0.4399  0.2641
  188POPC    HA21640  -0.193   4.090   4.027  0.6121  1.1303 -0.2120
  188POPC    HB21641  -0.117   4.232   4.108 -0.9882  0.1394  0.1613
  188POPC    C221642  -0.014   4.034   4.129  0.4550 -0.2321 -0.0654
  188POPC    HS21643  -0.015   3.941   4.068 -0.1475 -0.2654 -0.0056
  188POPC   O2121644  -0.063   4.009   4.258 -0.2253 -0.2388  0.3826
  188POPC   C2121645  -0.169   3.937   4.270  0.1559  0.5094 -0.4447
  188POPC   O2221646  -0.233   3.889   4.177  0.4785  0.0349 -0.6755
  188POPC   C2221647  -0.198   3.917   4.422 -0.3419  0.5303 -0.2183
  188POPC   H2R21648  -0.163   4.005   4.480 -1.6870  0.5926  0.5251
  188POPC   H2S21649  -0.136   3.830   4.454 -1.0539  0.3274  0.6474
  188POPC    C321650   0.137   4.074   4.145 -0.3901 -0.2340 -0.0750
  188POPC    HX21651   0.155   4.169   4.201  1.0251  0.1069 -1.0251
  188POPC    HY21652   0.185   4.095   4.047  0.5551  1.5726  0.7132
  188POPC   O3121653   0.208   3.967   4.211  0.2408 -0.3104  0.1804
  188POPC   C3121654   0.240   3.865   4.135 -0.2965 -0.0540  0.6525
  188POPC   O3221655   0.223   3.864   4.018 -0.3103  0.3990 -0.2129
  188POPC   C3221656   0.287   3.750   4.222  0.1257 -0.1458 -0.6910
  188POPC   H2X21657   0.398   3.743   4.231  0.1750  0.2683 -0.9548
  188POPC   H2Y21658   0.246   3.654   4.183 -1.2451 -0.6145  1.7205
  188POPC   C2321659  -0.348   3.892   4.460  0.1681 -0.2239  0.0174
  188POPC   H3R21660  -0.397   3.814   4.398  0.2759  1.2578 -2.0486
  188POPC   H3S21661  -0.403   3.985   4.433 -0.4444 -0.0462  1.7799
  188POPC   C2421662  -0.381   3.874   4.617 -0.3563  0.6498 -0.6675
  188POPC   H4R21663  -0.382   3.977   4.660 -0.5324  0.5900 -0.5320
  188POPC   H4S21664  -0.308   3.803   4.661 -0.3544  0.4792 -0.9400
  188POPC   C2521665  -0.517   3.813   4.647 -0.4282 -0.5624 -0.2162
  188POPC   H5R21666  -0.523   3.720   4.587 -0.4820 -0.2463 -0.7095
  188POPC   H5S21667  -0.592   3.884   4.606 -2.4347 -2.2020  0.4692
  188POPC   C2621668  -0.542   3.809   4.796  0.3429 -0.5108 -0.0244
  188POPC   H6R21669  -0.544   3.912   4.837 -1.5637 -0.4885 -0.0560
  188POPC   H6S21670  -0.457   3.755   4.843  2.1106  1.1136 -1.2144
  188POPC   C2721671  -0.681   3.744   4.825  0.1987  0.4574  0.6784
  188POPC   H7R21672  -0.683   3.650   4.766  1.0179 -0.2046  1.6712
  188POPC   H7S21673  -0.764   3.794   4.770 -0.1676 -1.7061 -0.8961
  188POPC   C2821674  -0.713   3.694   4.972 -0.7501 -0.0960 -0.0305
  188POPC   H8R21675  -0.619   3.655   5.016 -1.7240 -2.3083  0.2210
  188POPC   H8S21676  -0.777   3.604   4.963 -0.6525  0.0010 -2.1738
  188POPC   C2921677  -0.759   3.804   5.065  0.0673  0.0660 -0.0680
  188POPC   H9121678  -0.691   3.891   5.071  0.3087 -0.0512 -0.8536
  188POPC  C21021679  -0.870   3.808   5.143 -0.0362  0.4191 -0.4059
  188POPC  H10121680  -0.884   3.895   5.208  2.9484 -1.0973  2.5376
  188POPC  C21121681  -0.963   3.687   5.164 -0.5376 -0.3138 -0.2504
  188POPC  H11R21682  -0.906   3.592   5.166 -0.5234 -0.3529  3.1673
  188POPC  H11S21683  -1.025   3.673   5.072 -0.6415 -3.8604  0.2154
  188POPC  C21221684  -1.060   3.695   5.284  0.2463  0.6445  0.3289
  188POPC  H12R21685  -1.116   3.791   5.274  0.2063  0.6495  0.5839
  188POPC  H12S21686  -0.998   3.696   5.376  0.0373 -0.8038  0.5075
  188POPC  C21321687  -1.156   3.583   5.286  0.7396 -0.2388 -0.7313
  188POPC  H13R21688  -1.105   3.484   5.278  2.4492  0.4898  0.6375
  188POPC  H13S21689  -1.219   3.581   5.195 -1.2832  0.1837  0.5772
  188POPC  C21421690  -1.241   3.569   5.412 -0.1771 -0.4080 -0.1627
  188POPC  H14R21691  -1.290   3.469   5.417  0.8244 -0.8505  1.6592
  188POPC  H14S21692  -1.316   3.649   5.425 -0.0101 -0.4098  0.9183
  188POPC  C21521693  -1.165   3.581   5.542 -0.0635  0.0887 -0.0551
  188POPC  H15R21694  -1.136   3.683   5.573  1.3960 -0.3347  0.0426
  188POPC  H15S21695  -1.069   3.527   5.531  0.6090  1.4053 -0.8809
  188POPC  C21621696  -1.230   3.503   5.654 -0.0542 -0.0979 -0.2221
  188POPC  H16R21697  -1.220   3.396   5.625 -1.1977 -0.4309  0.5769
  188POPC  H16S21698  -1.339   3.523   5.659  0.3197  1.9408  1.2809
  188POPC  C21721699  -1.180   3.543   5.793 -0.4822  0.1612  0.1012
  188POPC  H17R21700  -1.253   3.503   5.866 -0.3221 -0.8162 -0.2649
  188POPC  H17S21701  -1.182   3.653   5.805 -1.4485  0.0409  1.1364
  188POPC  C21821702  -1.038   3.487   5.822  0.0820  0.0960  0.6948
  188POPC  H18R21703  -1.040   3.376   5.809  1.2703  0.3312 -2.3029
  188POPC  H18S21704  -1.005   3.519   5.923  1.1319  0.0721  0.3709
  188POPC  H18T21705  -0.970   3.527   5.744  1.2904 -1.3221  0.9664
  188POPC   C3321706   0.218   3.758   4.368 -0.5477 -0.2647 -0.2355
  188POPC   H3X21707   0.109   3.742   4.354 -0.6130 -1.6381  1.4876
  188POPC   H3Y21708   0.244   3.854   4.417  3.0426 -0.6148 -1.1493
  188POPC   C3421709   0.267   3.650   4.464  0.1317 -0.3534 -0.0402
  188POPC   H4X21710   0.373   3.625   4.443  0.1265 -1.2641  0.9452
  188POPC   H4Y21711   0.211   3.559   4.434  2.6478 -1.3055 -2.2575
  188POPC   C3521712   0.247   3.667   4.618  0.3462 -1.0771  0.1605
  188POPC   H5X21713   0.310   3.753   4.652 -1.2448  0.8293 -1.4656
  188POPC   H5Y21714   0.278   3.574   4.671  0.0260 -0.9323  0.6054
  188POPC   C3621715   0.097   3.687   4.656 -0.0310 -0.3147 -0.3472
  188POPC   H6X21716   0.044   3.667   4.561 -0.2991  1.2313 -0.5586
  188POPC   H6Y21717   0.095   3.796   4.679 -3.4285 -0.5760  1.1326
  188POPC   C3721718   0.047   3.613   4.779 -0.4795 -0.5194 -0.4260
  188POPC   H7X21719   0.138   3.618   4.842  0.2902  0.7768 -1.5826
  188POPC   H7Y21720   0.039   3.505   4.754  1.6831 -0.5362 -1.2490
  188POPC   C3821721  -0.062   3.672   4.868  0.1364 -0.4982  0.9664
  188POPC   H8X21722  -0.152   3.682   4.803  0.6600  0.9858  0.4189
  188POPC   H8Y21723  -0.027   3.774   4.896  0.4070 -0.0505 -0.8275
  188POPC   C3921724  -0.102   3.582   4.983  0.4016  0.2276 -0.1223
  188POPC   H9X21725  -0.126   3.648   5.069  0.9181 -1.8163  1.7185
  188POPC   H9Y21726  -0.012   3.529   5.023 -1.2152 -2.3148  0.3688
  188POPC  C31021727  -0.217   3.485   4.955 -0.0624  0.0887 -0.1394
  188POPC  H10X21728  -0.177   3.409   4.885  0.5706 -1.0240  1.3625
  188POPC  H10Y21729  -0.301   3.538   4.904 -1.1020 -0.5421  0.8507
  188POPC  C31121730  -0.274   3.425   5.090 -0.0290  0.1135 -0.6371
  188POPC  H11X21731  -0.201   3.360   5.141 -1.7091 -0.4499  1.1960
  188POPC  H11Y21732  -0.350   3.354   5.052  2.6816 -2.9583 -0.7021
  188POPC  C31221733  -0.346   3.520   5.190 -0.1440 -0.3044  0.5229
  188POPC  H12X21734  -0.395   3.610   5.147  0.1423  0.0515  0.9360
  188POPC  H12Y21735  -0.275   3.571   5.258  2.0599 -1.7881 -0.5317
  188POPC  C31321736  -0.455   3.453   5.270 -0.2127 -0.4176  0.1228
  188POPC  H13X21737  -0.410   3.381   5.341 -2.2640  0.0279  2.0071
  188POPC  H13Y21738  -0.515   3.397   5.196  2.3334 -0.8998 -1.6979
  188POPC  C31421739  -0.550   3.556   5.327 -0.6547  0.7411  0.2051
  188POPC  H14X21740  -0.557   3.636   5.250 -2.1637 -0.8723 -1.4500
  188POPC  H14Y21741  -0.499   3.596   5.417 -1.4285  0.8099  0.6285
  188POPC  C31521742  -0.677   3.495   5.379  0.3490 -0.7900 -0.4011
  188POPC  H15X21743  -0.744   3.432   5.316 -1.5124  2.0155 -1.4100
  188POPC  H15Y21744  -0.738   3.585   5.400  1.1331 -0.3835  0.2226
  188POPC  C31621745  -0.668   3.420   5.514 -0.0801  0.1810 -0.7422
  188POPC  H16X21746  -0.769   3.390   5.549 -0.0419  3.1189  2.5179
  188POPC  H16Y21747  -0.635   3.494   5.590  1.4184  2.1367 -3.1308
  188POPC  H16Z21748  -0.592   3.339   5.509 -1.6704 -1.3863 -0.4249
  189SAPI   C1221749   1.628   2.894   8.125 -0.2932  0.3890 -0.1426
  189SAPI    H221750   1.702   2.834   8.183 -1.0500 -0.3173  0.1060
  189SAPI    O221751   1.500   2.839   8.149 -0.0319  0.1476 -0.1122
  189SAPI   HO221752   1.484   2.768   8.087 -2.0848 -0.1377  0.6486
  189SAPI   C1321753   1.639   3.038   8.165  0.2259 -0.1102  0.2367
  189SAPI    H321754   1.728   3.088   8.120  0.6080 -1.0624 -0.0830
  189SAPI    O321755   1.639   3.047   8.309 -0.3871  0.2183  0.1053
  189SAPI   HO321756   1.570   2.998   8.354  0.0304 -1.4843 -1.0188
  189SAPI   C1421757   1.516   3.114   8.115 -0.8027 -0.0447 -0.2593
  189SAPI    H421758   1.421   3.086   8.165 -0.7090  2.4681  1.5241
  189SAPI    O421759   1.539   3.258   8.128 -0.3235  0.0394  0.2083
  189SAPI   HO421760   1.450   3.293   8.137  0.0132  1.7855 -2.3180
  189SAPI   C1521761   1.491   3.082   7.960 -0.3370  0.0530 -0.1284
  189SAPI    H521762   1.540   3.168   7.908 -1.5249  0.8764  0.0737
  189SAPI    O521763   1.352   3.100   7.935  0.2705  0.2950  0.0609
  189SAPI   HO521764   1.325   3.189   7.958 -0.4367  0.4175 -1.1420
  189SAPI   C1621765   1.554   2.960   7.900 -0.0084  0.0088  0.4773
  189SAPI    H621766   1.480   2.877   7.902  0.0507 -0.2008 -2.4146
  189SAPI    O621767   1.580   2.972   7.762 -0.4824  0.2625  0.2040
  189SAPI   HO621768   1.651   3.035   7.750  1.8198 -1.9003  1.5118
  189SAPI   C1121769   1.666   2.894   7.980  0.0737  0.0728  0.0794
  189SAPI    H121770   1.755   2.958   7.961 -1.3904  1.1912 -3.9317
  189SAPI     P21771   1.844   2.706   7.893 -0.1791 -0.1121 -0.2162
  189SAPI   O1321772   1.856   2.556   7.904 -0.2597 -0.8190  0.6201
  189SAPI   O1421773   1.951   2.785   7.965  0.7518  0.4469 -0.4134
  189SAPI   O1221774   1.693   2.760   7.941  0.1127  0.1278  0.3067
  189SAPI   O1121775   1.846   2.730   7.733  0.2333 -0.1276  0.1419
  189SAPI    C121776   1.899   2.854   7.688  0.4264 -0.3323  0.2165
  189SAPI    HA21777   1.822   2.932   7.702  2.3081  2.2305 -2.4356
  189SAPI    HB21778   1.989   2.896   7.736 -1.4406  1.4086  2.4046
  189SAPI    C221779   1.926   2.853   7.531  0.1410 -0.2022 -0.8143
  189SAPI    HS21780   2.002   2.930   7.505  1.0797 -0.5786  0.6674
  189SAPI   O2121781   1.805   2.872   7.458 -0.6671 -0.0759 -0.4316
  189SAPI   C2121782   1.765   2.999   7.454 -0.6188 -0.9037  0.1817
  189SAPI   O2221783   1.832   3.096   7.494 -0.1024  0.1728  0.0178
  189SAPI   C2221784   1.623   3.012   7.404  0.3849 -0.4196 -0.0812
  189SAPI   H2R21785   1.582   2.914   7.372 -0.4354 -0.1561  0.1407
  189SAPI   H2S21786   1.558   3.047   7.487  1.7723 -1.4824  1.5256
  189SAPI    C321787   1.991   2.721   7.496  0.1365 -0.1705  0.2239
  189SAPI    HX21788   1.928   2.638   7.533 -0.3344  0.0732 -0.0300
  189SAPI    HY21789   2.087   2.718   7.552  1.7590 -3.5832 -2.3923
  189SAPI   O3121790   2.029   2.700   7.355 -0.0062 -0.6288  0.0582
  189SAPI   C3121791   1.938   2.626   7.295  0.3739  0.2780  0.6871
  189SAPI   O3221792   1.829   2.593   7.336  0.3621  0.0880  0.3518
  189SAPI   C3221793   1.989   2.574   7.158  0.3910  0.1496 -0.4981
  189SAPI   H2X21794   2.096   2.552   7.176  0.1475 -0.4597  0.2346
  189SAPI   H2Y21795   1.985   2.662   7.090  0.4593  2.5034  2.3135
  189SAPI   C2321796   1.594   3.115   7.288 -0.0785  0.6631  0.1054
  189SAPI   H3R21797   1.677   3.120   7.215 -0.8369 -0.5858 -0.8858
  189SAPI   H3S21798   1.587   3.218   7.329  0.3303  0.6666  0.1670
  189SAPI   C2421799   1.451   3.104   7.223 -0.5098  0.1900 -0.5198
  189SAPI   H4R21800   1.372   3.098   7.301 -0.0058 -0.6186 -0.0615
  189SAPI   H4S21801   1.457   3.008   7.168 -1.1270  0.9006 -1.8872
  189SAPI   C2521802   1.400   3.200   7.113 -0.2758  0.3314  0.1047
  189SAPI   H5R21803   1.291   3.193   7.094  0.1412 -0.9955 -2.2142
  189SAPI   C2621804   1.460   3.299   7.043  0.1332  0.2753 -0.3320
  189SAPI   H6R21805   1.398   3.361   6.977 -0.3644 -2.0199 -2.1708
  189SAPI   C2721806   1.602   3.348   7.044  0.3299  0.5096 -0.2924
  189SAPI   H7R21807   1.668   3.263   7.075 -1.3882 -1.7630 -2.4166
  189SAPI   H7S21808   1.614   3.427   7.120  0.5881  0.4889 -0.3101
  189SAPI   C2821809   1.640   3.407   6.910 -0.3783 -0.1103 -0.0351
  189SAPI   H8R21810   1.576   3.381   6.824  0.5611 -0.9325 -0.5052
  189SAPI   C2921811   1.736   3.494   6.887 -0.9017 -0.4638 -0.2363
  189SAPI   H9R21812   1.731   3.547   6.791 -0.2293 -0.1769 -0.1138
  189SAPI  C21021813   1.841   3.529   6.988  0.7021 -0.5409 -0.5314
  189SAPI  H10R21814   1.893   3.445   7.039 -0.0122 -0.0090  1.1499
  189SAPI  H10S21815   1.793   3.576   7.077 -1.2154  0.5010 -2.0245
  189SAPI  C21121816   1.949   3.629   6.941 -0.4142 -0.1184 -0.5350
  189SAPI  H11R21817   1.970   3.719   7.000 -1.2156 -1.0015  1.1515
  189SAPI  C21221818   2.026   3.602   6.838 -0.4928  0.0416  0.4802
  189SAPI  H12R21819   2.111   3.670   6.826 -0.4548 -0.2408 -0.9308
  189SAPI  C21321820   2.019   3.483   6.745 -0.6065  0.6070 -0.3768
  189SAPI  H13R21821   1.927   3.477   6.682 -0.3531  0.4975 -0.7371
  189SAPI  H13S21822   2.019   3.386   6.798 -0.0492 -1.0560 -3.1997
  189SAPI  C21421823   2.141   3.480   6.657  0.1382 -0.0722  0.3728
  189SAPI  H14R21824   2.230   3.464   6.721  0.3264  1.1465  0.4511
  189SAPI  C21521825   2.161   3.525   6.528 -0.3257  0.1436  0.5105
  189SAPI  H15R21826   2.262   3.513   6.486 -0.6374 -0.6043 -0.0522
  189SAPI  C21621827   2.049   3.562   6.434 -0.2169 -0.3807  0.1371
  189SAPI  H16R21828   2.048   3.672   6.418  1.0244 -0.4058 -0.2017
  189SAPI  H16S21829   1.955   3.552   6.492 -0.2357 -0.1750  0.1434
  189SAPI  C21721830   2.052   3.480   6.302  0.1148  0.4934 -0.4471
  189SAPI  H17R21831   2.158   3.467   6.270  0.2015 -5.7372  0.9615
  189SAPI  H17S21832   1.981   3.521   6.228 -1.2767 -1.9073 -0.5486
  189SAPI  C21821833   1.987   3.340   6.330  0.1498 -0.2874 -0.0352
  189SAPI  H18R21834   1.890   3.363   6.379  0.2327  0.4906 -0.2254
  189SAPI  H18S21835   2.045   3.298   6.414  1.2165  1.2199  0.0228
  189SAPI  C21921836   1.999   3.240   6.215 -0.1552  0.0420 -0.6402
  189SAPI  H19R21837   2.020   3.138   6.254 -1.0517 -0.0417 -0.3638
  189SAPI  H19S21838   2.090   3.267   6.156 -0.5480 -0.6265 -1.5532
  189SAPI  C22021839   1.885   3.229   6.117 -0.0760  0.1424 -0.0605
  189SAPI  H20R21840   1.925   3.186   6.022 -1.0714  0.5807 -0.6958
  189SAPI  H20S21841   1.844   3.331   6.107 -2.2386 -0.4841  1.5976
  189SAPI  H20T21842   1.801   3.168   6.155 -0.6991  0.7848 -0.3942
  189SAPI   C3321843   1.915   2.452   7.109 -0.2923  0.1411  0.1828
  189SAPI   H3X21844   1.804   2.463   7.114 -0.1733  1.4391  0.3233
  189SAPI   H3Y21845   1.948   2.352   7.145 -0.1660  0.2129  0.2654
  189SAPI   C3421846   1.931   2.450   6.955  0.6457  0.3572  0.9317
  189SAPI   H4X21847   2.039   2.472   6.938  0.6471  0.1205  0.6284
  189SAPI   H4Y21848   1.869   2.526   6.902 -0.9837 -1.6231 -0.1597
  189SAPI   C3521849   1.895   2.315   6.895 -0.2653 -0.1997  0.3956
  189SAPI   H5X21850   1.788   2.288   6.897  0.0350 -1.3965  1.0508
  189SAPI   H5Y21851   1.950   2.229   6.939 -1.3506 -0.2727  1.6520
  189SAPI   C3621852   1.936   2.324   6.746 -0.0542  0.1611  0.6153
  189SAPI   H6X21853   2.044   2.298   6.740 -0.6150 -2.0392 -1.5712
  189SAPI   H6Y21854   1.932   2.427   6.705  3.5898  0.4420  0.6170
  189SAPI   C3721855   1.851   2.236   6.658  0.3893 -0.0432 -1.1321
  189SAPI   H7X21856   1.743   2.262   6.660  0.5066  0.4586 -1.1634
  189SAPI   H7Y21857   1.862   2.138   6.708 -1.8969  1.0164  1.7415
  189SAPI   C3821858   1.905   2.212   6.521  0.2583 -0.2094  0.4072
  189SAPI   H8X21859   2.007   2.167   6.531  0.1401 -0.5766 -0.0121
  189SAPI   H8Y21860   1.914   2.308   6.466 -0.6232 -1.0973 -1.3541
  189SAPI   C3921861   1.833   2.122   6.425 -0.3471  0.3491  0.0847
  189SAPI   H9X21862   1.733   2.165   6.401 -1.8700 -2.5715  0.6920
  189SAPI   H9Y21863   1.814   2.027   6.479  1.4598  0.8014  1.6063
  189SAPI  C31021864   1.906   2.106   6.282  0.1956  0.3439 -0.0092
  189SAPI  H10X21865   2.013   2.080   6.293  0.3755  0.7792 -0.6630
  189SAPI  H10Y21866   1.917   2.201   6.225  1.5620 -0.3273 -0.9284
  189SAPI  C31121867   1.830   1.996   6.213 -0.0626 -0.5662 -0.1205
  189SAPI  H11X21868   1.729   2.040   6.201  0.5482  0.9270 -0.0920
  189SAPI  H11Y21869   1.831   1.907   6.279 -0.1763 -0.0389  0.6065
  189SAPI  C31221870   1.887   1.965   6.069 -0.1473 -0.5884  0.6283
  189SAPI  H12X21871   1.843   1.875   6.021  0.9612 -0.5166 -0.5803
  189SAPI  H12Y21872   1.998   1.959   6.072 -0.1331  0.0184  2.9573
  189SAPI  C31321873   1.864   2.082   5.962 -0.2205  0.6254 -0.0048
  189SAPI  H13X21874   1.901   2.179   6.002 -0.2562  0.4210  0.5322
  189SAPI  H13Y21875   1.757   2.097   5.938 -0.2500 -0.7929 -0.8729
  189SAPI  C31421876   1.939   2.059   5.827 -0.3100  0.5397 -0.4727
  189SAPI  H14X21877   1.893   2.141   5.768 -0.9091 -0.1124 -0.9328
  189SAPI  H14Y21878   1.919   1.967   5.768  1.5173  0.0062 -0.3468
  189SAPI  C31521879   2.097   2.069   5.844  0.4447  0.6941  1.0104
  189SAPI  H15X21880   2.120   2.018   5.940 -1.0184 -1.6951  0.2035
  189SAPI  H15Y21881   2.120   2.177   5.853 -2.5590  1.6568 -1.0907
  189SAPI  C31621882   2.175   2.001   5.728 -0.2171  0.3900 -0.0201
  189SAPI  H16X21883   2.157   2.038   5.625  2.8321  2.1815 -0.0403
  189SAPI  H16Y21884   2.155   1.892   5.737 -1.6532  0.6512  0.2399
  189SAPI  C31721885   2.329   2.031   5.741  0.0942  0.0587 -0.5296
  189SAPI  H17X21886   2.377   1.965   5.666  2.1061  2.0913 -1.1302
  189SAPI  H17Y21887   2.356   2.018   5.848 -2.0064 -0.1298  0.0321
  189SAPI  C31821888   2.359   2.186   5.721  1.1723  0.4346 -0.3167
  189SAPI  H18X21889   2.314   2.255   5.795  0.4494  0.2998 -0.6130
  189SAPI  H18Y21890   2.311   2.211   5.623  0.7983  1.9414  0.2177
  189SAPI  H18Z21891   2.467   2.211   5.724  1.1037  1.1868 -2.4148
  190SAPI   C1221892   5.735   0.373   8.442 -0.3610  0.3215  0.4934
  190SAPI    H221893   5.779   0.279   8.402 -1.1896  0.6511 -1.2974
  190SAPI    O221894   5.604   0.370   8.394  0.1438  0.1021 -0.0352
  190SAPI   HO221895   5.601   0.337   8.304 -1.1197  0.5615 -0.1706
  190SAPI   C1321896   5.741   0.374   8.594  0.2572 -0.3115 -0.5696
  190SAPI    H321897   5.840   0.405   8.633  0.0117  0.1101 -0.2681
  190SAPI    O321898   5.707   0.250   8.658 -0.2671  0.2926 -0.3461
  190SAPI   HO321899   5.778   0.185   8.654  1.0165  1.6886 -1.4960
  190SAPI   C1421900   5.651   0.479   8.657  0.3913  0.1509 -0.5187
  190SAPI    H421901   5.544   0.457   8.639  0.0803 -0.2207  1.5171
  190SAPI    O421902   5.666   0.491   8.798 -0.0379 -0.4002 -0.1422
  190SAPI   HO421903   5.687   0.405   8.835 -1.9266 -1.0376 -0.4294
  190SAPI   C1521904   5.685   0.620   8.591  0.8118 -0.2179 -0.3390
  190SAPI    H521905   5.761   0.672   8.653 -3.6204  3.8283  2.3704
  190SAPI    O521906   5.576   0.710   8.611 -0.2501 -0.5542 -0.1992
  190SAPI   HO521907   5.625   0.792   8.623  1.1874 -1.4979  0.5514
  190SAPI   C1621908   5.741   0.619   8.442  0.3266 -0.4692 -0.0696
  190SAPI    H621909   5.647   0.642   8.389  0.2672 -1.6769 -0.5177
  190SAPI    O621910   5.828   0.728   8.417  0.0158  0.4387 -0.2619
  190SAPI   HO621911   5.843   0.743   8.323 -2.6252  1.3202 -0.6274
  190SAPI   C1121912   5.794   0.489   8.386 -0.0384  0.0826 -0.2987
  190SAPI    H121913   5.899   0.482   8.422  0.3414 -1.4959 -1.5672
  190SAPI     P21914   5.895   0.427   8.149 -0.0103 -0.0567  0.2589
  190SAPI   O1321915   5.857   0.449   8.008  0.0090  0.2227  0.1667
  190SAPI   O1421916   5.897   0.287   8.192  0.4307 -0.0619 -0.1297
  190SAPI   O1221917   5.794   0.508   8.240 -0.1615  0.1690 -0.1324
  190SAPI   O1121918   6.039   0.488   8.182 -0.5684 -0.0163 -0.1824
  190SAPI    C121919   6.142   0.399   8.237 -0.4572 -0.1068 -0.3766
  190SAPI    HA21920   6.217   0.458   8.293  3.0481 -2.1785 -2.4849
  190SAPI    HB21921   6.090   0.324   8.300  1.0907  0.6491  1.9077
  190SAPI    C221922   6.224   0.314   8.136 -0.0571  0.4105  0.2136
  190SAPI    HS21923   6.292   0.382   8.081  0.4820  1.1353  1.7241
  190SAPI   O2121924   6.137   0.222   8.063 -0.3361  0.2169 -0.1254
  190SAPI   C2121925   6.113   0.251   7.937  0.3487  0.1166  0.0125
  190SAPI   O2221926   6.169   0.342   7.875 -0.4837  0.4959 -0.1280
  190SAPI   C2221927   6.032   0.135   7.878 -0.0152 -0.2144 -0.2753
  190SAPI   H2R21928   6.099   0.046   7.878 -0.8847 -0.8788 -0.2471
  190SAPI   H2S21929   5.952   0.118   7.954  1.2860  1.1711  1.4888
  190SAPI    C321930   6.332   0.224   8.214 -0.8594  0.4964 -0.2690
  190SAPI    HX21931   6.277   0.153   8.279 -0.6026 -1.4042 -2.0127
  190SAPI    HY21932   6.377   0.297   8.286 -1.1846  0.5816 -0.1526
  190SAPI   O3121933   6.431   0.172   8.126 -0.0366  0.6346  0.3825
  190SAPI   C3121934   6.399   0.066   8.054 -0.1455 -0.2023 -0.7728
  190SAPI   O3221935   6.300   0.005   8.065  0.3721 -0.1976  0.6050
  190SAPI   C3221936   6.512   0.030   7.970  0.0045 -0.2571  0.1638
  190SAPI   H2X21937   6.481  -0.059   7.909 -2.7921  0.0480  0.9972
  190SAPI   H2Y21938   6.604   0.004   8.026  0.8247  2.2294  0.0613
  190SAPI   C2321939   5.966   0.153   7.735 -0.4721 -0.4321  0.0357
  190SAPI   H3R21940   5.955   0.259   7.701 -0.6419 -0.9527 -1.6064
  190SAPI   H3S21941   5.872   0.095   7.746 -1.2118  0.4772 -1.2347
  190SAPI   C2421942   6.044   0.081   7.629  0.7352  0.3015  0.0921
  190SAPI   H4R21943   6.091  -0.010   7.672  0.4293  0.3695  0.5701
  190SAPI   H4S21944   6.125   0.153   7.603 -0.8976  1.6133 -1.6407
  190SAPI   C2521945   5.956   0.053   7.507  0.5345  0.1885  0.0407
  190SAPI   H5R21946   5.851   0.087   7.510 -0.2923 -2.2251  0.4805
  190SAPI   C2621947   5.989   0.028   7.376  0.2963 -0.4653  0.5336
  190SAPI   H6R21948   5.908   0.008   7.304  1.2684  2.3287 -1.5390
  190SAPI   C2721949   6.128  -0.007   7.335 -0.2633  0.2859 -0.1650
  190SAPI   H7R21950   6.118  -0.098   7.272 -0.7247  0.2008  0.0265
  190SAPI   H7S21951   6.197  -0.055   7.407 -2.3958 -3.2781 -0.2298
  190SAPI   C2821952   6.188   0.113   7.263  0.3273 -0.0840 -0.1669
  190SAPI   H8R21953   6.226   0.196   7.323 -2.1150  2.4268 -1.8756
  190SAPI   C2921954   6.198   0.122   7.128 -0.6933 -0.1582 -0.4566
  190SAPI   H9R21955   6.251   0.208   7.083 -0.5515  0.1723  0.3291
  190SAPI  C21021956   6.158   0.016   7.025 -0.4642 -0.0646 -0.2028
  190SAPI  H10R21957   6.092   0.077   6.960  0.2194  1.0827  0.1539
  190SAPI  H10S21958   6.089  -0.060   7.067  0.1644 -0.7362 -0.3435
  190SAPI  C21121959   6.287  -0.039   6.967 -0.7666  0.6751 -0.3869
  190SAPI  H11R21960   6.323  -0.116   7.037  1.8696  1.3551 -0.9001
  190SAPI  C21221961   6.340  -0.008   6.850 -0.5032  0.5530  0.6046
  190SAPI  H12R21962   6.420  -0.069   6.807 -1.6470 -0.5709 -0.0059
  190SAPI  C21321963   6.290   0.100   6.764 -0.0543 -0.3918 -0.5641
  190SAPI  H13R21964   6.380   0.137   6.710 -0.6259 -1.0655 -2.0149
  190SAPI  H13S21965   6.242   0.181   6.824 -2.9002 -1.1400 -1.6768
  190SAPI  C21421966   6.174   0.060   6.676 -0.8381  0.3113 -0.4834
  190SAPI  H14R21967   6.119  -0.031   6.703 -0.8098  0.3585 -0.2692
  190SAPI  C21521968   6.136   0.127   6.564  0.3205  0.4029 -0.4428
  190SAPI  H15R21969   6.044   0.096   6.513 -0.2177 -0.9346  1.2260
  190SAPI  C21621970   6.204   0.251   6.515 -0.6883  0.0381  0.0113
  190SAPI  H16R21971   6.285   0.289   6.580  0.6423 -1.3716 -0.7479
  190SAPI  H16S21972   6.130   0.333   6.506 -2.2566 -1.4632 -1.7495
  190SAPI  C21721973   6.255   0.251   6.371 -0.2369  0.5464  0.4422
  190SAPI  H17R21974   6.307   0.346   6.349 -0.5766  0.5429 -0.4144
  190SAPI  H17S21975   6.174   0.233   6.297  0.8202  0.7295 -0.7964
  190SAPI  C21821976   6.362   0.144   6.343  0.7424  0.4409  0.6520
  190SAPI  H18R21977   6.334   0.048   6.391  1.4113  1.0522  2.3449
  190SAPI  H18S21978   6.460   0.168   6.390  2.6577 -2.1793 -1.6837
  190SAPI  C21921979   6.385   0.109   6.190  0.2507 -0.5068  0.0459
  190SAPI  H19R21980   6.467   0.034   6.179  0.6427 -0.0293 -0.3722
  190SAPI  H19S21981   6.420   0.198   6.134 -1.2166 -0.0688 -0.2001
  190SAPI  C22021982   6.263   0.053   6.118 -0.5947 -0.1480 -0.2799
  190SAPI  H20R21983   6.242  -0.043   6.170  0.7175  0.0614  0.6915
  190SAPI  H20S21984   6.265   0.035   6.009  0.6956 -0.7639 -0.1766
  190SAPI  H20T21985   6.174   0.116   6.140 -0.9688 -0.6677 -0.3040
  190SAPI   C3321986   6.552   0.133   7.865  0.0312  0.1939 -0.3325
  190SAPI   H3X21987   6.652   0.101   7.830  0.3853  0.0944  0.7293
  190SAPI   H3Y21988   6.555   0.237   7.904 -0.1819 -0.2989  1.0464
  190SAPI   C3421989   6.470   0.123   7.733 -0.9583 -0.4891 -0.3981
  190SAPI   H4X21990   6.391   0.200   7.742 -0.1149  0.3875 -0.2403
  190SAPI   H4Y21991   6.407   0.036   7.706  1.2889 -1.5514 -2.7061
  190SAPI   C3521992   6.550   0.182   7.620  0.0037 -0.2022  0.3829
  190SAPI   H5X21993   6.641   0.125   7.591 -0.1999 -0.3842  0.0896
  190SAPI   H5Y21994   6.580   0.281   7.659  1.0076  0.0884 -1.0177
  190SAPI   C3621995   6.463   0.214   7.496  0.1824 -0.7681  0.2147
  190SAPI   H6X21996   6.383   0.281   7.533  0.6363 -0.3469  0.4491
  190SAPI   H6Y21997   6.412   0.126   7.453 -2.2688  0.8268 -0.3669
  190SAPI   C3721998   6.539   0.287   7.385  0.1357  0.5117 -0.1984
  190SAPI   H7X21999   6.580   0.387   7.412  2.5909 -0.5927  0.4990
  190SAPI   H7Y22000   6.469   0.304   7.300  1.0674 -0.8199 -1.2912
  190SAPI   C3822001   6.661   0.211   7.330 -0.3311  0.3126  0.4240
  190SAPI   H8X22002   6.621   0.109   7.309  0.7619 -0.5405  2.2719
  190SAPI   H8Y22003   6.744   0.198   7.403  1.7433 -0.5745 -1.9385
  190SAPI   C3922004   6.726   0.269   7.196  0.5131 -0.0378 -0.1497
  190SAPI   H9X22005   6.836   0.260   7.209  0.2547 -0.1807  2.7805
  190SAPI   H9Y22006   6.702   0.377   7.190 -0.2393 -0.1930  0.0234
  190SAPI  C31022007   6.687   0.190   7.070  0.5058 -0.1245  0.1239
  190SAPI  H10X22008   6.578   0.169   7.073  1.0978 -4.1978 -1.5200
  190SAPI  H10Y22009   6.744   0.095   7.072  1.7614  0.6160  1.0204
  190SAPI  C31122010   6.719   0.262   6.939  0.9812  1.1497 -0.1450
  190SAPI  H11X22011   6.822   0.304   6.944  0.5103  2.3079  0.2510
  190SAPI  H11Y22012   6.652   0.349   6.921  0.9227  0.6837 -2.3883
  190SAPI  C31222013   6.716   0.168   6.820 -0.3590  0.3286 -0.1172
  190SAPI  H12X22014   6.609   0.143   6.803 -0.3310  1.6710 -2.7101
  190SAPI  H12Y22015   6.767   0.072   6.843  0.7619  0.5993 -1.3999
  190SAPI  C31322016   6.770   0.221   6.692 -0.1903  0.7303  0.5830
  190SAPI  H13X22017   6.875   0.254   6.708 -0.6005  2.0147  0.7888
  190SAPI  H13Y22018   6.720   0.317   6.666  0.5307  0.8481 -0.4507
  190SAPI  C31422019   6.757   0.137   6.567 -0.3553  0.2120 -0.2225
  190SAPI  H14X22020   6.820   0.175   6.484  1.1030  1.2702  1.3033
  190SAPI  H14Y22021   6.655   0.136   6.522 -0.4815 -0.8521  0.0456
  190SAPI  C31522022   6.801  -0.008   6.587 -0.0883 -0.0939 -0.1335
  190SAPI  H15X22023   6.733  -0.070   6.649  0.9978  0.2402  1.4531
  190SAPI  H15Y22024   6.886  -0.002   6.658 -1.2133 -0.6857  1.3024
  190SAPI  C31622025   6.843  -0.072   6.460  0.4592  0.1657 -0.2067
  190SAPI  H16X22026   6.909  -0.157   6.486  0.4662 -0.9784 -3.5617
  190SAPI  H16Y22027   6.902   0.001   6.401  2.6748 -1.0233  0.4063
  190SAPI  C31722028   6.725  -0.134   6.379 -0.1245  0.6529 -0.5684
  190SAPI  H17X22029   6.637  -0.067   6.388  1.1622  2.1999  1.3032
  190SAPI  H17Y22030   6.705  -0.234   6.423 -0.0400  0.6357 -0.5679
  190SAPI  C31822031   6.765  -0.163   6.231  0.0231  0.1195  0.4271
  190SAPI  H18X22032   6.862  -0.217   6.224  0.6697  1.4888 -2.7272
  190SAPI  H18Y22033   6.778  -0.068   6.176 -0.8692 -0.3392 -0.5893
  190SAPI  H18Z22034   6.689  -0.224   6.178  1.3601 -0.7641 -0.5418
  191SAPI   C1222035   3.251   4.758   3.633 -0.2453 -0.4230  0.2352
  191SAPI    H222036   3.185   4.835   3.679  0.6259  0.3934  0.1733
  191SAPI    O222037   3.383   4.815   3.627  0.4939  0.2035 -0.4879
  191SAPI   HO222038   3.381   4.911   3.634  0.8733  0.3506 -2.0352
  191SAPI   C1322039   3.248   4.631   3.723  0.4757 -0.3504  0.8560
  191SAPI    H322040   3.142   4.603   3.737  0.4222  0.6178  2.8549
  191SAPI    O322041   3.295   4.650   3.854  0.6191 -0.6943  0.5396
  191SAPI   HO322042   3.323   4.741   3.865  2.1129 -1.0744  0.1842
  191SAPI   C1422043   3.336   4.518   3.657  0.1327  0.2068 -0.7948
  191SAPI    H422044   3.445   4.533   3.672  0.3736 -3.5428  3.1471
  191SAPI    O422045   3.304   4.398   3.724 -0.2926  0.3172 -0.3345
  191SAPI   HO422046   3.305   4.328   3.658 -1.4512  0.3088 -0.3651
  191SAPI   C1522047   3.321   4.500   3.502 -0.0840  0.5978  0.3731
  191SAPI    H522048   3.236   4.429   3.503  0.4355 -0.0317  1.7415
  191SAPI    O522049   3.443   4.446   3.448 -0.1680  0.3366 -0.6056
  191SAPI   HO522050   3.449   4.355   3.478 -0.5227 -0.0215 -1.5925
  191SAPI   C1622051   3.271   4.619   3.415 -0.8446 -0.2979  0.8750
  191SAPI    H622052   3.364   4.667   3.377 -2.1153  0.1570 -1.9200
  191SAPI    O622053   3.206   4.576   3.296  0.2315  0.9231 -0.1666
  191SAPI   HO622054   3.130   4.532   3.335  1.5399  0.2788  1.8195
  191SAPI   C1122055   3.196   4.731   3.491  0.4020  0.4410 -0.2036
  191SAPI    H122056   3.094   4.692   3.511  0.6652 -0.3860 -0.4519
  191SAPI     P22057   3.075   4.967   3.425  0.1329 -0.2563  0.1542
  191SAPI   O1322058   2.940   4.909   3.421  0.4632 -0.0957  0.0811
  191SAPI   O1422059   3.102   5.074   3.323 -0.3740  0.2994 -0.0498
  191SAPI   O1222060   3.196   4.853   3.417  0.1487  0.1264  0.6236
  191SAPI   O1122061   3.105   5.036   3.566  0.2642  0.3185  0.4324
  191SAPI    C122062   3.005   5.125   3.612  0.6005 -0.4375  0.3912
  191SAPI    HA22063   3.054   5.224   3.614 -0.4660  0.0915  2.3234
  191SAPI    HB22064   2.919   5.134   3.541  2.6232 -1.8707 -2.4644
  191SAPI    C222065   2.956   5.080   3.747  0.5053  0.4442 -0.0945
  191SAPI    HS22066   2.890   5.158   3.790  3.1557  1.9791  1.4888
  191SAPI   O2122067   3.061   5.048   3.842  0.3344  0.5540  0.2793
  191SAPI   C2122068   3.117   5.155   3.893 -0.3185  0.0613 -0.7218
  191SAPI   O2222069   3.080   5.270   3.882 -0.5374 -0.3911  0.5255
  191SAPI   C2222070   3.227   5.119   3.997 -0.4169  0.3865  0.6269
  191SAPI   H2R22071   3.234   5.008   3.996 -0.2501  0.4002  0.2612
  191SAPI   H2S22072   3.322   5.170   3.970  0.3495 -1.5536 -0.5434
  191SAPI    C322073   2.867   4.952   3.725 -0.4979 -0.3686  0.7770
  191SAPI    HX22074   2.944   4.872   3.718  0.5664  0.7569 -1.3058
  191SAPI    HY22075   2.807   4.951   3.631 -0.0683 -0.0803  0.4963
  191SAPI   O3122076   2.788   4.916   3.831 -0.3101 -0.1987  0.2814
  191SAPI   C3122077   2.684   4.993   3.861 -0.0686  0.3033  0.5116
  191SAPI   O3222078   2.642   5.084   3.789 -0.1156  0.2864  0.8967
  191SAPI   C3222079   2.632   4.953   3.998 -0.1837 -0.3271  0.3335
  191SAPI   H2X22080   2.638   4.844   4.015  1.5436  0.2245  4.5450
  191SAPI   H2Y22081   2.526   4.987   3.998  0.1192  0.8157 -1.8576
  191SAPI   C2322082   3.188   5.177   4.138  0.2860 -0.4653  0.3499
  191SAPI   H3R22083   3.093   5.126   4.164  0.8759  0.1714  4.2746
  191SAPI   H3S22084   3.183   5.287   4.122  0.7914 -0.2204  1.7863
  191SAPI   C2422085   3.279   5.145   4.252  0.3603 -1.3419  0.2478
  191SAPI   H4R22086   3.383   5.167   4.219  0.1137 -4.5008 -3.3403
  191SAPI   H4S22087   3.277   5.036   4.272  2.2856 -1.5626 -0.5839
  191SAPI   C2522088   3.246   5.223   4.380  0.0852 -0.2159  0.1861
  191SAPI   H5R22089   3.142   5.207   4.413 -0.1605 -0.7465 -0.7961
  191SAPI   C2622090   3.323   5.292   4.468  0.1440 -0.2734  0.0606
  191SAPI   H6R22091   3.270   5.333   4.555 -1.3273  0.1807 -0.9944
  191SAPI   C2722092   3.476   5.320   4.449  0.6019  0.8584  0.1524
  191SAPI   H7R22093   3.492   5.405   4.379 -1.5352  0.8977 -0.3815
  191SAPI   H7S22094   3.525   5.230   4.407  0.9206  0.8103  0.6282
  191SAPI   C2822095   3.526   5.363   4.584  0.2293 -0.4284 -0.1861
  191SAPI   H8R22096   3.547   5.470   4.590  1.3325 -0.4770 -2.2069
  191SAPI   C2922097   3.545   5.295   4.695 -0.0699 -0.5510 -0.1998
  191SAPI   H9R22098   3.582   5.354   4.780  0.8502  1.4044 -1.8759
  191SAPI  C21022099   3.518   5.150   4.725  0.1866  0.4024  0.2044
  191SAPI  H10R22100   3.458   5.110   4.641  0.6590  1.8950 -0.8879
  191SAPI  H10S22101   3.451   5.137   4.812  2.5472  0.3359  2.0988
  191SAPI  C21122102   3.642   5.074   4.733  0.7962 -0.0900 -0.5003
  191SAPI  H11R22103   3.686   5.045   4.636  2.6823 -0.7724  0.5078
  191SAPI  C21222104   3.705   5.026   4.842  0.4488 -1.1780 -0.0509
  191SAPI  H12R22105   3.801   4.976   4.823  2.1927  1.7861  0.4029
  191SAPI  C21322106   3.657   5.034   4.988 -0.1736 -0.3843 -0.1495
  191SAPI  H13R22107   3.582   4.956   5.012 -1.9624  1.4695  0.5587
  191SAPI  H13S22108   3.597   5.127   4.995 -1.6097 -1.3028  0.3132
  191SAPI  C21422109   3.763   5.044   5.094  0.2564  0.0370 -0.8222
  191SAPI  H14R22110   3.795   4.947   5.136 -0.2942  0.7470  1.4019
  191SAPI  C21522111   3.830   5.157   5.125 -0.9801  0.7852  0.0216
  191SAPI  H15R22112   3.921   5.153   5.186 -0.2796  0.0571 -1.0435
  191SAPI  C21622113   3.801   5.295   5.072  0.0347 -0.5182  0.0640
  191SAPI  H16R22114   3.722   5.308   4.995  0.3954  2.6539  0.1192
  191SAPI  H16S22115   3.895   5.342   5.036 -0.1826  1.6303  2.0845
  191SAPI  C21722116   3.780   5.407   5.184  0.1811 -0.0320 -0.5032
  191SAPI  H17R22117   3.785   5.510   5.143  0.1009 -0.0296 -0.5075
  191SAPI  H17S22118   3.858   5.402   5.262 -1.9806 -0.1666  1.7814
  191SAPI  C21822119   3.642   5.385   5.264  0.2966  0.0200  0.2543
  191SAPI  H18R22120   3.635   5.468   5.337 -1.9222 -0.4382  0.6414
  191SAPI  H18S22121   3.640   5.291   5.324 -1.2547  0.6945  1.3428
  191SAPI  C21922122   3.514   5.388   5.173 -0.1904 -0.1294 -0.0885
  191SAPI  H19R22123   3.426   5.388   5.241  0.0181 -0.0873  0.1869
  191SAPI  H19S22124   3.526   5.295   5.115  1.3669  0.8533 -1.4451
  191SAPI  C22022125   3.495   5.507   5.069 -0.1619  1.0728 -0.5009
  191SAPI  H20R22126   3.460   5.599   5.119 -1.9059  1.2941 -2.0208
  191SAPI  H20S22127   3.412   5.485   4.999  0.6635 -0.3335 -1.0763
  191SAPI  H20T22128   3.591   5.527   5.016  1.4895 -0.1419  1.8487
  191SAPI   C3322129   2.714   5.015   4.113 -0.0330  0.1056 -0.0979
  191SAPI   H3X22130   2.821   4.989   4.098 -0.3989 -0.6683 -1.5899
  191SAPI   H3Y22131   2.694   4.960   4.207  0.2700 -1.5563 -0.9604
  191SAPI   C3422132   2.682   5.162   4.131  0.0221 -0.5225 -0.7522
  191SAPI   H4X22133   2.579   5.178   4.169  0.8873 -0.0269  1.5424
  191SAPI   H4Y22134   2.715   5.216   4.039 -1.1503 -1.0308 -1.4888
  191SAPI   C3522135   2.764   5.221   4.240  0.2708  0.0251  0.7923
  191SAPI   H5X22136   2.870   5.204   4.212 -0.0626 -1.1947  0.1687
  191SAPI   H5Y22137   2.747   5.177   4.341 -0.8410  1.4810  1.2759
  191SAPI   C3622138   2.757   5.377   4.243 -0.2481  0.0578  0.2358
  191SAPI   H6X22139   2.654   5.419   4.254  0.8019  2.7324  0.7295
  191SAPI   H6Y22140   2.793   5.411   4.143  0.8348 -0.8002  0.3135
  191SAPI   C3722141   2.827   5.456   4.358  0.1889 -0.4864  0.6147
  191SAPI   H7X22142   2.814   5.564   4.334 -1.1649 -1.2288 -2.5312
  191SAPI   H7Y22143   2.937   5.440   4.356  0.6036  1.7389  2.0948
  191SAPI   C3822144   2.783   5.447   4.502 -0.3802 -0.4594 -0.6417
  191SAPI   H8X22145   2.802   5.340   4.525  0.9225 -0.5416 -1.9818
  191SAPI   H8Y22146   2.680   5.485   4.522  0.8282  3.2893 -0.8773
  191SAPI   C3922147   2.883   5.524   4.601 -0.2076 -0.0119  0.3272
  191SAPI   H9X22148   2.856   5.631   4.584 -1.8203 -0.8740 -3.4047
  191SAPI   H9Y22149   2.982   5.495   4.562 -1.4615 -1.4725 -1.9537
  191SAPI  C31022150   2.871   5.475   4.742  0.2899 -0.0016 -0.8364
  191SAPI  H10X22151   2.881   5.365   4.744 -0.6014 -0.1266  2.9530
  191SAPI  H10Y22152   2.771   5.505   4.779 -0.1430 -0.0454 -1.9392
  191SAPI  C31122153   2.978   5.533   4.835  0.3009  0.2907 -0.2400
  191SAPI  H11X22154   2.994   5.641   4.816  2.9673  0.2681  1.3121
  191SAPI  H11Y22155   3.077   5.486   4.816 -0.0013  0.4044 -2.3406
  191SAPI  C31222156   2.922   5.513   4.976 -0.6033  0.4115  0.3708
  191SAPI  H12X22157   2.892   5.406   4.986 -1.5935  0.4547 -1.5630
  191SAPI  H12Y22158   2.828   5.570   4.987 -2.0953 -1.6708 -0.6421
  191SAPI  C31322159   3.022   5.556   5.084  0.0218 -0.1934  0.6926
  191SAPI  H13X22160   3.002   5.664   5.102  0.4651  0.3712 -1.7699
  191SAPI  H13Y22161   3.125   5.558   5.043 -0.2335 -0.4025  0.0268
  191SAPI  C31422162   3.003   5.473   5.203 -0.3016 -0.2282  0.1653
  191SAPI  H14X22163   3.045   5.371   5.186  0.3645 -0.3840  2.4128
  191SAPI  H14Y22164   2.896   5.455   5.227 -0.1339 -2.9283 -0.7278
  191SAPI  C31522165   3.087   5.524   5.323  0.3232 -0.1733 -0.5556
  191SAPI  H15X22166   3.056   5.623   5.362  1.6299  0.1757 -0.3659
  191SAPI  H15Y22167   3.193   5.531   5.291  0.2542  3.3997 -0.4483
  191SAPI  C31622168   3.079   5.417   5.435  0.0636  0.2370 -0.6468
  191SAPI  H16X22169   3.114   5.317   5.403  1.5283  0.3629  0.4380
  191SAPI  H16Y22170   2.973   5.402   5.462 -0.0607  0.5534 -0.9531
  191SAPI  C31722171   3.154   5.465   5.554 -0.0097 -0.1243 -0.3099
  191SAPI  H17X22172   3.114   5.407   5.640 -0.8247  3.6588  2.1081
  191SAPI  H17Y22173   3.126   5.572   5.561  0.5722  0.3594 -3.6283
  191SAPI  C31822174   3.305   5.448   5.534 -0.6106 -0.5047  0.6177
  191SAPI  H18X22175   3.337   5.524   5.459  2.0848  0.6444  2.7365
  191SAPI  H18Y22176   3.338   5.349   5.498 -1.3502 -1.1166  1.5670
  191SAPI  H18Z22177   3.357   5.463   5.631 -0.0923 -1.5217  0.5007
  192SAPI   C1222178   5.766   5.427   3.253 -0.1738 -0.2059  0.5836
  192SAPI    H222179   5.757   5.372   3.350 -1.3371 -1.2128 -0.0728
  192SAPI    O222180   5.734   5.335   3.145 -0.2918 -0.2412 -0.0864
  192SAPI   HO222181   5.803   5.334   3.078 -1.3753 -0.1518 -1.2472
  192SAPI   C1322182   5.662   5.541   3.262 -0.6233  0.3340 -0.7846
  192SAPI    H322183   5.691   5.606   3.347 -2.5240  1.2186 -0.7728
  192SAPI    O322184   5.537   5.486   3.301 -0.5228  0.2615 -0.4463
  192SAPI   HO322185   5.556   5.451   3.388  0.9576  1.0147 -0.4413
  192SAPI   C1422186   5.669   5.621   3.131  1.0995 -0.1200 -0.4550
  192SAPI    H422187   5.644   5.547   3.053 -1.6940  0.9258 -0.6632
  192SAPI    O422188   5.569   5.720   3.134 -0.5818  0.2508 -0.2180
  192SAPI   HO422189   5.600   5.788   3.195 -0.9992 -1.2974  1.8237
  192SAPI   C1522190   5.812   5.676   3.100  0.5041 -0.0844 -1.1025
  192SAPI    H522191   5.809   5.764   3.168 -1.7121 -1.6670  1.0477
  192SAPI    O522192   5.818   5.729   2.962 -1.0141  0.2110  0.6391
  192SAPI   HO522193   5.821   5.825   2.965  2.3086  0.2090  2.3652
  192SAPI   C1622194   5.927   5.588   3.137 -0.2562  0.0558  0.4031
  192SAPI    H622195   5.948   5.533   3.043 -2.2449 -0.8892  0.4531
  192SAPI    O622196   6.037   5.663   3.180  0.5785  0.3936  0.0853
  192SAPI   HO622197   6.101   5.606   3.223 -0.8993 -0.5298  1.1204
  192SAPI   C1122198   5.906   5.481   3.245  0.2038  0.2685  0.2190
  192SAPI    H122199   5.918   5.524   3.346  1.1187 -1.1106  0.7197
  192SAPI     P22200   6.136   5.354   3.297  0.2802  0.1139 -0.3445
  192SAPI   O1322201   6.206   5.485   3.295  0.4022 -0.2691  0.6504
  192SAPI   O1422202   6.204   5.239   3.239 -0.2767  0.1528 -0.3039
  192SAPI   O1222203   5.997   5.365   3.222  0.4821  0.0809  0.5285
  192SAPI   O1122204   6.095   5.326   3.442  0.5905  0.5837 -1.4341
  192SAPI    C122205   5.996   5.229   3.479 -0.0907 -0.1735 -0.6299
  192SAPI    HA22206   5.889   5.248   3.456  0.0711  0.1291 -1.1631
  192SAPI    HB22207   6.025   5.132   3.432  1.2203 -0.5595  0.8816
  192SAPI    C222208   6.007   5.196   3.630 -0.0462 -0.2362 -0.1177
  192SAPI    HS22209   5.939   5.110   3.645  4.5413 -4.2829  0.2960
  192SAPI   O2122210   5.968   5.313   3.707 -0.5539  0.5829 -0.2923
  192SAPI   C2122211   5.859   5.313   3.780  0.0390  0.7214  0.0709
  192SAPI   O2222212   5.776   5.221   3.782 -0.4757 -0.3604 -0.2434
  192SAPI   C2222213   5.845   5.444   3.853  0.2158  0.2596 -0.1194
  192SAPI   H2R22214   5.949   5.478   3.872  0.4464 -1.3385  1.7858
  192SAPI   H2S22215   5.804   5.518   3.780  1.8429  0.9603 -0.3775
  192SAPI    C322216   6.148   5.147   3.677 -0.1057  0.4010  1.2976
  192SAPI    HX22217   6.205   5.242   3.666 -1.4010  1.1906  1.2966
  192SAPI    HY22218   6.189   5.087   3.593 -2.3092  0.8282 -0.1515
  192SAPI   O3122219   6.153   5.080   3.805 -0.3018 -0.2364  0.4581
  192SAPI   C3122220   6.113   4.958   3.811 -0.4101 -0.3440  0.0455
  192SAPI   O3222221   6.066   4.887   3.726  0.0184  0.0382  0.3052
  192SAPI   C3222222   6.115   4.920   3.963  0.4073 -0.9772  0.3785
  192SAPI   H2X22223   6.213   4.938   4.013  0.5943 -0.8794 -0.0163
  192SAPI   H2Y22224   6.105   4.809   3.967  0.5383 -1.1172 -1.8189
  192SAPI   C2322225   5.759   5.438   3.988  0.0866 -0.2109  0.6110
  192SAPI   H3R22226   5.775   5.340   4.039 -0.0136  0.0481  1.1370
  192SAPI   H3S22227   5.655   5.430   3.950 -0.2189 -0.7101  1.5406
  192SAPI   C2422228   5.787   5.555   4.084 -0.3625 -0.1447  0.1063
  192SAPI   H4R22229   5.772   5.647   4.023 -1.5138  0.2240  0.9074
  192SAPI   H4S22230   5.896   5.544   4.106 -0.2457 -0.6240 -0.6850
  192SAPI   C2522231   5.699   5.554   4.208 -0.1530  1.4449 -0.0364
  192SAPI   H5R22232   5.594   5.549   4.174 -0.2177  0.0819  0.2841
  192SAPI   C2622233   5.729   5.533   4.335  0.5942  0.6552 -0.6470
  192SAPI   H6R22234   5.650   5.538   4.412 -0.0249  2.4427 -1.3432
  192SAPI   C2722235   5.865   5.520   4.393  0.1059  0.1379 -0.5964
  192SAPI   H7R22236   5.936   5.527   4.308 -0.9853 -2.9572 -1.8752
  192SAPI   H7S22237   5.872   5.418   4.436  0.4059 -0.6533 -2.4330
  192SAPI   C2822238   5.888   5.629   4.500 -0.1801  0.1893  0.1850
  192SAPI   H8R22239   5.918   5.727   4.459  0.6475  0.5614  1.6353
  192SAPI   C2922240   5.893   5.612   4.633  0.3865 -0.2780  0.6529
  192SAPI   H9R22241   5.908   5.701   4.697  2.8467 -1.2205  1.5374
  192SAPI  C21022242   5.872   5.494   4.713 -0.4001  0.2060  0.5228
  192SAPI  H10R22243   5.967   5.444   4.739  0.7474  2.2647  0.5051
  192SAPI  H10S22244   5.817   5.414   4.658 -3.1375  2.4902 -0.3093
  192SAPI  C21122245   5.782   5.534   4.826  0.5104  0.6210 -0.4053
  192SAPI  H11R22246   5.683   5.563   4.789  0.4050  0.0469 -0.5931
  192SAPI  C21222247   5.807   5.525   4.958 -0.1048  0.9613  0.4602
  192SAPI  H12R22248   5.729   5.530   5.035  0.9250  2.7269  1.4480
  192SAPI  C21322249   5.939   5.478   5.015 -0.0804  0.3193  0.5689
  192SAPI  H13R22250   6.013   5.438   4.943  1.1646  2.4622  0.5648
  192SAPI  H13S22251   5.919   5.391   5.080 -0.3430  0.3803  0.5743
  192SAPI  C21422252   6.008   5.586   5.097  0.1347  0.1830  0.1710
  192SAPI  H14R22253   6.101   5.625   5.053  0.0708 -0.8146 -0.8658
  192SAPI  C21522254   5.964   5.646   5.213 -0.3695 -0.1117 -0.7582
  192SAPI  H15R22255   6.019   5.733   5.251 -0.4874 -0.2504 -0.2558
  192SAPI  C21622256   5.840   5.608   5.295  0.2167  0.4476 -0.4324
  192SAPI  H16R22257   5.815   5.500   5.293  1.1482  0.2223 -0.8680
  192SAPI  H16S22258   5.756   5.667   5.254  0.7989  2.3177  0.9006
  192SAPI  C21722259   5.844   5.654   5.445  1.0208  0.0810  0.8516
  192SAPI  H17R22260   5.914   5.738   5.464  1.2635  0.4050 -1.2567
  192SAPI  H17S22261   5.892   5.569   5.499  0.5292  0.2463  1.5685
  192SAPI  C21822262   5.711   5.686   5.508  0.3683  1.0954 -0.0521
  192SAPI  H18R22263   5.634   5.622   5.461  0.4191  0.6901  0.4072
  192SAPI  H18S22264   5.697   5.795   5.498 -1.6376  0.9050  0.3801
  192SAPI  C21922265   5.707   5.676   5.664  0.1242 -0.1261 -0.0369
  192SAPI  H19R22266   5.784   5.738   5.716  1.6831 -2.6282  0.8474
  192SAPI  H19S22267   5.740   5.571   5.680 -2.5447 -1.5119 -2.6177
  192SAPI  C22022268   5.566   5.696   5.723 -0.4637 -0.4930  0.6047
  192SAPI  H20R22269   5.493   5.625   5.681 -0.0748 -0.4459 -0.1635
  192SAPI  H20S22270   5.542   5.796   5.683  2.6655 -0.6489 -2.0546
  192SAPI  H20T22271   5.566   5.695   5.835  3.5643 -2.9677  0.8077
  192SAPI   C3322272   5.999   4.973   4.049 -0.0565 -0.1817 -0.2221
  192SAPI   H3X22273   5.901   4.942   4.006  0.7600 -1.4401 -1.2947
  192SAPI   H3Y22274   6.005   5.084   4.050  1.4281 -0.2321  1.5980
  192SAPI   C3422275   5.998   4.934   4.196  0.0664 -0.2803 -0.3801
  192SAPI   H4X22276   6.010   4.825   4.214  0.9176 -0.7331 -3.1798
  192SAPI   H4Y22277   5.900   4.966   4.235 -1.1174 -1.4376 -2.2423
  192SAPI   C3522278   6.109   5.020   4.271 -0.0954  0.8570  0.3283
  192SAPI   H5X22279   6.210   5.006   4.227  0.1843 -2.9395  1.8828
  192SAPI   H5Y22280   6.114   4.973   4.371  2.0119  0.8699  0.2693
  192SAPI   C3622281   6.083   5.172   4.295 -0.4241 -0.4042 -0.1785
  192SAPI   H6X22282   5.983   5.169   4.341 -0.5784 -1.9784 -0.5799
  192SAPI   H6Y22283   6.076   5.227   4.198  0.7175  1.2230  0.5985
  192SAPI   C3722284   6.191   5.242   4.379  0.2140  0.1690  0.2384
  192SAPI   H7X22285   6.154   5.344   4.405  1.7358  0.8449 -0.0902
  192SAPI   H7Y22286   6.284   5.252   4.320  0.9395 -1.5055  1.0338
  192SAPI   C3822287   6.209   5.179   4.512 -0.3379 -0.1786  0.2865
  192SAPI   H8X22288   6.248   5.076   4.501  0.2495  0.1695 -1.2140
  192SAPI   H8Y22289   6.108   5.172   4.558 -1.3954  4.4527 -0.8404
  192SAPI   C3922290   6.307   5.253   4.610  0.4101 -0.0082 -0.0942
  192SAPI   H9X22291   6.270   5.358   4.617  1.4646  0.2368  3.1308
  192SAPI   H9Y22292   6.413   5.235   4.581 -0.2662 -4.2079 -0.4730
  192SAPI  C31022293   6.305   5.197   4.754  0.4026  0.4310 -0.1821
  192SAPI  H10X22294   6.326   5.088   4.740 -2.4018 -0.2938  0.5987
  192SAPI  H10Y22295   6.200   5.190   4.789  0.0898 -0.4368 -1.2333
  192SAPI  C31122296   6.404   5.259   4.859  0.0116  0.0170 -0.1497
  192SAPI  H11X22297   6.344   5.340   4.905 -0.6777  0.6632 -2.0617
  192SAPI  H11Y22298   6.497   5.283   4.803  0.3670 -1.4178 -0.2079
  192SAPI  C31222299   6.446   5.156   4.965 -0.2772  0.8163 -0.5072
  192SAPI  H12X22300   6.472   5.052   4.937  0.3646  1.1866 -1.3417
  192SAPI  H12Y22301   6.367   5.148   5.043 -0.2809  0.9312 -0.4983
  192SAPI  C31322302   6.566   5.203   5.049  0.0328  0.4082  0.1367
  192SAPI  H13X22303   6.659   5.197   4.989  0.4891 -0.5542  0.8995
  192SAPI  H13Y22304   6.569   5.136   5.137  1.1975 -1.1462 -1.0319
  192SAPI  C31422305   6.549   5.348   5.109 -0.5732  0.4984 -0.0108
  192SAPI  H14X22306   6.439   5.352   5.120 -0.6635 -2.5403  1.2183
  192SAPI  H14Y22307   6.573   5.422   5.030  2.0152 -1.7368 -1.4530
  192SAPI  C31522308   6.615   5.372   5.250  0.0129  0.0575 -0.3670
  192SAPI  H15X22309   6.723   5.347   5.256  0.2351  1.0985  0.3554
  192SAPI  H15Y22310   6.575   5.307   5.330  1.2904 -0.5155 -0.1597
  192SAPI  C31622311   6.604   5.509   5.296 -0.2124 -0.2980  0.1061
  192SAPI  H16X22312   6.498   5.535   5.316 -0.2574  1.6071 -2.2030
  192SAPI  H16Y22313   6.649   5.586   5.230 -0.0920 -0.6412 -0.2132
  192SAPI  C31722314   6.680   5.520   5.431  0.7776  0.4245 -0.3793
  192SAPI  H17X22315   6.789   5.506   5.416  1.3222  1.1724  2.4158
  192SAPI  H17Y22316   6.645   5.432   5.489  0.4345  0.4002 -0.6218
  192SAPI  C31822317   6.668   5.649   5.514 -0.0043 -0.3153  0.2696
  192SAPI  H18X22318   6.561   5.662   5.538 -0.5382 -0.1297 -2.0178
  192SAPI  H18Y22319   6.698   5.738   5.454 -0.1140 -0.8406 -0.5846
  192SAPI  H18Z22320   6.728   5.644   5.607  0.3704 -1.3436 -0.0106
  193SOD    SOD22321   6.178   1.257   1.151  0.2566 -0.0145 -0.1256
  194SOD    SOD22322   6.619   6.073   2.466 -0.1629 -0.0948  0.2570
  195SOD    SOD22323   5.306   0.051   3.124  0.4110 -0.1128  0.0621
  196SOD    SOD22324   2.574   5.792   4.100  0.1533  0.9132 -0.5859
  197SOD    SOD22325   1.387   3.464   1.577  0.1220  0.1772  0.9221
  198SOD    SOD22326   0.501   0.629   1.204  0.0434  0.2185  0.0379
  199SOD    SOD22327   4.082   4.810   0.413  0.0075  0.3016 -0.1426
  200SOD    SOD22328   6.172   5.855   1.992 -0.0665  0.2292  0.0378
  201SOD    SOD22329   1.377   3.183   3.747  0.0404 -0.5816 -0.4115
  202SOD    SOD22330   3.372   4.443   3.949 -0.0506  0.2752 -0.2121
  203SOD    SOD22331   1.327   6.246   0.180 -0.6485 -0.2704 -0.7622
  204SOD    SOD22332   2.396   1.680   3.890 -0.0139 -0.0019  0.1332
  205SOD    SOD22333   5.225   4.158   1.527  0.0186 -0.0047  0.5607
  206SOD    SOD22334   3.056   1.296   2.965  0.6607 -0.0204  0.5211
  207SOD    SOD22335   6.248   1.107   2.233 -0.0838  0.3660  0.2359
  208SOD    SOD22336   1.799   1.651   3.400  0.3915  0.1280 -0.1134
  209SOD    SOD22337   4.436   3.933   8.210  0.2506 -0.1802  0.5141
  210SOD    SOD22338   5.037   1.298   2.671 -0.2156 -0.1105  0.3810
  211SOD    SOD22339   6.075   3.645   3.425  0.4428  0.1465  0.3515
  212SOD    SOD22340   3.900   6.616   2.981 -0.0102 -0.1860  0.2768
  213SOD    SOD22341   0.211   0.985   0.009  0.1960 -0.5851 -0.5285
  214SOD    SOD22342   5.527   2.755   1.582  0.2250  0.1784  0.1115
  215SOD    SOD22343   3.789   1.280   0.818  0.2249 -0.7637  0.0909
  216SOD    SOD22344   2.860   6.146   1.383  0.2818  0.1884  0.0317
  217SOD    SOD22345   6.393   4.716   7.998  0.1109  0.1874  0.3448
  218SOD    SOD22346   1.330   0.918   8.292  0.2686  0.3597 -0.0037
  219SOD    SOD22347   6.248   5.187   1.627  0.3513  0.2106  0.2308
  220SOD    SOD22348   4.448   6.565   8.030 -0.4239  0.5312  0.2888
  221SOD    SOD22349   6.714   2.414   0.509  0.6641 -0.0565  0.2278
  222SOD    SOD22350   3.849   2.407   8.685  0.0393 -0.0988  0.1007
  223SOD    SOD22351   5.804   3.757   2.804 -0.1600 -0.0346  0.0761
  224SOD    SOD22352   1.183   0.447   2.239  0.1620  0.6649  0.3428
  225SOD    SOD22353   5.596   2.075   3.813 -0.1429 -0.2638 -0.7278
  226SOD    SOD22354   1.077   0.865   2.364 -0.4465  0.1890 -0.0456
  227SOD    SOD22355   2.098   2.075   1.583  0.0575  0.0090 -0.3836
  228SOD    SOD22356   1.941   1.237   0.344 -0.0142  0.1854 -0.2711
  229SOD    SOD22357   1.478   3.208   2.736 -0.0369  0.2720  0.3092
  230CLA    CLA22358   4.920   0.230   0.580  0.2916  0.3517 -0.2919
  231CLA    CLA22359   0.242   0.413   0.755  0.4739 -0.1608 -0.0119
  232CLA    CLA22360   0.107   4.308   1.815 -0.3497 -0.0393 -0.5442
  233CLA    CLA22361   6.202   0.792   1.998 -0.2208  0.1124 -0.0212
  234CLA    CLA22362   5.218   2.925   2.389  0.0293 -0.0617  0.0497
  235CLA    CLA22363   2.490   1.879   1.456  0.3867 -0.0438  0.4061
  236CLA    CLA22364   6.476   0.820   0.631 -0.0259  0.1833 -0.2389
  237CLA    CLA22365   4.036   4.115   8.574  0.1814  0.2794  0.4203
  238CLA    CLA22366   4.330   6.062   1.657 -0.2879  0.2396 -0.2120
  239CLA    CLA22367   2.799   1.008   1.427 -0.1918  0.0832  0.0318
  240CLA    CLA22368   1.269   1.056   0.105  0.7445  0.0165  0.1583
  241CLA    CLA22369   2.574   3.582   3.009 -0.1317  0.2177  0.4041
  242CLA    CLA22370   3.940   0.254   2.411  0.1276  0.1267  0.1963
  243CLA    CLA22371   6.589   0.993   1.746 -0.1264 -0.2552  0.1160
  244CLA    CLA22372   2.439   2.420   2.908 -0.4609 -0.2727  0.0864
  245CLA    CLA22373   6.224   5.115   0.493 -0.2675 -0.1458  0.0567
  246CLA    CLA22374   1.092   2.017   0.905 -0.0144  0.0540  0.2021
  247TIP3   OH222375   2.005   3.410   3.039  0.2152 -0.0323  0.0733
  247TIP3    H122376   1.944   3.443   2.973 -0.7635 -1.3052  0.3168
  247TIP3    H222377   1.958   3.418   3.122  0.1850 -1.4349  0.2128
  248TIP3   OH222378   0.378   3.601   0.673  0.4747  0.5989  0.0913
  248TIP3    H122379   0.393   3.694   0.659  1.3177  0.6039  0.9745
  248TIP3    H222380   0.465   3.563   0.687  0.0829 -0.1831  0.5175
  249TIP3   OH222381   5.548   4.596   1.346  0.1972  0.2485  0.3988
  249TIP3    H122382   5.564   4.597   1.441  0.4791  1.8971  0.3694
  249TIP3    H222383   5.586   4.679   1.315 -3.3615  1.7097 -0.5392
  250TIP3   OH222384   6.130   3.431   3.421 -0.5807 -0.2297 -0.3138
  250TIP3    H122385   6.058   3.380   3.459 -0.2349 -2.0831 -1.9467
  250TIP3    H222386   6.160   3.378   3.347  1.0591  1.5266 -0.9957
  251TIP3   OH222387   5.812   5.001   2.086 -0.2392  0.5983  0.9019
  251TIP3    H122388   5.861   5.034   2.011 -2.0888 -2.2599 -1.8277
  251TIP3    H222389   5.720   5.018   2.065 -0.9143 -1.6129  1.7009
  252TIP3   OH222390   1.416   6.807   2.726  0.3354 -0.1467  0.9668
  252TIP3    H122391   1.509   6.823   2.740  0.5114 -2.2073  2.6038
  252TIP3    H222392   1.397   6.728   2.776 -1.3797 -2.3029 -2.6427
  253TIP3   OH222393   6.833   1.863   0.529  0.1835  0.3094  0.1345
  253TIP3    H122394   6.903   1.927   0.535 -0.0111  0.4175  1.8084
  253TIP3    H222395   6.867   1.795   0.471  1.6972  0.3379  0.9390
  254TIP3   OH222396   6.518   6.126   2.025 -0.2610 -0.2104 -0.1999
  254TIP3    H122397   6.435   6.091   2.055 -0.1782 -1.9119 -1.7853
  254TIP3    H222398   6.529   6.091   1.936  2.6168 -0.9624  0.3215
  255TIP3   OH222399   0.667   3.154   1.970 -0.3927 -0.0591  0.6370
  255TIP3    H122400   0.607   3.204   2.026 -0.5740  1.6605 -1.0066
  255TIP3    H222401   0.735   3.123   2.030 -1.6258  0.0107  2.1315
  256TIP3   OH222402   0.914   5.985   2.798 -0.6493 -0.1530  0.4147
  256TIP3    H122403   0.994   5.933   2.789 -0.3925  0.2353  0.4299
  256TIP3    H222404   0.860   5.936   2.861 -1.0641 -1.1910 -0.7190
  257TIP3   OH222405   5.900   3.337   3.189  0.4029 -0.1224  0.4439
  257TIP3    H122406   5.972   3.296   3.238  1.1957  0.0407 -0.5510
  257TIP3    H222407   5.892   3.285   3.109 -0.0545  0.3410  0.1804
  258TIP3   OH222408   6.815   2.504   0.992 -0.4357  0.2337 -0.2519
  258TIP3    H122409   6.911   2.504   0.993 -0.3475 -2.1375 -1.2460
  258TIP3    H222410   6.790   2.444   1.062 -1.2784  1.5392  0.6199
  259TIP3   OH222411   2.083   4.699   8.558 -0.3336 -0.1797  0.3968
  259TIP3    H122412   2.066   4.784   8.597 -0.0597 -1.0760  2.6327
  259TIP3    H222413   2.010   4.684   8.498 -0.6461  1.3885  0.3588
  260TIP3   OH222414   5.041   2.283   2.044 -0.0829  0.3503  0.0635
  260TIP3    H122415   5.022   2.189   2.043  0.7212  0.0792  2.8054
  260TIP3    H222416   4.958   2.324   2.017 -0.6272 -1.0973 -0.5999
  261TIP3   OH222417   1.712   4.710   1.196 -0.0615 -0.4333  0.1232
  261TIP3    H122418   1.617   4.718   1.190  0.0447 -0.0291 -4.2697
  261TIP3    H222419   1.744   4.800   1.195  0.4284 -0.5812  1.0274
  262TIP3   OH222420   1.764   2.126   8.006  0.2834  0.1086  0.6549
  262TIP3    H122421   1.703   2.108   7.934 -2.2504  3.8592  1.5447
  262TIP3    H222422   1.846   2.150   7.963 -0.4752  0.0402 -0.8941
  263TIP3   OH222423   1.729   0.687   0.949  0.1446  0.9116  0.0485
  263TIP3    H122424   1.770   0.681   1.035 -0.5684  0.0124  0.3307
  263TIP3    H222425   1.798   0.721   0.892  1.2836 -0.5306  0.5170
  264TIP3   OH222426   5.497   3.580   2.039 -0.5517  0.2815 -0.1646
  264TIP3    H122427   5.576   3.626   2.067 -1.7900  1.7076  1.1602
  264TIP3    H222428   5.510   3.490   2.067  1.0147  0.2558 -0.8808
  265TIP3   OH222429   6.795   2.610   0.109  0.0342  0.0322  0.0701
  265TIP3    H122430   6.793   2.583   0.201  0.0117 -0.0922  0.0324
  265TIP3    H222431   6.870   2.563   0.072  0.5889  0.7499  0.2380
  266TIP3   OH222432   5.429   2.315   0.424  0.0606  0.6569 -0.5812
  266TIP3    H122433   5.396   2.344   0.509 -0.1319 -1.7019  0.2207
  266TIP3    H222434   5.380   2.368   0.360 -1.9990  0.4229  0.7041
  267TIP3   OH222435   0.559   3.598   1.652  0.4858  0.5283 -0.8259
  267TIP3    H122436   0.639   3.597   1.703 -0.9470  1.8467  1.5980
  267TIP3    H222437   0.561   3.681   1.604 -0.4705  1.7728  1.1581
  268TIP3   OH222438   6.840   3.760   3.235  0.1368  0.0535  0.0703
  268TIP3    H122439   6.819   3.753   3.328 -1.7757 -0.1528 -0.3404
  268TIP3    H222440   6.783   3.830   3.202  0.1271 -0.4836 -1.1104
  269TIP3   OH222441   6.242   1.372   3.254 -0.5146  0.4260 -0.5251
  269TIP3    H122442   6.254   1.322   3.173 -1.1649 -2.3067  0.9355
  269TIP3    H222443   6.165   1.332   3.296 -0.4515  2.0219  1.2455
  270TIP3   OH222444   4.792   4.341   7.860  0.0669 -0.1748  0.0671
  270TIP3    H122445   4.870   4.378   7.818  1.1451 -2.0727  0.2960
  270TIP3    H222446   4.819   4.253   7.888 -1.7786 -0.3964  1.3139
  271TIP3   OH222447   5.353   0.732   2.653 -0.2081 -0.3410 -0.2290
  271TIP3    H122448   5.362   0.664   2.586  1.1561 -0.0138 -0.4061
  271TIP3    H222449   5.440   0.771   2.659 -1.0051  1.5307 -0.2702
  272TIP3   OH222450   6.181   3.278   1.061  0.4342 -0.4210 -0.0967
  272TIP3    H122451   6.244   3.343   1.030 -1.6219  1.0488 -1.5514
  272TIP3    H222452   6.170   3.298   1.154 -0.9833  2.2265 -0.7183
  273TIP3   OH222453   0.833   2.813   2.478  0.9283 -0.0155  0.1054
  273TIP3    H122454   0.871   2.876   2.540  0.0845 -0.6707  1.3414
  273TIP3    H222455   0.890   2.736   2.485  0.4384 -0.3407  0.6084
  274TIP3   OH222456   4.580   3.984   8.607 -0.1275 -0.1848 -0.2318
  274TIP3    H122457   4.509   4.047   8.592  0.4280  0.4795 -0.1053
  274TIP3    H222458   4.574   3.962   8.700 -2.5425 -3.0580 -0.9006
  275TIP3   OH222459   5.184   4.553   0.933 -0.1713  0.3199 -0.1522
  275TIP3    H122460   5.120   4.513   0.874  0.0021 -1.3557  0.7638
  275TIP3    H222461   5.265   4.554   0.882  0.6198 -3.4359  0.7973
  276TIP3   OH222462   6.333   3.668   2.009  0.4096  0.1953 -0.5449
  276TIP3    H122463   6.372   3.625   2.085 -0.6329 -0.4367 -0.3476
  276TIP3    H222464   6.336   3.603   1.940 -1.4045 -0.3214 -0.1750
  277TIP3   OH222465   4.364   5.788   1.797  0.2839  0.1320  0.1348
  277TIP3    H122466   4.350   5.745   1.713 -1.3493  0.5360  0.1674
  277TIP3    H222467   4.346   5.880   1.780 -1.6190  0.0117  1.2345
  278TIP3   OH222468   1.559   4.617   8.711  0.2962  0.0223 -0.4130
  278TIP3    H122469   1.609   4.619   8.629  0.0474  0.6996 -0.5480
  278TIP3    H222470   1.584   4.698   8.756 -1.0451  0.6148 -0.6991
  279TIP3   OH222471   3.817   1.875   3.657  0.0703 -0.9803 -0.2634
  279TIP3    H122472   3.813   1.961   3.700 -0.3810 -1.7389  1.2988
  279TIP3    H222473   3.898   1.836   3.689 -1.6275 -2.7140  2.3789
  280TIP3   OH222474   1.474   1.738   0.334 -0.3084  0.2290  0.2398
  280TIP3    H122475   1.418   1.783   0.270 -0.2069  1.7464  1.1720
  280TIP3    H222476   1.417   1.720   0.408  0.4162  1.8358  1.2213
  281TIP3   OH222477   4.075   5.059   0.690  0.9269 -0.1424  0.2964
  281TIP3    H122478   4.104   5.015   0.770  2.2086 -0.1546 -0.1563
  281TIP3    H222479   4.003   5.115   0.719  1.9850  0.5947  1.6646
  282TIP3   OH222480   4.479   3.022   2.686  0.2288 -0.3691 -0.1409
  282TIP3    H122481   4.387   2.996   2.681  0.0532  0.1222  0.3961
  282TIP3    H222482   4.523   2.967   2.622 -0.5702 -0.0522 -0.9815
  283TIP3   OH222483   4.940   0.977   1.372 -0.0170  0.1694  0.0473
  283TIP3    H122484   5.001   1.018   1.434  1.3355 -0.3063 -0.9034
  283TIP3    H222485   4.928   0.888   1.406 -1.5703  0.7730  1.1613
  284TIP3   OH222486   3.247   5.510   3.171  0.1675  0.1314  0.0046
  284TIP3    H122487   3.265   5.593   3.214 -2.6326 -0.2522  2.2483
  284TIP3    H222488   3.178   5.531   3.108  0.7611 -0.1961 -0.7695
  285TIP3   OH222489   3.380   0.036   1.258 -0.5482 -0.1938  0.1375
  285TIP3    H122490   3.362  -0.045   1.306 -1.2716 -0.2928 -0.2988
  285TIP3    H222491   3.448   0.079   1.310  0.1411 -1.2679  0.1560
  286TIP3   OH222492   5.941   4.157   8.225  0.5198  0.3501 -0.0646
  286TIP3    H122493   5.917   4.200   8.143  1.7112 -0.1598 -0.7082
  286TIP3    H222494   5.916   4.065   8.212  3.8891 -0.5386 -1.3408
  287TIP3   OH222495   4.519   4.864   2.937  0.0817 -0.7182  0.5855
  287TIP3    H122496   4.524   4.873   2.842 -1.4035 -0.3350  0.5226
  287TIP3    H222497   4.551   4.775   2.954  0.7877 -0.6373 -0.2140
  288TIP3   OH222498   4.037   2.447   0.636 -0.3752  0.3447  0.1739
  288TIP3    H122499   4.006   2.360   0.661 -1.1953  0.6019  0.0778
  288TIP3    H222500   4.111   2.429   0.577  1.6656 -0.2607  2.7567
  289TIP3   OH222501   3.569   2.555   2.765  0.2435 -0.2467  0.4842
  289TIP3    H122502   3.646   2.583   2.813  0.1398  2.1384 -0.6154
  289TIP3    H222503   3.523   2.496   2.826  1.7874  0.0170  1.9767
  290TIP3   OH222504   1.848   3.655   0.960  0.8185 -0.2701  0.5738
  290TIP3    H122505   1.906   3.667   0.886  0.0912 -0.5024 -0.0457
  290TIP3    H222506   1.773   3.711   0.942  0.4503 -0.6319  0.9335
  291TIP3   OH222507   1.662   5.805   0.088  0.2381 -0.3138 -0.3415
  291TIP3    H122508   1.671   5.711   0.069  0.5088 -0.8365  2.0373
  291TIP3    H222509   1.623   5.808   0.175 -0.2403  1.8223 -0.5788
  292TIP3   OH222510   0.795   6.616   1.199 -0.4239 -0.5477 -0.2363
  292TIP3    H122511   0.784   6.685   1.134 -0.1948 -0.7693 -0.5080
  292TIP3    H222512   0.719   6.559   1.186 -0.2358 -0.7414 -0.4918
  293TIP3   OH222513   0.954   6.390   0.157 -0.5722  0.3293 -0.2760
  293TIP3    H122514   0.896   6.466   0.164  0.0989  1.2234 -3.1228
  293TIP3    H222515   1.042   6.426   0.160 -0.1535 -0.6916  0.9267
  294TIP3   OH222516   0.789   4.522   8.254  0.4243 -0.3769 -0.0453
  294TIP3    H122517   0.730   4.590   8.222 -0.6958 -1.2904  0.0309
  294TIP3    H222518   0.861   4.570   8.295 -0.1123  0.7587 -0.3965
  295TIP3   OH222519   4.368   1.554   3.265  0.0592 -0.1113 -0.1931
  295TIP3    H122520   4.341   1.529   3.176  1.4723 -0.7739 -0.4591
  295TIP3    H222521   4.410   1.639   3.254 -1.2984  0.6336  0.1322
  296TIP3   OH222522   5.229   6.070   0.030  0.0753 -0.2872 -0.0311
  296TIP3    H122523   5.312   6.029   0.054  0.6495  0.5107 -0.6369
  296TIP3    H222524   5.236   6.160   0.060 -0.0113  0.1706 -1.3171
  297TIP3   OH222525   5.826   1.968   7.757 -0.4958 -0.1587  0.1588
  297TIP3    H122526   5.836   1.878   7.724 -1.2395 -0.1039 -0.2299
  297TIP3    H222527   5.755   1.962   7.821  1.0787 -0.3069  1.9673
  298TIP3   OH222528   2.150   2.952   2.593 -0.0346  0.3097 -0.2615
  298TIP3    H122529   2.208   2.891   2.639 -0.3839  0.3467  0.2432
  298TIP3    H222530   2.197   2.975   2.513  0.9928  0.9462  0.4995
  299TIP3   OH222531   4.090   5.693   0.274  0.0688  0.3253  0.0180
  299TIP3    H122532   4.166   5.636   0.270 -0.9277 -1.1104  0.7651
  299TIP3    H222533   4.116   5.771   0.225  1.6324 -0.5665 -0.6347
  300TIP3   OH222534   3.005   4.973   0.539  0.3165 -0.4150  0.6788
  300TIP3    H122535   2.929   5.028   0.554 -0.8168 -1.4547 -0.9871
  300TIP3    H222536   3.023   4.933   0.625 -0.9705 -0.1105  1.1057
  301TIP3   OH222537   2.533   1.470   3.816  0.0470  0.4051 -0.5038
  301TIP3    H122538   2.450   1.462   3.862  0.7108  2.7532  1.2651
  301TIP3    H222539   2.574   1.384   3.824 -0.4657  0.3514  2.1768
  302TIP3   OH222540   4.029   1.019   0.005  0.6684 -0.3626  0.1829
  302TIP3    H122541   4.016   1.099  -0.045 -1.1695 -0.3194  0.6557
  302TIP3    H222542   4.021   1.046   0.096  0.0531 -1.0601  0.3493
  303TIP3   OH222543   0.472   2.764   2.408 -0.4741 -0.5236  0.0465
  303TIP3    H122544   0.475   2.810   2.492  1.6900 -0.2983 -0.0945
  303TIP3    H222545   0.492   2.831   2.343  0.3878 -1.1664 -0.3782
  304TIP3   OH222546   0.322   1.449   8.214 -0.3340  0.1251 -0.7355
  304TIP3    H122547   0.392   1.389   8.241  0.4043  1.1616 -0.2620
  304TIP3    H222548   0.368   1.520   8.170 -0.8811  1.6466  1.0011
  305TIP3   OH222549   3.142   2.818   1.315  0.4066 -0.1560  0.2584
  305TIP3    H122550   3.216   2.774   1.273 -0.8665 -0.8084 -1.4446
  305TIP3    H222551   3.080   2.832   1.244 -1.1919  0.1989  1.6637
  306TIP3   OH222552   6.735   1.057   1.111  0.5410 -0.5873  0.2685
  306TIP3    H122553   6.765   0.970   1.084  0.3059 -0.9511  1.1486
  306TIP3    H222554   6.770   1.069   1.199  2.3926  1.1155 -0.6254
  307TIP3   OH222555   3.792   3.569   3.808 -0.0176 -0.2599 -0.1991
  307TIP3    H122556   3.727   3.551   3.741 -1.2821  0.9244  0.6394
  307TIP3    H222557   3.751   3.637   3.863  1.4455 -0.3381  1.0530
  308TIP3   OH222558   1.464   1.082   8.371 -0.1206 -0.1596 -0.3949
  308TIP3    H122559   1.437   1.107   8.459  0.6053  2.7710 -0.9028
  308TIP3    H222560   1.559   1.096   8.369  0.3526 -2.8199 -0.9126
  309TIP3   OH222561   6.413   5.732   2.542  0.2788 -0.4443  0.4036
  309TIP3    H122562   6.388   5.722   2.634  0.5509 -1.5092  0.3722
  309TIP3    H222563   6.340   5.693   2.494  0.5750 -0.7486  0.2018
  310TIP3   OH222564   2.225   2.077   0.690 -0.2869  0.2420  0.0893
  310TIP3    H122565   2.176   2.134   0.750  2.0165  2.9146 -0.3667
  310TIP3    H222566   2.288   2.032   0.746  0.0494  0.6415  0.0330
  311TIP3   OH222567   0.717   1.386   2.458  0.2011  0.1522 -0.0752
  311TIP3    H122568   0.662   1.450   2.504  0.6235 -0.0559  0.7294
  311TIP3    H222569   0.658   1.347   2.393 -0.2038  0.9750 -0.2222
  312TIP3   OH222570   1.691   5.333   1.832 -0.2557  0.1762  0.3479
  312TIP3    H122571   1.666   5.316   1.923  3.8639 -2.3044  1.2534
  312TIP3    H222572   1.670   5.252   1.785  1.6377 -0.2363  0.1464
  313TIP3   OH222573   0.127   2.172   0.966  0.3744 -0.1364 -0.6490
  313TIP3    H122574   0.093   2.192   0.879  1.0753  1.1543 -0.6474
  313TIP3    H222575   0.174   2.251   0.993 -0.4335 -0.2190  1.2062
  314TIP3   OH222576   1.002   3.373   0.449 -0.3743 -1.0902  0.0664
  314TIP3    H122577   1.083   3.325   0.462 -0.3362 -0.5283  2.2468
  314TIP3    H222578   1.026   3.465   0.461 -0.8009 -0.6325 -2.1789
  315TIP3   OH222579   2.220   3.293   2.939 -0.3226 -0.2006  0.2588
  315TIP3    H122580   2.157   3.353   2.977 -0.8449 -1.4787  1.4965
  315TIP3    H222581   2.184   3.206   2.956  1.1692 -0.9254 -0.0766
  316TIP3   OH222582   4.377   1.674   0.699 -0.1197  0.5775  0.5649
  316TIP3    H122583   4.409   1.623   0.774 -0.4399  2.2033  1.8735
  316TIP3    H222584   4.366   1.609   0.629 -1.9629 -1.4630  2.5521
  317TIP3   OH222585   6.144   5.295   2.837  0.1745 -0.6080 -0.1291
  317TIP3    H122586   6.197   5.270   2.913  0.4935  0.0118 -0.1416
  317TIP3    H222587   6.061   5.249   2.850  0.4965 -1.1117  0.2003
  318TIP3   OH222588   2.449   4.120   8.118  0.1267  0.2386 -0.0060
  318TIP3    H122589   2.480   4.109   8.028 -0.8049  0.3045 -0.3409
  318TIP3    H222590   2.473   4.038   8.161 -0.4046 -0.2472 -0.6123
  319TIP3   OH222591   6.182   2.811   1.102  0.4581 -0.4176  0.3029
  319TIP3    H122592   6.156   2.824   1.011  2.3704 -0.7615 -0.3428
  319TIP3    H222593   6.233   2.890   1.124  0.8353 -0.7736  0.7397
  320TIP3   OH222594   3.965   0.349   0.778 -0.3108  0.2508 -0.7152
  320TIP3    H122595   3.908   0.326   0.851  1.8217  0.2773  1.0550
  320TIP3    H222596   3.983   0.265   0.734  1.3941 -0.4328  1.1449
  321TIP3   OH222597   0.972   4.370   8.091 -0.1729 -0.4535 -0.6700
  321TIP3    H122598   0.920   4.399   8.166  0.5991 -0.2503 -0.2007
  321TIP3    H222599   0.952   4.277   8.083  1.1743 -0.9422  1.0082
  322TIP3   OH222600   1.067   2.894   1.552 -0.2011 -0.7075 -0.2971
  322TIP3    H122601   1.081   2.919   1.643  1.0920  2.0530 -1.1283
  322TIP3    H222602   0.988   2.941   1.526  0.1384 -0.4682 -0.9160
  323TIP3   OH222603   0.597   3.495   2.387 -0.4527  0.2126 -0.3980
  323TIP3    H122604   0.514   3.538   2.405 -0.7377 -0.5775  0.1841
  323TIP3    H222605   0.663   3.557   2.418 -0.8510  0.3568  0.1726
  324TIP3   OH222606   2.604   4.043   1.446  0.3201  0.3996 -0.2601
  324TIP3    H122607   2.658   4.080   1.376  0.5832  1.5584  0.5240
  324TIP3    H222608   2.539   4.111   1.464 -0.9239 -0.6452 -0.6313
  325TIP3   OH222609   2.439   3.016   2.109  0.5046  0.6870  0.3070
  325TIP3    H122610   2.452   2.929   2.073 -1.4965  0.6167 -0.3446
  325TIP3    H222611   2.479   3.075   2.046 -0.7482  0.3977 -0.8021
  326TIP3   OH222612   4.477   5.156   0.976  0.1157 -0.2767  0.5792
  326TIP3    H122613   4.454   5.075   1.020 -4.9461  1.1375  1.2205
  326TIP3    H222614   4.410   5.218   1.004  2.6020  3.6690 -1.3104
  327TIP3   OH222615   0.252   4.702   2.600 -0.3874  0.0333 -0.3921
  327TIP3    H122616   0.166   4.724   2.635 -0.7235 -1.8876  0.1451
  327TIP3    H222617   0.256   4.747   2.516 -1.4973  0.9615  0.0238
  328TIP3   OH222618   3.804   4.494   0.505 -0.2122 -0.5280  0.2762
  328TIP3    H122619   3.831   4.578   0.471 -0.0964 -0.7846 -0.2723
  328TIP3    H222620   3.713   4.507   0.531  0.0145 -0.0463  0.8464
  329TIP3   OH222621   4.930   6.142   1.291  0.0997 -0.2965 -0.0523
  329TIP3    H122622   4.925   6.229   1.251 -0.7924  0.2529  1.1926
  329TIP3    H222623   5.022   6.117   1.282  0.2712  0.5539 -0.8429
  330TIP3   OH222624   1.066   6.162   1.814  0.4411  0.2788  0.1603
  330TIP3    H122625   1.047   6.232   1.876  0.6993 -0.9804  1.7157
  330TIP3    H222626   1.010   6.090   1.841  0.1065 -0.1112 -1.4747
  331TIP3   OH222627   1.460   2.059   7.577 -0.5744  0.0046  0.6171
  331TIP3    H122628   1.370   2.086   7.595 -0.8848  0.3032 -1.1450
  331TIP3    H222629   1.451   1.973   7.535 -0.2461  0.8775 -1.3631
  332TIP3   OH222630   0.761   4.064   0.931 -0.0348 -0.2204 -0.2153
  332TIP3    H122631   0.763   4.135   0.867  0.7354  0.5825  0.6654
  332TIP3    H222632   0.846   4.021   0.922  0.2035  0.0882  0.4497
  333TIP3   OH222633   2.449   1.470   2.602  0.1249 -0.3576  0.4694
  333TIP3    H122634   2.509   1.478   2.677 -0.3051  0.4980  0.7379
  333TIP3    H222635   2.406   1.385   2.615  0.6825 -0.6080  0.7189
  334TIP3   OH222636   5.335   6.387   0.307 -0.2842 -0.0387  0.0274
  334TIP3    H122637   5.289   6.345   0.235  0.2670 -0.9650  0.1996
  334TIP3    H222638   5.347   6.478   0.279 -3.5840  0.7117  0.6015
  335TIP3   OH222639   6.365   5.326   2.677  0.2994  0.4683 -0.3223
  335TIP3    H122640   6.293   5.274   2.713 -0.1916  1.5267  0.2451
  335TIP3    H222641   6.388   5.387   2.747  1.6216  0.2870 -0.5659
  336TIP3   OH222642   6.265   3.191   8.613  0.5479 -0.7823  0.4896
  336TIP3    H122643   6.194   3.141   8.653  0.0649  0.6464  1.5145
  336TIP3    H222644   6.231   3.219   8.528  1.0936 -2.7366 -0.4300
  337TIP3   OH222645   0.484   2.065   0.288 -0.1339 -0.1694 -0.4401
  337TIP3    H122646   0.462   1.999   0.354  0.6280 -0.2919 -0.2970
  337TIP3    H222647   0.481   2.149   0.335  0.3078 -0.2468 -0.2711
  338TIP3   OH222648   6.730   1.627   3.177  0.2082 -0.3162  0.6628
  338TIP3    H122649   6.771   1.598   3.259  1.3346 -0.9373 -0.0885
  338TIP3    H222650   6.647   1.581   3.174 -0.6760  1.0576  2.2843
  339TIP3   OH222651   6.838   0.533   2.104  0.0393 -0.4095  0.3912
  339TIP3    H122652   6.751   0.511   2.072  0.4322  1.2434 -2.1268
  339TIP3    H222653   6.889   0.453   2.093 -1.5662 -2.2052  4.2123
  340TIP3   OH222654   3.711   6.116   3.070  0.0793  0.6785 -0.0451
  340TIP3    H122655   3.806   6.104   3.071  0.3389  2.2015 -1.6170
  340TIP3    H222656   3.678   6.045   3.016  0.4214  0.6474 -0.2124
  341TIP3   OH222657   4.351   2.936   1.806 -0.4040  0.2039  0.4034
  341TIP3    H122658   4.297   2.964   1.879 -1.1658  1.5385 -0.6246
  341TIP3    H222659   4.436   2.977   1.820 -0.5021  0.3303  0.6206
  342TIP3   OH222660   2.928   1.473   1.187  0.0307 -0.1951 -0.2290
  342TIP3    H122661   2.908   1.379   1.192  0.2008 -0.1669  2.4368
  342TIP3    H222662   2.963   1.485   1.099 -2.9394 -1.9970 -1.8377
  343TIP3   OH222663   6.543   1.501   0.065  0.1407  0.1477 -0.3236
  343TIP3    H122664   6.634   1.525   0.045  0.0095  1.1186  0.1733
  343TIP3    H222665   6.522   1.433   0.001  1.5062 -0.7458  0.1264
  344TIP3   OH222666   1.346   0.835   7.818  0.0021 -0.3273 -0.1016
  344TIP3    H122667   1.309   0.916   7.783 -0.2840  0.9077  2.7403
  344TIP3    H222668   1.274   0.773   7.818  0.2630 -0.7159 -2.4612
  345TIP3   OH222669   3.095   1.569   8.074  0.3382 -0.5652  0.0315
  345TIP3    H122670   3.065   1.483   8.045 -0.0357 -0.9377  1.4533
  345TIP3    H222671   3.190   1.560   8.082  0.1595 -1.3961  1.7613
  346TIP3   OH222672   1.348   2.019   1.097  0.2406 -0.2820 -0.2221
  346TIP3    H122673   1.279   2.013   1.031  1.5219  0.2690 -1.6840
  346TIP3    H222674   1.410   1.949   1.073  0.1620 -0.8184  1.1041
  347TIP3   OH222675   1.762   4.032   0.729  0.5043 -0.0197  0.9939
  347TIP3    H122676   1.777   4.119   0.766 -1.2662  0.6725  0.1996
  347TIP3    H222677   1.819   4.028   0.652  0.1761  0.6681  0.7124
  348TIP3   OH222678   4.993   5.280   2.398 -0.4528  0.0756  0.2925
  348TIP3    H122679   5.079   5.238   2.398  0.2527  1.4721  0.3590
  348TIP3    H222680   4.934   5.214   2.361  0.2736 -1.5974  1.9429
  349TIP3   OH222681   2.422   6.790   2.284 -0.7471 -0.0801  0.3055
  349TIP3    H122682   2.416   6.786   2.380 -0.9631  0.7995  0.3385
  349TIP3    H222683   2.378   6.872   2.261 -0.6697 -0.2730 -0.5471
  350TIP3   OH222684   2.197   5.528   7.892 -0.5897 -0.1878 -0.2593
  350TIP3    H122685   2.193   5.443   7.935 -0.1342 -0.4558 -0.7243
  350TIP3    H222686   2.126   5.579   7.930  0.1441 -0.2173  1.2088
  351TIP3   OH222687   6.468   4.279   1.521 -0.0576 -0.3050 -0.2653
  351TIP3    H122688   6.394   4.280   1.460 -0.9954  0.8364  0.8273
  351TIP3    H222689   6.466   4.190   1.558 -0.9327 -0.2769 -0.2121
  352TIP3   OH222690   3.899   5.222   8.745 -0.0681 -0.3482  0.7368
  352TIP3    H122691   3.951   5.242   8.823  0.3566 -1.4099  0.7450
  352TIP3    H222692   3.963   5.194   8.679 -0.4351  0.4070  0.0425
  353TIP3   OH222693   3.248   1.962   2.456  0.5802 -0.5996 -0.3035
  353TIP3    H122694   3.155   1.949   2.473  0.1297  1.4648 -0.8027
  353TIP3    H222695   3.271   1.894   2.394 -0.7917 -0.7248 -0.7092
  354TIP3   OH222696   0.224   3.617   3.193  0.0825  0.0799 -0.1781
  354TIP3    H122697   0.259   3.636   3.280  0.3252  0.6908 -0.4071
  354TIP3    H222698   0.147   3.673   3.185  0.1887  0.1899 -0.4420
  355TIP3   OH222699   0.461   1.070   1.053  0.5567  0.5815 -0.5585
  355TIP3    H122700   0.419   0.995   1.010  3.8403 -1.3339 -0.7275
  355TIP3    H222701   0.491   1.036   1.137 -2.1587  3.1954  1.6991
  356TIP3   OH222702   1.948   3.492   0.525 -0.3063  0.0992  0.2111
  356TIP3    H122703   1.899   3.573   0.510 -0.3613  0.1746  0.7698
  356TIP3    H222704   2.012   3.489   0.454 -0.2162  0.7059  0.2592
  357TIP3   OH222705   2.554   4.594   2.371 -0.5739 -0.4242  0.1767
  357TIP3    H122706   2.465   4.594   2.338 -1.0220 -0.5404  1.3279
  357TIP3    H222707   2.545   4.575   2.465  0.5972  0.3103  0.4634
  358TIP3   OH222708   6.012   1.482   0.008  0.4416 -0.2467  0.1550
  358TIP3    H122709   6.012   1.437   0.092  0.5090 -1.7602 -0.6348
  358TIP3    H222710   5.921   1.483  -0.020  0.6290 -1.2831 -0.5384
  359TIP3   OH222711   6.785   2.411   0.723  0.2526  0.3850 -0.9429
  359TIP3    H122712   6.729   2.425   0.799 -0.2650  3.4131 -1.7475
  359TIP3    H222713   6.870   2.447   0.750  0.5081  0.0382 -1.2811
  360TIP3   OH222714   5.788   1.498   3.875 -0.3380 -0.0623  0.4409
  360TIP3    H122715   5.790   1.544   3.791 -1.9581 -1.7539 -0.6078
  360TIP3    H222716   5.881   1.486   3.898  0.1419  0.4289 -1.1132
  361TIP3   OH222717   0.879   1.832   3.336  0.4793 -0.0125  0.4240
  361TIP3    H122718   0.903   1.922   3.313  0.9744 -0.3666 -0.5031
  361TIP3    H222719   0.909   1.822   3.426 -0.6644  1.1208  0.9609
  362TIP3   OH222720   2.137   5.219   1.672 -0.5490 -0.5222  0.0532
  362TIP3    H122721   2.102   5.287   1.729  1.0251 -0.0649  0.5277
  362TIP3    H222722   2.178   5.266   1.599  0.7839 -0.9112  0.5163
  363TIP3   OH222723   4.670   2.030   2.160  0.1253 -0.7653 -0.1850
  363TIP3    H122724   4.707   2.096   2.218 -0.0879 -1.7044  1.0526
  363TIP3    H222725   4.672   1.949   2.211 -2.9448 -1.0274 -0.2790
  364TIP3   OH222726   1.598   5.105   0.109 -0.0449 -0.0687 -0.3661
  364TIP3    H122727   1.649   5.178   0.074  0.4990 -0.1989  0.1459
  364TIP3    H222728   1.513   5.112   0.066  0.6445 -0.2934 -1.8249
  365TIP3   OH222729   0.673   0.462   3.979  0.1862 -0.5030 -0.5788
  365TIP3    H122730   0.764   0.446   3.950 -0.0321  0.0297 -1.6174
  365TIP3    H222731   0.648   0.542   3.934 -0.4177  0.0075  0.6409
  366TIP3   OH222732   0.583   6.252   1.467  0.1390 -0.7224 -0.5936
  366TIP3    H122733   0.671   6.283   1.444  1.1892 -0.7636  2.7805
  366TIP3    H222734   0.598   6.166   1.507 -0.8768  0.5156  2.9001
  367TIP3   OH222735   4.806   4.729   2.339  0.5387  0.7776 -0.4395
  367TIP3    H122736   4.838   4.678   2.264  0.8482 -0.0281  0.2295
  367TIP3    H222737   4.716   4.752   2.316 -0.1728 -1.4484 -0.0812
  368TIP3   OH222738   3.808   3.207   0.472  0.0302 -0.3149 -0.3628
  368TIP3    H122739   3.713   3.212   0.487 -0.1514  0.1532 -1.5419
  368TIP3    H222740   3.834   3.296   0.451  1.0123 -0.1674  1.3721
  369TIP3   OH222741   4.067   5.746   8.038  0.4834  0.1544 -0.3257
  369TIP3    H122742   4.092   5.778   7.952  0.6199 -1.1691 -0.8018
  369TIP3    H222743   4.147   5.705   8.073  0.9272  2.1232  1.1723
  370TIP3   OH222744   2.272   5.021   3.964  0.1742 -1.0485 -0.4190
  370TIP3    H122745   2.188   4.986   3.936  0.8623 -1.2519 -2.4563
  370TIP3    H222746   2.334   4.989   3.898  1.1359  2.6180 -1.5167
  371TIP3   OH222747   6.709   0.382   8.481  0.0442  0.0346 -0.1230
  371TIP3    H122748   6.778   0.442   8.454  0.2640  0.3278  1.0274
  371TIP3    H222749   6.643   0.439   8.522 -0.9913 -0.2139 -1.3751
  372TIP3   OH222750   4.549   4.020   0.085 -0.4905 -0.2256  0.3491
  372TIP3    H122751   4.498   3.952   0.130 -1.7824  1.5814  1.7953
  372TIP3    H222752   4.613   4.048   0.150  0.3714 -0.3914 -0.4190
  373TIP3   OH222753   0.012   0.715   3.571 -0.2503  0.1456 -0.2287
  373TIP3    H122754  -0.077   0.711   3.536 -0.3181 -0.5777  0.0139
  373TIP3    H222755   0.007   0.778   3.642 -0.4843  0.3870 -0.4545
  374TIP3   OH222756   0.803   5.833   2.037 -0.3627  0.5672 -0.0316
  374TIP3    H122757   0.757   5.886   1.972  0.8845 -1.4813 -2.7830
  374TIP3    H222758   0.820   5.893   2.109 -2.8626  2.6750 -1.0292
  375TIP3   OH222759   2.092   1.815   2.006  0.6387 -1.2527  0.3142
  375TIP3    H122760   2.116   1.906   2.024 -0.1605 -1.1327  0.8351
  375TIP3    H222761   2.087   1.811   1.910 -2.1284  0.0661  0.2777
  376TIP3   OH222762   4.316   3.854   2.037  0.1286 -0.1645 -0.1919
  376TIP3    H122763   4.402   3.820   2.010 -0.2407 -1.3806  0.1021
  376TIP3    H222764   4.285   3.905   1.962  0.7830 -0.3279 -0.5790
  377TIP3   OH222765   4.855   5.882   1.993 -0.1581  0.0237 -0.0147
  377TIP3    H122766   4.803   5.955   1.960 -2.5349 -0.2869  2.6739
  377TIP3    H222767   4.819   5.805   1.949 -1.1710 -0.0469  0.9059
  378TIP3   OH222768   0.009   5.721   4.015  0.5142  0.2332 -0.3565
  378TIP3    H122769   0.008   5.643   4.071  1.4975  1.0710  0.9110
  378TIP3    H222770  -0.076   5.721   3.971  0.4750 -1.5160 -0.3623
  379TIP3   OH222771   6.594   3.507   2.764  0.4772 -0.0521 -0.1752
  379TIP3    H122772   6.659   3.464   2.708  0.0370  0.2904 -0.9641
  379TIP3    H222773   6.618   3.599   2.762  0.2896  0.0016 -0.0194
  380TIP3   OH222774   5.329   5.598   0.117  0.0246 -0.3302  0.0994
  380TIP3    H122775   5.306   5.657   0.189 -0.2265 -0.6478  0.2852
  380TIP3    H222776   5.253   5.600   0.059  1.3321  2.1629 -1.6930
  381TIP3   OH222777   0.493   4.929   2.283  0.0890  0.1372  0.2175
  381TIP3    H122778   0.508   4.965   2.370 -0.4448  0.3287  0.2355
  381TIP3    H222779   0.476   5.006   2.228 -1.4985 -0.0801  0.3453
  382TIP3   OH222780   5.851   3.278   8.402  0.2291 -0.3099  0.2058
  382TIP3    H122781   5.879   3.210   8.341 -0.1108 -1.2912  1.1233
  382TIP3    H222782   5.880   3.247   8.488 -0.6274  0.3147  0.7399
  383TIP3   OH222783   2.170   2.944   7.912  0.4752 -0.4068  0.1169
  383TIP3    H122784   2.225   2.877   7.872  1.1608 -0.2640  0.7951
  383TIP3    H222785   2.085   2.901   7.925 -0.0068 -0.2331 -2.1231
  384TIP3   OH222786   1.641   5.865   1.786 -0.6349 -0.4318  0.7381
  384TIP3    H122787   1.649   5.773   1.761  1.5754 -0.2124  0.4641
  384TIP3    H222788   1.651   5.864   1.881 -5.1632 -0.8442  1.4634
  385TIP3   OH222789   2.013   4.136   1.038  0.0910  0.4262 -0.4207
  385TIP3    H122790   1.962   4.062   1.070  1.2716  0.0861  0.7485
  385TIP3    H222791   2.011   4.200   1.109  0.3680  0.8609 -0.7987
  386TIP3   OH222792   0.304   4.009   1.394  0.0880  0.1675 -0.5815
  386TIP3    H122793   0.245   4.052   1.456  1.2906  0.6684  0.2577
  386TIP3    H222794   0.255   3.933   1.363 -0.1180 -0.8170  1.9319
  387TIP3   OH222795   4.298   0.382   0.551 -0.4203  0.8738 -0.3440
  387TIP3    H122796   4.302   0.289   0.529 -0.3601  0.6633  0.5220
  387TIP3    H222797   4.378   0.418   0.514  1.3478 -0.0993  2.2626
  388TIP3   OH222798   1.945   5.873   0.413 -1.2000  0.1590  0.0002
  388TIP3    H122799   2.012   5.820   0.370 -0.0543  1.9980 -0.6264
  388TIP3    H222800   1.941   5.839   0.502 -0.2801 -0.7679 -0.2945
  389TIP3   OH222801   0.634   6.008   3.258 -0.2056  0.1491  0.5026
  389TIP3    H122802   0.661   5.923   3.294  0.9215  1.0735  1.9243
  389TIP3    H222803   0.642   6.069   3.331  1.6963  2.0356 -1.1497
  390TIP3   OH222804   3.263   4.726   8.497 -0.2501  0.2364  0.2975
  390TIP3    H122805   3.313   4.715   8.416  0.0124  2.0497  0.1875
  390TIP3    H222806   3.280   4.816   8.524 -2.6180  0.5810  0.8455
  391TIP3   OH222807   0.788   1.422   0.544  0.0302  0.2138 -0.0144
  391TIP3    H122808   0.781   1.516   0.560 -1.9503  0.4951 -2.0423
  391TIP3    H222809   0.726   1.405   0.474  1.0345 -2.4787 -0.3668
  392TIP3   OH222810   6.222   1.736   0.157 -0.1731 -0.5538  0.0684
  392TIP3    H122811   6.217   1.647   0.191 -1.1275 -1.4663 -2.2312
  392TIP3    H222812   6.255   1.788   0.230 -1.3259 -2.4523  2.0734
  393TIP3   OH222813   3.947   6.151   8.370 -0.3725 -0.5478  0.0950
  393TIP3    H122814   3.869   6.144   8.314  0.7866 -1.4679 -1.5015
  393TIP3    H222815   3.991   6.230   8.340 -0.1468 -0.6143  0.2480
  394TIP3   OH222816   1.591   6.470   2.813 -0.1822 -0.2333 -0.4608
  394TIP3    H122817   1.586   6.548   2.869 -1.1873 -0.3112 -0.4241
  394TIP3    H222818   1.684   6.459   2.796 -0.0364  1.0864 -0.6134
  395TIP3   OH222819   2.925   5.519   0.573  0.0812  0.1084 -0.3132
  395TIP3    H122820   2.917   5.454   0.503 -2.2404 -1.2970  1.1113
  395TIP3    H222821   2.926   5.468   0.653  1.3498  1.7389  0.7778
  396TIP3   OH222822   2.945   1.616   0.650 -0.3275  0.5256 -0.4071
  396TIP3    H122823   3.029   1.661   0.645  0.9201 -1.3633  1.8349
  396TIP3    H222824   2.951   1.547   0.584  0.4314 -0.3669  0.5617
  397TIP3   OH222825   6.500   3.182   1.283  0.4103 -0.0603  0.1679
  397TIP3    H122826   6.532   3.244   1.217 -0.1072 -0.8659 -0.8801
  397TIP3    H222827   6.478   3.236   1.359  2.8926  0.6705  0.4282
  398TIP3   OH222828   5.473   2.486   2.932 -0.0389  0.7161  0.0129
  398TIP3    H122829   5.509   2.545   2.866  3.3910 -0.6546  0.4708
  398TIP3    H222830   5.477   2.399   2.891 -2.8323  0.4033  0.1937
  399TIP3   OH222831   0.832   6.364   8.696  0.2498 -0.6968 -0.0036
  399TIP3    H122832   0.853   6.357   8.789 -0.3604 -0.1739  0.1844
  399TIP3    H222833   0.904   6.415   8.659  1.3310 -2.2635 -0.1440
  400TIP3   OH222834   1.568   6.559   2.504 -0.4543 -0.1267 -0.8244
  400TIP3    H122835   1.570   6.649   2.470  1.3306 -0.1828 -0.9783
  400TIP3    H222836   1.604   6.567   2.593  0.7283 -0.8048 -1.2183
  401TIP3   OH222837   3.860   0.772   1.264 -0.2610  0.3049 -0.6162
  401TIP3    H122838   3.822   0.757   1.351  2.3380 -0.1553  0.5298
  401TIP3    H222839   3.870   0.685   1.227 -1.3151  0.4973 -1.4231
  402TIP3   OH222840   1.091   2.783   8.344 -0.3670  0.0324  0.1481
  402TIP3    H122841   1.159   2.743   8.289 -0.2576 -0.4995  0.6589
  402TIP3    H222842   1.008   2.754   8.306 -0.3437  1.2370 -0.8921
  403TIP3   OH222843   6.797   2.844   3.636  1.1882  0.1217  0.2150
  403TIP3    H122844   6.796   2.899   3.557  1.0985 -0.4020 -0.1554
  403TIP3    H222845   6.873   2.876   3.685  1.5523  0.1182 -0.3261
  404TIP3   OH222846   6.681   6.246   2.922  0.3067 -0.6366 -0.0233
  404TIP3    H122847   6.650   6.325   2.965 -0.2242 -0.2226 -1.1211
  404TIP3    H222848   6.652   6.175   2.979  1.2762 -0.0359  1.2611
  405TIP3   OH222849   3.448   0.786   1.519  0.3233 -0.0432  0.1595
  405TIP3    H122850   3.432   0.735   1.440  0.9382 -1.2180  0.7809
  405TIP3    H222851   3.445   0.723   1.590 -0.7767  1.0786  1.1658
  406TIP3   OH222852   1.904   4.956   8.461 -0.8325 -0.3043 -0.4694
  406TIP3    H122853   1.838   5.025   8.454 -0.5592  0.0724  0.4709
  406TIP3    H222854   1.863   4.879   8.422 -1.6160  0.0723 -0.4129
  407TIP3   OH222855   4.030   5.805   8.726 -0.0615  0.2085  0.2742
  407TIP3    H122856   4.031   5.858   8.646  2.4273 -1.7090 -1.1320
  407TIP3    H222857   4.093   5.848   8.784  1.7314 -0.8637 -0.7503
  408TIP3   OH222858   4.183   6.342   1.326  0.6595  0.0916 -0.2753
  408TIP3    H122859   4.116   6.293   1.373  0.1114  1.6173  0.6288
  408TIP3    H222860   4.156   6.337   1.234 -0.0525 -0.2774 -0.0548
  409TIP3   OH222861   1.542   2.760   0.749 -0.4249 -0.3882 -0.1382
  409TIP3    H122862   1.637   2.756   0.764 -0.1188 -0.3876 -1.8747
  409TIP3    H222863   1.519   2.671   0.721 -0.6556 -0.0206 -1.1443
  410TIP3   OH222864   5.814   5.302   0.229 -0.4042  0.0161 -0.3614
  410TIP3    H122865   5.887   5.258   0.186 -0.3084 -1.0301  0.8105
  410TIP3    H222866   5.853   5.382   0.266 -0.6602  1.3670 -2.8145
  411TIP3   OH222867   0.762   4.083   2.436  0.7629 -0.5653  0.5325
  411TIP3    H122868   0.683   4.046   2.474  0.3020 -0.4691 -0.3026
  411TIP3    H222869   0.780   4.160   2.489  0.0695 -0.3680  0.4919
  412TIP3   OH222870   1.264   1.650   1.415 -0.0541  0.0464 -0.1168
  412TIP3    H122871   1.308   1.623   1.335  1.8066  0.3960  0.7291
  412TIP3    H222872   1.334   1.687   1.469 -1.5798  1.6102  0.8957
  413TIP3   OH222873   2.520   1.994   1.761 -0.3870  1.0111 -0.6494
  413TIP3    H122874   2.491   1.953   1.680  1.5550 -0.6980 -0.5427
  413TIP3    H222875   2.608   1.961   1.776 -1.1384  0.1183  2.8629
  414TIP3   OH222876   4.525   0.611   2.968 -0.2779  0.0975 -0.4763
  414TIP3    H122877   4.482   0.661   2.899 -0.9959 -0.2384 -0.2807
  414TIP3    H222878   4.485   0.524   2.963  0.2582 -0.1710 -0.1755
  415TIP3   OH222879   5.823   2.327   2.901  0.1003 -0.1189  0.3567
  415TIP3    H122880   5.865   2.250   2.862 -0.1543 -1.5335  2.6746
  415TIP3    H222881   5.732   2.321   2.871  0.3161 -0.1231 -0.3125
  416TIP3   OH222882   6.775   6.335   1.847 -0.0283  0.2369  0.4258
  416TIP3    H122883   6.780   6.319   1.941  1.3126 -0.3275  0.2794
  416TIP3    H222884   6.772   6.431   1.839 -1.5278  0.2781  1.0635
  417TIP3   OH222885   6.557   2.323   8.262 -0.0411  0.3049  0.5397
  417TIP3    H122886   6.562   2.376   8.183 -1.1604 -0.9529 -0.4201
  417TIP3    H222887   6.589   2.237   8.234  0.0859 -0.0030  1.6030
  418TIP3   OH222888   6.589   6.128   0.540  0.4787  0.1830  0.6465
  418TIP3    H122889   6.630   6.054   0.494  1.5660  1.5258 -0.6783
  418TIP3    H222890   6.580   6.099   0.630  0.0985 -1.8573  0.0062
  419TIP3   OH222891   1.363   2.783   0.450 -0.2217 -0.5722  0.3735
  419TIP3    H122892   1.432   2.845   0.426 -0.3699 -0.9508 -1.0766
  419TIP3    H222893   1.378   2.707   0.394 -0.3223 -1.6875  1.8048
  420TIP3   OH222894   0.165   1.679   0.980  0.3881 -0.3493 -0.7289
  420TIP3    H122895   0.184   1.772   0.994 -0.5348 -0.1548 -0.7310
  420TIP3    H222896   0.250   1.641   0.957  1.3752 -0.0880  2.1314
  421TIP3   OH222897   4.607   0.954   3.597  0.8844  0.1591 -0.7634
  421TIP3    H122898   4.672   0.897   3.638  0.0274 -1.2366 -1.2707
  421TIP3    H222899   4.583   0.909   3.516 -2.6435 -0.7779  0.6396
  422TIP3   OH222900   2.308   0.511   1.364 -0.5241  0.4622  0.3386
  422TIP3    H122901   2.325   0.533   1.272  1.1105  0.6497  0.6595
  422TIP3    H222902   2.230   0.455   1.361 -0.0711 -0.1379 -1.2485
  423TIP3   OH222903   6.561   6.452   8.656 -0.3711  0.1883 -0.3591
  423TIP3    H122904   6.595   6.407   8.578  0.6511  0.3676 -0.0312
  423TIP3    H222905   6.569   6.545   8.635  1.3958  0.2797  0.5384
  424TIP3   OH222906   6.842   5.437   3.436 -0.2162  0.0737  0.2124
  424TIP3    H122907   6.816   5.510   3.380  0.2020  0.8756  1.0277
  424TIP3    H222908   6.808   5.459   3.522  0.1031 -0.5889  0.5207
  425TIP3   OH222909   1.887   3.661   0.003  0.1433  0.0244 -0.1344
  425TIP3    H122910   1.939   3.596  -0.043  0.4293 -0.0859  0.3328
  425TIP3    H222911   1.876   3.733  -0.059 -0.5586 -0.6624 -0.8114
  426TIP3   OH222912   4.391   4.123   3.174 -0.1071  0.5149 -0.4132
  426TIP3    H122913   4.421   4.125   3.083 -1.0255  0.1685 -0.7316
  426TIP3    H222914   4.457   4.071   3.220  0.2943  0.5824 -0.9046
  427TIP3   OH222915   4.337   1.696   8.792  0.4625 -0.1958  0.4624
  427TIP3    H122916   4.363   1.705   8.701  0.8806 -0.2495  0.5757
  427TIP3    H222917   4.243   1.714   8.792  0.5538  0.2936  0.1012
  428TIP3   OH222918   3.348   0.032   0.798 -0.4525  0.3947 -0.0494
  428TIP3    H122919   3.362  -0.010   0.883 -0.7064  0.8163  0.2065
  428TIP3    H222920   3.382   0.121   0.810 -0.4658  0.4445 -0.3951
  429TIP3   OH222921   3.230   3.170   3.247  0.1145 -0.3389 -0.0468
  429TIP3    H122922   3.300   3.151   3.309  0.0962  0.2704  0.1655
  429TIP3    H222923   3.217   3.265   3.254  0.7946 -0.0937 -1.6937
  430TIP3   OH222924   3.710   5.479   3.100 -0.0073 -0.1372 -0.3687
  430TIP3    H122925   3.692   5.489   3.006  2.0503  1.4059 -0.6698
  430TIP3    H222926   3.805   5.482   3.106 -0.0616  4.4216  2.1242
  431TIP3   OH222927   1.275   1.345   0.246 -0.0445  0.2270 -0.1954
  431TIP3    H122928   1.288   1.264   0.196 -1.1151 -0.3946  0.4951
  431TIP3    H222929   1.218   1.398   0.191  1.0844  0.7687 -0.8901
  432TIP3   OH222930   2.199   2.190   1.185  0.3265 -0.3292 -0.3236
  432TIP3    H122931   2.208   2.187   1.281  0.0803  0.6536 -0.2617
  432TIP3    H222932   2.284   2.219   1.154  0.5572 -1.1019 -0.4512
  433TIP3   OH222933   6.050   4.510   8.626 -0.2298 -0.4755  0.3983
  433TIP3    H122934   6.116   4.579   8.618 -0.0035 -0.7122  0.1969
  433TIP3    H222935   5.977   4.552   8.672 -1.6562  1.0695 -2.8948
  434TIP3   OH222936   2.439   6.203   2.999  0.1970  0.4345  0.7506
  434TIP3    H122937   2.534   6.200   3.004  0.2803 -2.2985 -0.6504
  434TIP3    H222938   2.409   6.186   3.088  1.0005  0.8356  1.1034
  435TIP3   OH222939   4.290   6.772   2.820  0.0409  0.4295  0.0764
  435TIP3    H122940   4.318   6.695   2.869 -0.2768  0.5341  0.4204
  435TIP3    H222941   4.366   6.831   2.823  0.3896  0.0154 -0.4366
  436TIP3   OH222942   4.458   5.052   3.284 -0.0637 -0.1398  0.4086
  436TIP3    H122943   4.367   5.029   3.299 -0.6265  2.0901  0.7469
  436TIP3    H222944   4.489   5.086   3.369  0.5646  0.6305 -0.1083
  437TIP3   OH222945   5.786   4.880   2.642 -0.3755 -0.3488  0.1948
  437TIP3    H122946   5.793   4.787   2.620 -2.9584 -0.8580  1.2537
  437TIP3    H222947   5.693   4.901   2.631 -0.0608  1.8120  1.1175
  438TIP3   OH222948   5.188   5.679   1.102  0.0078 -0.2888 -0.0538
  438TIP3    H122949   5.231   5.746   1.048 -0.4566  0.1951  0.1632
  438TIP3    H222950   5.246   5.603   1.098  0.7821  0.2827  0.0585
  439TIP3   OH222951   2.471   4.783   8.448  0.4432  0.4721 -0.3824
  439TIP3    H122952   2.562   4.760   8.463 -0.0739 -1.0493  0.6665
  439TIP3    H222953   2.447   4.837   8.523 -0.2496 -1.4225  0.8045
  440TIP3   OH222954   3.556   1.765   0.632 -0.7189  0.2003 -0.1224
  440TIP3    H122955   3.484   1.771   0.569 -0.5121 -0.4988 -0.4389
  440TIP3    H222956   3.627   1.815   0.592 -1.0791  1.0404  0.2723
  441TIP3   OH222957   3.262   5.023   3.127 -0.4930  0.2647  0.0827
  441TIP3    H122958   3.202   5.034   3.201  0.2060 -1.8958  1.0761
  441TIP3    H222959   3.297   5.110   3.111 -3.2784  1.4695 -0.0461
  442TIP3   OH222960   0.501   2.107   1.369 -0.3877  0.7789  0.0001
  442TIP3    H122961   0.452   2.155   1.302  2.5110  4.3321  0.0974
  442TIP3    H222962   0.557   2.173   1.410  2.0288 -2.2779  2.1405
  443TIP3   OH222963   1.069   3.502   0.912  0.0030  0.0284  0.1109
  443TIP3    H122964   1.085   3.556   0.834  0.3785 -0.0114  0.1574
  443TIP3    H222965   1.016   3.558   0.969  2.1289  1.1911  1.0680
  444TIP3   OH222966   2.498   1.001   7.752  0.0593 -0.5425  0.3279
  444TIP3    H122967   2.592   0.994   7.767 -0.0248  0.2409  1.3658
  444TIP3    H222968   2.490   1.043   7.667  0.6948  1.4176  1.1922
  445TIP3   OH222969   3.652   0.327   2.750  0.0483 -0.5021 -0.0944
  445TIP3    H122970   3.635   0.368   2.665 -1.2459  0.5346  0.6549
  445TIP3    H222971   3.566   0.303   2.783  0.6283 -2.0564  0.3952
  446TIP3   OH222972   1.756   5.489   0.594 -0.1852  0.1191  0.3084
  446TIP3    H122973   1.671   5.447   0.582  0.3062 -0.8145 -0.0179
  446TIP3    H222974   1.819   5.417   0.595  0.8168  0.8908 -1.4355
  447TIP3   OH222975   0.020   6.001   1.950 -0.2811  0.1991 -0.2807
  447TIP3    H122976  -0.022   5.919   1.976 -1.3154  0.8389  0.1604
  447TIP3    H222977   0.080   6.021   2.021  1.8156 -1.3840 -1.5131
  448TIP3   OH222978   4.792   6.095   0.122  0.5082 -0.4463 -0.0229
  448TIP3    H122979   4.819   6.145   0.044  1.0748 -0.7845 -0.0514
  448TIP3    H222980   4.705   6.062   0.100  0.7014 -0.6150 -0.5553
  449TIP3   OH222981   6.739   2.655   0.460 -0.2251 -0.6215  0.2037
  449TIP3    H122982   6.777   2.736   0.426 -1.1796 -0.9850 -1.8480
  449TIP3    H222983   6.662   2.683   0.510  0.0680 -0.2123  0.4312
  450TIP3   OH222984   1.423   0.756   8.444  0.4344  0.0005 -0.2178
  450TIP3    H122985   1.428   0.661   8.438  3.0616  0.0842 -0.4479
  450TIP3    H222986   1.506   0.782   8.485 -0.5460  2.1595  0.5780
  451TIP3   OH222987   5.112   6.672   0.167  0.0814 -0.2415  0.4725
  451TIP3    H122988   5.207   6.673   0.180  0.1128  1.5033  0.2943
  451TIP3    H222989   5.099   6.714   0.081 -0.8916  0.4785  0.9526
  452TIP3   OH222990   2.744   3.537   8.487  0.0405 -0.6074  0.3309
  452TIP3    H122991   2.670   3.480   8.509 -0.2304  0.1923  1.6213
  452TIP3    H222992   2.747   3.537   8.392 -1.8635 -0.3602  0.2385
  453TIP3   OH222993   6.276   4.290   3.461  0.6117  0.2163  0.1160
  453TIP3    H122994   6.208   4.300   3.394 -0.7492 -3.2189  0.8155
  453TIP3    H222995   6.343   4.354   3.436 -0.6155  0.3132 -3.4844
  454TIP3   OH222996   3.695   4.160   2.916 -0.0327  0.8536  0.2279
  454TIP3    H122997   3.771   4.104   2.899 -1.1142 -0.3557 -0.8408
  454TIP3    H222998   3.626   4.099   2.941 -1.0074  1.8076 -0.0796
  455TIP3   OH222999   2.730   0.053   3.378  0.5717  0.6938 -0.2994
  455TIP3    H123000   2.664  -0.015   3.372 -1.8053  2.7731  0.5655
  455TIP3    H223001   2.748   0.061   3.472  0.8225  1.2293 -0.3870
  456TIP3   OH223002   5.944   2.934   0.195  0.1011  0.2847  0.1493
  456TIP3    H123003   5.907   2.854   0.158  0.5665 -0.0691  0.4357
  456TIP3    H223004   5.877   2.965   0.256  0.3226 -0.4316  0.7737
  457TIP3   OH223005   1.605   2.553   2.170 -0.2416  0.3161 -0.0859
  457TIP3    H123006   1.539   2.594   2.113  0.1829 -0.5993 -1.2805
  457TIP3    H223007   1.688   2.567   2.124  0.0180 -1.0784 -0.0652
  458TIP3   OH223008   2.878   1.039   0.948  0.1748  0.2484 -0.1342
  458TIP3    H123009   2.796   0.999   0.920  1.0052  1.1721 -4.6472
  458TIP3    H223010   2.938   0.965   0.960 -0.8960 -0.3476  2.1760
  459TIP3   OH223011   4.228   3.337   1.713 -0.1263  0.1983 -0.6096
  459TIP3    H123012   4.218   3.401   1.642  0.7188  1.2713  0.2027
  459TIP3    H223013   4.279   3.383   1.779  0.6349 -1.3866 -0.0573
  460TIP3   OH223014   6.229   5.626   0.720 -0.0858 -0.6698 -0.0789
  460TIP3    H123015   6.205   5.689   0.653 -1.4813 -2.0622 -0.9701
  460TIP3    H223016   6.279   5.559   0.673 -0.5437 -1.3459  0.3753
  461TIP3   OH223017   2.323   3.559   3.197  0.1930  0.9600 -0.7184
  461TIP3    H123018   2.400   3.538   3.144 -0.8725  0.5175 -2.1546
  461TIP3    H223019   2.283   3.634   3.154 -0.1816  1.1878  0.0065
  462TIP3   OH223020   2.741   5.911   1.286 -0.3126 -0.2667  0.5921
  462TIP3    H123021   2.663   5.864   1.254  0.7242 -2.0020  0.4597
  462TIP3    H223022   2.810   5.845   1.285  0.6494  0.6113  2.8752
  463TIP3   OH223023   5.017   4.940   0.030  0.7754 -0.2586  0.5357
  463TIP3    H123024   5.021   4.952  -0.065 -0.8283 -0.1272  0.4555
  463TIP3    H223025   5.109   4.942   0.058  1.2535  0.1985 -0.9391
  464TIP3   OH223026   3.185   1.831   1.740  0.7240  0.0764  0.5866
  464TIP3    H123027   3.209   1.897   1.805 -2.3653  0.2531  1.7067
  464TIP3    H223028   3.212   1.868   1.657 -1.1927  2.9987  1.1353
  465TIP3   OH223029   4.341   0.797   3.205 -0.0930 -0.2823  0.2060
  465TIP3    H123030   4.264   0.818   3.257 -0.0399 -1.1154  0.6449
  465TIP3    H223031   4.406   0.769   3.270  0.0289 -1.1807 -0.2908
  466TIP3   OH223032   5.209   0.720   3.810  0.3747 -0.2031 -0.0912
  466TIP3    H123033   5.196   0.796   3.752  0.1593  0.2363  0.5222
  466TIP3    H223034   5.269   0.663   3.762 -0.0759 -0.0054 -0.8968
  467TIP3   OH223035   3.422   1.102   2.349 -0.5641 -0.0566  0.5964
  467TIP3    H123036   3.394   1.055   2.427 -1.0970 -0.7723 -0.0118
  467TIP3    H223037   3.347   1.156   2.325 -1.1477 -1.2773 -0.4960
  468TIP3   OH223038   5.846   1.144   3.285  0.0435 -0.1246  0.0700
  468TIP3    H123039   5.839   1.058   3.243 -2.3108  0.4782 -0.9615
  468TIP3    H223040   5.854   1.205   3.212 -0.8235  0.7094  0.6613
  469TIP3   OH223041   3.986   1.865   2.854 -0.1637 -0.3208  0.6360
  469TIP3    H123042   4.024   1.935   2.800 -0.1644  0.2873  1.3965
  469TIP3    H223043   4.049   1.794   2.849  1.1009  0.6622  1.8481
  470TIP3   OH223044   2.580   0.571   1.643  0.2615  0.1429  0.5510
  470TIP3    H123045   2.662   0.566   1.691  0.5912 -1.8572 -0.1020
  470TIP3    H223046   2.525   0.503   1.682 -0.6485  0.6595  0.2104
  471TIP3   OH223047   0.488   2.192   2.889  0.2137  0.3895  0.2278
  471TIP3    H123048   0.577   2.224   2.870 -0.1917  0.9795 -0.7532
  471TIP3    H223049   0.490   2.100   2.864  0.3858  0.5488 -0.3466
  472TIP3   OH223050   0.734   3.763   3.160  0.2186  0.2968 -0.2296
  472TIP3    H123051   0.807   3.808   3.119  0.7792 -0.8296 -0.5149
  472TIP3    H223052   0.769   3.677   3.183 -0.5526  0.3142  1.1185
  473TIP3   OH223053   1.567   4.137   2.452 -0.1942  0.6352  0.3663
  473TIP3    H123054   1.549   4.053   2.409 -1.4860  0.7400  0.6565
  473TIP3    H223055   1.495   4.148   2.514 -0.8191  2.6168 -0.6368
  474TIP3   OH223056   1.947   3.364   2.031 -0.0972 -0.4211  0.2367
  474TIP3    H123057   1.950   3.345   1.937 -1.4048  0.9511 -0.1247
  474TIP3    H223058   1.858   3.338   2.057 -0.4103  1.0103  0.6509
  475TIP3   OH223059   3.321   3.528   2.416 -0.0540  0.9727 -0.2002
  475TIP3    H123060   3.248   3.541   2.355  0.0002  2.6555  0.0488
  475TIP3    H223061   3.384   3.475   2.366 -1.1691 -0.0269 -0.6123
  476TIP3   OH223062   5.289   0.209   3.656  0.3711  0.2401 -0.5243
  476TIP3    H123063   5.256   0.294   3.628 -0.2262  0.4246  0.6711
  476TIP3    H223064   5.326   0.225   3.743  1.8126 -0.3836 -0.9842
  477TIP3   OH223065   4.468   2.830   0.866  0.2141 -0.0775 -0.0132
  477TIP3    H123066   4.452   2.866   0.952 -1.5327 -3.2550  1.1636
  477TIP3    H223067   4.398   2.865   0.811  0.4074  0.7173  0.2366
  478TIP3   OH223068   1.421   3.045   2.892  0.0507 -0.4001 -0.6729
  478TIP3    H123069   1.504   3.032   2.938  0.6534  1.3934 -1.1624
  478TIP3    H223070   1.357   2.994   2.941  1.5823 -2.5895 -0.8016
  479TIP3   OH223071   0.623   6.065   0.822  0.0879  0.4406  0.0130
  479TIP3    H123072   0.533   6.081   0.849  0.4048 -0.6494  1.8949
  479TIP3    H223073   0.636   5.970   0.834  1.5088  0.5937 -0.0484
  480TIP3   OH223074   4.158   6.642   1.054 -0.6868  0.1599  0.7020
  480TIP3    H123075   4.096   6.711   1.030 -0.7485  0.5004  1.8193
  480TIP3    H223076   4.227   6.686   1.103 -1.4633 -0.7360  2.7250
  481TIP3   OH223077   6.437   0.056   0.380 -0.2084  0.1103 -0.2503
  481TIP3    H123078   6.411   0.094   0.463 -1.8974  0.0131 -0.6940
  481TIP3    H223079   6.532   0.065   0.378 -0.1042 -0.0390  1.7500
  482TIP3   OH223080   5.837   5.163   0.935  0.4508  0.3574  0.2787
  482TIP3    H123081   5.900   5.096   0.912  0.5794 -0.2636  2.2983
  482TIP3    H223082   5.884   5.246   0.924  1.0626 -0.0088  0.1504
  483TIP3   OH223083   6.299   2.486   1.249  0.1594 -0.4930  0.1983
  483TIP3    H123084   6.282   2.512   1.158  0.4190 -1.7690 -0.2365
  483TIP3    H223085   6.394   2.489   1.258  0.0648  2.5815  1.3843
  484TIP3   OH223086   3.400   3.754   7.895 -0.9077 -0.0590  0.0472
  484TIP3    H123087   3.327   3.729   7.838 -0.9640  0.0738  0.0610
  484TIP3    H223088   3.395   3.850   7.901 -1.0874 -0.0969  0.5251
  485TIP3   OH223089   2.466   6.422   0.990 -0.4231  0.4555 -0.3044
  485TIP3    H123090   2.559   6.417   1.011 -0.8956 -1.9381  1.6897
  485TIP3    H223091   2.454   6.510   0.955  2.5375  0.8941 -0.4577
  486TIP3   OH223092   3.171   4.071   0.391  0.5737  0.4295 -0.2678
  486TIP3    H123093   3.240   4.042   0.451  1.2534  1.0589 -0.7236
  486TIP3    H223094   3.213   4.071   0.305 -0.3649 -0.3538 -0.7372
  487TIP3   OH223095   5.869   1.334   3.091 -0.1400 -0.2953  0.2601
  487TIP3    H123096   5.920   1.389   3.032 -1.2412  0.8136  0.2903
  487TIP3    H223097   5.829   1.396   3.152 -1.1947 -1.1575  0.4700
  488TIP3   OH223098   3.169   0.578   2.959 -0.1993 -0.4293 -0.0795
  488TIP3    H123099   3.134   0.497   2.997  0.3172 -0.7721 -0.3285
  488TIP3    H223100   3.263   0.562   2.952  0.1147  0.7273  1.1694
  489TIP3   OH223101   1.003   6.301   0.536 -0.5677 -0.1214  0.4283
  489TIP3    H123102   0.969   6.387   0.510  0.1222  0.0481  0.0674
  489TIP3    H223103   0.936   6.265   0.594 -0.4532  1.0459  1.3151
  490TIP3   OH223104   3.212   5.876   8.672  0.5785  0.2580  0.1742
  490TIP3    H123105   3.214   5.858   8.578 -0.8630  0.6504  0.0484
  490TIP3    H223106   3.156   5.808   8.709 -0.3252  1.1297  0.4732
  491TIP3   OH223107   1.361   4.427   0.027 -0.8295 -0.6065 -0.8313
  491TIP3    H123108   1.375   4.395   0.116  0.1216 -0.2407 -0.8332
  491TIP3    H223109   1.395   4.516   0.029 -0.9492 -0.5434 -1.5230
  492TIP3   OH223110   0.881   0.997   0.094  0.3312  0.5893  0.3110
  492TIP3    H123111   0.899   1.033   0.181  0.3959  0.3176  0.4107
  492TIP3    H223112   0.926   0.913   0.093  0.4724  0.6647 -0.0453
  493TIP3   OH223113   0.221   1.571   1.413  0.6188  0.0432 -0.6067
  493TIP3    H123114   0.258   1.598   1.329  0.4655  3.6053  0.2777
  493TIP3    H223115   0.297   1.551   1.468  0.7720 -1.0337 -1.1887
  494TIP3   OH223116   3.820   4.596   8.686  0.3513 -0.4638 -0.2362
  494TIP3    H123117   3.818   4.689   8.707 -0.2198 -0.6505  0.5820
  494TIP3    H223118   3.871   4.591   8.605 -0.5851  0.6829 -0.9258
  495TIP3   OH223119   4.080   0.958   3.055 -0.4527 -0.7856 -0.0857
  495TIP3    H123120   4.175   0.963   3.067 -0.7987  0.5667  3.3634
  495TIP3    H223121   4.063   0.865   3.039  1.3030 -1.4895  1.6902
  496TIP3   OH223122   1.067   0.009   2.480  0.4034 -0.4195  0.9523
  496TIP3    H123123   0.981  -0.019   2.512  0.0307  1.3713  1.5849
  496TIP3    H223124   1.119   0.021   2.560  0.8860 -0.3325  0.6267
  497TIP3   OH223125   6.323   0.155   3.383 -0.0391  0.7030  0.6208
  497TIP3    H123126   6.355   0.164   3.473 -0.8487 -1.0086  1.1188
  497TIP3    H223127   6.242   0.105   3.391 -0.1100  0.4937 -1.0636
  498TIP3   OH223128   4.740   0.256   1.472 -0.1546 -0.5343 -0.0732
  498TIP3    H123129   4.708   0.185   1.528  0.2352 -0.0820  0.7343
  498TIP3    H223130   4.834   0.241   1.465  0.1777  0.7178  1.3159
  499TIP3   OH223131   1.979   3.721   2.885  0.3249 -0.1072  0.1819
  499TIP3    H123132   1.981   3.738   2.791  1.5425 -0.2818  0.1671
  499TIP3    H223133   1.940   3.634   2.893 -0.4168  0.1912 -0.1077
  500TIP3   OH223134   1.180   6.549   3.481 -0.1363 -0.2542 -0.4842
  500TIP3    H123135   1.101   6.568   3.532  0.0839 -1.8531  0.5211
  500TIP3    H223136   1.222   6.477   3.529  1.7658  0.3496 -1.1720
  501TIP3   OH223137   0.128   6.346   2.338 -0.0348  0.5929 -0.5716
  501TIP3    H123138   0.220   6.327   2.352 -0.1095 -0.4232 -1.2960
  501TIP3    H223139   0.109   6.419   2.396  1.0793  0.4374  0.0199
  502TIP3   OH223140   1.514   0.716   1.757 -0.1845 -0.2455  0.3282
  502TIP3    H123141   1.470   0.634   1.781  0.1176  0.3239  3.2124
  502TIP3    H223142   1.606   0.692   1.751 -0.4111 -0.7691 -2.4892
  503TIP3   OH223143   5.152   0.485   0.546  0.1224  0.2868  0.0826
  503TIP3    H123144   5.189   0.422   0.485  1.6833  1.7391 -0.5596
  503TIP3    H223145   5.110   0.432   0.613  1.1528 -1.4072 -0.5446
  504TIP3   OH223146   3.135   5.217   2.091 -0.6685 -0.1193  0.1530
  504TIP3    H123147   3.086   5.289   2.130  1.2279  1.1581  0.3320
  504TIP3    H223148   3.175   5.256   2.013  0.0017 -1.1084 -0.0125
  505TIP3   OH223149   2.364   5.937   0.109 -0.2847  0.2646 -0.4653
  505TIP3    H123150   2.327   5.885   0.038 -1.3933 -1.7670  1.4825
  505TIP3    H223151   2.302   6.008   0.122 -0.0947  0.6243 -1.4801
  506TIP3   OH223152   2.396   4.629   0.964  0.2730  0.3673 -0.4258
  506TIP3    H123153   2.443   4.668   1.038  0.7477  0.0620 -0.5697
  506TIP3    H223154   2.323   4.583   1.005  0.6739 -0.0083 -0.1265
  507TIP3   OH223155   4.909   0.781   1.698  0.3122  0.3643  0.7448
  507TIP3    H123156   4.828   0.781   1.647  0.4079 -0.0214  0.5921
  507TIP3    H223157   4.888   0.728   1.775  0.5891 -0.2053  0.4324
  508TIP3   OH223158   6.344   6.371   0.182  0.3984 -0.1220 -0.0891
  508TIP3    H123159   6.346   6.353   0.276 -0.7028  0.3220  0.0375
  508TIP3    H223160   6.431   6.403   0.162  0.2407  1.1111  1.0715
  509TIP3   OH223161   1.406   0.684   0.338 -0.1229  0.1528  0.6579
  509TIP3    H123162   1.479   0.653   0.392 -1.4499 -1.5258  1.6062
  509TIP3    H223163   1.350   0.733   0.398 -0.2559  0.6143  0.1670
  510TIP3   OH223164   0.750   1.394   1.107  0.2124 -0.4939 -0.4519
  510TIP3    H123165   0.797   1.442   1.039 -2.4782  1.6840 -0.9605
  510TIP3    H223166   0.690   1.336   1.059 -1.8442  1.2001 -0.1090
  511TIP3   OH223167   1.835   2.572   1.557  0.0865 -0.3163 -1.1151
  511TIP3    H123168   1.918   2.563   1.509 -0.3369 -1.7890 -1.6113
  511TIP3    H223169   1.770   2.591   1.490 -0.2743 -0.9828 -0.9611
  512TIP3   OH223170   4.493   3.451   1.912 -0.0436 -0.1188  0.2522
  512TIP3    H123171   4.520   3.369   1.953 -1.0839 -1.5148 -1.6884
  512TIP3    H223172   4.415   3.478   1.960 -0.3556 -0.8933  0.1901
  513TIP3   OH223173   5.079   6.763   8.701 -0.0322  0.1875  0.5042
  513TIP3    H123174   5.120   6.791   8.619  0.7749 -0.6008  0.6244
  513TIP3    H223175   4.994   6.808   8.702 -1.2326 -1.7341 -2.0026
  514TIP3   OH223176   5.129   2.999   0.165  0.0782 -0.3584 -0.1239
  514TIP3    H123177   5.220   3.008   0.190  0.4798 -0.6858 -1.3859
  514TIP3    H223178   5.107   3.083   0.124 -0.6074  0.2215  1.3346
  515TIP3   OH223179   6.395   1.077   8.763  0.4546  0.4929  0.3632
  515TIP3    H123180   6.403   1.043   8.852  0.5119 -0.3557  0.0414
  515TIP3    H223181   6.337   1.153   8.772  0.8342  0.7092  1.1876
  516TIP3   OH223182   1.075   2.222   1.787 -0.1728  0.7350  0.2878
  516TIP3    H123183   1.025   2.274   1.850 -1.4322  1.8972 -1.5617
  516TIP3    H223184   1.135   2.285   1.747 -1.2114  0.6882 -1.4693
  517TIP3   OH223185   5.957   0.062   0.416 -0.1394 -0.3278  0.1826
  517TIP3    H123186   5.982   0.122   0.345  0.5012 -0.0708  0.6209
  517TIP3    H223187   5.883   0.107   0.459  0.2094  0.0687  0.3844
  518TIP3   OH223188   0.628   5.523   0.098 -0.6124  0.1737  0.3373
  518TIP3    H123189   0.549   5.566   0.128 -1.3179 -1.5056  1.0174
  518TIP3    H223190   0.613   5.430   0.115  1.4919 -0.2022  0.4638
  519TIP3   OH223191   0.883   5.054   3.228 -0.5639  0.0492  0.3803
  519TIP3    H123192   0.900   5.145   3.254  0.0708  0.0145  0.0983
  519TIP3    H223193   0.827   5.062   3.151  0.7902  0.2569 -0.6176
  520TIP3   OH223194   1.363   4.845   2.494  0.0964 -0.0755  0.1547
  520TIP3    H123195   1.422   4.822   2.566 -0.4984  3.1834  1.8512
  520TIP3    H223196   1.278   4.860   2.536 -0.3075  1.7837 -1.1924
  521TIP3   OH223197   1.838   3.801   1.863  0.2253 -0.0429  0.5643
  521TIP3    H123198   1.842   3.746   1.941  2.2260 -2.6047 -1.1422
  521TIP3    H223199   1.921   3.850   1.864  0.7638 -0.8878 -0.4056
  522TIP3   OH223200   4.429   2.505   3.192 -0.7823  0.2186  0.2932
  522TIP3    H123201   4.477   2.546   3.264 -2.1178  0.1063  1.2960
  522TIP3    H223202   4.477   2.425   3.173 -0.3879  0.2657  1.0548
  523TIP3   OH223203   1.878   3.122   1.234  0.0581  0.5528 -0.0458
  523TIP3    H123204   1.822   3.051   1.204  1.0226  0.3994 -1.5541
  523TIP3    H223205   1.818   3.195   1.251 -0.9755 -0.6527  1.8197
  524TIP3   OH223206   4.370   2.165   0.417  0.0715  0.4938 -0.5314
  524TIP3    H123207   4.348   2.098   0.481  0.8855  0.3809 -0.3551
  524TIP3    H223208   4.362   2.120   0.332  2.7271 -0.5476 -0.3557
  525TIP3   OH223209   3.476   4.521   0.286  0.0174 -0.5466  0.1349
  525TIP3    H123210   3.386   4.552   0.293 -1.4407 -4.2405 -0.1074
  525TIP3    H223211   3.489   4.508   0.192  0.3473 -1.1587  0.2594
  526TIP3   OH223212   1.524   1.379   8.070 -0.2202 -0.4093  0.2985
  526TIP3    H123213   1.534   1.422   8.154 -0.1717 -1.0739  0.6370
  526TIP3    H223214   1.432   1.391   8.048 -0.2032 -0.1214  0.3804
  527TIP3   OH223215   0.343   1.207   1.472  0.0038 -0.8100 -0.1772
  527TIP3    H123216   0.333   1.149   1.547 -1.0194  1.0893  1.2361
  527TIP3    H223217   0.330   1.295   1.508 -1.5347  0.1191 -2.7542
  528TIP3   OH223218   2.423   3.265   7.513 -0.0285 -0.2296  0.1846
  528TIP3    H123219   2.334   3.232   7.503  0.4176 -1.6779  0.8286
  528TIP3    H223220   2.458   3.219   7.588  1.0782  0.7823  0.3252
  529TIP3   OH223221   4.859   1.978   2.430 -0.2322 -0.3862  0.1389
  529TIP3    H123222   4.781   1.992   2.485 -1.0040 -0.2692 -0.9534
  529TIP3    H223223   4.893   1.893   2.460  0.7188  0.6871  2.3498
  530TIP3   OH223224   1.581   5.792   3.037  0.1422 -0.1043  0.0778
  530TIP3    H123225   1.570   5.814   3.129  1.8139  2.1325 -0.1582
  530TIP3    H223226   1.649   5.852   3.006 -0.2809 -0.8573 -2.5968
  531TIP3   OH223227   1.350   2.566   8.730  0.1004  0.2708  0.7089
  531TIP3    H123228   1.388   2.630   8.669 -0.5157 -0.2544 -0.2419
  531TIP3    H223229   1.410   2.492   8.729  0.1701  0.3230  0.8719
  532TIP3   OH223230   0.793   2.921   1.849 -0.1878 -0.7175  0.2935
  532TIP3    H123231   0.887   2.929   1.866 -0.4230 -0.2052  1.4107
  532TIP3    H223232   0.752   2.977   1.914 -1.2602 -0.6144 -0.4512
  533TIP3   OH223233   5.036   4.143   0.970  0.2519  0.2108  0.3258
  533TIP3    H123234   5.034   4.048   0.954  0.1611 -0.0929  1.9301
  533TIP3    H223235   4.948   4.163   1.000  0.8376  0.3866  2.0172
  534TIP3   OH223236   6.067   0.763   3.191  0.2380 -0.4171 -0.1251
  534TIP3    H123237   6.053   0.672   3.214  1.7925 -0.9617 -1.1969
  534TIP3    H223238   6.115   0.801   3.265 -0.7088 -0.3430  0.4738
  535TIP3   OH223239   0.901   6.160   3.028 -0.1601 -0.0998 -0.6631
  535TIP3    H123240   0.901   6.196   2.939  1.7710  1.2039 -0.2069
  535TIP3    H223241   0.862   6.073   3.019  0.8242 -0.3823 -2.9727
  536TIP3   OH223242   5.062   1.021   7.949  0.3095  0.2684  0.0153
  536TIP3    H123243   5.056   1.109   7.911  0.5623 -0.2733 -1.3623
  536TIP3    H223244   5.148   0.989   7.922  0.0876 -0.5146  0.2182
  537TIP3   OH223245   4.957   4.332   2.858 -0.3469  0.0989  0.1455
  537TIP3    H123246   4.878   4.387   2.851  0.4052  1.0943 -0.9434
  537TIP3    H223247   5.024   4.380   2.808  0.9427 -0.7433  1.0166
  538TIP3   OH223248   4.212   6.414   0.925  0.0924 -0.0731  0.1270
  538TIP3    H123249   4.288   6.358   0.906  1.0305  0.8400  1.0734
  538TIP3    H223250   4.248   6.488   0.972 -1.0599  1.5298 -1.3705
  539TIP3   OH223251   6.852   1.621   0.352 -0.0234 -0.1884 -0.6139
  539TIP3    H123252   6.901   1.566   0.412 -0.1305  1.7455  1.3792
  539TIP3    H223253   6.761   1.594   0.362 -0.0191  0.0133  0.0040
  540TIP3   OH223254   1.219   0.065   3.693  0.2868  0.2954  0.2227
  540TIP3    H123255   1.219   0.149   3.739 -2.0362 -0.2538  1.3709
  540TIP3    H223256   1.133   0.027   3.712  1.1607 -2.2364 -0.4816
  541TIP3   OH223257   0.813   6.443   1.960  0.2410  0.6797  0.3339
  541TIP3    H123258   0.788   6.403   1.877 -2.2218 -1.7419  2.0283
  541TIP3    H223259   0.886   6.390   1.992 -0.7916 -0.4121  1.0032
  542TIP3   OH223260   3.106   6.396   0.348  0.2667  0.2141  0.0087
  542TIP3    H123261   3.190   6.425   0.383  0.2102  0.4844 -0.0787
  542TIP3    H223262   3.049   6.473   0.356 -0.1757 -0.1811  0.7472
  543TIP3   OH223263   1.187   3.189   0.737 -0.0290 -0.0547  0.1650
  543TIP3    H123264   1.244   3.238   0.678 -1.0576  0.9306 -0.0526
  543TIP3    H223265   1.229   3.103   0.746  1.1155  0.4128 -0.5091
  544TIP3   OH223266   4.568   6.140   3.044 -0.1813  0.8129  0.0532
  544TIP3    H123267   4.525   6.074   3.098  0.2488 -0.0530 -0.6361
  544TIP3    H223268   4.606   6.202   3.106  0.1621 -0.0690  0.7363
  545TIP3   OH223269   6.225   1.785   3.837  0.1353 -0.3850  0.1550
  545TIP3    H123270   6.210   1.725   3.764 -0.1394 -0.1560  0.0187
  545TIP3    H223271   6.308   1.758   3.875  1.3111  0.7421 -1.4965
  546TIP3   OH223272   5.152   2.499   2.700  0.6243 -0.2561 -0.3014
  546TIP3    H123273   5.182   2.445   2.773  2.5200 -0.0383 -0.8801
  546TIP3    H223274   5.085   2.445   2.657 -1.2173 -0.0258  2.0522
  547TIP3   OH223275   0.387   0.186   1.343 -0.1175 -0.6806 -0.0518
  547TIP3    H123276   0.471   0.142   1.352 -0.5041 -1.9209 -1.9516
  547TIP3    H223277   0.410   0.277   1.325  0.7157 -0.3069  2.5364
  548TIP3   OH223278   2.295   2.139   0.055 -0.7615 -0.4860 -0.3951
  548TIP3    H123279   2.330   2.094   0.132 -2.3100 -0.5606  0.3081
  548TIP3    H223280   2.321   2.230   0.067  0.4463 -0.7728 -0.6693
  549TIP3   OH223281   6.774   5.524   1.839 -0.1257  0.0534  0.1172
  549TIP3    H123282   6.782   5.585   1.766 -0.7394 -0.5238 -0.4568
  549TIP3    H223283   6.726   5.572   1.906  0.5259  0.6213  0.1844
  550TIP3   OH223284   3.592   1.361   3.939 -0.1449  0.0544  0.4066
  550TIP3    H123285   3.514   1.413   3.954 -1.2774 -1.7409  1.0230
  550TIP3    H223286   3.636   1.357   4.024 -0.9971 -1.4048  0.8075
  551TIP3   OH223287   6.759   4.157   7.851  0.2701  0.2850  0.4096
  551TIP3    H123288   6.725   4.069   7.870 -0.0271  0.1880 -0.5186
  551TIP3    H223289   6.838   4.141   7.800  0.6888  0.5456  0.9766
  552TIP3   OH223290   5.387   4.487   8.047 -0.1835  0.5487 -0.5090
  552TIP3    H123291   5.464   4.540   8.025 -0.1950  0.8856  0.2379
  552TIP3    H223292   5.313   4.540   8.017 -0.1608  0.5844 -0.5021
  553TIP3   OH223293   6.643   1.293   1.617 -0.8936  0.7876  0.4923
  553TIP3    H123294   6.679   1.352   1.684  0.5254  0.9518 -0.3746
  553TIP3    H223295   6.639   1.208   1.661  2.7523  0.2092  0.0873
  554TIP3   OH223296   3.771   3.771   1.261  0.3493 -0.6882 -0.1476
  554TIP3    H123297   3.712   3.734   1.326 -0.9014 -0.9825 -1.4087
  554TIP3    H223298   3.723   3.766   1.179  0.5751  2.6119 -0.6369
  555TIP3   OH223299   4.274   1.909   8.532 -0.1867  0.2344 -0.6101
  555TIP3    H123300   4.280   1.980   8.468  0.9944  1.4234  0.7483
  555TIP3    H223301   4.311   1.833   8.487  0.9665  1.1399 -1.2453
  556TIP3   OH223302   6.726   3.920   2.008 -0.2617  0.4764 -0.1040
  556TIP3    H123303   6.821   3.922   1.996 -0.2499 -0.6236 -0.3401
  556TIP3    H223304   6.697   4.009   1.989  0.4977  0.3560 -2.0034
  557TIP3   OH223305   6.849   3.089   1.277  0.3327  0.1534  0.1464
  557TIP3    H123306   6.790   3.040   1.219  0.4222  0.1401  0.0665
  557TIP3    H223307   6.862   3.031   1.352 -1.7547  1.1448  1.3744
  558TIP3   OH223308   4.868   2.388   1.443  0.8932 -0.0104 -0.1991
  558TIP3    H123309   4.790   2.377   1.497 -0.0634  0.4713 -1.4463
  558TIP3    H223310   4.847   2.344   1.361  0.8837  2.3371 -1.5341
  559TIP3   OH223311   6.419   3.499   1.312  0.3300 -0.3350 -0.0789
  559TIP3    H123312   6.457   3.444   1.244 -1.9564 -1.6622 -0.3734
  559TIP3    H223313   6.360   3.558   1.266 -0.4953 -0.5781  0.6359
  560TIP3   OH223314   4.659   3.362   3.433 -0.2422  0.5909  0.2116
  560TIP3    H123315   4.641   3.297   3.366 -1.5542  1.8933 -0.7688
  560TIP3    H223316   4.600   3.339   3.505 -1.8181  1.5047 -0.7250
  561TIP3   OH223317   5.177   2.560   0.292  0.1117  0.0414  0.4478
  561TIP3    H123318   5.195   2.632   0.352 -0.8014  0.5393  0.1490
  561TIP3    H223319   5.183   2.599   0.205  0.4933 -0.4581  0.2464
  562TIP3   OH223320   5.627   0.594   1.717  0.0685  0.3619 -0.3324
  562TIP3    H123321   5.688   0.645   1.770 -0.6465 -0.2760  1.1598
  562TIP3    H223322   5.680   0.561   1.644  0.7310  2.4874 -0.8645
  563TIP3   OH223323   1.864   1.104   0.157 -0.4268 -0.9044  0.1919
  563TIP3    H123324   1.894   1.020   0.122  1.0220  0.1101 -1.1149
  563TIP3    H223325   1.790   1.128   0.101 -0.9721 -1.3713  0.6927
  564TIP3   OH223326   2.638   5.877   3.869  0.0836  0.7837 -0.2085
  564TIP3    H123327   2.695   5.850   3.797  0.1023  1.6558 -0.5340
  564TIP3    H223328   2.583   5.946   3.831  0.7113  1.9045  0.8381
  565TIP3   OH223329   3.564   4.606   0.586 -0.0549  0.3607  0.0188
  565TIP3    H123330   3.570   4.695   0.550 -1.2273  0.5294  0.1955
  565TIP3    H223331   3.486   4.569   0.543  1.4536 -1.2578 -1.4619
  566TIP3   OH223332   4.793   0.174   2.648  0.3349 -0.1328  0.3586
  566TIP3    H123333   4.724   0.229   2.685 -0.2468 -0.1135 -0.6980
  566TIP3    H223334   4.746   0.112   2.593  1.2604  1.5773 -2.5844
  567TIP3   OH223335   4.708   4.978   1.019  0.1605  0.0414  0.0068
  567TIP3    H123336   4.680   5.051   0.963  1.4804  0.3173 -0.3388
  567TIP3    H223337   4.631   4.957   1.072 -0.7150  0.6626 -0.9736
  568TIP3   OH223338   3.539   6.687   0.806  0.1730  0.4763  0.2271
  568TIP3    H123339   3.458   6.736   0.791  1.1841  1.8398 -1.0737
  568TIP3    H223340   3.525   6.644   0.890 -1.8994  0.6556  0.0378
  569TIP3   OH223341   3.764   6.169   0.669  0.2388  0.5138 -0.4157
  569TIP3    H123342   3.780   6.077   0.649  0.2854 -0.2824  2.8419
  569TIP3    H223343   3.671   6.182   0.647  0.3754 -0.0971 -1.4369
  570TIP3   OH223344   0.185   5.794   1.808 -0.2674 -0.2841 -0.3383
  570TIP3    H123345   0.177   5.742   1.728 -0.1244 -0.8641  0.0201
  570TIP3    H223346   0.113   5.857   1.803 -1.5337 -1.6474  0.0488
  571TIP3   OH223347   1.457   3.464   1.334 -0.0797  0.0073 -0.0143
  571TIP3    H123348   1.522   3.530   1.308 -2.4726  1.9572 -1.5571
  571TIP3    H223349   1.452   3.405   1.258 -0.9129  0.6032 -0.4493
  572TIP3   OH223350   4.226   2.924   1.546 -0.4502  1.2183  0.0465
  572TIP3    H123351   4.136   2.955   1.552 -0.9249 -0.2882  1.8127
  572TIP3    H223352   4.263   2.943   1.632  0.0761 -0.4742  0.2269
  573TIP3   OH223353   3.833   5.764   7.842 -0.3742  0.3163 -0.2399
  573TIP3    H123354   3.888   5.686   7.851  0.8950  1.2361  0.1588
  573TIP3    H223355   3.765   5.738   7.781  0.4010 -0.9108 -0.6108
  574TIP3   OH223356   3.513   1.952   0.389  0.5328  0.1829  0.6857
  574TIP3    H123357   3.475   2.033   0.355 -0.0568 -0.8411 -1.2564
  574TIP3    H223358   3.437   1.897   0.409  0.8839  0.4639  3.1130
  575TIP3   OH223359   4.938   5.770   0.901  0.3373  0.6245 -0.2149
  575TIP3    H123360   5.008   5.758   0.837 -0.2862  0.3448 -0.8612
  575TIP3    H223361   4.927   5.684   0.941  0.8129  0.8307  0.3604
  576TIP3   OH223362   1.429   6.297   1.801  0.1316 -0.0567 -0.0477
  576TIP3    H123363   1.364   6.244   1.756 -0.2391  0.5776 -0.2699
  576TIP3    H223364   1.424   6.382   1.758  1.0092  0.0422  0.0263
  577TIP3   OH223365   6.323   0.919   2.911  0.1026 -0.3938  0.2101
  577TIP3    H123366   6.381   0.956   2.844  1.7533 -0.6105  1.4768
  577TIP3    H223367   6.307   0.829   2.882 -0.5520  0.0029 -0.7219
  578TIP3   OH223368   1.115   5.979   3.189  0.5225 -0.1471  0.2620
  578TIP3    H123369   1.040   6.019   3.144  1.2054 -0.0767 -0.8698
  578TIP3    H223370   1.090   5.888   3.202  0.1743 -0.0833  0.0497
  579TIP3   OH223371   6.402   3.129   0.340 -0.5581 -0.2549  0.1491
  579TIP3    H123372   6.309   3.110   0.349 -0.8361  0.3279 -1.1759
  579TIP3    H223373   6.415   3.137   0.245  0.7830 -0.0639  0.3363
  580TIP3   OH223374   4.184   0.927   1.980  0.1614  0.0117 -0.0141
  580TIP3    H123375   4.214   0.948   2.069  1.4624  0.6915 -0.5712
  580TIP3    H223376   4.220   0.840   1.962  2.6893  1.1534 -0.9780
  581TIP3   OH223377   3.466   3.373   1.072  0.3612 -0.0692  0.2193
  581TIP3    H123378   3.513   3.306   1.123 -2.8915 -0.8815  2.4968
  581TIP3    H223379   3.464   3.339   0.983  1.1742 -1.6298  0.7637
  582TIP3   OH223380   4.913   3.687   1.737 -0.0781 -0.3303 -0.1093
  582TIP3    H123381   4.914   3.782   1.726 -0.9061 -0.0076  2.1951
  582TIP3    H223382   4.821   3.666   1.753  0.0115 -1.6215 -1.1704
  583TIP3   OH223383   3.810   2.179   0.370 -0.9962 -0.1986  0.2136
  583TIP3    H123384   3.764   2.125   0.305  1.7279 -0.9195 -1.2576
  583TIP3    H223385   3.820   2.264   0.327  2.1914 -1.1210 -1.1592
  584TIP3   OH223386   3.260   6.524   1.243  0.5104 -0.3649 -0.2764
  584TIP3    H123387   3.248   6.600   1.186  1.6653  1.0095  1.1991
  584TIP3    H223388   3.349   6.494   1.225  0.9210  0.1467  0.8388
  585TIP3   OH223389   3.019   1.104   2.798 -0.7479 -0.6380  0.2129
  585TIP3    H123390   3.055   1.015   2.792  1.1837  0.0742  0.4070
  585TIP3    H223391   2.992   1.125   2.708 -1.9720 -1.6829  0.3114
  586TIP3   OH223392   0.207   5.066   0.764  0.4683  0.1331 -0.3600
  586TIP3    H123393   0.170   5.139   0.715 -0.0382 -0.7531 -1.3471
  586TIP3    H223394   0.166   5.071   0.850  0.3577  0.9299 -0.4523
  587TIP3   OH223395   1.646   5.596   1.767 -0.2876  0.1063 -0.1483
  587TIP3    H123396   1.555   5.613   1.791 -0.8174 -1.0279 -1.2210
  587TIP3    H223397   1.666   5.512   1.808  0.4962  0.6655  0.6240
  588TIP3   OH223398   6.531   0.969   3.097  0.4787  0.1126 -0.7858
  588TIP3    H123399   6.528   0.894   3.157  1.9401 -0.1654 -1.0314
  588TIP3    H223400   6.454   0.958   3.041  0.9426 -1.5123 -1.1561
  589TIP3   OH223401   0.647   5.642   3.812 -0.2879 -0.0958 -0.0083
  589TIP3    H123402   0.646   5.557   3.857  0.2331  0.1177  0.4055
  589TIP3    H223403   0.738   5.671   3.817 -0.8318  1.4909  1.7283
  590TIP3   OH223404   5.828   2.703   7.580 -0.0265 -0.1906  0.0004
  590TIP3    H123405   5.747   2.733   7.623  1.0669  0.2389  1.8924
  590TIP3    H223406   5.866   2.783   7.543  0.5803  0.0051  1.0057
  591TIP3   OH223407   2.971   2.391   0.260 -0.6649 -0.3709 -0.6481
  591TIP3    H123408   3.000   2.315   0.311  0.8283  1.1615  0.8789
  591TIP3    H223409   3.014   2.380   0.175  2.1688  0.2958  0.5834
  592TIP3   OH223410   3.119   5.433   2.459  0.5617 -0.2184 -0.2278
  592TIP3    H123411   3.085   5.379   2.530  1.3332  0.3501  0.5937
  592TIP3    H223412   3.209   5.401   2.446 -0.1067 -1.4667 -2.1221
  593TIP3   OH223413   3.108   0.956   1.316  0.1715 -0.4846 -0.0657
  593TIP3    H123414   3.027   1.005   1.304  0.0409 -0.8703 -0.7893
  593TIP3    H223415   3.150   0.998   1.391 -0.6507 -0.2279  0.2658
  594TIP3   OH223416   5.006   1.537   3.207  0.3361 -0.0911  0.2414
  594TIP3    H123417   5.061   1.494   3.142 -0.4641 -2.5356  1.0608
  594TIP3    H223418   5.020   1.487   3.287 -0.9444  0.9955  1.1952
  595TIP3   OH223419   3.475   2.914   8.059  0.4943 -0.3003  0.6636
  595TIP3    H123420   3.501   3.002   8.085 -1.3100  0.6097 -0.4464
  595TIP3    H223421   3.521   2.898   7.977  1.7835 -0.9269  1.4730
  596TIP3   OH223422   0.020   2.799   1.907 -0.2666  0.1232  0.4375
  596TIP3    H123423  -0.048   2.854   1.948 -1.0293 -0.5611  0.1117
  596TIP3    H223424   0.002   2.804   1.814 -0.3045 -0.6254  0.3990
  597TIP3   OH223425   2.575   1.234   2.218  0.4754  0.0425  0.0802
  597TIP3    H123426   2.590   1.302   2.153  2.3709 -1.3735 -1.0455
  597TIP3    H223427   2.507   1.179   2.179 -0.8474  1.0517  0.8640
  598TIP3   OH223428   3.247   4.046   1.102 -0.1638 -0.5647  0.2235
  598TIP3    H123429   3.199   4.095   1.169  0.9380 -1.6950  1.8910
  598TIP3    H223430   3.299   3.983   1.150  2.0431 -0.2628 -1.5798
  599TIP3   OH223431   0.268   1.697   2.789  0.0663  0.2729 -0.2374
  599TIP3    H123432   0.330   1.720   2.720  1.0524  0.2345  0.6097
  599TIP3    H223433   0.256   1.778   2.838  0.8093 -0.1291  0.6357
  600TIP3   OH223434   6.172   4.926   0.035 -0.0803  0.8168 -0.2100
  600TIP3    H123435   6.173   4.965   0.122  0.4167 -0.2409  0.2758
  600TIP3    H223436   6.263   4.931   0.005  0.1368 -0.4961  0.1336
  601TIP3   OH223437   0.572   3.025   1.124 -0.3214  0.2492  0.2375
  601TIP3    H123438   0.556   3.050   1.215  0.8177 -0.3910  0.6311
  601TIP3    H223439   0.662   3.053   1.107 -0.4937  0.2798 -0.6648
  602TIP3   OH223440   1.568   5.821   2.623  0.0242 -0.0860  0.1109
  602TIP3    H123441   1.532   5.878   2.555  0.1846  0.9954  0.9263
  602TIP3    H223442   1.491   5.790   2.671 -0.0520 -0.4820 -0.2529
  603TIP3   OH223443   5.878   4.128   1.653  0.0336 -0.6522 -0.1389
  603TIP3    H123444   5.968   4.110   1.627 -0.1908  1.8334 -3.2099
  603TIP3    H223445   5.825   4.094   1.580 -1.1151  1.7318 -0.5155
  604TIP3   OH223446   5.834   5.882   0.263  0.1518  0.2508  0.5233
  604TIP3    H123447   5.890   5.942   0.312  0.0355  1.9885 -1.3694
  604TIP3    H223448   5.779   5.938   0.209  0.7766 -1.5306 -2.1475
  605TIP3   OH223449   3.966   2.557   3.246  0.1332 -0.5164  0.1769
  605TIP3    H123450   4.043   2.551   3.301  1.2593 -2.8578 -1.4851
  605TIP3    H223451   3.956   2.469   3.208 -0.8640  0.7667 -2.8837
  606TIP3   OH223452   0.564   0.368   2.478 -0.2100 -0.1220 -0.2674
  606TIP3    H123453   0.650   0.338   2.449  1.0636  0.8033  2.2139
  606TIP3    H223454   0.547   0.446   2.426  0.9470  0.2359 -0.1454
  607TIP3   OH223455   0.325   2.451   1.723 -0.1381 -0.4980  0.5651
  607TIP3    H123456   0.269   2.481   1.794  0.0520 -0.5782  0.7535
  607TIP3    H223457   0.305   2.357   1.715 -1.6373 -0.0907 -0.8597
  608TIP3   OH223458   1.392   4.227   0.524  0.2022  0.1647 -0.6289
  608TIP3    H123459   1.314   4.277   0.500 -1.6304 -1.4412  1.5587
  608TIP3    H223460   1.430   4.276   0.597 -0.3264 -0.4229  0.0562
  609TIP3   OH223461   3.529   0.758   3.926  0.0929 -0.3621 -0.3057
  609TIP3    H123462   3.566   0.820   3.989 -0.0750 -0.8107  0.2526
  609TIP3    H223463   3.435   0.774   3.929  0.2275  1.0549 -2.0244
  610TIP3   OH223464   5.970   1.005   0.094  0.4210  0.6690 -0.0115
  610TIP3    H123465   5.976   0.931   0.034  0.2548  0.9963 -0.4408
  610TIP3    H223466   6.053   1.052   0.084  2.0501 -1.3209  2.7995
  611TIP3   OH223467   2.285   3.223   8.420  0.3886  0.2119 -0.5468
  611TIP3    H123468   2.195   3.249   8.400  0.5782  1.1732 -0.2113
  611TIP3    H223469   2.308   3.160   8.352  0.0888  1.3502 -1.7376
  612TIP3   OH223470   1.623   1.867   1.085 -0.1074  0.0703 -0.1467
  612TIP3    H123471   1.665   1.948   1.116 -0.2792  1.0739 -2.3334
  612TIP3    H223472   1.626   1.808   1.161  0.7097  1.8445  1.2942
  613TIP3   OH223473   4.620   5.143   0.704 -0.0170 -0.0479  0.0199
  613TIP3    H123474   4.712   5.119   0.711  0.2951  0.7158 -1.1403
  613TIP3    H223475   4.604   5.152   0.610 -1.4901 -0.9468  0.1490
  614TIP3   OH223476   2.743   6.160   3.235 -0.0381 -0.4145 -0.7335
  614TIP3    H123477   2.819   6.160   3.292 -0.9436 -0.3603  0.5224
  614TIP3    H223478   2.769   6.109   3.158  1.4345  0.0925 -0.5934
  615TIP3   OH223479   1.433   6.305   8.207  0.0778  0.5697  0.1023
  615TIP3    H123480   1.442   6.315   8.112  1.1302  2.1337  0.3188
  615TIP3    H223481   1.406   6.214   8.220 -0.2197  0.3760 -1.6984
  616TIP3   OH223482   2.211   4.362   3.102 -0.0407 -0.2329  0.8132
  616TIP3    H123483   2.294   4.411   3.105  1.0655 -2.0369  1.5587
  616TIP3    H223484   2.162   4.394   3.178 -0.5639  1.6600 -0.2680
  617TIP3   OH223485   5.651   1.972   1.699  0.6690 -0.5775 -0.5719
  617TIP3    H123486   5.733   1.944   1.739  1.3245 -0.7158 -1.9507
  617TIP3    H223487   5.664   2.065   1.678 -0.3816  0.0202  1.2344
  618TIP3   OH223488   6.444   6.699   2.592  0.4370 -0.5837  0.0853
  618TIP3    H123489   6.491   6.671   2.513 -2.1568 -1.1422 -1.3480
  618TIP3    H223490   6.387   6.769   2.562 -0.3674 -0.5903  1.5446
  619TIP3   OH223491   1.473   6.363   0.812  0.0187 -0.2151 -0.0855
  619TIP3    H123492   1.565   6.339   0.801 -0.0929 -0.8093  0.2342
  619TIP3    H223493   1.460   6.435   0.751  0.4587 -0.7507 -0.8357
  620TIP3   OH223494   5.378   6.780   0.528 -0.8323  0.0210 -0.0715
  620TIP3    H123495   5.444   6.848   0.514 -1.0684  0.4337  0.7741
  620TIP3    H223496   5.401   6.741   0.612 -1.1593 -0.4079 -0.1797
  621TIP3   OH223497   4.332   2.573   2.900  0.3639  0.1990  0.7076
  621TIP3    H123498   4.374   2.571   2.986 -2.4066 -1.1079  2.1737
  621TIP3    H223499   4.309   2.482   2.883  0.1695  0.5600 -1.0839
  622TIP3   OH223500   3.958   1.237   8.600 -0.4832 -0.5299 -0.4964
  622TIP3    H123501   3.889   1.277   8.547 -0.1826 -1.2061 -1.4207
  622TIP3    H223502   4.012   1.189   8.537  0.5283 -0.4470  0.2803
  623TIP3   OH223503   3.266   3.791   0.043  0.3382 -0.0290  0.3251
  623TIP3    H123504   3.348   3.809  -0.002  0.7277 -1.9790  0.1639
  623TIP3    H223505   3.293   3.756   0.128 -0.3188 -0.5773  0.3142
  624TIP3   OH223506   5.790   0.899   1.579  0.1212  0.9142 -0.2849
  624TIP3    H123507   5.868   0.952   1.593  1.2383 -0.3279 -1.4943
  624TIP3    H223508   5.812   0.842   1.505 -1.0804 -1.0444  0.7600
  625TIP3   OH223509   1.067   4.551   1.542  0.1640  0.0997  0.5111
  625TIP3    H123510   0.995   4.581   1.597 -0.3778 -0.7483  0.2817
  625TIP3    H223511   1.133   4.620   1.549  0.0697  0.0724  2.1401
  626TIP3   OH223512   0.130   6.669   0.137  0.0767  0.7914 -0.4288
  626TIP3    H123513   0.068   6.603   0.166 -1.1819  1.9073 -0.4805
  626TIP3    H223514   0.216   6.635   0.162 -0.6880  0.0514  1.2800
  627TIP3   OH223515   4.453   4.910   1.112  0.4183 -0.4169 -0.0506
  627TIP3    H123516   4.390   4.851   1.071 -1.2502  0.5718  0.9846
  627TIP3    H223517   4.479   4.866   1.192 -0.0799 -0.1932  0.2381
  628TIP3   OH223518   4.067   2.317   2.744  0.1797  0.3912  0.4675
  628TIP3    H123519   4.047   2.319   2.651  0.2577  0.5876  0.4551
  628TIP3    H223520   4.054   2.407   2.774  2.6838  0.9299  0.1130
  629TIP3   OH223521   6.178   3.977   2.136 -0.0787  0.2162 -0.0336
  629TIP3    H123522   6.269   4.006   2.128 -0.1334  0.6843  0.8956
  629TIP3    H223523   6.154   3.949   2.047  1.9962 -3.0802  0.2357
  630TIP3   OH223524   2.720   3.862   2.103 -0.1751  0.2500 -0.4371
  630TIP3    H123525   2.804   3.818   2.110  0.2109  0.9283 -0.7194
  630TIP3    H223526   2.699   3.889   2.192  0.0308  0.3134 -0.4085
  631TIP3   OH223527   4.355   6.062   3.801  0.4983  0.3524  0.1070
  631TIP3    H123528   4.401   6.144   3.786 -0.4444  0.9117  0.1910
  631TIP3    H223529   4.406   5.996   3.753  1.1754  1.0083 -0.0794
  632TIP3   OH223530   4.624   6.007   2.691 -0.1276 -0.1618 -0.0553
  632TIP3    H123531   4.631   5.979   2.600 -2.1175  0.8537 -0.5810
  632TIP3    H223532   4.665   6.094   2.692 -0.6568  0.0943 -0.1440
  633TIP3   OH223533   1.049   4.898   2.612  0.1255  0.3499 -0.0264
  633TIP3    H123534   0.979   4.865   2.668 -0.3790  1.4988  0.0514
  633TIP3    H223535   1.040   4.847   2.531  1.0537 -1.5359  0.9800
  634TIP3   OH223536   2.324   3.915   3.232 -0.6078 -0.0979  0.1380
  634TIP3    H123537   2.283   3.886   3.150  1.1734  1.6000 -1.4929
  634TIP3    H223538   2.263   3.979   3.269  0.1690  2.0293 -1.9809
  635TIP3   OH223539   1.286   4.281   3.933  0.0730  0.5586 -0.3242
  635TIP3    H123540   1.256   4.369   3.909  0.9251  0.6541 -1.0879
  635TIP3    H223541   1.286   4.232   3.851 -0.3003 -0.1375  0.0758
  636TIP3   OH223542   1.708   4.341   3.118 -0.2086 -0.3665  0.0403
  636TIP3    H123543   1.705   4.311   3.209  2.5504 -2.0171 -0.2800
  636TIP3    H223544   1.674   4.267   3.068  0.7614 -0.5409 -0.3853
  637TIP3   OH223545   4.136   2.038   8.727 -0.6327 -0.1210  0.0951
  637TIP3    H123546   4.213   2.017   8.673 -1.5009 -0.1133 -1.1805
  637TIP3    H223547   4.080   2.090   8.670 -2.5766 -1.9160  0.2512
  638TIP3   OH223548   5.457   4.067   8.745 -0.2058  0.5274 -0.2410
  638TIP3    H123549   5.491   4.157   8.742  1.6663 -0.0586  1.3772
  638TIP3    H223550   5.415   4.060   8.830  2.0853 -0.8532  0.8827
  639TIP3   OH223551   1.449   0.814   0.101  0.0184  0.1409 -0.2167
  639TIP3    H123552   1.398   0.893   0.116  1.9797  0.9616  3.0607
  639TIP3    H223553   1.423   0.754   0.171 -0.3771 -1.6402 -1.7899
  640TIP3   OH223554   6.795   6.028   3.085  0.3848  0.1646 -1.3166
  640TIP3    H123555   6.802   6.006   3.177  1.0183 -2.3029 -1.8897
  640TIP3    H223556   6.857   6.100   3.072  0.9956 -0.1008  0.0038
  641TIP3   OH223557   5.771   2.470   7.466  0.0681 -0.0555  0.0436
  641TIP3    H123558   5.751   2.543   7.526  1.0397  0.7736 -0.6076
  641TIP3    H223559   5.800   2.512   7.386  0.9320 -1.1714 -0.2560
  642TIP3   OH223560   5.498   2.599   1.169  0.6803  0.1664  0.5397
  642TIP3    H123561   5.483   2.693   1.172  1.1710  0.2211  1.8432
  642TIP3    H223562   5.529   2.582   1.079  0.9978  1.3034  0.4246
  643TIP3   OH223563   5.583   4.305   8.776 -0.6600  0.4672  0.5153
  643TIP3    H123564   5.623   4.318   8.690 -0.4986  0.0278  0.5178
  643TIP3    H223565   5.564   4.393   8.808 -2.9847  0.5749 -0.9998
  644TIP3   OH223566   5.053   6.628   3.586  0.1348  0.4871 -0.0948
  644TIP3    H123567   5.075   6.720   3.597  1.1854  0.3753 -1.0531
  644TIP3    H223568   5.036   6.618   3.493  2.8699 -0.8060 -0.5744
  645TIP3   OH223569   2.636   3.348   0.352 -0.5136 -0.1543 -0.5189
  645TIP3    H123570   2.634   3.438   0.384  4.1426  0.8485 -2.2933
  645TIP3    H223571   2.626   3.355   0.257  2.2652 -1.1251 -0.9639
  646TIP3   OH223572   6.311   2.810   3.647  0.0264 -0.2466 -0.1018
  646TIP3    H123573   6.264   2.889   3.674  0.1348 -0.2755  0.1848
  646TIP3    H223574   6.386   2.806   3.707  1.3606  0.7260 -1.6187
  647TIP3   OH223575   1.845   0.845   2.785 -0.1657  0.0957  0.0534
  647TIP3    H123576   1.761   0.884   2.759 -0.5903 -1.6088 -1.3199
  647TIP3    H223577   1.869   0.789   2.711  1.0710 -1.1826  1.3609
  648TIP3   OH223578   1.964   1.637   0.654  0.5965  0.3949 -0.2879
  648TIP3    H123579   1.913   1.703   0.607 -1.8405 -1.7134 -0.8708
  648TIP3    H223580   1.990   1.680   0.735 -2.5091  1.5758  0.2303
  649TIP3   OH223581   2.805   5.121   1.736  0.0628 -0.0418 -0.1545
  649TIP3    H123582   2.817   5.212   1.766 -0.0271 -0.1684  0.2747
  649TIP3    H223583   2.858   5.115   1.657 -0.3114  0.5241 -0.4521
  650TIP3   OH223584   4.654   5.386   0.476  0.0589  0.0392 -0.1994
  650TIP3    H123585   4.608   5.323   0.531  0.6055 -1.8024 -1.7533
  650TIP3    H223586   4.742   5.391   0.513  0.1558 -0.5145 -0.3375
  651TIP3   OH223587   4.915   6.216   3.000 -0.1463  0.1816 -0.0116
  651TIP3    H123588   4.982   6.155   2.966  1.2463  0.9705  1.2162
  651TIP3    H223589   4.860   6.161   3.056 -0.1947 -0.3728 -0.5857
  652TIP3   OH223590   5.485   5.465   2.467 -0.6037 -0.8892 -0.1957
  652TIP3    H123591   5.490   5.557   2.490  0.1284 -0.3040 -2.4193
  652TIP3    H223592   5.400   5.436   2.501 -1.0084  0.6877  0.2233
  653TIP3   OH223593   5.593   2.073   2.302 -0.6712  0.2422 -0.3413
  653TIP3    H123594   5.526   2.044   2.240 -0.2950  1.7410 -1.5202
  653TIP3    H223595   5.613   2.162   2.275  1.9413 -0.2069 -0.1892
  654TIP3   OH223596   0.622   0.827   1.249 -0.6720  0.7163  0.3943
  654TIP3    H123597   0.601   0.919   1.264 -0.0359  0.8806  0.3366
  654TIP3    H223598   0.712   0.828   1.215 -0.3062  0.0133  1.2989
  655TIP3   OH223599   4.781   3.266   2.486  0.3485  0.2644 -0.4057
  655TIP3    H123600   4.790   3.187   2.541 -0.0086  0.2541 -0.3601
  655TIP3    H223601   4.789   3.339   2.548 -1.0666  0.2486 -0.1623
  656TIP3   OH223602   6.272   5.901   7.797  0.1107  0.2698  0.1043
  656TIP3    H123603   6.230   5.836   7.853 -0.8196 -1.0577 -1.9782
  656TIP3    H223604   6.204   5.965   7.779  0.5629  0.9873  0.8805
  657TIP3   OH223605   3.528   2.997   3.168 -0.0154 -0.0835  0.1795
  657TIP3    H123606   3.567   2.945   3.098  0.7065  1.0029 -0.2536
  657TIP3    H223607   3.470   2.936   3.214  1.1363 -1.3848 -0.0257
  658TIP3   OH223608   3.462   5.785   8.791  0.2978 -0.5910 -0.4749
  658TIP3    H123609   3.371   5.805   8.768  1.0215 -0.2399 -3.4113
  658TIP3    H223610   3.491   5.863   8.839 -0.4838 -0.0054 -0.9160
  659TIP3   OH223611   3.414   2.816   1.473  0.2947  0.5689  0.5467
  659TIP3    H123612   3.322   2.831   1.492 -0.4612 -1.3899 -1.2679
  659TIP3    H223613   3.437   2.885   1.410 -0.5323 -0.0986 -0.5315
  660TIP3   OH223614   4.707   0.840   7.901 -0.1065 -0.2019 -0.3717
  660TIP3    H123615   4.731   0.920   7.949 -0.2172  0.1605 -0.9198
  660TIP3    H223616   4.790   0.807   7.868 -0.2332  0.5631 -1.5017
  661TIP3   OH223617   0.588   6.020   1.948 -0.6827  0.1855  0.3270
  661TIP3    H123618   0.528   5.948   1.927 -0.4179  0.5915 -2.0571
  661TIP3    H223619   0.553   6.057   2.029 -2.9357 -0.3486 -0.3332
  662TIP3   OH223620   2.300   5.847   7.781  0.0076 -0.0583  0.0193
  662TIP3    H123621   2.256   5.764   7.801 -0.5660  0.1912 -0.1878
  662TIP3    H223622   2.347   5.830   7.699  0.3583 -0.3433  0.2732
  663TIP3   OH223623   2.885   2.882   8.554  0.5737 -0.1416 -0.2803
  663TIP3    H123624   2.850   2.793   8.548  0.3329  0.0038 -1.1429
  663TIP3    H223625   2.893   2.898   8.648 -0.0466 -0.8193 -0.1031
  664TIP3   OH223626   3.893   3.128   8.537  0.2927 -0.1901  0.4435
  664TIP3    H123627   3.902   3.148   8.444  0.1212  0.5159  0.5795
  664TIP3    H223628   3.980   3.096   8.563  0.0995 -1.2880 -0.1616
  665TIP3   OH223629   4.046   6.647   3.668  0.0160  0.0363 -0.1179
  665TIP3    H123630   3.987   6.721   3.683 -1.5375 -0.1514 -4.0986
  665TIP3    H223631   3.988   6.574   3.644  1.6780 -1.6084  0.5863
  666TIP3   OH223632   1.628   5.001   3.774 -0.2617 -0.1243  0.5048
  666TIP3    H123633   1.542   4.959   3.777 -0.2884 -0.1013  0.0760
  666TIP3    H223634   1.632   5.051   3.856 -1.1136  0.7493  0.0394
  667TIP3   OH223635   5.292   3.140   0.956  0.6553  0.1657  0.1678
  667TIP3    H123636   5.212   3.136   0.903  1.7481  2.0760 -1.7718
  667TIP3    H223637   5.276   3.213   1.016  1.1965  1.0075 -0.7011
  668TIP3   OH223638   3.051   3.318   0.197  0.1860 -0.3204  0.0305
  668TIP3    H123639   3.039   3.403   0.155 -1.4013 -0.9179 -0.8034
  668TIP3    H223640   3.050   3.255   0.125 -0.2421 -1.1776  0.7659
  669TIP3   OH223641   4.075   6.260   0.277 -0.0816  0.4067  0.0566
  669TIP3    H123642   4.041   6.347   0.297  0.6087  0.4730  0.9881
  669TIP3    H223643   4.027   6.201   0.335 -0.8815  0.0860 -0.8983
  670TIP3   OH223644   2.634   6.044   2.730 -0.6052 -0.3374  0.5574
  670TIP3    H123645   2.603   6.085   2.649  0.3183  1.0263  0.8593
  670TIP3    H223646   2.579   5.967   2.741 -2.1311  0.5992 -0.2651
  671TIP3   OH223647   5.053   6.475   1.870  0.9019  0.4290  0.1072
  671TIP3    H123648   4.978   6.523   1.835  0.7644 -0.4320 -0.8275
  671TIP3    H223649   5.015   6.394   1.904  1.5774 -0.8495 -2.0160
  672TIP3   OH223650   4.734   5.027   2.135  0.2061 -0.6693  0.2308
  672TIP3    H123651   4.693   5.049   2.219 -0.3162 -0.8845  0.0393
  672TIP3    H223652   4.666   5.045   2.070  1.2123  1.3234 -0.3623
  673TIP3   OH223653   4.977   3.588   1.480 -0.5134  0.5572  0.1247
  673TIP3    H123654   4.973   3.658   1.545 -0.0365  0.9542 -0.2667
  673TIP3    H223655   4.892   3.590   1.437 -0.5632  0.7838  0.2320
  674TIP3   OH223656   1.159   5.256   0.562 -0.0583 -0.2533 -0.3943
  674TIP3    H123657   1.142   5.162   0.552  0.1221 -0.3509  0.1305
  674TIP3    H223658   1.078   5.291   0.597 -0.6278  0.0541 -1.9441
  675TIP3   OH223659   1.035   5.960   8.564 -0.0816  0.7104  0.7063
  675TIP3    H123660   1.122   5.936   8.532  0.0086  0.8834  0.8205
  675TIP3    H223661   0.979   5.887   8.538  0.3979 -0.1943  2.0929
  676TIP3   OH223662   1.493   6.170   3.361 -0.1604 -0.3501  0.2557
  676TIP3    H123663   1.526   6.258   3.348  0.0848 -0.3449  0.8828
  676TIP3    H223664   1.405   6.172   3.324 -0.6336  0.5101  1.3623
  677TIP3   OH223665   1.548   5.804   8.056 -0.1272  0.0855 -0.8455
  677TIP3    H123666   1.529   5.860   7.981  2.2773 -0.5005 -2.0196
  677TIP3    H223667   1.609   5.739   8.021  0.1954 -0.8788  1.3802
  678TIP3   OH223668   5.215   3.011   3.640 -0.3650 -0.2721 -0.0997
  678TIP3    H123669   5.189   2.983   3.728 -0.0481 -0.2880 -0.0094
  678TIP3    H223670   5.267   3.090   3.655  0.6409 -0.9134 -0.1853
  679TIP3   OH223671   1.615   4.852   0.044  0.0611  0.0212 -0.0767
  679TIP3    H123672   1.702   4.814   0.040 -0.3414 -0.8428 -1.5838
  679TIP3    H223673   1.629   4.941   0.076  1.7023  0.4192 -1.6943
  680TIP3   OH223674   5.690   2.877   3.046  0.4504  0.1107  0.0288
  680TIP3    H123675   5.657   2.914   2.964  1.6453  0.1616 -0.4514
  680TIP3    H223676   5.729   2.794   3.021  0.7450  0.0821  0.5647
  681TIP3   OH223677   3.704   5.679   0.185  0.0355  0.5230  0.6581
  681TIP3    H123678   3.627   5.623   0.192  0.0003  0.3798 -0.6800
  681TIP3    H223679   3.748   5.650   0.106  0.4545  1.8529  0.3740
  682TIP3   OH223680   2.830   1.809   1.069 -0.1148  0.4824  0.5574
  682TIP3    H123681   2.879   1.735   1.033 -1.0462  0.1461 -0.0538
  682TIP3    H223682   2.747   1.770   1.099 -0.7260  1.3135 -0.0291
  683TIP3   OH223683   4.254   5.530   8.080  0.4250 -0.2478 -0.1667
  683TIP3    H123684   4.298   5.509   8.162  1.1445  1.9236  0.0765
  683TIP3    H223685   4.216   5.448   8.051  1.9895 -1.5316  1.2324
  684TIP3   OH223686   6.731   3.672   0.672  0.1358 -0.3974  0.0199
  684TIP3    H123687   6.819   3.650   0.641  0.0549 -0.7571  0.0338
  684TIP3    H223688   6.726   3.767   0.667  0.5030 -0.3813 -0.0456
  685TIP3   OH223689   2.666   1.899   0.282  0.5056 -0.4208  0.0725
  685TIP3    H123690   2.746   1.907   0.334  0.1593  1.3365  0.3912
  685TIP3    H223691   2.622   1.821   0.316  0.7719  0.1217  1.7463
  686TIP3   OH223692   4.399   5.620   7.874 -0.2002 -0.3052  0.4202
  686TIP3    H123693   4.486   5.604   7.911  0.2097 -2.0508 -1.1897
  686TIP3    H223694   4.338   5.597   7.944  0.5955  0.5124  1.4112
  687TIP3   OH223695   5.190   3.101   2.109 -0.0510 -0.3737 -0.6684
  687TIP3    H123696   5.183   3.053   2.191 -2.2380  0.6732 -0.1744
  687TIP3    H223697   5.125   3.059   2.052  0.9756 -0.6603 -1.6554
  688TIP3   OH223698   2.143   3.223   7.598  0.1908 -0.5212  0.0872
  688TIP3    H123699   2.177   3.264   7.678 -1.1908 -0.4040  0.6365
  688TIP3    H223700   2.048   3.219   7.611  0.0685 -1.7570 -0.9716
  689TIP3   OH223701   3.390   0.435   2.099  0.8218  0.3828  0.0208
  689TIP3    H123702   3.345   0.384   2.031 -1.5327 -0.0468  1.7630
  689TIP3    H223703   3.406   0.520   2.059 -1.9592  0.6861 -0.6757
  690TIP3   OH223704   5.357   4.793   3.635  0.5379  0.3816  0.2887
  690TIP3    H123705   5.305   4.721   3.670 -1.2108  1.4108 -0.0124
  690TIP3    H223706   5.431   4.752   3.592 -0.0095 -1.1808  0.7880
  691TIP3   OH223707   3.872   0.576   2.407  0.4006  0.0873 -0.2130
  691TIP3    H123708   3.876   0.480   2.406 -2.3884 -0.1606  1.6807
  691TIP3    H223709   3.878   0.601   2.315 -1.4099 -2.0980 -1.0141
  692TIP3   OH223710   2.410   5.769   0.309  0.0423 -0.2054  0.4596
  692TIP3    H123711   2.505   5.755   0.306 -0.0841 -0.9257 -0.5651
  692TIP3    H223712   2.388   5.799   0.221 -0.3333  2.5386  1.3808
  693TIP3   OH223713   4.781   2.239   1.211 -0.0558  0.1041 -0.3757
  693TIP3    H123714   4.699   2.229   1.259 -0.6751  0.3429 -1.3538
  693TIP3    H223715   4.817   2.150   1.206  0.1733  0.1195  0.7648
  694TIP3   OH223716   5.528   6.010   1.510 -0.4758 -0.5192 -0.3350
  694TIP3    H123717   5.432   6.014   1.516 -0.4150  1.2500  0.2334
  694TIP3    H223718   5.558   6.068   1.580  0.9826 -0.2154 -1.1740
  695TIP3   OH223719   5.783   3.833   3.023 -0.2384 -0.0316 -0.0955
  695TIP3    H123720   5.707   3.892   3.021  0.5112  1.1768  2.1565
  695TIP3    H223721   5.796   3.815   3.116  1.7996 -0.7810 -0.4672
  696TIP3   OH223722   0.437   4.567   1.278  0.4377 -0.2184  0.1170
  696TIP3    H123723   0.499   4.583   1.207  0.9153 -0.5111  0.4623
  696TIP3    H223724   0.364   4.626   1.260  0.7245 -0.0182 -0.4076
  697TIP3   OH223725   4.885   3.206   3.789  0.2820 -0.2638  0.1556
  697TIP3    H123726   4.794   3.176   3.795  0.2909 -0.4791 -0.6775
  697TIP3    H223727   4.931   3.158   3.858  0.0758 -1.3533 -0.4462
  698TIP3   OH223728   0.814   5.145   0.556 -0.1591  0.0564  0.2985
  698TIP3    H123729   0.787   5.075   0.497 -0.1263  0.5150 -0.2693
  698TIP3    H223730   0.859   5.101   0.627 -1.7232 -0.6676  0.8836
  699TIP3   OH223731   5.639   5.491   1.156  0.3943  0.5299  0.3882
  699TIP3    H123732   5.584   5.512   1.231 -0.1926  1.7254 -0.3423
  699TIP3    H223733   5.714   5.444   1.193 -0.5345 -0.0855  1.5440
  700TIP3   OH223734   6.347   4.166   0.963  0.1981 -0.1177 -0.1422
  700TIP3    H123735   6.274   4.208   1.010 -0.0607 -1.5309  0.7811
  700TIP3    H223736   6.398   4.239   0.928 -0.3936  0.9602  1.1476
  701TIP3   OH223737   2.380   3.663   1.574  0.3477  0.2319 -0.0832
  701TIP3    H123738   2.449   3.598   1.579  0.9875  0.9955  1.9141
  701TIP3    H223739   2.390   3.703   1.487 -0.4248 -2.6015 -1.6143
  702TIP3   OH223740   1.608   3.987   8.652  0.2553 -0.1940  0.6867
  702TIP3    H123741   1.636   4.003   8.742  1.3836  0.2510  0.2746
  702TIP3    H223742   1.520   4.025   8.647  0.3120  0.0647  1.5094
  703TIP3   OH223743   2.248   6.808   8.465  0.4662  0.1600  0.0957
  703TIP3    H123744   2.211   6.805   8.554 -1.9250 -0.6794 -0.8371
  703TIP3    H223745   2.242   6.900   8.440 -0.0900  0.1913  0.3312
  704TIP3   OH223746   6.016   3.156   1.803 -0.3041 -0.3816  0.2925
  704TIP3    H123747   5.940   3.215   1.806 -0.4797 -0.5435 -0.6147
  704TIP3    H223748   6.091   3.212   1.824 -0.4820  0.1520 -0.4436
  705TIP3   OH223749   3.034   6.449   1.682  0.5147 -0.1530 -0.0393
  705TIP3    H123750   3.062   6.539   1.700  0.0570 -0.3612  1.8898
  705TIP3    H223751   3.072   6.397   1.752  0.8846 -1.5217 -1.1994
  706TIP3   OH223752   0.541   3.720   8.255  0.6868 -0.2067  0.3170
  706TIP3    H123753   0.470   3.660   8.277 -0.9996  1.2653 -0.8417
  706TIP3    H223754   0.588   3.733   8.337 -0.9267 -0.5438  1.3329
  707TIP3   OH223755   2.185   1.581   8.331 -0.6566 -0.3854 -0.2123
  707TIP3    H123756   2.113   1.556   8.389 -1.4393 -0.0061 -1.0006
  707TIP3    H223757   2.151   1.566   8.243  0.5067 -0.9316 -0.5908
  708TIP3   OH223758   3.697   0.075   1.033 -0.2155 -0.0437  0.7614
  708TIP3    H123759   3.666  -0.002   0.986 -0.2122  0.4857 -0.1212
  708TIP3    H223760   3.738   0.040   1.112  0.8174 -1.0179 -0.1747
  709TIP3   OH223761   0.314   6.145   8.431 -0.1925  0.8797 -0.2075
  709TIP3    H123762   0.227   6.168   8.461 -0.2499  1.4602 -0.7902
  709TIP3    H223763   0.300   6.103   8.346  0.0067 -0.1770  0.2676
  710TIP3   OH223764   3.549   6.397   0.825 -0.0877  0.0405  1.0099
  710TIP3    H123765   3.498   6.447   0.762 -1.6532  0.1683  2.3144
  710TIP3    H223766   3.639   6.426   0.811 -0.3948  0.1204 -1.0647
  711TIP3   OH223767   5.630   4.341   8.513 -1.2853 -0.7899  0.3075
  711TIP3    H123768   5.703   4.285   8.489 -1.7243 -1.7315  1.1096
  711TIP3    H223769   5.613   4.393   8.435  1.5057  0.9156  0.6863
  712TIP3   OH223770   0.130   0.257   3.748  0.4038  0.2961  0.1504
  712TIP3    H123771   0.153   0.319   3.678  2.0225  1.0891  1.3248
  712TIP3    H223772   0.091   0.311   3.816 -2.5946 -0.6737 -0.6410
  713TIP3   OH223773   2.175   3.434   8.138 -0.1437 -0.4875 -0.1275
  713TIP3    H123774   2.095   3.480   8.164 -0.5227 -1.5023  0.6073
  713TIP3    H223775   2.229   3.435   8.217 -0.0224 -0.9969 -0.1989
  714TIP3   OH223776   5.204   3.020   3.363  0.2249 -0.2974 -0.1545
  714TIP3    H123777   5.288   2.976   3.349  0.7244  0.7894 -0.7029
  714TIP3    H223778   5.199   3.033   3.457  1.2768  0.7371 -0.2205
  715TIP3   OH223779   0.023   4.677   1.382 -0.1773  0.0542  0.1959
  715TIP3    H123780  -0.072   4.668   1.386 -0.1718 -0.3646 -0.5014
  715TIP3    H223781   0.051   4.675   1.473 -0.9614  1.6658  0.5011
  716TIP3   OH223782   6.772   0.716   0.715 -0.5002 -0.1383  0.4761
  716TIP3    H123783   6.687   0.752   0.692 -0.6831 -1.0675 -0.4160
  716TIP3    H223784   6.753   0.649   0.781 -0.4859 -0.4500  0.1669
  717TIP3   OH223785   3.219   1.610   3.296 -0.3670  0.2138 -0.2415
  717TIP3    H123786   3.265   1.678   3.345  1.3813 -0.7193 -0.5118
  717TIP3    H223787   3.167   1.564   3.362  1.0285 -0.2586  0.5865
  718TIP3   OH223788   0.979   2.142   2.745 -0.1235 -0.6404  0.1814
  718TIP3    H123789   0.953   2.120   2.835 -1.2364  0.7108  0.2341
  718TIP3    H223790   0.901   2.123   2.692  0.8043 -2.2480 -0.6676
  719TIP3   OH223791   2.021   5.691   0.621 -0.0709  0.0015 -0.2325
  719TIP3    H123792   2.056   5.663   0.706 -0.4775  0.2550  0.0227
  719TIP3    H223793   1.938   5.643   0.613 -0.1941  0.2310 -0.3321
  720TIP3   OH223794   2.881   3.250   0.445 -0.3546 -0.6499  0.3576
  720TIP3    H123795   2.932   3.269   0.366 -0.3816 -2.2085 -0.0816
  720TIP3    H223796   2.795   3.289   0.428 -0.2593 -0.6958 -0.2598
  721TIP3   OH223797   2.601   0.387   0.815  0.1748  0.0933 -0.5450
  721TIP3    H123798   2.575   0.423   0.901  1.2215  0.8323 -0.5194
  721TIP3    H223799   2.559   0.445   0.752 -1.3867 -1.0086 -0.5844
  722TIP3   OH223800   0.075   5.860   8.063  0.4061 -0.6201 -0.2355
  722TIP3    H123801  -0.011   5.869   8.022  1.1977 -0.6145 -1.9835
  722TIP3    H223802   0.089   5.766   8.071 -0.0589 -0.6213  0.7807
  723TIP3   OH223803   3.422   5.948   1.837 -0.7928  0.0959 -0.2100
  723TIP3    H123804   3.415   5.953   1.742  0.3043 -1.2448 -0.4036
  723TIP3    H223805   3.513   5.922   1.853 -0.1666  2.8115  1.3476
  724TIP3   OH223806   0.106   5.761   1.101  0.1893  0.5705  0.3424
  724TIP3    H123807   0.172   5.827   1.077  0.3292  0.1532 -0.4489
  724TIP3    H223808   0.032   5.779   1.043  0.9108 -1.0764 -1.2069
  725TIP3   OH223809   4.572   2.467   0.691 -0.1234 -0.1187 -0.6750
  725TIP3    H123810   4.650   2.412   0.681 -0.2933 -0.1286 -2.0412
  725TIP3    H223811   4.576   2.528   0.618 -0.3631  1.2046  0.3706
  726TIP3   OH223812   5.609   1.148   0.845  0.3634 -0.2450 -0.0151
  726TIP3    H123813   5.532   1.151   0.900  1.4765 -0.4912  1.6299
  726TIP3    H223814   5.600   1.067   0.795 -0.1049 -0.6389  0.6905
  727TIP3   OH223815   5.890   0.461   2.970  0.3274  0.3342 -0.2394
  727TIP3    H123816   5.804   0.490   2.940  0.1123 -0.4498 -0.4070
  727TIP3    H223817   5.889   0.366   2.957  0.8232  0.1823  0.7482
  728TIP3   OH223818   4.517   5.331   1.967  0.4441 -0.1019  0.0685
  728TIP3    H123819   4.498   5.246   2.006  0.6367 -0.2291 -0.1149
  728TIP3    H223820   4.475   5.394   2.026 -1.3415 -0.4128 -0.8106
  729TIP3   OH223821   6.086   5.968   3.238  0.2514 -0.4676  0.3650
  729TIP3    H123822   6.017   5.994   3.299 -0.3263 -0.0416 -0.4571
  729TIP3    H223823   6.073   5.874   3.225  1.5630 -0.9765  2.3635
  730TIP3   OH223824   1.299   1.227   0.489 -0.3719 -0.4765 -0.0846
  730TIP3    H123825   1.301   1.292   0.418 -0.9913 -0.5298 -0.1545
  730TIP3    H223826   1.211   1.235   0.526  0.9606  2.0563  3.0011
  731TIP3   OH223827   5.213   0.831   2.864  0.2196 -0.1388  0.6521
  731TIP3    H123828   5.288   0.861   2.916  0.5900  1.3530 -0.6676
  731TIP3    H223829   5.253   0.792   2.786 -0.3595 -1.0418  0.7967
  732TIP3   OH223830   1.431   2.150   1.314 -0.4346  0.3016 -0.6619
  732TIP3    H123831   1.412   2.127   1.223  0.0049  0.4897 -0.8069
  732TIP3    H223832   1.407   2.072   1.365 -2.9896  1.0005 -0.6319
  733TIP3   OH223833   0.362   6.749   3.894  0.5498 -0.0873  0.2350
  733TIP3    H123834   0.314   6.715   3.970  0.7643  1.7154  1.2430
  733TIP3    H223835   0.299   6.807   3.850  1.1314  0.6891  0.3999
  734TIP3   OH223836   1.739   0.073   1.031  0.1011  0.1798  0.2091
  734TIP3    H123837   1.792   0.114   1.099 -3.0052  3.3368  0.9969
  734TIP3    H223838   1.745   0.132   0.956 -1.1299 -0.1144 -0.1530
  735TIP3   OH223839   4.501   0.174   1.749 -0.1943  0.4671 -0.0198
  735TIP3    H123840   4.555   0.117   1.694  1.1652  1.8019 -0.1422
  735TIP3    H223841   4.470   0.242   1.689 -0.5162  0.7218  0.4328
  736TIP3   OH223842   4.118   0.759   0.028  0.4611  0.5486 -0.2973
  736TIP3    H123843   4.065   0.839   0.022 -0.4801 -0.1687 -1.9569
  736TIP3    H223844   4.077   0.709   0.099 -1.1864 -0.0355 -1.6159
  737TIP3   OH223845   0.266   1.153   0.171  0.4030 -0.1827 -0.3740
  737TIP3    H123846   0.200   1.217   0.145  1.1949  1.5813  1.6894
  737TIP3    H223847   0.253   1.141   0.265  1.4825 -1.6512 -0.3702
  738TIP3   OH223848   0.016   6.681   1.222  0.4668 -0.3208 -0.9666
  738TIP3    H123849   0.010   6.677   1.127 -1.2307  2.5381 -1.0832
  738TIP3    H223850   0.107   6.704   1.240  1.1419 -2.1400 -1.7437
  739TIP3   OH223851   5.959   5.766   1.977  0.0488  0.8065  0.0604
  739TIP3    H123852   5.908   5.708   2.033  1.1054 -1.6476 -1.3541
  739TIP3    H223853   5.895   5.823   1.936 -1.3980 -1.0420 -0.3803
  740TIP3   OH223854   0.148   5.093   8.630  0.0256  0.0188 -0.0117
  740TIP3    H123855   0.103   5.065   8.710  0.7679  2.9073  1.5547
  740TIP3    H223856   0.240   5.099   8.656  0.3817  0.3525 -1.3050
  741TIP3   OH223857   2.756   0.765   0.453  0.4302  0.2338  0.2971
  741TIP3    H123858   2.779   0.700   0.387 -1.4999  1.3294 -1.5473
  741TIP3    H223859   2.704   0.830   0.406 -1.1507  1.0032  2.9310
  742TIP3   OH223860   6.516   0.499   2.989  0.3851  0.1009  0.4066
  742TIP3    H123861   6.430   0.457   2.996 -0.1519  1.3065  1.6753
  742TIP3    H223862   6.567   0.440   2.934 -0.6593 -1.6290  1.1986
  743TIP3   OH223863   0.502   0.727   0.992  0.1915  0.0752 -0.0146
  743TIP3    H123864   0.487   0.814   0.955  0.7903  0.3869  0.4683
  743TIP3    H223865   0.484   0.667   0.919  0.3313  0.6319 -0.5121
  744TIP3   OH223866   0.603   3.017   2.814  0.5257  0.5649  0.7660
  744TIP3    H123867   0.560   3.100   2.836  1.9832  1.2839  1.0080
  744TIP3    H223868   0.587   2.961   2.890  0.4799  1.0131  1.0941
  745TIP3   OH223869   1.414   3.575   2.347  0.3736 -0.1458 -0.0603
  745TIP3    H123870   1.436   3.483   2.360 -0.1594 -0.2275  0.2936
  745TIP3    H223871   1.482   3.608   2.289  0.6468 -0.7290 -0.0765
  746TIP3   OH223872   0.946   6.646   2.883 -0.2090 -0.5332 -0.5520
  746TIP3    H123873   0.863   6.598   2.884 -0.5672  0.0232 -1.8153
  746TIP3    H223874   1.012   6.579   2.903 -1.1097 -0.4937  3.1656
  747TIP3   OH223875   2.390   0.679   0.001 -0.3510  0.4111 -0.0004
  747TIP3    H123876   2.469   0.625   0.001 -0.5741  0.0874 -0.2751
  747TIP3    H223877   2.385   0.715  -0.087 -1.7471 -1.3888 -0.7366
  748TIP3   OH223878   2.279   0.480   0.350 -0.4723 -0.6758 -0.3939
  748TIP3    H123879   2.228   0.427   0.289 -1.1539  0.3668 -0.7665
  748TIP3    H223880   2.266   0.570   0.320 -1.9541  0.0418  2.0639
  749TIP3   OH223881   3.227   2.456   2.612 -0.1435 -0.1381 -0.0878
  749TIP3    H123882   3.177   2.411   2.680 -1.1118  0.8494 -0.1187
  749TIP3    H223883   3.221   2.399   2.536 -1.8707  0.2761 -0.3100
  750TIP3   OH223884   5.585   3.501   1.778 -0.4530  0.0347 -0.4294
  750TIP3    H123885   5.636   3.445   1.837  2.4985  1.2622 -1.6264
  750TIP3    H223886   5.535   3.557   1.837  0.3972 -0.4996  0.8560
  751TIP3   OH223887   6.735   5.326   3.209  0.7247 -1.0129 -0.4772
  751TIP3    H123888   6.759   5.281   3.290  2.9590  1.6736  0.4917
  751TIP3    H223889   6.658   5.377   3.232  0.7581 -1.0284 -0.3292
  752TIP3   OH223890   6.395   2.821   1.629  0.9519  0.3477 -0.9762
  752TIP3    H123891   6.328   2.840   1.563 -0.7958  0.1268  0.6529
  752TIP3    H223892   6.354   2.846   1.712  2.3105 -1.2775  0.2443
  753TIP3   OH223893   2.271   1.871   0.515 -0.1014  0.2702  0.1463
  753TIP3    H123894   2.238   1.945   0.566 -0.3159  1.1758 -1.2765
  753TIP3    H223895   2.212   1.866   0.440  0.9701 -0.2506 -0.6700
  754TIP3   OH223896   3.724   5.882   2.927  0.4046  0.4238 -0.0338
  754TIP3    H123897   3.702   5.790   2.913  0.5393  0.6531 -2.1978
  754TIP3    H223898   3.820   5.885   2.919  0.4437  0.6796  0.5303
  755TIP3   OH223899   1.049   1.596   3.238  0.0812  0.5267 -0.1238
  755TIP3    H123900   1.144   1.595   3.237  0.0915 -0.3206  0.5058
  755TIP3    H223901   1.026   1.648   3.315  0.1070 -2.4591  2.0483
  756TIP3   OH223902   1.605   5.260   3.583 -0.3059 -0.7761  0.4861
  756TIP3    H123903   1.697   5.284   3.573 -1.0196  1.7868 -0.7603
  756TIP3    H223904   1.574   5.313   3.656 -0.6898 -2.1391  1.3577
  757TIP3   OH223905   6.411   4.077   2.709 -0.4952  0.5682  0.5441
  757TIP3    H123906   6.393   3.984   2.696 -1.0295  0.4799  1.8200
  757TIP3    H223907   6.396   4.117   2.622  0.5159 -0.6323 -0.2100
  758TIP3   OH223908   5.177   0.032   2.197  0.2764 -0.0698  0.4720
  758TIP3    H123909   5.191   0.115   2.243 -1.0573  2.1325 -2.7469
  758TIP3    H223910   5.266   0.001   2.176  1.0280 -1.7067  4.9708
  759TIP3   OH223911   0.185   3.827   7.494  0.1110  0.3192  0.3871
  759TIP3    H123912   0.243   3.865   7.560 -0.7968  1.1927  0.7098
  759TIP3    H223913   0.109   3.885   7.493 -1.1061 -1.2218  0.5338
  760TIP3   OH223914   2.481   5.548   8.410 -0.6565  0.2274  0.3649
  760TIP3    H123915   2.458   5.513   8.324  0.0809  1.4357 -0.3591
  760TIP3    H223916   2.398   5.579   8.446 -0.6010  2.4866 -1.2531
  761TIP3   OH223917   5.924   4.771   2.062 -0.3491 -0.0018 -0.2424
  761TIP3    H123918   5.875   4.853   2.061 -0.9074 -0.2948  0.9388
  761TIP3    H223919   5.945   4.757   2.155  1.1745 -0.3579 -0.6178
  762TIP3   OH223920   5.074   6.427   3.765 -0.4047 -0.0075  0.0620
  762TIP3    H123921   5.060   6.498   3.703 -1.0167  0.0482  0.2594
  762TIP3    H223922   5.011   6.360   3.738 -1.2421  0.3354  1.0970
  763TIP3   OH223923   5.363   4.051   2.081 -0.4048 -0.1737  0.1585
  763TIP3    H123924   5.456   4.030   2.066 -0.3184 -0.6099  1.2223
  763TIP3    H223925   5.319   4.025   2.000  0.3999  0.0506 -0.3644
  764TIP3   OH223926   4.239   3.936   3.780 -0.1328  0.2373  0.0965
  764TIP3    H123927   4.323   3.926   3.826 -1.3101 -1.6772  2.0372
  764TIP3    H223928   4.188   3.995   3.835 -0.3645  0.7499 -0.6520
  765TIP3   OH223929   3.457   4.283   0.448 -0.6299 -0.0075  0.1231
  765TIP3    H123930   3.456   4.345   0.375 -0.0443  0.1263  0.2188
  765TIP3    H223931   3.381   4.306   0.501 -0.8290  0.1560 -0.2314
  766TIP3   OH223932   6.704   4.295   1.359 -0.2569 -0.8816  0.4040
  766TIP3    H123933   6.675   4.380   1.325  0.5813 -0.2248  1.2652
  766TIP3    H223934   6.630   4.262   1.409 -0.4493 -0.4574  0.3983
  767TIP3   OH223935   4.699   5.899   0.934  0.3420 -0.0542  0.4153
  767TIP3    H123936   4.714   5.991   0.911  0.2112  0.6301  2.7880
  767TIP3    H223937   4.784   5.857   0.921 -0.0763 -0.1392 -2.6858
  768TIP3   OH223938   4.729   2.249   8.256  0.1460  0.3365  0.7125
  768TIP3    H123939   4.723   2.227   8.164 -0.3268 -1.1472  1.0788
  768TIP3    H223940   4.715   2.166   8.302  1.0485  0.9087  2.1022
  769TIP3   OH223941   0.138   2.339   8.077 -0.3530 -0.1721  0.7574
  769TIP3    H123942   0.139   2.245   8.061 -2.5516 -0.6721  2.9899
  769TIP3    H223943   0.219   2.356   8.125  0.4747 -0.7092 -0.3949
  770TIP3   OH223944   2.605   0.307   2.565  0.2330  0.6625  0.2494
  770TIP3    H123945   2.523   0.347   2.538 -0.9360 -1.5781  0.2740
  770TIP3    H223946   2.617   0.336   2.656 -1.5007 -0.4065  0.8538
  771TIP3   OH223947   0.242   2.407   1.002 -0.1400 -0.2538 -0.4464
  771TIP3    H123948   0.312   2.457   0.959 -0.5115  1.1964  0.5487
  771TIP3    H223949   0.243   2.437   1.093 -1.6699 -0.6221 -0.2757
  772TIP3   OH223950   2.499   3.282   2.994  0.3006  0.0842 -0.1106
  772TIP3    H123951   2.405   3.291   2.976  0.3590  1.4294  0.1399
  772TIP3    H223952   2.531   3.372   3.000  1.5749 -0.3552  0.0227
  773TIP3   OH223953   3.498   3.198   3.912  0.2290  0.3371 -0.2335
  773TIP3    H123954   3.481   3.106   3.933 -1.7888  0.6643 -0.2093
  773TIP3    H223955   3.421   3.226   3.862  0.3263  2.2776  0.6157
  774TIP3   OH223956   1.771   5.635   3.366 -0.1553  0.1508  0.3053
  774TIP3    H123957   1.690   5.684   3.380  0.1440  0.7682 -0.0383
  774TIP3    H223958   1.831   5.669   3.432  0.3030  0.8478 -0.4377
  775TIP3   OH223959   2.238   1.872   1.647  0.1063 -0.4654 -0.1014
  775TIP3    H123960   2.316   1.885   1.593 -0.2494 -0.3857 -0.6080
  775TIP3    H223961   2.253   1.788   1.690  0.1579 -0.8015 -0.7570
  776TIP3   OH223962   4.076   5.280   3.935  0.2651  0.4975 -0.8061
  776TIP3    H123963   4.028   5.319   3.862 -0.7193  2.2649  0.7009
  776TIP3    H223964   4.008   5.243   3.991  0.5871  2.6236  1.1339
  777TIP3   OH223965   6.053   3.596   1.926  0.4131 -0.4369  0.6239
  777TIP3    H123966   6.092   3.565   1.845 -1.2411  0.6610 -0.6776
  777TIP3    H223967   6.106   3.672   1.951 -0.3677  0.5937 -0.7134
  778TIP3   OH223968   0.332   5.194   2.368  0.7948  0.2984  0.1394
  778TIP3    H123969   0.335   5.239   2.452  2.0975  0.5821 -0.0303
  778TIP3    H223970   0.274   5.119   2.382  0.4013  0.7676  1.0707
  779TIP3   OH223971   6.001   3.282   0.144  0.3056 -0.4245  0.1749
  779TIP3    H123972   5.914   3.309   0.113 -0.9434 -1.0507  2.8556
  779TIP3    H223973   6.022   3.206   0.091 -0.7054 -0.1858 -0.6177
  780TIP3   OH223974   5.240   0.605   1.829 -0.1314  0.3639  0.0355
  780TIP3    H123975   5.169   0.547   1.800  0.8190 -0.8485  0.0659
  780TIP3    H223976   5.255   0.663   1.754  1.3082 -1.7825 -1.4496
  781TIP3   OH223977   6.756   1.995   0.233  0.6773 -0.2197 -0.0990
  781TIP3    H123978   6.830   1.952   0.189 -0.6634 -1.8156 -0.9072
  781TIP3    H223979   6.764   1.967   0.325  1.5709  0.3767  0.0232
  782TIP3   OH223980   3.510   5.386   2.171  0.7473 -0.1216  0.5660
  782TIP3    H123981   3.476   5.476   2.174 -3.2604 -1.4259  0.6507
  782TIP3    H223982   3.471   5.349   2.091  3.6955 -1.3947 -0.3952
  783TIP3   OH223983   2.852   2.628   1.065  0.2690 -0.1810 -0.4859
  783TIP3    H123984   2.876   2.568   0.994  2.4664  1.7980 -1.5373
  783TIP3    H223985   2.916   2.699   1.060  0.5586  0.1116  3.4892
  784TIP3   OH223986   0.583   5.364   2.871 -0.2718  0.1307 -0.2401
  784TIP3    H123987   0.591   5.456   2.896 -1.1024  0.9559 -2.6840
  784TIP3    H223988   0.496   5.358   2.831  0.0983 -1.5364 -0.8574
  785TIP3   OH223989   2.687   3.096   1.080 -0.5970 -0.1034 -0.1656
  785TIP3    H123990   2.741   3.027   1.119 -0.9220 -1.1158 -1.4418
  785TIP3    H223991   2.676   3.160   1.150  0.0623 -1.1423  0.9300
  786TIP3   OH223992   5.802   1.661   2.565  0.8778 -0.0332 -0.0072
  786TIP3    H123993   5.750   1.581   2.558  0.8516  0.0060 -0.2436
  786TIP3    H223994   5.885   1.640   2.523  0.5937  0.3069 -0.7528
  787TIP3   OH223995   0.993   3.629   0.167 -0.1177 -0.0424  0.3767
  787TIP3    H123996   1.021   3.541   0.142 -1.0118  0.0495 -1.1124
  787TIP3    H223997   0.912   3.616   0.215 -0.7373 -0.0216 -0.6238
  788TIP3   OH223998   5.808   6.619   0.655 -0.4867  0.2118 -0.0893
  788TIP3    H123999   5.813   6.714   0.666 -1.5100  0.1843  0.8994
  788TIP3    H224000   5.771   6.607   0.568  0.9826  0.6628 -0.8108
  789TIP3   OH224001   1.891   5.414   3.579  0.0280  0.2960  0.4727
  789TIP3    H124002   1.860   5.449   3.663  0.1582  1.3179  0.1050
  789TIP3    H224003   1.963   5.471   3.554 -0.4913  0.4764 -0.6977
  790TIP3   OH224004   4.971   0.874   8.720 -0.0653  0.1524 -0.1291
  790TIP3    H124005   4.895   0.924   8.751  0.7139  0.9977  0.4887
  790TIP3    H224006   4.974   0.890   8.626 -1.9883 -1.7809 -0.5837
  791TIP3   OH224007   1.696   6.767   1.233 -0.2201 -0.3526 -0.4798
  791TIP3    H124008   1.731   6.783   1.146 -0.1787 -0.5733 -0.5037
  791TIP3    H224009   1.628   6.700   1.221  0.2569 -0.8909 -0.2508
  792TIP3   OH224010   0.414   3.681   7.798  0.2614  0.3183 -0.0160
  792TIP3    H124011   0.323   3.694   7.822  0.4357  1.2933  0.1587
  792TIP3    H224012   0.446   3.768   7.775  0.2898 -0.3987 -3.2094
  793TIP3   OH224013   4.783   2.565   2.580 -0.2067 -0.0964  0.2485
  793TIP3    H124014   4.843   2.540   2.510 -1.8518  0.9911 -1.6612
  793TIP3    H224015   4.769   2.485   2.630  1.2879 -0.8184 -0.4268
  794TIP3   OH224016   2.373   4.225   7.776 -0.7167 -0.4656 -0.1577
  794TIP3    H124017   2.296   4.264   7.817 -0.6634  0.0005 -0.4869
  794TIP3    H224018   2.441   4.292   7.784 -0.9068 -0.0367 -1.6585
  795TIP3   OH224019   4.573   0.718   0.768  0.0393 -0.1218  0.2394
  795TIP3    H124020   4.503   0.707   0.833 -0.4670  0.7411 -0.1503
  795TIP3    H224021   4.607   0.629   0.755  0.7491 -0.2129  2.3242
  796TIP3   OH224022   3.234   6.034   3.487  0.4376 -0.2703  0.3826
  796TIP3    H124023   3.227   5.957   3.431 -0.4094 -0.2524  0.4516
  796TIP3    H224024   3.274   6.001   3.568 -0.5380 -0.7875  0.6724
  797TIP3   OH224025   3.821   1.736   1.258 -0.7438  0.1393  0.1324
  797TIP3    H124026   3.794   1.649   1.287  3.1804 -1.8536 -1.3948
  797TIP3    H224027   3.887   1.719   1.191  1.2358  4.2701  0.7133
  798TIP3   OH224028   2.289   4.919   0.131 -0.1652 -0.6725 -0.5937
  798TIP3    H124029   2.268   4.886   0.218  1.4845  0.8101  0.4487
  798TIP3    H224030   2.205   4.945   0.094 -0.8841 -1.1706  0.6204
  799TIP3   OH224031   1.579   1.593   2.445  0.2042 -0.3144  0.3570
  799TIP3    H124032   1.581   1.647   2.366  0.6342 -1.9458 -0.8027
  799TIP3    H224033   1.655   1.621   2.496  1.6113 -1.1370 -1.1808
  800TIP3   OH224034   1.160   6.198   0.330  0.3133  0.4037  1.1405
  800TIP3    H124035   1.136   6.105   0.336 -0.7376  0.4290 -1.3772
  800TIP3    H224036   1.091   6.244   0.379  0.6306 -0.0831  2.0749
  801TIP3   OH224037   4.573   2.260   2.757 -0.2289 -0.3375  0.7264
  801TIP3    H124038   4.600   2.339   2.805  0.6990 -0.9519  1.2464
  801TIP3    H224039   4.479   2.272   2.743  0.3462  2.2393 -1.8430
  802TIP3   OH224040   5.527   2.190   8.400 -0.2063  0.0077 -0.1009
  802TIP3    H124041   5.612   2.203   8.359 -0.7715  1.1007 -0.9661
  802TIP3    H224042   5.545   2.134   8.476  1.1279 -0.5287 -0.7931
  803TIP3   OH224043   3.690   0.022   2.390 -0.1319  0.0595 -0.1656
  803TIP3    H124044   3.761   0.087   2.389  0.5081 -0.6237 -0.5947
  803TIP3    H224045   3.719  -0.044   2.453 -0.1713 -0.4467 -0.6678
  804TIP3   OH224046   1.675   5.150   4.048 -0.0989 -0.3932  0.2264
  804TIP3    H124047   1.671   5.131   4.142 -2.4983  0.8117  0.4771
  804TIP3    H224048   1.664   5.246   4.043 -2.4947 -0.6466 -1.2728
  805TIP3   OH224049   6.113   4.891   1.938  0.7139 -0.5943  0.1244
  805TIP3    H124050   6.168   4.912   2.014  1.4450  0.4925 -0.6834
  805TIP3    H224051   6.034   4.852   1.976  0.6978  0.7219  1.5089
  806TIP3   OH224052   4.193   2.574   0.162 -0.1563 -0.0833  0.9627
  806TIP3    H124053   4.287   2.570   0.142  0.1864  0.2880  2.4134
  806TIP3    H224054   4.184   2.527   0.245 -1.6371 -2.1878 -0.2988
  807TIP3   OH224055   0.698   2.981   0.251  0.4444  0.2008 -0.0120
  807TIP3    H124056   0.786   2.980   0.289  0.2343  2.5734  0.6695
  807TIP3    H224057   0.662   3.066   0.275 -1.9684 -0.6055 -0.4948
  808TIP3   OH224058   0.601   5.666   0.621  0.0214 -0.1994  0.1778
  808TIP3    H124059   0.688   5.704   0.604  0.2107 -1.3671 -1.7267
  808TIP3    H224060   0.541   5.719   0.568  0.0846 -1.5265 -1.2802
  809TIP3   OH224061   6.833   5.522   1.312 -0.5470 -0.1502 -0.6462
  809TIP3    H124062   6.867   5.610   1.327 -0.7209 -0.2211  0.2067
  809TIP3    H224063   6.741   5.527   1.338 -0.2042 -0.9327  0.8228
  810TIP3   OH224064   5.215   5.795   2.343  0.0129 -0.1805  0.0151
  810TIP3    H124065   5.201   5.727   2.408  0.0235 -0.6391 -0.4556
  810TIP3    H224066   5.128   5.815   2.309  0.0644 -0.3292 -0.2101
  811TIP3   OH224067   0.749   2.453   3.458 -0.0839  0.3251 -0.0666
  811TIP3    H124068   0.738   2.361   3.482  0.7048  0.4581  0.8548
  811TIP3    H224069   0.665   2.493   3.479 -0.1097  0.0079  0.4662
  812TIP3   OH224070   2.292   6.839   8.083 -0.3319 -0.0353 -0.4232
  812TIP3    H124071   2.340   6.825   8.002  0.5350 -0.9427  0.2183
  812TIP3    H224072   2.319   6.926   8.112  0.7934 -0.4328 -0.1973
  813TIP3   OH224073   0.931   2.458   3.239 -0.3784 -0.2767  0.2715
  813TIP3    H124074   0.899   2.483   3.326  2.8517  1.4223  1.1154
  813TIP3    H224075   0.994   2.388   3.255 -0.2267 -0.3880 -0.7685
  814TIP3   OH224076   3.003   2.255   7.902  0.1396 -0.6196  0.9774
  814TIP3    H124077   2.934   2.316   7.928  0.2803 -0.6315  1.3959
  814TIP3    H224078   2.957   2.178   7.869 -0.0390  0.0147 -0.3001
  815TIP3   OH224079   1.320   5.405   2.949  0.3906 -0.0849 -0.5895
  815TIP3    H124080   1.243   5.379   2.900 -0.1016 -0.3608  0.3049
  815TIP3    H224081   1.391   5.351   2.913 -0.2528 -1.3390 -0.0200
  816TIP3   OH224082   0.264   3.523   7.550  0.3079  0.0320 -0.0247
  816TIP3    H124083   0.191   3.584   7.561 -0.0918 -0.3728 -0.3781
  816TIP3    H224084   0.332   3.556   7.608  0.0330  0.7128 -0.0847
  817TIP3   OH224085   3.087   5.119   2.600  0.3626  0.1698 -0.3910
  817TIP3    H124086   3.031   5.192   2.627 -0.1872 -0.8653  1.4785
  817TIP3    H224087   3.026   5.053   2.568  0.6982 -0.1671 -0.3407
  818TIP3   OH224088   3.207   3.485   8.398 -0.5733  0.0604 -0.0288
  818TIP3    H124089   3.163   3.502   8.315  1.0358 -0.7813 -1.1024
  818TIP3    H224090   3.279   3.548   8.401  0.6157 -1.2427 -0.2809
  819TIP3   OH224091   1.185   5.147   2.553  0.4222  0.1722 -0.0646
  819TIP3    H124092   1.142   5.062   2.562  0.4984  0.2304  1.0899
  819TIP3    H224093   1.113   5.210   2.559  0.3166  0.1864 -1.3459
  820TIP3   OH224094   2.135   4.223   2.485 -0.6956 -0.4297  0.3679
  820TIP3    H124095   2.114   4.240   2.393 -0.4962 -0.6027  0.2878
  820TIP3    H224096   2.053   4.193   2.524 -0.4747 -1.6908 -0.0822
  821TIP3   OH224097   5.041   1.059   1.122 -0.2043 -0.0424  0.3856
  821TIP3    H124098   5.010   1.065   1.213 -0.1736  0.9286  0.3424
  821TIP3    H224099   4.970   1.014   1.076 -0.5153  0.0609  0.7542
  822TIP3   OH224100   0.287   5.321   3.614  0.6795 -0.2043  0.5557
  822TIP3    H124101   0.253   5.409   3.598 -0.1154 -0.3029  1.5931
  822TIP3    H224102   0.382   5.333   3.623  1.1843 -0.0459 -3.3117
  823TIP3   OH224103   2.734   6.664   4.024  0.1029 -0.1954  0.9016
  823TIP3    H124104   2.745   6.733   3.959 -1.1860 -0.7828  0.0188
  823TIP3    H224105   2.752   6.583   3.976 -3.7980 -0.9247  0.2978
  824TIP3   OH224106   4.384   4.085   2.916 -0.4773 -0.1814  0.2686
  824TIP3    H124107   4.354   3.997   2.893 -1.6982  0.5830 -1.2572
  824TIP3    H224108   4.466   4.096   2.868  0.1915 -0.7974  1.2241
  825TIP3   OH224109   1.930   2.139   1.429 -0.6434 -0.6697  0.2130
  825TIP3    H124110   1.947   2.177   1.342 -0.7054  0.4325  0.6683
  825TIP3    H224111   1.838   2.158   1.446 -0.9890 -2.0333 -0.0125
  826TIP3   OH224112   3.721   5.392   4.060  0.4155  0.6196 -0.4342
  826TIP3    H124113   3.791   5.333   4.087  0.2192 -0.8046 -2.8102
  826TIP3    H224114   3.734   5.471   4.114  3.8162  0.4244 -0.7671
  827TIP3   OH224115   5.600   4.444   8.266 -0.7529 -0.0211 -0.1811
  827TIP3    H124116   5.682   4.490   8.283 -0.2451 -1.0519  0.2721
  827TIP3    H224117   5.571   4.477   8.181  0.0973  0.4056 -0.3157
  828TIP3   OH224118   5.835   4.606   0.031 -0.3053 -0.0895  0.6988
  828TIP3    H124119   5.749   4.635   0.060 -1.1757 -1.9812  0.2038
  828TIP3    H224120   5.871   4.681  -0.016 -1.2292  1.0863  1.7946
  829TIP3   OH224121   0.598   4.267   2.102 -0.2229  0.2240 -0.2754
  829TIP3    H124122   0.513   4.288   2.063  0.5693  0.6884 -1.8689
  829TIP3    H224123   0.615   4.177   2.075  0.5648  0.7178 -1.5443
  830TIP3   OH224124   5.566   3.808   2.804 -0.2694 -0.2003  0.8837
  830TIP3    H124125   5.546   3.901   2.794  1.1762  0.3741  2.6625
  830TIP3    H224126   5.494   3.773   2.856  0.0843  0.3870  1.8015
  831TIP3   OH224127   4.767   4.535   1.132 -0.5804 -0.5687  0.6688
  831TIP3    H124128   4.681   4.569   1.156 -0.4425 -1.1751  2.1271
  831TIP3    H224129   4.812   4.610   1.091 -1.5272 -0.0426  0.5607
  832TIP3   OH224130   0.429   1.184   2.901 -0.2163  0.0975 -0.4041
  832TIP3    H124131   0.438   1.248   2.830  0.1837  1.6315  0.9438
  832TIP3    H224132   0.335   1.172   2.911 -0.3455  1.2501 -0.0694
  833TIP3   OH224133   1.429   1.679   0.980 -0.2622 -0.6308 -0.0564
  833TIP3    H124134   1.452   1.587   0.964  0.5051 -0.3751 -0.4771
  833TIP3    H224135   1.512   1.721   1.003 -0.5469  0.0357 -0.2290
  834TIP3   OH224136   4.054   4.443   0.288 -0.4913 -0.1505 -0.1908
  834TIP3    H124137   4.042   4.421   0.196  1.4814 -1.2606 -0.2175
  834TIP3    H224138   4.017   4.368   0.335  0.7093 -0.7302 -0.1497
  835TIP3   OH224139   2.503   0.462   2.815  0.3009  0.2203 -0.7679
  835TIP3    H124140   2.440   0.392   2.833  1.3766 -0.7678 -0.7620
  835TIP3    H224141   2.484   0.528   2.882  0.0939 -0.6256  0.0374
  836TIP3   OH224142   0.321   6.342   1.486 -0.3169  0.3305  0.4924
  836TIP3    H124143   0.264   6.294   1.427  0.8999 -1.1217  0.4416
  836TIP3    H224144   0.409   6.306   1.470  0.6129  2.3522  0.6885
  837TIP3   OH224145   3.616   4.456   3.844  0.2631  0.1238 -0.2369
  837TIP3    H124146   3.694   4.416   3.806 -0.0407 -0.1096 -0.6254
  837TIP3    H224147   3.625   4.549   3.826  0.4456  0.0937 -0.3014
  838TIP3   OH224148   1.636   1.710   1.310 -0.0502  0.6442 -0.3230
  838TIP3    H124149   1.580   1.714   1.388 -1.0801 -1.2083 -0.8974
  838TIP3    H224150   1.711   1.657   1.338 -1.0632 -1.1777 -0.8881
  839TIP3   OH224151   1.235   1.396   1.623 -0.1874 -0.6516  0.0598
  839TIP3    H124152   1.229   1.362   1.534  0.2452  0.0252 -0.2377
  839TIP3    H224153   1.247   1.490   1.612  0.9499 -0.6924  0.8029
  840TIP3   OH224154   5.943   4.381   2.588  0.4520  0.2475  0.3259
  840TIP3    H124155   6.028   4.401   2.548 -0.4353  0.6599 -1.4219
  840TIP3    H224156   5.893   4.339   2.519 -0.1394 -1.8262  1.9054
  841TIP3   OH224157   5.468   2.696   2.472  0.0245 -0.1832  0.1628
  841TIP3    H124158   5.408   2.761   2.435  1.3489 -0.3835 -2.5664
  841TIP3    H224159   5.414   2.618   2.484 -1.2862  0.9448  2.2955
  842TIP3   OH224160   4.102   1.536   1.414  0.3278  0.0209  0.4182
  842TIP3    H124161   4.117   1.523   1.508 -0.3192 -1.6703  0.3222
  842TIP3    H224162   4.095   1.447   1.379 -1.5754  0.6317 -0.8889
  843TIP3   OH224163   5.858   1.389   0.332  0.4206  0.1806 -0.6454
  843TIP3    H124164   5.934   1.352   0.286 -0.5839  0.3234 -2.5269
  843TIP3    H224165   5.799   1.314   0.342  0.9074 -0.0139  1.1497
  844TIP3   OH224166   4.466   3.525   2.834 -0.6889 -0.6298  0.3940
  844TIP3    H124167   4.444   3.454   2.774  1.0023 -2.2300  1.5268
  844TIP3    H224168   4.518   3.482   2.903 -0.5639  1.5266  1.7317
  845TIP3   OH224169   5.321   2.916   8.185  0.3210 -0.1692  0.0789
  845TIP3    H124170   5.281   2.871   8.259  1.0260 -0.5319  0.2402
  845TIP3    H224171   5.364   2.992   8.222  0.5252 -0.2546  0.0189
  846TIP3   OH224172   3.822   6.212   8.634  0.0861 -0.1771 -0.3798
  846TIP3    H124173   3.858   6.165   8.559  1.9891 -0.8286  0.8652
  846TIP3    H224174   3.875   6.182   8.709 -1.3753  0.8527  1.1348
  847TIP3   OH224175   4.154   3.701   2.209 -0.4248  0.7833  0.0343
  847TIP3    H124176   4.189   3.714   2.297  1.3451  0.2726 -0.5548
  847TIP3    H224177   4.204   3.762   2.154  1.8353 -2.1003 -1.3296
  848TIP3   OH224178   2.867   4.136   2.903  0.2616  0.7028  0.3715
  848TIP3    H124179   2.857   4.053   2.950 -0.7798  1.1186  0.9388
  848TIP3    H224180   2.883   4.111   2.813 -1.6725 -0.1618  0.2094
  849TIP3   OH224181   2.501   2.190   8.015 -0.3631 -0.3017 -0.0818
  849TIP3    H124182   2.519   2.100   7.986  0.0730 -0.5519  0.8954
  849TIP3    H224183   2.574   2.210   8.074  0.4711  1.3388 -1.5835
  850TIP3   OH224184   4.234   6.657   1.930 -0.1273 -0.6633  0.2536
  850TIP3    H124185   4.144   6.666   1.960  0.5279 -2.2850  3.0516
  850TIP3    H224186   4.241   6.567   1.900  0.3977 -0.3449 -0.6123
  851TIP3   OH224187   6.815   2.364   8.358  0.2537  0.4731  0.5601
  851TIP3    H124188   6.751   2.342   8.290 -0.2105  0.3029  1.0467
  851TIP3    H224189   6.805   2.458   8.371 -1.2249  0.1598  1.9495
  852TIP3   OH224190   1.800   5.544   2.075 -0.4445  0.2008 -0.2413
  852TIP3    H124191   1.871   5.523   2.015  0.2979  0.3279  0.5805
  852TIP3    H224192   1.809   5.638   2.091 -2.8245  1.0197 -2.7003
  853TIP3   OH224193   5.584   4.570   0.519 -0.5773 -0.1078 -0.1936
  853TIP3    H124194   5.628   4.501   0.468  3.3457  2.1360 -0.2594
  853TIP3    H224195   5.649   4.594   0.586 -3.5365  0.5945  2.6685
  854TIP3   OH224196   1.423   6.806   3.568  0.3624 -0.7074  0.1280
  854TIP3    H124197   1.337   6.810   3.609  0.7579 -0.7903  0.9773
  854TIP3    H224198   1.445   6.897   3.548  0.8669 -0.4950  1.5832
  855TIP3   OH224199   4.014   6.103   0.840  0.0168  0.0295  0.0214
  855TIP3    H124200   4.004   6.010   0.858 -2.8165  0.0870 -0.6871
  855TIP3    H224201   4.033   6.108   0.746 -0.6305  0.1659 -0.1083
  856TIP3   OH224202   2.037   2.307   8.530  0.4094 -1.1238 -0.6084
  856TIP3    H124203   1.949   2.292   8.563 -0.2599 -2.0107 -2.6143
  856TIP3    H224204   2.089   2.235   8.565  0.4618 -0.4395  0.8177
  857TIP3   OH224205   3.482   2.203   0.067 -0.0313  0.2765  0.3909
  857TIP3    H124206   3.443   2.234  -0.015  0.3019  2.2621  0.9409
  857TIP3    H224207   3.562   2.159   0.040  0.9154  2.2992 -0.2898
  858TIP3   OH224208   3.928   1.881   1.481  0.2041  0.6639  0.7070
  858TIP3    H124209   3.886   1.914   1.401  0.9503  0.6413  0.2982
  858TIP3    H224210   3.893   1.792   1.492 -0.2992  0.8612  0.6987
  859TIP3   OH224211   3.340   2.667   0.878  0.5647 -0.1039 -0.6438
  859TIP3    H124212   3.429   2.632   0.882  0.9552  0.9293 -0.1213
  859TIP3    H224213   3.334   2.704   0.790 -0.2337 -2.3788 -1.6427
  860TIP3   OH224214   4.962   3.321   1.751  0.9322 -0.2652  0.4727
  860TIP3    H124215   4.919   3.281   1.827  0.4341 -1.2999 -0.3317
  860TIP3    H224216   5.052   3.334   1.779  0.4650  0.5493  1.6727
  861TIP3   OH224217   2.985   4.214   2.405  0.1226  0.2078 -0.3862
  861TIP3    H124218   3.006   4.190   2.495  0.3590 -0.3713 -0.5923
  861TIP3    H224219   2.920   4.284   2.414  1.6255  1.5786  0.2546
  862TIP3   OH224220   6.318   0.072   2.594  0.4110  1.0331 -0.2714
  862TIP3    H124221   6.326   0.159   2.632 -0.4377  1.5779 -1.2832
  862TIP3    H224222   6.225   0.050   2.601  0.6886 -0.0298  0.4404
  863TIP3   OH224223   3.740   2.361   8.469  0.3937 -0.6263 -0.2254
  863TIP3    H124224   3.664   2.394   8.422  1.3336  0.3338 -1.0988
  863TIP3    H224225   3.756   2.274   8.431 -0.7157 -1.1769  0.5119
  864TIP3   OH224226   1.680   5.993   3.321  0.1518  0.0903  0.8304
  864TIP3    H124227   1.700   6.010   3.229 -1.5206 -0.5663  0.3070
  864TIP3    H224228   1.605   6.050   3.340 -0.9252 -1.3751  1.1191
  865TIP3   OH224229   5.966   4.622   8.095 -0.6885 -0.5085 -0.1718
  865TIP3    H124230   6.055   4.643   8.125 -1.6614  0.3140  2.3921
  865TIP3    H224231   5.954   4.676   8.017  0.9789 -0.4983 -0.4604
  866TIP3   OH224232   0.996   4.741   2.010  1.0125 -0.6975  0.2568
  866TIP3    H124233   1.007   4.670   2.074  2.4388 -0.6216  0.1286
  866TIP3    H224234   0.930   4.799   2.049  3.4388  0.5680  2.8215
  867TIP3   OH224235   1.203   5.918   0.758 -0.2135 -0.4599 -0.2750
  867TIP3    H124236   1.230   5.908   0.849 -0.8506  3.5151  0.5162
  867TIP3    H224237   1.247   5.998   0.728 -0.9841 -0.9746 -3.1055
  868TIP3   OH224238   2.846   6.286   2.552 -0.1715 -0.0050  0.1479
  868TIP3    H124239   2.794   6.340   2.493 -0.2026 -0.6113 -0.3921
  868TIP3    H224240   2.811   6.197   2.541  0.6884 -0.3495  0.0984
  869TIP3   OH224241   5.672   4.758   3.238 -0.0090  0.2542  0.6141
  869TIP3    H124242   5.738   4.689   3.228  1.1489  1.3719  0.2105
  869TIP3    H224243   5.707   4.831   3.188 -1.6436  0.8466  0.2991
  870TIP3   OH224244   2.604   4.060   8.552  0.2318  0.1930 -0.4024
  870TIP3    H124245   2.621   4.147   8.514  0.1853  0.6681  0.6238
  870TIP3    H224246   2.549   4.016   8.487  0.2749  0.9176 -0.9490
  871TIP3   OH224247   2.013   1.763   1.231 -0.7481 -0.3350 -0.0772
  871TIP3    H124248   1.950   1.728   1.169 -0.5306  0.4707 -0.7644
  871TIP3    H224249   1.994   1.717   1.313 -1.9439 -0.4093 -0.3789
  872TIP3   OH224250   0.495   5.185   1.419 -0.3942  0.2862 -0.3005
  872TIP3    H124251   0.578   5.176   1.373  1.0540  1.8242  1.8551
  872TIP3    H224252   0.465   5.095   1.433  1.4933 -0.3547 -0.1314
  873TIP3   OH224253   3.405   2.293   8.618 -0.4235  0.0076  0.5190
  873TIP3    H124254   3.344   2.238   8.569 -1.8354  2.0584 -0.1316
  873TIP3    H224255   3.439   2.355   8.554  2.0816 -0.7743  0.9648
  874TIP3   OH224256   0.865   2.133   0.701 -0.3308  0.3631 -0.4239
  874TIP3    H124257   0.932   2.084   0.749  0.5573  0.8097 -1.1786
  874TIP3    H224258   0.859   2.089   0.616 -0.8258  0.4725 -0.4485
  875TIP3   OH224259   1.890   2.687   3.218 -0.1205 -0.3435  0.2091
  875TIP3    H124260   1.976   2.645   3.218  0.1790  0.2446  0.8529
  875TIP3    H224261   1.884   2.728   3.132  0.7603  0.6211  0.5877
  876TIP3   OH224262   3.554   2.871   2.927  0.0192 -0.4171 -0.4531
  876TIP3    H124263   3.638   2.868   2.882 -0.3588 -0.1650 -1.1852
  876TIP3    H224264   3.489   2.870   2.857 -0.5829 -0.2771  0.0948
  877TIP3   OH224265   4.502   3.711   8.200  0.1911  0.1448 -0.6549
  877TIP3    H124266   4.587   3.671   8.217  0.2133  0.8792  1.2371
  877TIP3    H224267   4.439   3.653   8.243 -0.0857  0.4916 -0.5857
  878TIP3   OH224268   0.096   4.606   2.369  0.1334 -0.4527 -0.7609
  878TIP3    H124269   0.033   4.608   2.297 -0.5623 -1.7426 -0.2307
  878TIP3    H224270   0.156   4.535   2.346  0.6180 -0.0904 -0.6290
  879TIP3   OH224271   3.940   2.656   1.546 -0.0530 -0.3177 -0.0540
  879TIP3    H124272   4.002   2.656   1.619  1.1001  0.8237 -0.9851
  879TIP3    H224273   3.979   2.598   1.481  0.2590  0.6827 -0.7865
  880TIP3   OH224274   4.814   3.854   8.653 -0.7080 -0.0670  0.4596
  880TIP3    H124275   4.760   3.929   8.627 -0.0918  0.9925  2.0524
  880TIP3    H224276   4.762   3.777   8.629 -1.6792  0.8678 -0.5579
  881TIP3   OH224277   4.689   2.762   2.176  0.0574  0.1966 -0.4349
  881TIP3    H124278   4.618   2.826   2.168 -0.7952 -0.5296  0.8452
  881TIP3    H224279   4.645   2.680   2.198  1.0306 -1.1448 -3.0685
  882TIP3   OH224280   1.079   6.020   1.174 -0.2162 -0.2720 -0.1540
  882TIP3    H124281   1.001   5.968   1.154 -1.0552  0.2879  1.5176
  882TIP3    H224282   1.152   5.964   1.147 -1.1638 -1.1113 -1.0632
  883TIP3   OH224283   2.991   6.664   0.363 -0.4857  0.3875 -0.7774
  883TIP3    H124284   3.036   6.704   0.289  0.8848 -0.3057 -0.3371
  883TIP3    H224285   2.904   6.642   0.328 -1.3388  3.6274 -1.0696
  884TIP3   OH224286   1.049   3.857   0.024  0.5440 -0.5379 -0.3877
  884TIP3    H124287   1.132   3.892   0.058 -0.0605  0.8336 -0.2638
  884TIP3    H224288   1.035   3.777   0.074  1.3544 -0.3266  0.2080
  885TIP3   OH224289   6.216   3.429   0.093  0.1885  0.2019 -0.6776
  885TIP3    H124290   6.137   3.376   0.105  0.3151  0.1327 -0.1413
  885TIP3    H224291   6.185   3.507   0.047 -0.0765 -0.1241 -1.0619
  886TIP3   OH224292   5.117   1.381   0.461  0.0696  0.1580 -0.2703
  886TIP3    H124293   5.135   1.296   0.421 -0.2060 -0.0440  0.0301
  886TIP3    H224294   5.077   1.360   0.545 -3.2751  0.5108 -1.6149
  887TIP3   OH224295   5.670   0.823   0.405  0.7817  0.0838  0.3474
  887TIP3    H124296   5.670   0.727   0.400 -1.5872 -0.1388  2.4333
  887TIP3    H224297   5.587   0.849   0.366  1.9612  1.4464 -1.3673
  888TIP3   OH224298   2.712   3.808   1.562 -0.0113  0.0125 -0.6752
  888TIP3    H124299   2.644   3.864   1.522  0.0995  0.0794 -0.7704
  888TIP3    H224300   2.753   3.764   1.488  1.2497  1.3106 -0.7887
  889TIP3   OH224301   1.410   2.816   0.129  0.0413  0.0026 -0.7545
  889TIP3    H124302   1.423   2.725   0.155  0.8265  0.5339  0.8513
  889TIP3    H224303   1.318   2.821   0.103  0.1175 -1.3413 -1.3428
  890TIP3   OH224304   5.932   4.676   1.408 -0.2633  0.3002 -0.2538
  890TIP3    H124305   5.931   4.644   1.318  0.4450  0.3636 -0.2870
  890TIP3    H224306   5.847   4.720   1.418 -0.6624 -0.3637 -0.6423
  891TIP3   OH224307   6.488   2.646   8.555  0.0939  0.1007  0.0690
  891TIP3    H124308   6.434   2.716   8.520 -1.0914 -1.3789 -1.2164
  891TIP3    H224309   6.533   2.685   8.630 -2.2947  1.5724  0.8277
  892TIP3   OH224310   5.773   6.070   8.746 -0.9410  0.2334  0.0342
  892TIP3    H124311   5.738   6.158   8.760 -4.3286 -1.0755  0.9939
  892TIP3    H224312   5.744   6.046   8.658 -0.2157 -0.0119 -0.1476
  893TIP3   OH224313   3.652   3.753   0.462  0.5067 -0.3427 -0.2512
  893TIP3    H124314   3.564   3.720   0.481  0.6930 -0.6723  0.0422
  893TIP3    H224315   3.656   3.838   0.506 -0.1828  0.3743 -1.4933
  894TIP3   OH224316   5.443   1.774   2.313 -0.0275  0.2158 -0.0536
  894TIP3    H124317   5.370   1.713   2.301 -0.9930  0.9400  1.7493
  894TIP3    H224318   5.401   1.858   2.331  1.2483  0.6841  0.8522
  895TIP3   OH224319   5.969   2.110   1.346 -0.0262  0.0043  0.7566
  895TIP3    H124320   5.980   2.091   1.439  1.0399 -0.9208  0.4635
  895TIP3    H224321   6.058   2.121   1.312 -0.3770 -0.0264 -0.2295
  896TIP3   OH224322   5.222   2.356   3.719 -0.6084  0.0924  0.0237
  896TIP3    H124323   5.189   2.289   3.659 -0.9798  0.0615  0.2609
  896TIP3    H224324   5.146   2.382   3.771 -0.1014 -0.6078  1.1803
  897TIP3   OH224325   6.400   2.448   2.693  0.4736 -0.2130 -0.0293
  897TIP3    H124326   6.451   2.396   2.632  1.4281 -0.0001  0.5753
  897TIP3    H224327   6.437   2.429   2.779 -0.1583  0.2958  0.3722
  898TIP3   OH224328   6.418   5.966   8.709 -0.2652 -0.2873  0.9479
  898TIP3    H124329   6.343   5.922   8.668  0.9353  0.6480 -2.6914
  898TIP3    H224330   6.379   6.037   8.759 -2.0060  2.0787 -3.2299
  899TIP3   OH224331   6.447   0.266   2.187 -0.0780 -0.1913 -0.0260
  899TIP3    H124332   6.362   0.223   2.185 -0.3929  0.2968  1.3507
  899TIP3    H224333   6.486   0.237   2.270 -0.5503  2.5279  1.2579
  900TIP3   OH224334   3.272   3.120   2.611  0.4625 -0.5563  0.0137
  900TIP3    H124335   3.259   3.126   2.706  1.5261 -0.6762  0.1732
  900TIP3    H224336   3.205   3.178   2.575  0.8634  0.4990  0.8941
  901TIP3   OH224337   4.591   1.993   0.103  0.0096 -0.2861  0.4449
  901TIP3    H124338   4.655   1.949   0.046  1.5617  2.2867  0.0158
  901TIP3    H224339   4.596   1.945   0.185  0.7653 -1.5963 -0.3229
  902TIP3   OH224340   0.078   0.756   1.969  0.4003 -0.4806 -0.8166
  902TIP3    H124341   0.084   0.680   2.027 -0.4673 -0.1710 -0.2923
  902TIP3    H224342   0.005   0.736   1.911  0.2249 -0.0912 -0.7329
  903TIP3   OH224343   4.859   2.821   2.584  0.2149  0.4349 -0.2504
  903TIP3    H124344   4.953   2.833   2.595  0.1252 -0.0585  1.2417
  903TIP3    H224345   4.848   2.726   2.574 -0.0472  0.5718 -1.3143
  904TIP3   OH224346   0.726   2.996   2.318 -0.5296  0.1533 -0.0950
  904TIP3    H124347   0.751   2.932   2.384  2.5487 -2.1247 -3.1037
  904TIP3    H224348   0.635   2.975   2.298 -1.0405 -0.0944  2.2458
  905TIP3   OH224349   6.265   4.038   3.561  0.1129  0.3040 -0.1317
  905TIP3    H124350   6.233   4.123   3.530 -0.0423  0.9287  1.6079
  905TIP3    H224351   6.356   4.034   3.531  0.2969  1.3511  0.2462
  906TIP3   OH224352   5.995   3.987   0.212 -0.0117 -0.1712 -0.1780
  906TIP3    H124353   5.904   4.004   0.233 -0.2445 -1.3312 -0.2291
  906TIP3    H224354   6.035   3.960   0.294  0.1790 -0.1306 -0.2551
  907TIP3   OH224355   5.292   0.919   1.176 -0.2246 -0.0858  0.2441
  907TIP3    H124356   5.201   0.945   1.158 -0.5983 -0.5188  1.4148
  907TIP3    H224357   5.325   0.988   1.234  0.3230  0.2634 -0.4728
  908TIP3   OH224358   2.306   4.731   1.947 -0.2240  0.2696 -0.2434
  908TIP3    H124359   2.263   4.722   2.032  0.1106 -0.6177 -0.1557
  908TIP3    H224360   2.364   4.807   1.958 -0.9828  0.8317 -0.0352
  909TIP3   OH224361   2.602   0.193   0.162 -0.2137 -0.3020 -0.1725
  909TIP3    H124362   2.638   0.132   0.098  0.0100  0.1098 -0.4364
  909TIP3    H224363   2.565   0.264   0.110  0.7273  0.4589  0.1821
  910TIP3   OH224364   1.450   6.054   0.200  0.1193 -0.0096  0.1902
  910TIP3    H124365   1.492   6.002   0.131 -1.4552 -0.3485 -0.5568
  910TIP3    H224366   1.492   6.026   0.281 -0.2171 -1.9910 -0.2750
  911TIP3   OH224367   0.762   1.910   2.878  0.4918 -0.0875  0.0480
  911TIP3    H124368   0.835   1.890   2.937  1.2038  0.0304 -0.7683
  911TIP3    H224369   0.794   1.887   2.791 -0.9462 -1.3276 -0.1948
  912TIP3   OH224370   4.350   5.453   0.689  0.2780  0.8082  0.5787
  912TIP3    H124371   4.346   5.535   0.640  1.4707  0.6156  0.1205
  912TIP3    H224372   4.318   5.387   0.628  1.6884  0.5802  0.0376
  913TIP3   OH224373   3.461   1.261   2.056  0.4060 -1.0249 -0.0877
  913TIP3    H124374   3.473   1.195   1.988  0.9004 -0.6519 -0.3684
  913TIP3    H224375   3.385   1.231   2.105  1.1869 -2.3203  0.3916
  914TIP3   OH224376   2.763   1.985   2.155 -0.4539  0.2278  0.1890
  914TIP3    H124377   2.776   2.019   2.067 -1.0130  1.6824  0.6352
  914TIP3    H224378   2.671   2.005   2.175 -0.3451 -0.1158  1.0784
  915TIP3   OH224379   0.909   0.356   0.240 -0.1579 -0.2481 -0.2298
  915TIP3    H124380   0.868   0.375   0.324  1.6623  0.4216  0.5549
  915TIP3    H224381   0.962   0.433   0.221  0.3513 -0.8625 -1.4269
  916TIP3   OH224382   4.264   6.133   2.939 -0.1536  0.0344 -0.1653
  916TIP3    H124383   4.343   6.186   2.927  0.5839 -0.9523  0.2110
  916TIP3    H224384   4.274   6.060   2.879 -0.5592 -0.3403  0.2147
  917TIP3   OH224385   3.779   2.957   2.329 -0.6008 -0.2682  0.5064
  917TIP3    H124386   3.817   2.939   2.243  1.6795  0.7109  1.2418
  917TIP3    H224387   3.794   3.051   2.342 -2.4503 -0.0424  1.2924
  918TIP3   OH224388   2.662   4.255   1.212 -0.2458  0.6251  0.1938
  918TIP3    H124389   2.709   4.248   1.128 -0.7192  1.4339 -0.1561
  918TIP3    H224390   2.570   4.250   1.187 -0.4850  3.1329  0.3707
  919TIP3   OH224391   4.057   1.581   2.494 -0.2923  0.5185  0.2445
  919TIP3    H124392   3.991   1.545   2.553 -0.6467 -0.2097 -0.5659
  919TIP3    H224393   4.046   1.531   2.413  0.5540  1.1103 -0.2512
  920TIP3   OH224394   2.978   4.479   3.477  0.3210 -0.1194  0.0018
  920TIP3    H124395   2.982   4.501   3.570 -0.0161 -0.3630  0.0742
  920TIP3    H224396   2.929   4.397   3.473 -0.4970  0.3757 -0.4610
  921TIP3   OH224397   3.308   0.143   2.234  0.0098 -0.2551  0.0814
  921TIP3    H124398   3.382   0.133   2.175  0.0362 -2.0697  0.3607
  921TIP3    H224399   3.346   0.139   2.322 -0.2175  0.8007  0.2510
  922TIP3   OH224400   2.885   3.379   4.053 -0.2803 -0.5571  0.4462
  922TIP3    H124401   2.887   3.284   4.039  1.3416 -0.3942 -0.6900
  922TIP3    H224402   2.796   3.405   4.028 -0.5893 -1.6949  0.2926
  923TIP3   OH224403   2.223   1.634   1.807 -0.8049 -0.2968 -0.6919
  923TIP3    H124404   2.235   1.612   1.900 -1.2406 -1.0962 -0.8181
  923TIP3    H224405   2.128   1.642   1.798 -0.6804  2.1444 -0.5496
  924TIP3   OH224406   1.878   4.200   8.654 -0.4496 -0.1976 -0.0186
  924TIP3    H124407   1.895   4.136   8.724  0.5937 -0.0984 -0.1742
  924TIP3    H224408   1.877   4.148   8.574 -0.3156 -0.1195 -0.0707
  925TIP3   OH224409   3.525   6.048   0.081 -0.3326  0.1575 -0.4261
  925TIP3    H124410   3.472   6.099   0.142  0.2667 -1.3351  1.4366
  925TIP3    H224411   3.533   6.104   0.004 -2.3540  1.5150  0.2603
  926TIP3   OH224412   0.854   4.355   2.488  0.4403 -0.1563 -0.3104
  926TIP3    H124413   0.776   4.375   2.437 -0.3511 -2.6498 -0.2047
  926TIP3    H224414   0.910   4.433   2.478 -2.0570  1.7800 -0.2510
  927TIP3   OH224415   1.638   1.167   1.077  0.3054  0.0470 -0.6589
  927TIP3    H124416   1.716   1.154   1.024 -0.4958  0.4480 -1.9720
  927TIP3    H224417   1.612   1.079   1.105  0.8751 -0.1377 -0.7002
  928TIP3   OH224418   0.285   6.099   2.421 -0.3519  0.3158  0.0788
  928TIP3    H124419   0.325   6.161   2.482  3.1670  0.5778 -2.1713
  928TIP3    H224420   0.333   6.017   2.437 -1.0433 -0.2647 -0.7585
  929TIP3   OH224421   4.652   5.718   0.542  0.4038  0.0386  0.1266
  929TIP3    H124422   4.748   5.721   0.546  0.6638  1.4203 -3.2152
  929TIP3    H224423   4.631   5.627   0.524  1.1884 -0.0829 -0.2028
  930TIP3   OH224424   0.949   2.671   8.560 -0.5633  0.6889  0.1832
  930TIP3    H124425   0.854   2.677   8.555 -0.4545  1.9719 -2.3749
  930TIP3    H224426   0.979   2.713   8.479  2.1314 -0.8217  0.2868
  931TIP3   OH224427   6.509   3.568   3.184 -0.3794  0.3953  0.3771
  931TIP3    H124428   6.492   3.662   3.188 -0.9810  0.3777 -1.0620
  931TIP3    H224429   6.581   3.554   3.246 -0.4964  1.7401  0.8531
  932TIP3   OH224430   3.471   4.353   2.649  0.1461  0.6431  0.1581
  932TIP3    H124431   3.428   4.322   2.729 -0.4996  0.2014 -0.3551
  932TIP3    H224432   3.458   4.448   2.650 -2.7164  0.3578 -1.0291
  933TIP3   OH224433   1.640   2.505   3.515  0.1645  0.3551  0.1889
  933TIP3    H124434   1.622   2.493   3.608  0.2875  1.1350  0.3194
  933TIP3    H224435   1.626   2.419   3.477  1.1553 -0.2327  1.0954
  934TIP3   OH224436   5.247   6.651   2.428  0.5775  0.5399 -0.4594
  934TIP3    H124437   5.211   6.653   2.517 -0.5155  1.8509 -0.9004
  934TIP3    H224438   5.267   6.559   2.412  1.5058  0.3777  1.4119
  935TIP3   OH224439   3.700   6.287   1.204 -0.6657  0.3679 -0.2374
  935TIP3    H124440   3.730   6.375   1.183 -0.8306  0.4456 -0.1484
  935TIP3    H224441   3.730   6.233   1.131 -0.5790  0.4997 -0.2995
  936TIP3   OH224442   1.086   0.131   1.782  0.3790 -0.5319  0.4173
  936TIP3    H124443   1.114   0.097   1.867  0.2885  0.3205  0.8011
  936TIP3    H224444   1.014   0.073   1.756  0.5594 -0.9424  0.8176
  937TIP3   OH224445   5.587   5.455   3.564 -0.4871 -0.1266 -0.5281
  937TIP3    H124446   5.570   5.529   3.622  1.5813  0.0592 -0.0593
  937TIP3    H224447   5.588   5.379   3.623 -0.1411 -0.1782 -0.5983
  938TIP3   OH224448   1.627   3.935   1.367  0.4047 -0.4940  0.4055
  938TIP3    H124449   1.677   3.875   1.423 -0.4128  1.0907  2.9730
  938TIP3    H224450   1.537   3.925   1.396  0.0218  0.7718 -0.2927
  939TIP3   OH224451   4.928   2.654   1.374  0.2666  0.0053  0.1020
  939TIP3    H124452   5.016   2.676   1.404 -0.1038  0.6286  0.7725
  939TIP3    H224453   4.913   2.565   1.405  0.4589  0.1015  0.4728
  940TIP3   OH224454   5.985   6.294   1.200  0.2544  0.1300 -0.0810
  940TIP3    H124455   5.923   6.335   1.140  0.2892  0.6001  0.2066
  940TIP3    H224456   6.069   6.301   1.156 -0.1006 -1.8994 -1.1990
  941TIP3   OH224457   1.962   0.166   3.307 -0.5139 -0.7323 -0.1125
  941TIP3    H124458   1.879   0.162   3.354 -0.1103 -1.6083  0.5496
  941TIP3    H224459   2.016   0.224   3.359 -0.7300 -0.0973 -0.5879
  942TIP3   OH224460   6.271   6.438   3.261 -0.0824 -0.4859 -0.0009
  942TIP3    H124461   6.307   6.446   3.349 -0.3997  2.3500 -0.0588
  942TIP3    H224462   6.192   6.492   3.262  1.0505  1.4105 -2.5567
  943TIP3   OH224463   3.628   2.589   2.289  0.1358  0.3174 -0.1470
  943TIP3    H124464   3.589   2.630   2.211 -0.5081 -1.4121 -0.8035
  943TIP3    H224465   3.569   2.613   2.360  0.1110  1.0091 -0.3916
  944TIP3   OH224466   0.060   5.578   8.425 -0.6435  0.0002 -0.3521
  944TIP3    H124467   0.123   5.515   8.390 -0.8801 -0.8331  0.7116
  944TIP3    H224468  -0.017   5.568   8.369 -0.8906 -1.0725  0.1697
  945TIP3   OH224469   0.007   5.775   2.961  0.1498 -0.5762 -0.0937
  945TIP3    H124470   0.026   5.820   2.879 -0.4959 -1.9565 -1.0314
  945TIP3    H224471  -0.028   5.844   3.018 -0.6757  0.1586 -1.4198
  946TIP3   OH224472   0.200   3.311   1.068  0.6297 -0.0341  0.2901
  946TIP3    H124473   0.253   3.351   0.999  2.0881 -0.6129  1.0527
  946TIP3    H224474   0.260   3.298   1.141 -0.1414 -2.2327  0.6115
  947TIP3   OH224475   2.616   4.706   3.056 -0.0815 -0.6016  0.4841
  947TIP3    H124476   2.559   4.764   3.105 -0.0962 -0.1394 -0.0641
  947TIP3    H224477   2.672   4.765   3.005  0.4682 -1.0551  0.5505
  948TIP3   OH224478   2.784   4.018   2.641  0.1094  0.7108  0.3410
  948TIP3    H124479   2.744   4.104   2.628 -0.4911  0.2261 -1.1485
  948TIP3    H224480   2.768   3.971   2.559 -1.7626 -1.7291  1.9816
  949TIP3   OH224481   1.059   0.799   0.070 -0.4258  0.0130  0.0716
  949TIP3    H124482   1.097   0.747  -0.002  0.6758  1.0563 -0.1373
  949TIP3    H224483   1.106   0.882   0.066 -0.9510  0.3936  1.4831
  950TIP3   OH224484   5.813   5.985   1.888 -0.0295 -0.0490 -0.3971
  950TIP3    H124485   5.741   5.984   1.951 -0.9977 -3.4765 -1.3038
  950TIP3    H224486   5.865   6.062   1.911 -1.8646  0.4296  2.7307
  951TIP3   OH224487   2.596   4.275   0.175 -0.1149  0.1738  0.1637
  951TIP3    H124488   2.511   4.234   0.187  0.5205 -1.4301 -0.5645
  951TIP3    H224489   2.643   4.258   0.257 -0.0149 -0.1338  0.0413
  952TIP3   OH224490   6.277   3.674   3.320  0.3398 -0.5683  0.1548
  952TIP3    H124491   6.311   3.610   3.257 -0.1563 -2.3357  1.6073
  952TIP3    H224492   6.347   3.738   3.329  0.5573 -0.4310 -1.9012
  953TIP3   OH224493   2.269   4.572   0.275 -0.6645  0.2972 -0.5064
  953TIP3    H124494   2.363   4.560   0.262 -0.4200 -1.4488  2.1931
  953TIP3    H224495   2.228   4.494   0.236 -0.6756 -0.5077  1.0518
  954TIP3   OH224496   6.289   2.305   2.120  0.2582 -0.4169  0.6685
  954TIP3    H124497   6.258   2.364   2.051 -1.0144 -0.1817  1.4012
  954TIP3    H224498   6.339   2.238   2.074 -0.7609 -0.3973 -0.5196
  955TIP3   OH224499   3.165   5.520   0.153  0.0375  0.0184  0.6796
  955TIP3    H124500   3.215   5.490   0.077  1.6696  1.5595  1.0633
  955TIP3    H224501   3.106   5.447   0.174 -0.9615 -0.2274 -2.4291
  956TIP3   OH224502   2.260   3.323   8.689  0.3101  0.3278  0.0467
  956TIP3    H124503   2.200   3.397   8.683 -0.5444 -0.4151 -0.9647
  956TIP3    H224504   2.258   3.283   8.602 -0.2051 -1.5799  0.8790
  957TIP3   OH224505   6.729   0.093   8.520  0.2353 -0.1040 -0.1986
  957TIP3    H124506   6.724   0.185   8.495  1.5998 -0.1664 -0.8007
  957TIP3    H224507   6.709   0.045   8.439  1.4543 -0.3129 -0.3970
  958TIP3   OH224508   5.397   0.626   3.176  0.0744  0.5172 -0.6743
  958TIP3    H124509   5.383   0.542   3.219  1.7861 -0.1679 -1.3719
  958TIP3    H224510   5.357   0.616   3.090 -0.0155  0.5467 -0.6367
  959TIP3   OH224511   0.860   0.693   3.023  0.5417 -0.1697  0.2085
  959TIP3    H124512   0.809   0.762   3.065 -0.5872 -0.0647 -1.2611
  959TIP3    H224513   0.833   0.696   2.931  2.0798 -1.1373 -0.3152
  960TIP3   OH224514   5.176   0.573   7.958  0.4304 -0.6496 -0.2089
  960TIP3    H124515   5.199   0.499   8.014  1.0569 -0.4170 -0.1490
  960TIP3    H224516   5.261   0.606   7.927  0.3800  1.6947  1.8759
  961TIP3   OH224517   2.757   4.359   2.466 -0.0849 -0.4665 -0.1725
  961TIP3    H124518   2.696   4.350   2.539  0.3028 -0.6309  0.1359
  961TIP3    H224519   2.770   4.454   2.457  0.7548 -0.4764  0.7282
  962TIP3   OH224520   2.328   1.289   0.876  0.1137 -0.0863  0.6635
  962TIP3    H124521   2.387   1.321   0.944  0.8930 -1.0268  0.4664
  962TIP3    H224522   2.323   1.194   0.892  0.7689 -0.4199 -0.9008
  963TIP3   OH224523   4.919   2.974   2.266 -0.4711  0.1337 -0.1015
  963TIP3    H124524   4.995   2.996   2.319 -0.4175  0.7252 -0.4229
  963TIP3    H224525   4.927   2.880   2.250  0.8426  0.3992 -1.1543
  964TIP3   OH224526   0.817   6.732   3.487 -0.2130 -0.2397  0.3135
  964TIP3    H124527   0.895   6.786   3.478 -0.3949 -0.1600 -0.9253
  964TIP3    H224528   0.748   6.782   3.442 -1.4170  0.4949  2.7448
  965TIP3   OH224529   5.647   1.251   2.929  0.0022 -0.2513 -0.0923
  965TIP3    H124530   5.740   1.266   2.944  0.6793 -3.1090 -0.8425
  965TIP3    H224531   5.628   1.169   2.975 -1.9651 -0.1535 -0.6210
  966TIP3   OH224532   1.176   3.122   0.346  0.6259  0.6538 -0.5342
  966TIP3    H124533   1.243   3.065   0.383  0.1166  0.4159  0.0480
  966TIP3    H224534   1.190   3.118   0.252 -0.1104 -1.3897 -0.6230
  967TIP3   OH224535   0.251   2.181   1.820 -0.2214  0.5045  0.0637
  967TIP3    H124536   0.285   2.118   1.756  0.7991  1.6297 -0.5457
  967TIP3    H224537   0.287   2.151   1.904 -0.0737  0.0602 -0.1515
  968TIP3   OH224538   0.090   1.810   2.502  0.7279  0.3456  0.4517
  968TIP3    H124539   0.130   1.742   2.555  0.9090 -0.8415 -1.1246
  968TIP3    H224540   0.092   1.776   2.413 -1.3579  1.3859 -0.0747
  969TIP3   OH224541   1.208   5.787   0.185  0.2867  0.4237 -0.1441
  969TIP3    H124542   1.209   5.823   0.096  0.6721 -1.0858 -0.7741
  969TIP3    H224543   1.291   5.815   0.223  0.0442  1.2247 -0.1789
  970TIP3   OH224544   3.188   1.115   0.243  0.0749  0.4057 -0.1527
  970TIP3    H124545   3.162   1.096   0.153  0.8848 -0.8929 -0.1476
  970TIP3    H224546   3.194   1.029   0.284  0.4445  0.9348  0.9299
  971TIP3   OH224547   0.114   4.876   2.811 -0.5273 -0.2375  0.7297
  971TIP3    H124548   0.124   4.790   2.851  0.2858 -0.2044  0.6089
  971TIP3    H224549   0.042   4.866   2.749  0.6164 -1.2752 -0.4693
  972TIP3   OH224550   3.156   2.883   2.420 -0.2875 -0.5477 -0.5658
  972TIP3    H124551   3.128   2.797   2.453 -1.8597  0.0732 -0.1669
  972TIP3    H224552   3.087   2.943   2.449  1.5314  1.1433  0.4953
  973TIP3   OH224553   1.905   4.561   1.609 -0.0657  0.6528  0.0743
  973TIP3    H124554   1.871   4.598   1.528 -0.2163  1.6111  0.5651
  973TIP3    H224555   2.000   4.562   1.599 -0.0992  0.1762 -0.3367
  974TIP3   OH224556   2.254   6.236   1.395  0.8926 -0.7178 -0.2365
  974TIP3    H124557   2.220   6.325   1.402  1.8305 -0.4882  2.3330
  974TIP3    H224558   2.286   6.229   1.305  1.6062  1.8478 -0.2373
  975TIP3   OH224559   4.960   6.759   2.283 -0.4394 -0.5180 -0.0912
  975TIP3    H124560   4.945   6.778   2.375 -1.7018 -0.3710 -0.3051
  975TIP3    H224561   5.045   6.799   2.263 -0.4205 -0.0735  0.8605
  976TIP3   OH224562   4.045   6.032   2.031  0.6916  0.1662 -0.1833
  976TIP3    H124563   4.128   6.076   2.016  1.2536 -1.1293 -1.0321
  976TIP3    H224564   3.995   6.047   1.951  0.8014 -0.5170 -0.3895
  977TIP3   OH224565   2.551   6.585   1.939  0.1426 -0.0141  0.1815
  977TIP3    H124566   2.467   6.541   1.954 -0.4222  1.8310  3.1384
  977TIP3    H224567   2.606   6.517   1.899 -1.9515 -2.0766  0.5574
  978TIP3   OH224568   5.240   0.450   0.134  0.5263  0.2126  0.3509
  978TIP3    H124569   5.290   0.418   0.209 -0.0154  0.0196  0.6322
  978TIP3    H224570   5.287   0.530   0.108  1.6367 -0.5602 -0.0982
  979TIP3   OH224571   4.329   0.957   0.115 -0.0340  0.0937  0.2709
  979TIP3    H124572   4.251   0.915   0.078 -0.7818  0.3421  1.4947
  979TIP3    H224573   4.373   0.888   0.164  1.7519 -0.6171 -2.1574
  980TIP3   OH224574   5.228   0.527   3.995 -0.7036 -0.1380  0.3925
  980TIP3    H124575   5.192   0.600   3.945 -0.2269  0.7417  1.3073
  980TIP3    H224576   5.175   0.452   3.969 -2.1713  0.8156  0.5210
  981TIP3   OH224577   5.798   4.062   0.536 -0.2168 -0.7898 -0.1747
  981TIP3    H124578   5.724   4.042   0.479  0.4313 -1.1814 -0.9011
  981TIP3    H224579   5.859   4.109   0.480 -0.8601  1.5552  0.9993
  982TIP3   OH224580   0.053   6.682   2.986 -0.3411 -0.0389  0.5571
  982TIP3    H124581   0.061   6.764   2.938 -1.4033  0.9074  1.9060
  982TIP3    H224582  -0.040   6.676   3.008 -0.1062 -1.0902  1.3751
  983TIP3   OH224583   5.246   4.429   2.415  0.2089  0.2261  1.1068
  983TIP3    H124584   5.228   4.345   2.374  1.4126  0.8813 -0.8891
  983TIP3    H224585   5.329   4.458   2.376  0.1364  2.0635  2.1885
  984TIP3   OH224586   3.182   4.699   0.009  0.0029  0.2909  0.3339
  984TIP3    H124587   3.106   4.753  -0.012 -0.6542 -0.9965 -0.7415
  984TIP3    H224588   3.254   4.738  -0.040  0.1023  1.6117  1.4792
  985TIP3   OH224589   4.877   4.613   8.790 -0.1016  0.4255  0.1938
  985TIP3    H124590   4.867   4.569   8.705  1.9696 -2.0315  1.1108
  985TIP3    H224591   4.961   4.658   8.785  0.4512 -0.4592  1.2212
  986TIP3   OH224592   1.878   6.739   8.512  0.2616 -0.2275 -0.4118
  986TIP3    H124593   1.819   6.710   8.443  0.7913 -0.5594 -0.7365
  986TIP3    H224594   1.923   6.815   8.475  0.2909 -0.1879 -0.2969
  987TIP3   OH224595   2.656   0.063   8.705  0.4782 -0.3085  0.5974
  987TIP3    H124596   2.624  -0.027   8.698 -2.3292  0.4709  1.6984
  987TIP3    H224597   2.619   0.108   8.629 -0.4801  0.4528  1.4717
  988TIP3   OH224598   0.367   6.570   1.752 -0.3279 -0.5401  0.1852
  988TIP3    H124599   0.309   6.635   1.793  0.2699 -1.2090  2.2009
  988TIP3    H224600   0.322   6.487   1.765  0.2924 -0.8649  0.2717
  989TIP3   OH224601   6.727   5.548   2.464 -0.2115 -0.0061  0.2402
  989TIP3    H124602   6.781   5.531   2.541 -1.5056  0.8706  1.3987
  989TIP3    H224603   6.674   5.468   2.454  2.2267 -1.5335 -1.8399
  990TIP3   OH224604   0.110   2.209   3.121 -0.8174  0.7002 -0.4740
  990TIP3    H124605   0.041   2.263   3.159  0.5153  0.7546  2.0891
  990TIP3    H224606   0.165   2.272   3.073  0.1308  1.5538  1.6109
  991TIP3   OH224607   0.638   6.200   0.448 -0.4107  0.2077  0.2158
  991TIP3    H124608   0.697   6.169   0.516 -0.9196 -1.2483  0.0186
  991TIP3    H224609   0.670   6.158   0.368 -1.6877 -0.5764  0.1016
  992TIP3   OH224610   3.812   2.154   3.735 -0.1077  0.5446 -0.1502
  992TIP3    H124611   3.812   2.202   3.652 -0.5440  1.0368  0.1283
  992TIP3    H224612   3.725   2.113   3.739  0.4814 -0.8096 -0.6814
  993TIP3   OH224613   5.708   2.343   0.928 -0.0484 -0.4250  0.0889
  993TIP3    H124614   5.758   2.297   0.995  0.5180 -0.5805 -0.4403
  993TIP3    H224615   5.617   2.326   0.951  0.1498 -1.1245  0.3696
  994TIP3   OH224616   6.798   3.547   2.107  0.7063 -0.5468 -0.4484
  994TIP3    H124617   6.771   3.458   2.129  1.3783 -1.5976 -3.3587
  994TIP3    H224618   6.893   3.541   2.094  0.6687  0.3857 -1.3424
  995TIP3   OH224619   3.307   0.294   3.457  0.4824 -0.9439 -0.4345
  995TIP3    H124620   3.294   0.328   3.546 -1.6359 -2.0171 -0.2869
  995TIP3    H224621   3.339   0.369   3.407 -0.2898  0.2238  0.7684
  996TIP3   OH224622   3.718   2.128   8.741 -0.1253  0.3140  0.4199
  996TIP3    H124623   3.763   2.063   8.796  0.8747 -0.4121 -1.1774
  996TIP3    H224624   3.750   2.110   8.653 -0.1379  2.7289 -0.1361
  997TIP3   OH224625   3.171   5.335   3.373  0.2278  0.3108  0.4832
  997TIP3    H124626   3.146   5.242   3.375  1.4470 -0.1193 -1.3511
  997TIP3    H224627   3.196   5.350   3.282  0.3532  2.3845  0.8255
  998TIP3   OH224628   6.524   1.009   0.224 -1.0437  0.2410 -0.2460
  998TIP3    H124629   6.466   1.012   0.300  0.3834  1.3585  0.8551
  998TIP3    H224630   6.598   1.064   0.248  0.5357 -1.1929 -1.5550
  999TIP3   OH224631   2.871   3.148   0.881 -0.2126 -0.3566  0.0533
  999TIP3    H124632   2.848   3.228   0.833  0.2499  0.4164  1.0707
  999TIP3    H224633   2.799   3.136   0.943 -0.1282 -0.5379  0.1154
 1000TIP3   OH224634   3.436   3.451   0.262  0.6886 -0.0601  0.1168
 1000TIP3    H124635   3.509   3.397   0.292  1.4417 -0.3281 -1.9768
 1000TIP3    H224636   3.478   3.524   0.216 -0.3547  0.7239  0.3798
 1001TIP3   OH224637   4.598   0.222   1.236  0.1838 -0.3035 -0.2219
 1001TIP3    H124638   4.638   0.268   1.310 -0.9701 -0.1678  0.3354
 1001TIP3    H224639   4.665   0.224   1.168  0.8971  0.4489  0.4759
 1002TIP3   OH224640   4.818   3.744   2.974 -0.1174  0.3815 -0.1133
 1002TIP3    H124641   4.905   3.729   3.011 -0.1032  2.8424  1.0323
 1002TIP3    H224642   4.767   3.777   3.048 -2.0005 -0.8010 -0.8218
 1003TIP3   OH224643   4.638   1.457   1.702  0.8160 -0.6629  0.1798
 1003TIP3    H124644   4.698   1.450   1.777  0.7115  0.3316  0.3651
 1003TIP3    H224645   4.559   1.410   1.730  0.9515 -0.6930  0.5152
 1004TIP3   OH224646   5.930   1.437   0.592  0.0721 -0.0115 -0.2680
 1004TIP3    H124647   5.847   1.401   0.624  0.6927 -2.9323 -1.5508
 1004TIP3    H224648   5.914   1.457   0.500  1.0307 -1.8639 -0.9020
 1005TIP3   OH224649   6.696   0.716   2.766  0.4212  0.2427  0.0926
 1005TIP3    H124650   6.760   0.649   2.792  0.3966  1.2148  2.9754
 1005TIP3    H224651   6.614   0.667   2.753  1.0743 -0.6410 -0.8431
 1006TIP3   OH224652   2.466   6.613   7.648  0.0080 -0.3726  0.0534
 1006TIP3    H124653   2.553   6.610   7.607 -0.4345 -1.0513 -0.8452
 1006TIP3    H224654   2.424   6.531   7.623 -1.4778  0.6115 -0.8068
 1007TIP3   OH224655   4.780   0.810   2.685  0.2903  0.2289  0.1498
 1007TIP3    H124656   4.832   0.835   2.608 -0.7838  3.9799  0.4351
 1007TIP3    H224657   4.695   0.786   2.649  0.6921 -1.0088  0.0023
 1008TIP3   OH224658   4.790   1.567   1.320 -0.3306 -0.3090  0.3667
 1008TIP3    H124659   4.827   1.650   1.351 -0.1707  0.0991 -0.8526
 1008TIP3    H224660   4.708   1.592   1.279 -0.0097 -0.6696 -0.5109
 1009TIP3   OH224661   1.641   3.670   2.216 -0.2888  0.1920  0.6020
 1009TIP3    H124662   1.702   3.713   2.276  1.0553 -1.3083  0.3545
 1009TIP3    H224663   1.694   3.646   2.140 -1.4989  0.1262 -0.2475
 1010TIP3   OH224664   5.829   5.942   1.415  0.1364  0.3434  0.1004
 1010TIP3    H124665   5.880   5.910   1.341 -1.4712 -1.7554 -0.2058
 1010TIP3    H224666   5.866   5.898   1.491 -1.9108 -2.2955 -0.2889
 1011TIP3   OH224667   0.579   4.622   3.006  0.0921  0.5866  0.1239
 1011TIP3    H124668   0.592   4.704   2.957  1.7308 -0.1058 -0.7030
 1011TIP3    H224669   0.497   4.635   3.053  0.5130  2.8674  0.3589
 1012TIP3   OH224670   6.803   6.543   1.468 -0.3723 -0.1429 -0.1531
 1012TIP3    H124671   6.797   6.467   1.410 -3.6052  0.1142 -0.3151
 1012TIP3    H224672   6.823   6.616   1.409 -1.7823 -0.1782 -0.6938
 1013TIP3   OH224673   4.562   6.557   1.583 -0.3762 -0.1053 -0.2108
 1013TIP3    H124674   4.510   6.498   1.637 -2.1721  3.3019  2.2306
 1013TIP3    H224675   4.550   6.527   1.494 -3.5122 -1.7166  0.6401
 1014TIP3   OH224676   5.106   0.035   3.524 -0.3683 -0.4139  0.2807
 1014TIP3    H124677   5.060   0.106   3.478  1.2724 -0.6094 -1.8486
 1014TIP3    H224678   5.168   0.081   3.581  0.3953 -0.0822 -0.7771
 1015TIP3   OH224679   0.051   3.122   2.446 -0.8878  0.1218 -0.0398
 1015TIP3    H124680  -0.033   3.152   2.481 -0.8309  1.4139 -0.9368
 1015TIP3    H224681   0.032   3.104   2.354 -0.0907  0.8937 -0.3663
 1016TIP3   OH224682   0.611   3.712   0.111 -0.5774  0.7566 -0.1193
 1016TIP3    H124683   0.551   3.716   0.186 -2.2216  1.9556 -1.4074
 1016TIP3    H224684   0.624   3.619   0.094 -2.2451  0.4570  0.1162
 1017TIP3   OH224685   1.899   2.504   1.823  0.3805 -0.7203  0.5221
 1017TIP3    H124686   1.982   2.548   1.837 -0.6129  0.9358  1.6016
 1017TIP3    H224687   1.887   2.507   1.728  0.8773  0.3848  0.4744
 1018TIP3   OH224688   2.513   6.569   0.749  0.5503 -0.1062  0.2731
 1018TIP3    H124689   2.571   6.627   0.700 -0.4354  0.3269 -0.4180
 1018TIP3    H224690   2.556   6.484   0.747  0.2771 -0.2425 -1.8416
 1019TIP3   OH224691   3.997   5.873   2.914  0.1515 -0.0225 -0.5881
 1019TIP3    H124692   4.018   5.898   2.824  1.1101  0.9976 -0.1053
 1019TIP3    H224693   4.058   5.801   2.933  1.1326  0.8773 -0.2198
 1020TIP3   OH224694   4.978   5.265   8.570  0.1109  0.2332  0.0508
 1020TIP3    H124695   5.051   5.325   8.552  0.4035 -0.5957 -1.6442
 1020TIP3    H224696   4.901   5.311   8.537  0.2129  0.0579 -0.4344
 1021TIP3   OH224697   1.593   1.981   2.247  0.0568 -0.0994 -0.2391
 1021TIP3    H124698   1.597   1.954   2.339 -1.7097  0.2866  0.0004
 1021TIP3    H224699   1.603   1.900   2.197 -0.9395 -0.6086  0.3606
 1022TIP3   OH224700   4.542   5.948   2.425 -0.5621  0.0723  0.3171
 1022TIP3    H124701   4.555   5.957   2.331  0.3573  0.0675  0.4270
 1022TIP3    H224702   4.463   5.895   2.434 -0.0641 -0.8332 -0.4702
 1023TIP3   OH224703   1.175   3.972   2.557 -0.2957  0.3847  0.6395
 1023TIP3    H124704   1.189   3.882   2.527 -2.1991  0.0384  0.6914
 1023TIP3    H224705   1.263   4.005   2.575  0.5972 -0.8183 -1.2217
 1024TIP3   OH224706   1.965   5.978   3.319  0.6858 -0.3693  0.3408
 1024TIP3    H124707   1.957   6.066   3.357  3.3587 -0.3166  0.9311
 1024TIP3    H224708   1.878   5.939   3.332 -0.3606  1.9120  0.6913
 1025TIP3   OH224709   0.440   5.817   2.229 -0.2983 -0.4533  0.4172
 1025TIP3    H124710   0.358   5.775   2.256 -0.8177  0.9050  1.0095
 1025TIP3    H224711   0.453   5.788   2.139 -1.3636 -0.7808  0.3562
 1026TIP3   OH224712   5.399   0.057   1.007 -0.6113  0.0358 -0.2554
 1026TIP3    H124713   5.408   0.145   1.044  2.0638 -0.5033  0.6207
 1026TIP3    H224714   5.305   0.040   1.009 -1.0489  2.1257  1.3622
 1027TIP3   OH224715   0.609   5.026   2.514 -0.5089  0.3715 -0.1013
 1027TIP3    H124716   0.550   5.004   2.586  0.8750  0.5822  1.1600
 1027TIP3    H224717   0.690   5.054   2.557  0.9121 -0.9693 -1.7445
 1028TIP3   OH224718   1.518   5.960   0.985 -0.5839 -0.0247 -0.7318
 1028TIP3    H124719   1.511   6.049   1.020 -0.2098 -0.3106  0.1016
 1028TIP3    H224720   1.591   5.965   0.923  0.0419  0.0531 -0.0055
 1029TIP3   OH224721   6.669   1.608   0.810 -0.7413 -0.2008 -0.5513
 1029TIP3    H124722   6.677   1.696   0.847 -1.3976 -0.1231 -0.5846
 1029TIP3    H224723   6.641   1.553   0.884  2.5082 -1.0144  0.2523
 1030TIP3   OH224724   4.699   0.921   2.338 -0.1062  0.3657  0.6466
 1030TIP3    H124725   4.716   1.003   2.293  1.0052 -0.9826 -1.5497
 1030TIP3    H224726   4.605   0.906   2.326  0.1747  0.0097 -1.3504
 1031TIP3   OH224727   6.625   3.897   8.528  0.1855  0.1861 -0.0892
 1031TIP3    H124728   6.581   3.982   8.525 -0.7699 -0.2873  0.1625
 1031TIP3    H224729   6.689   3.900   8.456  0.0004  1.0212 -0.2255
 1032TIP3   OH224730   5.996   2.495   0.278 -0.3407 -0.2337  0.4169
 1032TIP3    H124731   5.979   2.557   0.207 -0.3244  0.7278  1.2283
 1032TIP3    H224732   5.985   2.409   0.238  0.9797  0.2477 -1.0947
 1033TIP3   OH224733   5.038   6.658   1.548  0.1307  0.0452 -0.8091
 1033TIP3    H124734   4.985   6.580   1.567  0.0709  0.4121  0.5761
 1033TIP3    H224735   5.014   6.721   1.615  0.6871  1.0348 -1.5110
 1034TIP3   OH224736   6.718   1.618   2.090  0.5901  0.5806 -0.1334
 1034TIP3    H124737   6.666   1.589   2.164  3.5248  1.0425  2.3202
 1034TIP3    H224738   6.702   1.712   2.083  1.3423  0.8167  0.9399
 1035TIP3   OH224739   4.842   1.469   1.897  0.7944  0.2875  0.2549
 1035TIP3    H124740   4.785   1.431   1.964  1.8384 -1.8653  0.0036
 1035TIP3    H224741   4.905   1.522   1.946  0.4535  0.1982  0.7994
 1036TIP3   OH224742   2.537   0.101   8.463  0.0421 -0.0763  0.1601
 1036TIP3    H124743   2.528   0.041   8.389  1.1178  0.7949 -0.6982
 1036TIP3    H224744   2.539   0.188   8.424  1.8683  0.3407  1.0839
 1037TIP3   OH224745   3.353   6.280   8.431  0.2276 -0.1149 -0.2450
 1037TIP3    H124746   3.285   6.219   8.401 -1.0810  0.7197  0.8918
 1037TIP3    H224747   3.326   6.365   8.396 -1.1799  0.8387  2.7866
 1038TIP3   OH224748   2.602   0.950   0.651 -0.3494 -0.0326 -0.1935
 1038TIP3    H124749   2.622   1.043   0.665  1.7183 -0.6410  1.4039
 1038TIP3    H224750   2.616   0.937   0.558 -0.3648  1.1822 -0.3872
 1039TIP3   OH224751   2.777   2.836   7.911  0.1263  0.1517 -0.2080
 1039TIP3    H124752   2.757   2.754   7.958  2.1813 -1.7759 -2.3995
 1039TIP3    H224753   2.700   2.890   7.924 -0.8838 -1.6635  2.2996
 1040TIP3   OH224754   2.035   6.452   1.202  0.8193  0.7743 -0.4141
 1040TIP3    H124755   2.053   6.390   1.131 -1.6186 -0.2062 -0.2749
 1040TIP3    H224756   2.041   6.538   1.160 -0.7165  0.2131 -1.9164
 1041TIP3   OH224757   5.244   6.242   1.762  0.1144 -1.0318 -0.1151
 1041TIP3    H124758   5.315   6.282   1.813 -0.8234  1.0573 -0.3151
 1041TIP3    H224759   5.180   6.214   1.828  0.6621 -1.9801  0.0186
 1042TIP3   OH224760   6.567   2.429   1.201  0.2986  0.4090 -0.1350
 1042TIP3    H124761   6.590   2.440   1.109 -0.2970  1.3160 -0.1950
 1042TIP3    H224762   6.633   2.480   1.248  0.9299 -0.5045 -0.0125
 1043TIP3   OH224763   1.833   6.537   1.374 -0.3064 -0.3435 -0.1980
 1043TIP3    H124764   1.808   6.592   1.300  0.2885 -0.5350 -0.5496
 1043TIP3    H224765   1.897   6.475   1.337 -0.0562 -0.4833  0.4576
 1044TIP3   OH224766   5.752   3.777   0.109 -0.2994 -0.4016 -0.6774
 1044TIP3    H124767   5.742   3.870   0.131  2.0586  0.3035 -2.1891
 1044TIP3    H224768   5.667   3.752   0.073 -1.2662  0.8850  0.5844
 1045TIP3   OH224769   3.124   0.826   2.865 -0.5782 -0.6415  0.2296
 1045TIP3    H124770   3.132   0.813   2.770  3.8764  0.4061  0.2563
 1045TIP3    H224771   3.143   0.740   2.903 -0.0754 -0.5603  0.1683
 1046TIP3   OH224772   1.093   0.236   2.287  0.0754  0.2751 -0.2207
 1046TIP3    H124773   1.025   0.193   2.235  0.4072 -0.4820 -0.0364
 1046TIP3    H224774   1.131   0.166   2.340  0.3197  0.8814  0.4210
 1047TIP3   OH224775   5.824   1.686   7.776 -0.2324  0.0947  0.0612
 1047TIP3    H124776   5.918   1.684   7.791  0.1690  1.5683 -1.8087
 1047TIP3    H224777   5.792   1.601   7.808  1.4661  0.1334  2.0597
 1048TIP3   OH224778   6.840   3.444   2.376 -0.2213  0.3131 -0.4211
 1048TIP3    H124779   6.928   3.461   2.342 -0.4442  0.6180 -0.8503
 1048TIP3    H224780   6.847   3.459   2.470  0.4194 -0.5941 -0.3007
 1049TIP3   OH224781   3.775   4.494   2.344  0.3247  0.1896 -0.7344
 1049TIP3    H124782   3.746   4.533   2.426  0.9968  1.0758 -0.8985
 1049TIP3    H224783   3.750   4.557   2.277 -1.3820 -1.1008 -1.4029
 1050TIP3   OH224784   6.511   0.413   0.298 -0.2979 -0.2830 -0.0424
 1050TIP3    H124785   6.534   0.358   0.222  1.7433  1.2806 -0.6685
 1050TIP3    H224786   6.498   0.351   0.369 -1.8228 -1.7839 -1.5337
 1051TIP3   OH224787   1.130   4.575   8.348  0.4203  0.0203  0.6036
 1051TIP3    H124788   1.127   4.591   8.254 -0.9595  1.1496  0.8077
 1051TIP3    H224789   1.205   4.626   8.379  0.4851  0.1672  0.2060
 1052TIP3   OH224790   3.876   1.193   0.249  0.0280  1.0837  0.3445
 1052TIP3    H124791   3.954   1.247   0.235  0.7281  0.3136  1.1528
 1052TIP3    H224792   3.885   1.162   0.339 -0.0170 -0.9030 -0.2894
 1053TIP3   OH224793   0.560   0.572   2.316 -0.0576  0.1145 -0.1489
 1053TIP3    H124794   0.542   0.629   2.390  0.3471 -1.4633  1.2067
 1053TIP3    H224795   0.628   0.618   2.267  0.6393  0.5662  1.1981
 1054TIP3   OH224796   4.358   1.362   1.748  0.5022  0.0471  0.8453
 1054TIP3    H124797   4.330   1.283   1.794  1.4271 -1.2094 -0.6491
 1054TIP3    H224798   4.277   1.405   1.722 -0.0125 -0.4581  1.5844
 1055TIP3   OH224799   5.730   6.495   2.437  0.1974 -0.6450  0.2726
 1055TIP3    H124800   5.709   6.471   2.527  0.5650 -0.3861  0.4272
 1055TIP3    H224801   5.667   6.445   2.384  0.2254 -1.0869  0.6477
 1056TIP3   OH224802   1.285   3.049   3.174  0.0318  0.5995 -0.5804
 1056TIP3    H124803   1.265   2.986   3.105  1.4619  1.3296 -1.7074
 1056TIP3    H224804   1.375   3.027   3.200 -0.4959  0.3167  1.0987
 1057TIP3   OH224805   0.736   3.185   8.751  0.3456 -0.0443 -0.0655
 1057TIP3    H124806   0.763   3.102   8.711  2.5902  0.6664 -0.1236
 1057TIP3    H224807   0.722   3.164   8.843  0.7067 -0.5277 -0.1189
 1058TIP3   OH224808   5.035   1.044   8.230 -0.2691 -0.2686 -0.0769
 1058TIP3    H124809   5.064   1.133   8.251 -0.5938  0.3510 -2.0460
 1058TIP3    H224810   5.027   1.044   8.135  0.0097 -2.5087 -0.1385
 1059TIP3   OH224811   5.497   3.413   8.514  0.0431  0.3180  0.3105
 1059TIP3    H124812   5.540   3.493   8.545 -1.3918  0.8088  1.1722
 1059TIP3    H224813   5.444   3.441   8.439 -2.8084  0.9566  2.3467
 1060TIP3   OH224814   1.714   6.034   3.979 -0.3459 -0.6051 -0.1190
 1060TIP3    H124815   1.660   6.097   4.027 -0.1921  1.5670 -2.5238
 1060TIP3    H224816   1.777   6.089   3.931  2.2052 -2.8848  0.4281
 1061TIP3   OH224817   6.774   1.239   0.310 -0.6548 -0.4827 -0.3328
 1061TIP3    H124818   6.692   1.237   0.360 -0.2073 -0.7597  0.4012
 1061TIP3    H224819   6.831   1.298   0.361 -0.3524 -0.3961 -0.7685
 1062TIP3   OH224820   6.448   5.237   8.604  0.1163  0.5528 -0.1343
 1062TIP3    H124821   6.509   5.286   8.548  1.1742 -0.5467  0.0092
 1062TIP3    H224822   6.502   5.203   8.675 -1.1747  1.7652  1.5144
 1063TIP3   OH224823   1.009   1.799   3.017  0.0703  0.1432 -0.0034
 1063TIP3    H124824   1.065   1.867   3.054 -0.6681  0.8640 -0.1889
 1063TIP3    H224825   0.996   1.738   3.090  0.3884  0.4207  0.2933
 1064TIP3   OH224826   1.228   0.037   1.987  0.2094 -0.4830  0.5883
 1064TIP3    H124827   1.242   0.033   2.082  0.9827 -1.4308  0.4444
 1064TIP3    H224828   1.188  -0.047   1.965 -1.4528  0.3311  0.2761
 1065TIP3   OH224829   0.497   3.513   1.339  0.3375 -0.6464  0.3378
 1065TIP3    H124830   0.480   3.556   1.256 -0.3979  0.5223  1.0705
 1065TIP3    H224831   0.589   3.534   1.359 -0.0658  0.7794  0.7765
 1066TIP3   OH224832   2.440   5.854   1.974  0.0553  0.5349  0.1282
 1066TIP3    H124833   2.447   5.759   1.983 -0.4130  0.1864 -2.3420
 1066TIP3    H224834   2.504   5.889   2.036  1.4608 -1.4671 -0.0872
 1067TIP3   OH224835   2.027   0.066   3.066 -0.1506 -0.1245 -0.1170
 1067TIP3    H124836   2.008   0.103   3.152  0.5334 -1.6333  0.7240
 1067TIP3    H224837   1.952   0.091   3.012  0.1290  2.1538  0.4584
 1068TIP3   OH224838   3.249   4.160   2.263  0.4718 -0.1694 -0.1266
 1068TIP3    H124839   3.315   4.132   2.326  1.8385  3.6016  0.3607
 1068TIP3    H224840   3.169   4.171   2.314  0.5619 -0.7613  0.1442
 1069TIP3   OH224841   4.659   5.360   0.020 -0.3473  0.3241 -0.6047
 1069TIP3    H124842   4.671   5.274  -0.020  0.2929 -0.3580  0.9401
 1069TIP3    H224843   4.637   5.340   0.111  1.6077  1.7751  0.2698
 1070TIP3   OH224844   3.505   0.836   2.823  0.1270  0.5473  0.0776
 1070TIP3    H124845   3.529   0.901   2.757 -0.2401  0.0585 -0.5497
 1070TIP3    H224846   3.463   0.887   2.892  0.9530  1.1256  0.1586
 1071TIP3   OH224847   4.398   6.579   2.999 -0.2232  0.3028  0.1206
 1071TIP3    H124848   4.350   6.510   3.044 -0.7556  0.9732  0.6033
 1071TIP3    H224849   4.458   6.614   3.066  0.9316 -0.5080 -0.4675
 1072TIP3   OH224850   1.988   1.885   8.699 -0.1435 -0.0582  0.5477
 1072TIP3    H124851   2.010   1.815   8.761 -0.7901  1.9099  3.2355
 1072TIP3    H224852   1.899   1.912   8.724 -0.2138  1.1955 -0.9170
 1073TIP3   OH224853   5.192   0.431   8.613  0.2164  0.0784  0.1150
 1073TIP3    H124854   5.141   0.510   8.626 -0.0628 -0.1144  0.2093
 1073TIP3    H224855   5.255   0.430   8.684 -0.0978 -0.0314  0.3924
 1074TIP3   OH224856   1.267   0.153   8.148  0.8515 -0.2329  0.0845
 1074TIP3    H124857   1.218   0.078   8.182  0.5737 -0.6216 -1.1198
 1074TIP3    H224858   1.200   0.220   8.130  1.1818  0.6507  1.9498
 1075TIP3   OH224859   6.706   6.772   0.329 -0.0474  0.0376  0.4685
 1075TIP3    H124860   6.654   6.756   0.408 -0.1819 -0.3602  0.3045
 1075TIP3    H224861   6.709   6.867   0.321 -1.7159  0.0702 -0.1464
 1076TIP3   OH224862   2.169   2.504   2.791  0.5444  0.2733  0.2401
 1076TIP3    H124863   2.242   2.483   2.850  0.4931  1.3879  0.7246
 1076TIP3    H224864   2.205   2.570   2.732  0.6006 -0.8431 -1.0157
 1077TIP3   OH224865   2.139   1.090   1.815  0.2714 -0.4220 -0.4302
 1077TIP3    H124866   2.164   1.017   1.758 -0.8454  0.2953 -1.9074
 1077TIP3    H224867   2.075   1.053   1.875  0.5655 -0.9106 -0.4117
 1078TIP3   OH224868   2.330   1.333   0.062  0.4171 -0.1501 -0.1669
 1078TIP3    H124869   2.281   1.252   0.050 -1.6069  0.8843  0.6683
 1078TIP3    H224870   2.368   1.324   0.150 -0.2531  0.0031  0.1471
 1079TIP3   OH224871   2.236   4.475   0.549  0.1693  0.1780  0.0412
 1079TIP3    H124872   2.246   4.508   0.459  0.4316 -0.5171 -0.1908
 1079TIP3    H224873   2.322   4.439   0.571 -0.1952 -0.6422  0.1614
 1080TIP3   OH224874   0.662   2.767   1.200 -0.2322 -0.2115 -0.4937
 1080TIP3    H124875   0.591   2.824   1.170  0.1242  0.4649 -0.0668
 1080TIP3    H224876   0.729   2.776   1.132  0.7043  1.5641  0.6080
 1081TIP3   OH224877   0.064   5.248   2.167  0.6262 -0.0676  0.1652
 1081TIP3    H124878   0.108   5.260   2.251  1.1311 -1.3214  0.0911
 1081TIP3    H224879   0.107   5.311   2.109  1.7976 -0.7305  0.2892
 1082TIP3   OH224880   0.946   4.881   1.314 -0.5601  0.2082 -0.1063
 1082TIP3    H124881   1.007   4.870   1.387 -0.7116  0.6069  0.0802
 1082TIP3    H224882   0.913   4.792   1.297  0.6740 -0.1516 -0.7326
 1083TIP3   OH224883   2.821   3.250   1.878  0.5646 -0.2483  0.2645
 1083TIP3    H124884   2.758   3.314   1.842  0.9355  0.2813  0.5447
 1083TIP3    H224885   2.883   3.236   1.807  1.5843  1.1775  0.8186
 1084TIP3   OH224886   4.938   5.240   0.120 -0.0106 -0.5873  0.6841
 1084TIP3    H124887   4.858   5.253   0.170  0.5745 -0.0809  1.5020
 1084TIP3    H224888   5.005   5.221   0.185  0.8067  0.2966  0.1374
 1085TIP3   OH224889   1.552   4.355   0.993  0.0313 -0.0475  0.6535
 1085TIP3    H124890   1.524   4.427   1.050 -0.7489  1.0468 -1.0259
 1085TIP3    H224891   1.550   4.277   1.049 -0.9972  0.9327  2.0274
 1086TIP3   OH224892   0.451   1.899   2.917  0.1247  0.4336 -0.1727
 1086TIP3    H124893   0.542   1.874   2.902  0.0962  1.1250 -1.7583
 1086TIP3    H224894   0.418   1.836   2.981  1.6112 -0.0356  0.1532
 1087TIP3   OH224895   2.795   6.422   3.833 -0.2115  0.5858  0.1020
 1087TIP3    H124896   2.751   6.348   3.791 -0.6729 -0.4273  2.2351
 1087TIP3    H224897   2.852   6.458   3.765 -1.5746 -0.3856 -1.6265
 1088TIP3   OH224898   0.703   3.016   0.818  0.1721 -0.0733 -0.4633
 1088TIP3    H124899   0.791   2.982   0.828 -0.4283 -1.9924 -1.1043
 1088TIP3    H224900   0.706   3.070   0.739  0.8239  0.1002 -0.3187
 1089TIP3   OH224901   4.834   6.843   1.077 -0.3629  0.1038 -0.4640
 1089TIP3    H124902   4.821   6.937   1.077 -1.0206  0.0341 -1.6832
 1089TIP3    H224903   4.748   6.806   1.058  0.1185 -0.6771 -1.2660
 1090TIP3   OH224904   4.903   3.515   3.418  0.2202  0.2955  0.5807
 1090TIP3    H124905   4.818   3.470   3.413  0.4638 -0.1403  0.3040
 1090TIP3    H224906   4.955   3.462   3.479  0.8076 -0.3114 -0.4204
 1091TIP3   OH224907   5.307   4.347   3.133 -0.1990  0.1029 -0.0743
 1091TIP3    H124908   5.370   4.346   3.205 -0.8856 -0.9049  0.5359
 1091TIP3    H224909   5.222   4.341   3.175 -0.9634  3.8699 -0.7129
 1092TIP3   OH224910   0.586   3.280   2.222 -0.3633 -0.5219 -0.0584
 1092TIP3    H124911   0.498   3.254   2.248 -0.5206  0.1026  0.0539
 1092TIP3    H224912   0.597   3.368   2.258  0.8656 -1.1468  1.2438
 1093TIP3   OH224913   2.195   6.658   1.930  0.0773 -0.8372  0.4697
 1093TIP3    H124914   2.225   6.646   2.020  0.3805  4.1386  1.2864
 1093TIP3    H224915   2.102   6.680   1.938 -0.1352 -1.2808 -0.5532
 1094TIP3   OH224916   2.596   0.838   2.231 -0.9157 -0.7505 -0.3121
 1094TIP3    H124917   2.575   0.751   2.266 -1.1766 -1.5244 -2.2415
 1094TIP3    H224918   2.578   0.830   2.137  2.7095  0.2264 -1.2257
 1095TIP3   OH224919   3.653   1.696   1.713  0.6083 -0.3514  0.1478
 1095TIP3    H124920   3.709   1.652   1.649  0.8810  1.5466 -0.9734
 1095TIP3    H224921   3.564   1.681   1.681  0.4471 -2.6136  1.4508
 1096TIP3   OH224922   6.617   0.394   2.017 -0.1599  0.3807  0.6488
 1096TIP3    H124923   6.554   0.427   1.952  0.1454 -0.6811 -0.2095
 1096TIP3    H224924   6.562   0.348   2.081 -0.4539  1.3613  1.1236
 1097TIP3   OH224925   5.110   6.276   0.948  0.3598  0.3382 -0.0522
 1097TIP3    H124926   5.093   6.184   0.963 -0.8805  0.8539  2.0756
 1097TIP3    H224927   5.195   6.278   0.903  0.0012 -1.8304 -0.9525
 1098TIP3   OH224928   0.215   0.213   3.082  0.5832 -0.3607  0.1488
 1098TIP3    H124929   0.263   0.135   3.054 -0.4871 -1.3312  0.9182
 1098TIP3    H224930   0.152   0.180   3.146  0.3845  1.2124  0.7949
 1099TIP3   OH224931   2.364   5.499   1.819  0.3203  0.2921  0.0915
 1099TIP3    H124932   2.291   5.509   1.880  0.1611 -0.8468  0.1166
 1099TIP3    H224933   2.331   5.534   1.736  0.3055  1.2328  0.4812
 1100TIP3   OH224934   3.727   6.072   0.956 -0.2149 -0.2697 -0.5055
 1100TIP3    H124935   3.767   6.135   0.895  1.4965 -0.7227  0.0690
 1100TIP3    H224936   3.668   6.020   0.902  0.6140 -0.1061 -1.6069
 1101TIP3   OH224937   2.779   5.696   3.412  0.4285 -0.0566 -0.0471
 1101TIP3    H124938   2.705   5.756   3.421  0.4740 -0.1327  0.9893
 1101TIP3    H224939   2.848   5.735   3.465  0.8033 -0.4940 -0.2095
 1102TIP3   OH224940   4.770   3.935   2.106 -0.3449  0.3545 -0.8215
 1102TIP3    H124941   4.704   3.887   2.056 -1.2759  1.3766 -0.6273
 1102TIP3    H224942   4.810   3.869   2.162 -1.7317 -0.1913 -0.4072
 1103TIP3   OH224943   3.494   6.430   0.130 -0.1856 -0.4337  0.2139
 1103TIP3    H124944   3.552   6.505   0.116  0.1218 -0.1835  2.4601
 1103TIP3    H224945   3.484   6.390   0.043  1.8534  0.5955 -0.5464
 1104TIP3   OH224946   4.642   6.825   1.611 -0.8293 -0.6875  0.5400
 1104TIP3    H124947   4.732   6.808   1.639 -0.4780  0.0572 -0.0964
 1104TIP3    H224948   4.602   6.739   1.603  0.0646 -1.0673  0.0790
 1105TIP3   OH224949   0.089   1.199   0.929  0.2651  0.2615 -0.0278
 1105TIP3    H124950   0.111   1.181   1.021  2.6260 -1.4860 -0.8133
 1105TIP3    H224951   0.065   1.114   0.893 -1.0612  0.9980 -0.9583
 1106TIP3   OH224952   3.805   4.718   3.502 -0.6435 -0.3183 -0.3858
 1106TIP3    H124953   3.828   4.629   3.528  0.3034  0.5958  2.2580
 1106TIP3    H224954   3.887   4.756   3.472 -1.1078 -0.3747 -1.8129
 1107TIP3   OH224955   1.612   1.270   2.222 -0.2017  0.4511 -0.1286
 1107TIP3    H124956   1.702   1.286   2.193  0.2443 -1.2024  0.1792
 1107TIP3    H224957   1.617   1.272   2.318 -0.6033  0.8293 -0.1115
 1108TIP3   OH224958   2.826   4.692   2.163 -0.1320 -0.0530 -0.0369
 1108TIP3    H124959   2.773   4.752   2.215  0.3038  1.4194 -1.2022
 1108TIP3    H224960   2.847   4.742   2.083  3.0810 -0.4657  0.3946
 1109TIP3   OH224961   5.045   3.106   0.808 -0.4190  0.7836  0.1272
 1109TIP3    H124962   5.072   3.020   0.778  0.8470  0.8783  0.8844
 1109TIP3    H224963   4.996   3.089   0.889 -2.0845  0.6609 -0.8618
 1110TIP3   OH224964   6.256   3.074   2.502  0.5342 -0.3979 -0.4234
 1110TIP3    H124965   6.178   3.038   2.459  0.2754  0.6333 -0.8376
 1110TIP3    H224966   6.265   3.162   2.465  0.3205  0.5347  1.6352
 1111TIP3   OH224967   2.742   2.767   2.364 -0.2682  0.4077  0.2992
 1111TIP3    H124968   2.817   2.714   2.389  0.1569  1.1565  0.6189
 1111TIP3    H224969   2.758   2.789   2.272 -1.6259 -1.9900 -0.6112
 1112TIP3   OH224970   3.377   2.203   2.185 -0.8584  0.4451  0.0178
 1112TIP3    H124971   3.310   2.204   2.116  0.1534  4.8739 -1.1997
 1112TIP3    H224972   3.460   2.216   2.138  0.7468 -2.6852  1.6792
 1113TIP3   OH224973   0.066   0.809   2.300 -0.0385 -0.2328 -0.2421
 1113TIP3    H124974   0.036   0.896   2.326  0.2228  0.2474 -1.4760
 1113TIP3    H224975  -0.005   0.774   2.246 -0.0125 -0.6592 -0.0015
 1114TIP3   OH224976   0.457   2.770   8.156 -0.2966 -0.0634 -0.4506
 1114TIP3    H124977   0.549   2.794   8.145  0.0171 -0.0843  1.6092
 1114TIP3    H224978   0.445   2.765   8.251 -2.3563 -0.3685 -0.6743
 1115TIP3   OH224979   3.990   6.653   0.014 -0.2888  0.7058  0.7963
 1115TIP3    H124980   3.967   6.734  -0.030  2.2099  1.6839  1.1406
 1115TIP3    H224981   3.959   6.584  -0.045  0.2161  1.9529 -1.0182
 1116TIP3   OH224982   0.941   3.878   2.437  0.1205  0.4161  0.3540
 1116TIP3    H124983   0.891   3.960   2.437  0.7843  0.8841 -1.6699
 1116TIP3    H224984   1.022   3.899   2.482 -1.3525 -0.3544  3.6924
 1117TIP3   OH224985   3.928   6.249   1.044  0.7406  0.0868 -0.1517
 1117TIP3    H124986   3.940   6.178   1.107  3.1401 -0.2211 -0.8369
 1117TIP3    H224987   3.970   6.217   0.964  1.8543  2.1937 -0.4906
 1118TIP3   OH224988   1.952   0.827   0.832  0.0905 -0.4076 -0.1981
 1118TIP3    H124989   1.947   0.920   0.851 -0.0578 -0.2475 -1.0025
 1118TIP3    H224990   2.006   0.791   0.902  0.9922  0.4336 -0.4476
 1119TIP3   OH224991   0.317   5.713   2.913  0.0100  0.3033 -0.5972
 1119TIP3    H124992   0.375   5.748   2.980 -0.2065 -0.0760 -0.2105
 1119TIP3    H224993   0.278   5.635   2.952 -1.1678  0.8369 -0.6530
 1120TIP3   OH224994   3.473   4.679   8.691  0.2070 -0.0559 -0.1642
 1120TIP3    H124995   3.473   4.607   8.755 -0.2039  0.3479  0.3002
 1120TIP3    H224996   3.412   4.651   8.624 -2.3505  1.1281  1.5214
 1121TIP3   OH224997   2.675   1.697   0.654 -0.7120 -0.1608 -0.1248
 1121TIP3    H124998   2.766   1.669   0.652 -0.4237  0.6022  1.2972
 1121TIP3    H224999   2.643   1.679   0.565  0.1510 -2.5208 -0.0218
 1122TIP3   OH225000   0.464   5.456   3.235 -0.1164  0.3783 -0.2689
 1122TIP3    H125001   0.459   5.397   3.160  0.9095  1.5349 -1.2939
 1122TIP3    H225002   0.557   5.457   3.258 -0.0938  1.6753 -0.3638
 1123TIP3   OH225003   1.405   2.710   8.494 -0.0771  0.1330  0.4491
 1123TIP3    H125004   1.379   2.644   8.430 -2.5988 -0.0950  1.5569
 1123TIP3    H225005   1.387   2.794   8.451  0.7528  0.0531 -0.0666
 1124TIP3   OH225006   3.979   6.290   1.845 -0.3115 -0.4565 -0.3530
 1124TIP3    H125007   3.964   6.377   1.810  0.0014  0.1051  0.8594
 1124TIP3    H225008   3.947   6.231   1.777  0.4059  0.5689 -1.6406
 1125TIP3   OH225009   0.794   2.423   1.830  0.6357  0.7773  0.5333
 1125TIP3    H125010   0.709   2.465   1.838  0.6886  1.0818 -0.3143
 1125TIP3    H225011   0.809   2.418   1.735  0.7181 -0.9767  0.6035
 1126TIP3   OH225012   3.991   1.288   8.292 -0.1378 -0.1400  0.0136
 1126TIP3    H125013   4.049   1.362   8.273  0.4470 -0.7975 -0.8070
 1126TIP3    H225014   4.049   1.220   8.325 -0.6213 -0.3877  0.3618
 1127TIP3   OH225015   6.224   3.351   3.176 -0.3628  0.6508  0.0214
 1127TIP3    H125016   6.301   3.360   3.120  0.2105  2.8032  1.0577
 1127TIP3    H225017   6.164   3.419   3.146 -0.4300  1.2237  1.3711
 1128TIP3   OH225018   6.475   2.388   8.523  0.3170 -0.3501  0.4094
 1128TIP3    H125019   6.470   2.363   8.431  1.3208 -0.1153  0.2837
 1128TIP3    H225020   6.455   2.481   8.524  0.6894 -0.2674  0.3756
 1129TIP3   OH225021   6.525   4.384   0.612  0.3209 -0.5516  0.4057
 1129TIP3    H125022   6.447   4.426   0.576 -0.7096 -2.4430  0.3379
 1129TIP3    H225023   6.492   4.316   0.670  1.9045 -1.6895  0.0405
 1130TIP3   OH225024   1.294   3.207   2.588 -0.1107  0.9106  0.8967
 1130TIP3    H125025   1.270   3.185   2.498  2.6853 -0.3122  0.3443
 1130TIP3    H225026   1.222   3.174   2.641 -1.4705  0.9922 -0.7986
 1131TIP3   OH225027   5.334   5.026   2.771 -0.6445  0.1443 -0.1416
 1131TIP3    H125028   5.362   5.020   2.680 -1.6620  0.3218 -0.4810
 1131TIP3    H225029   5.393   4.968   2.819  0.9228  1.2426 -0.6580
 1132TIP3   OH225030   5.433   1.123   1.275 -0.0963  0.1358  0.0883
 1132TIP3    H125031   5.499   1.092   1.337  0.1686 -0.2122 -0.3601
 1132TIP3    H225032   5.440   1.219   1.279 -2.2843  0.3078  2.9547
 1133TIP3   OH225033   3.935   6.381   2.917 -0.0407  0.1736  0.6150
 1133TIP3    H125034   3.924   6.306   2.976  0.9747 -1.8801 -1.6277
 1133TIP3    H225035   3.870   6.367   2.848  0.2715  1.2868  0.0742
 1134TIP3   OH225036   3.101   0.087   1.941 -0.8419  0.4226  0.8007
 1134TIP3    H125037   3.179   0.118   1.895  0.0516 -2.1896  0.3664
 1134TIP3    H225038   3.130   0.073   2.031 -2.2013  4.0946  1.9855
 1135TIP3   OH225039   1.973   5.494   1.845 -0.1325  0.2143 -0.0410
 1135TIP3    H125040   1.885   5.460   1.831  1.1141 -2.8938 -1.4004
 1135TIP3    H225041   1.995   5.538   1.763 -0.2920  0.6788  0.1649
 1136TIP3   OH225042   4.347   6.384   1.583 -0.4135  0.3366 -1.0167
 1136TIP3    H125043   4.313   6.298   1.558 -1.2439  0.8477 -1.7125
 1136TIP3    H225044   4.309   6.444   1.519 -1.8062  1.5755  0.8518
 1137TIP3   OH225045   3.971   2.642   1.826 -0.1851  0.0710 -0.3616
 1137TIP3    H125046   4.042   2.684   1.874 -1.2394 -0.0778  1.3849
 1137TIP3    H225047   3.894   2.694   1.845 -1.1752 -1.5873  0.4244
 1138TIP3   OH225048   4.502   5.147   8.187 -0.1106  0.2474  0.2769
 1138TIP3    H125049   4.451   5.169   8.264  0.8571  0.6086  0.8276
 1138TIP3    H225050   4.590   5.127   8.220 -0.1897 -1.6772 -0.4846
 1139TIP3   OH225051   6.481   3.132   0.930 -0.0376  0.4167 -0.0374
 1139TIP3    H125052   6.422   3.088   0.869  0.2619  1.5553 -1.1698
 1139TIP3    H225053   6.465   3.088   1.014  0.3744 -1.9484 -1.1288
 1140TIP3   OH225054   1.519   1.419   0.983 -0.4290 -0.6011 -0.4824
 1140TIP3    H125055   1.530   1.327   1.007 -0.0991 -0.6429 -0.7875
 1140TIP3    H225056   1.599   1.441   0.936 -0.5156 -0.1622 -0.4228
 1141TIP3   OH225057   4.288   5.867   1.097  0.0484 -0.5694 -0.2336
 1141TIP3    H125058   4.370   5.845   1.141 -0.5488 -0.9096  0.7436
 1141TIP3    H225059   4.256   5.944   1.144 -0.0036 -0.2041 -0.8598
 1142TIP3   OH225060   1.626   2.613   1.370 -0.2649  0.1794 -0.3384
 1142TIP3    H125061   1.542   2.609   1.324 -0.7831  0.7713  0.5452
 1142TIP3    H225062   1.692   2.610   1.300 -1.0213  0.2156 -1.0605
 1143TIP3   OH225063   0.688   5.791   2.542 -0.0601  0.5178 -0.0069
 1143TIP3    H125064   0.669   5.772   2.634  1.8273 -2.4230 -0.0883
 1143TIP3    H225065   0.641   5.724   2.493 -0.5513  1.6736 -1.1727
 1144TIP3   OH225066   0.965   5.077   1.124  0.4113  0.3935 -0.6683
 1144TIP3    H125067   0.983   5.019   1.198  1.7034 -0.9448 -1.9609
 1144TIP3    H225068   0.871   5.096   1.131  0.2598 -0.6995  0.6086
 1145TIP3   OH225069   4.381   0.742   8.186 -0.1548  0.6220  0.1841
 1145TIP3    H125070   4.418   0.713   8.103  0.6685 -1.4169  1.1868
 1145TIP3    H225071   4.458   0.758   8.241 -0.7031  0.7593  0.9170
 1146TIP3   OH225072   6.397   1.135   2.428  0.2079  0.5728 -0.2999
 1146TIP3    H125073   6.426   1.194   2.498  0.2090 -0.6754  0.8019
 1146TIP3    H225074   6.432   1.049   2.453 -1.7998 -0.3825 -0.5327
 1147TIP3   OH225075   4.808   0.606   1.344 -0.4524  0.1202  0.3795
 1147TIP3    H125076   4.841   0.542   1.407  0.2113  0.3745  0.2937
 1147TIP3    H225077   4.811   0.560   1.259  2.1894  0.9573 -0.0713
 1148TIP3   OH225078   3.638   5.229   1.133  0.0785 -0.4739 -0.3150
 1148TIP3    H125079   3.564   5.277   1.097  0.0696 -0.7933 -0.7401
 1148TIP3    H225080   3.601   5.145   1.162  0.2781 -0.6554 -0.5770
 1149TIP3   OH225081   6.152   5.205   1.844 -0.3280 -0.3600  0.4144
 1149TIP3    H125082   6.068   5.160   1.834 -0.5661  0.2864 -0.5975
 1149TIP3    H225083   6.197   5.156   1.913 -0.9999 -1.5061  0.0654
 1150TIP3   OH225084   2.159   4.326   0.200 -0.3676 -0.4338  0.2210
 1150TIP3    H125085   2.226   4.297   0.138 -0.5899 -0.9059  0.1954
 1150TIP3    H225086   2.146   4.251   0.258 -0.5337 -0.1783  0.5154
 1151TIP3   OH225087   6.799   1.220   8.129  0.6953  0.0523 -0.4640
 1151TIP3    H125088   6.861   1.282   8.090  0.4284  0.6338  0.0091
 1151TIP3    H225089   6.832   1.134   8.105  1.4346  0.3688 -0.6056
 1152TIP3   OH225090   3.366   0.249   8.681 -0.4170  0.1398  0.1835
 1152TIP3    H125091   3.423   0.225   8.609 -0.1464 -0.2389  0.5178
 1152TIP3    H225092   3.279   0.219   8.655 -0.3713  0.2582 -0.1058
 1153TIP3   OH225093   5.569   4.378   2.452  0.0743 -0.0832 -0.5407
 1153TIP3    H125094   5.539   4.296   2.413 -0.8471 -0.2826  0.5362
 1153TIP3    H225095   5.544   4.371   2.544 -0.2278  1.4899 -0.4783
 1154TIP3   OH225096   3.292   4.293   2.013  0.3730  0.0524 -0.3782
 1154TIP3    H125097   3.264   4.226   1.952 -1.1940  0.7735 -0.4809
 1154TIP3    H225098   3.279   4.254   2.100 -2.4383  0.8617 -0.3600
 1155TIP3   OH225099   1.035   5.877   8.125  0.2507  0.1946 -0.1369
 1155TIP3    H125100   1.016   5.962   8.084 -1.4546  0.1443  0.4621
 1155TIP3    H225101   1.130   5.876   8.135  0.6091  0.7939 -2.7672
 1156TIP3   OH225102   2.447   4.560   3.900 -0.0839  0.8458  0.2606
 1156TIP3    H125103   2.498   4.518   3.831 -0.1126 -0.6621  1.1100
 1156TIP3    H225104   2.505   4.562   3.976 -0.4987  1.2863  0.5779
 1157TIP3   OH225105   1.489   4.982   1.994  0.2329  0.5136  0.1627
 1157TIP3    H125106   1.416   5.010   1.939  0.0861 -1.5468 -0.7839
 1157TIP3    H225107   1.458   4.992   2.084 -1.5697 -1.0733 -0.2253
 1158TIP3   OH225108   6.671   1.364   1.334  0.2516 -0.4115  0.2691
 1158TIP3    H125109   6.697   1.364   1.427  0.1572  0.0486  0.2985
 1158TIP3    H225110   6.744   1.321   1.289 -0.2531 -1.7925  0.6961
 1159TIP3   OH225111   1.395   0.385   0.066  0.1035 -0.2042 -0.7012
 1159TIP3    H125112   1.417   0.432  -0.015 -0.4815 -1.0389 -1.3730
 1159TIP3    H225113   1.476   0.386   0.117 -0.3651  3.1302  0.1765
 1160TIP3   OH225114   6.536   0.504   0.614 -0.0011 -0.1013 -0.3251
 1160TIP3    H125115   6.570   0.491   0.703 -0.6256  1.2641  0.1285
 1160TIP3    H225116   6.512   0.596   0.611  0.4008 -0.0285 -2.0588
 1161TIP3   OH225117   3.079   5.605   2.980 -0.9886 -0.1005 -0.4909
 1161TIP3    H125118   3.074   5.515   2.947  0.6584 -0.3253 -0.1952
 1161TIP3    H225119   3.101   5.658   2.903  1.2291 -0.4135 -0.1477
 1162TIP3   OH225120   2.362   4.599   1.725 -0.6820 -0.3839  0.8819
 1162TIP3    H125121   2.329   4.651   1.798 -0.2217  0.0642  0.7791
 1162TIP3    H225122   2.456   4.620   1.721 -0.7959 -0.0233 -0.1458
 1163TIP3   OH225123   2.912   5.902   1.013 -0.3887 -0.6487  0.0785
 1163TIP3    H125124   2.928   5.838   1.083 -1.4916 -0.9498  0.0688
 1163TIP3    H225125   2.872   5.852   0.943  0.7950 -0.3669 -0.8419
 1164TIP3   OH225126   3.463   0.459   0.035 -0.3911  0.5511 -0.1575
 1164TIP3    H125127   3.406   0.392   0.073  1.3179 -1.6850 -1.2799
 1164TIP3    H225128   3.441   0.460  -0.058 -0.6971  1.9304 -0.0925
 1165TIP3   OH225129   6.607   5.888   2.589 -0.8133 -0.7184  0.3168
 1165TIP3    H125130   6.549   5.820   2.555 -1.8559  0.4559 -0.3862
 1165TIP3    H225131   6.575   5.907   2.677 -2.2036  0.6045 -0.4187
 1166TIP3   OH225132   6.330   1.284   3.022  0.0650 -0.1857  0.1421
 1166TIP3    H125133   6.300   1.193   3.016 -2.4996  0.6243 -0.2324
 1166TIP3    H225134   6.329   1.316   2.932 -1.6036  0.9418  0.5212
 1167TIP3   OH225135   0.984   6.560   0.525  0.4256 -0.2733 -0.4059
 1167TIP3    H125136   1.031   6.638   0.495  1.1225 -0.7021 -0.4615
 1167TIP3    H225137   0.897   6.592   0.550  1.0325  0.7044  0.5448
 1168TIP3   OH225138   6.407   3.883   1.794  0.3253 -0.2124 -0.0404
 1168TIP3    H125139   6.391   3.862   1.886  0.3071  0.9653  0.2480
 1168TIP3    H225140   6.330   3.850   1.748 -0.3320  0.4152  0.5683
 1169TIP3   OH225141   1.303   6.586   0.653 -0.4153 -0.5352 -0.1714
 1169TIP3    H125142   1.209   6.603   0.651 -0.3071  0.0031 -0.8193
 1169TIP3    H225143   1.310   6.491   0.638 -0.8882 -0.7550  0.8967
 1170TIP3   OH225144   0.719   1.326   0.281  0.6313 -0.3482 -0.5001
 1170TIP3    H125145   0.790   1.281   0.325  0.6101  0.4975  0.4258
 1170TIP3    H225146   0.663   1.256   0.248  2.2519 -1.0494 -1.9165
 1171TIP3   OH225147   6.634   5.164   2.246  0.0805  0.4147  0.7177
 1171TIP3    H125148   6.691   5.088   2.234 -1.0539 -0.3473 -0.1336
 1171TIP3    H225149   6.674   5.233   2.193  1.5722  0.7171  2.1464
 1172TIP3   OH225150   4.958   6.639   3.321  0.5069 -0.5238  0.0010
 1172TIP3    H125151   4.985   6.718   3.275  0.3975  0.4778  1.5760
 1172TIP3    H225152   4.869   6.658   3.352  0.5159 -1.2184  0.4883
 1173TIP3   OH225153   3.252   2.188   1.531  0.2086  0.2078 -0.2307
 1173TIP3    H125154   3.333   2.234   1.553  0.1542  0.0795  0.2585
 1173TIP3    H225155   3.223   2.227   1.449  0.2920  0.8849  0.0546
 1174TIP3   OH225156   4.548   5.753   3.039  0.2058 -0.2638 -0.4306
 1174TIP3    H125157   4.629   5.793   3.007  0.4444 -0.1214  0.3494
 1174TIP3    H225158   4.498   5.736   2.959  0.4429  0.8399 -0.8419
 1175TIP3   OH225159   6.200   5.848   0.568  0.1634 -0.2743 -0.4710
 1175TIP3    H125160   6.206   5.934   0.610  0.3138 -0.7920  0.5872
 1175TIP3    H225161   6.251   5.858   0.487 -0.6967  0.9282 -0.8986
 1176TIP3   OH225162   0.060   3.674   1.864  0.3501  0.7032  0.3350
 1176TIP3    H125163   0.013   3.618   1.926  1.6838  1.6160  2.2979
 1176TIP3    H225164  -0.008   3.729   1.825 -0.3670  1.5055  2.5560
 1177TIP3   OH225165   5.181   2.606   1.474  0.4187  0.0094 -0.5333
 1177TIP3    H125166   5.272   2.609   1.505  0.3965  1.5944 -0.5341
 1177TIP3    H225167   5.131   2.578   1.551  0.6370  1.6684  0.2638
 1178TIP3   OH225168   5.947   1.711   2.986  0.4182 -0.3153  0.2924
 1178TIP3    H125169   5.966   1.775   2.919 -1.2246 -0.1539 -0.0663
 1178TIP3    H225170   5.968   1.626   2.946  1.1533 -0.0986  0.2251
 1179TIP3   OH225171   4.586   2.608   1.473 -0.2382 -0.2397 -0.7366
 1179TIP3    H125172   4.498   2.580   1.501 -0.1825 -0.5061 -0.8271
 1179TIP3    H225173   4.592   2.580   1.382 -0.0159 -0.3232 -0.6961
 1180TIP3   OH225174   3.435   1.665   2.768 -0.9834  0.6463 -0.0575
 1180TIP3    H125175   3.461   1.754   2.744  0.8819  0.1452 -0.0221
 1180TIP3    H225176   3.514   1.613   2.757 -1.9558 -0.9632  0.2473
 1181TIP3   OH225177   5.432   2.380   0.036  0.0206  0.0655  0.0501
 1181TIP3    H125178   5.336   2.384   0.039 -0.0642 -1.5187  2.4290
 1181TIP3    H225179   5.451   2.349  -0.052 -1.6533  0.5327 -0.5238
 1182TIP3   OH225180   0.575   3.412   0.449  0.1517 -0.8509 -0.1237
 1182TIP3    H125181   0.594   3.426   0.542  0.0257  0.8054 -0.3244
 1182TIP3    H225182   0.481   3.390   0.448  0.3544 -1.8068  0.1988
 1183TIP3   OH225183   0.415   0.209   2.276  0.0736  0.7648 -0.0769
 1183TIP3    H125184   0.346   0.169   2.329  0.2413  0.1291 -0.3304
 1183TIP3    H225185   0.470   0.255   2.339 -0.8107  1.6346  0.0814
 1184TIP3   OH225186   4.029   4.455   7.861 -0.1723  0.1602 -0.1538
 1184TIP3    H125187   4.049   4.549   7.861  0.1867  0.0945  0.5550
 1184TIP3    H225188   3.952   4.447   7.917 -1.3188  0.2328 -1.6770
 1185TIP3   OH225189   6.099   1.470   3.636 -0.1287 -0.5476 -0.3620
 1185TIP3    H125190   6.065   1.409   3.570  0.0916 -1.4851  0.3809
 1185TIP3    H225191   6.066   1.437   3.719  0.8008 -0.2166  0.1569
 1186TIP3   OH225192   1.687   6.688   3.865 -0.5162 -0.2172 -0.0888
 1186TIP3    H125193   1.628   6.763   3.859  0.3779  0.4937 -0.2859
 1186TIP3    H225194   1.773   6.726   3.881 -0.0938 -1.2251  0.1361
 1187TIP3   OH225195   5.323   4.057   3.134  0.4126  0.0327 -0.4552
 1187TIP3    H125196   5.377   4.110   3.192 -0.7442  0.9201 -0.1565
 1187TIP3    H225197   5.282   4.120   3.074 -0.5186 -0.5781 -0.4839
 1188TIP3   OH225198   6.720   4.137   0.845 -0.3758  0.0376  0.0326
 1188TIP3    H125199   6.727   4.085   0.765  1.0373  1.5919 -0.9402
 1188TIP3    H225200   6.663   4.086   0.902 -0.6692 -1.5819 -1.5970
 1189TIP3   OH225201   5.000   6.489   2.277  0.4266  1.0140  0.6948
 1189TIP3    H125202   4.996   6.584   2.274 -1.5044  0.9690  0.6462
 1189TIP3    H225203   4.933   6.460   2.216  1.0889 -0.3965  0.5959
 1190TIP3   OH225204   0.879   6.381   8.130 -0.0789  0.0288  0.3443
 1190TIP3    H125205   0.876   6.463   8.081  1.0697  0.2402  0.5984
 1190TIP3    H225206   0.804   6.385   8.190 -0.1454  0.7918  0.2155
 1191TIP3   OH225207   2.552   1.866   3.851 -0.4433 -0.7810  0.3731
 1191TIP3    H125208   2.521   1.954   3.830 -0.9580 -1.2262 -0.8456
 1191TIP3    H225209   2.608   1.878   3.928  0.2059  0.7443 -0.2858
 1192TIP3   OH225210   6.419   4.872   3.683 -0.2257 -0.0027 -0.3609
 1192TIP3    H125211   6.390   4.956   3.718 -2.0755 -0.2319 -1.2346
 1192TIP3    H225212   6.397   4.808   3.751 -1.2424 -0.0901 -0.7539
 1193TIP3   OH225213   1.373   3.031   1.195  0.2528 -0.3325 -0.0084
 1193TIP3    H125214   1.392   2.981   1.115  0.0582 -0.3140 -0.0655
 1193TIP3    H225215   1.341   2.965   1.257 -2.6421  0.0626 -0.9225
 1194TIP3   OH225216   5.997   2.764   8.663  0.0093 -0.8483 -0.1814
 1194TIP3    H125217   6.020   2.714   8.585 -1.1623  0.3679 -1.3678
 1194TIP3    H225218   6.077   2.811   8.687  0.0349 -0.1743 -1.4984
 1195TIP3   OH225219   2.869   0.382   2.780 -0.2966 -0.4541  0.3629
 1195TIP3    H125220   2.897   0.324   2.850 -0.3182  0.7510  1.3951
 1195TIP3    H225221   2.926   0.360   2.706  0.3247 -1.1237  1.0291
 1196TIP3   OH225222   1.211   3.692   2.513 -0.0339 -0.1112  0.1803
 1196TIP3    H125223   1.282   3.650   2.465  0.8585  1.6733 -0.1482
 1196TIP3    H225224   1.148   3.622   2.528  0.9992 -1.3687 -1.0332
 1197TIP3   OH225225   5.857   3.786   2.257  0.9110  0.3666 -0.1992
 1197TIP3    H125226   5.821   3.711   2.210  0.3676  0.3085  0.3051
 1197TIP3    H225227   5.949   3.789   2.229  1.2050 -1.0584  0.4606
 1198TIP3   OH225228   4.588   6.790   0.977  0.3491  0.2086 -0.0659
 1198TIP3    H125229   4.543   6.850   0.918  1.4503  1.9096  0.7384
 1198TIP3    H225230   4.606   6.713   0.923  0.0201  1.0986 -1.5157
 1199TIP3   OH225231   5.569   5.695   2.639  0.4461  0.5228 -0.4556
 1199TIP3    H125232   5.479   5.711   2.669  1.1855 -0.3989  2.5983
 1199TIP3    H225233   5.615   5.777   2.655  0.4713  0.5614 -0.7183
 1200TIP3   OH225234   5.217   5.568   1.850 -0.2426  0.5287 -0.7507
 1200TIP3    H125235   5.166   5.643   1.819  0.0139  1.3127  0.6288
 1200TIP3    H225236   5.231   5.586   1.943  2.6126  0.3747 -1.0796
 1201TIP3   OH225237   2.388   3.093   2.795  0.4658 -0.4845 -0.4878
 1201TIP3    H125238   2.449   3.166   2.809  1.0809 -0.8848 -1.0403
 1201TIP3    H225239   2.312   3.133   2.752  0.7165 -0.1381 -0.6100
 1202TIP3   OH225240   2.160   1.668   8.779  0.0523  0.1841 -0.7682
 1202TIP3    H125241   2.226   1.736   8.763  0.9971 -0.4275  0.3500
 1202TIP3    H225242   2.187   1.628   8.862 -1.2550 -0.6562 -0.7243
 1203TIP3   OH225243   6.418   5.112   2.051 -0.0113 -0.0393 -0.4713
 1203TIP3    H125244   6.364   5.038   2.077 -0.8188  0.4415 -0.7412
 1203TIP3    H225245   6.477   5.126   2.125  0.2033 -0.9781 -0.4461
 1204TIP3   OH225246   1.501   3.804   0.141  0.2624 -0.0769 -0.2179
 1204TIP3    H125247   1.529   3.719   0.106 -0.7875  0.1257 -1.6581
 1204TIP3    H225248   1.555   3.868   0.093 -0.0421  0.1323 -0.2835
 1205TIP3   OH225249   6.807   1.711   1.420  0.3993 -0.2421 -0.1469
 1205TIP3    H125250   6.866   1.637   1.434 -1.0149 -1.1093  1.5649
 1205TIP3    H225251   6.800   1.719   1.325 -0.0691 -2.8773 -0.3979
 1206TIP3   OH225252   3.912   6.825   1.591  0.1722  0.6010  0.5350
 1206TIP3    H125253   3.928   6.919   1.579  1.6686  0.4995  1.5586
 1206TIP3    H225254   3.998   6.787   1.607 -0.3792 -1.0123 -0.0881
 1207TIP3   OH225255   6.178   4.692   0.168  0.3275  0.4913  0.1481
 1207TIP3    H125256   6.239   4.741   0.223  2.2322 -1.4090 -0.1247
 1207TIP3    H225257   6.169   4.745   0.089  2.2356  0.5289 -0.0963
 1208TIP3   OH225258   6.559   4.021   1.038  0.0636 -0.4147  0.1041
 1208TIP3    H125259   6.478   4.044   0.992 -0.0007  0.8464  0.8241
 1208TIP3    H225260   6.536   3.942   1.088 -0.1852 -1.1398 -1.0942
 1209TIP3   OH225261   0.112   4.008   0.484  0.1880 -0.1346 -0.1199
 1209TIP3    H125262   0.076   3.951   0.416 -0.2252  0.4724 -0.4228
 1209TIP3    H225263   0.143   3.949   0.552 -0.9064 -0.6968 -0.0944
 1210TIP3   OH225264   4.972   0.021   2.008  0.3494 -0.1802  0.1204
 1210TIP3    H125265   5.035   0.017   2.079  0.4972 -1.9524 -0.0773
 1210TIP3    H225266   4.889  -0.008   2.047  0.1514  0.0168 -0.1451
 1211TIP3   OH225267   5.225   1.130   0.341  0.4082 -0.0171 -0.1163
 1211TIP3    H125268   5.208   1.057   0.400 -2.1373  0.3372 -0.3142
 1211TIP3    H225269   5.173   1.111   0.262  1.9742  0.6195 -1.3732
 1212TIP3   OH225270   2.209   5.653   1.360 -0.9071  0.0557  0.6909
 1212TIP3    H125271   2.146   5.637   1.290 -1.8918  0.3973  1.4719
 1212TIP3    H225272   2.224   5.748   1.357  0.8454 -0.2075 -0.5260
 1213TIP3   OH225273   5.812   2.044   0.201  0.0253 -0.2380  0.1906
 1213TIP3    H125274   5.833   1.981   0.270  1.0429  0.2955  0.3945
 1213TIP3    H225275   5.722   2.071   0.219  0.0778 -0.5473  0.9685
 1214TIP3   OH225276   1.555   6.530   3.102  0.2234 -0.0934  0.2399
 1214TIP3    H125277   1.524   6.548   3.191 -1.4813 -4.0664  0.6555
 1214TIP3    H225278   1.478   6.545   3.047  0.0522 -1.5340  0.0523
 1215TIP3   OH225279   0.584   6.019   2.775  0.0932  0.1909  0.0667
 1215TIP3    H125280   0.489   6.020   2.764 -0.0089 -1.9539  0.2837
 1215TIP3    H225281   0.616   5.972   2.698  0.9396  0.4481  0.2548
 1216TIP3   OH225282   6.477   6.795   0.760 -0.1041  0.2410 -0.3684
 1216TIP3    H125283   6.450   6.725   0.700 -3.4035  1.5584 -0.6058
 1216TIP3    H225284   6.428   6.872   0.731  3.4564  2.8298 -0.1971
 1217TIP3   OH225285   4.401   2.897   0.335 -0.2480  0.7916  0.7981
 1217TIP3    H125286   4.464   2.947   0.386 -1.0590  0.3006  2.3365
 1217TIP3    H225287   4.326   2.886   0.394 -0.3494 -1.6848  0.2779
 1218TIP3   OH225288   5.100   1.248   2.448 -0.2602  0.4494 -0.3033
 1218TIP3    H125289   5.089   1.193   2.371 -2.0074  0.5610 -0.1650
 1218TIP3    H225290   5.171   1.309   2.424 -1.0681  0.7755 -1.9930
 1219TIP3   OH225291   4.387   0.832   1.407 -0.1813  0.0013 -0.3702
 1219TIP3    H125292   4.459   0.813   1.346 -0.8907 -0.5185 -1.0703
 1219TIP3    H225293   4.356   0.919   1.381  0.5700  0.4900  0.3253
 1220TIP3   OH225294   5.935   0.608   0.100  0.0459  0.6502  0.0949
 1220TIP3    H125295   5.858   0.555   0.079  0.3407  0.2244  0.0773
 1220TIP3    H225296   6.009   0.550   0.082  0.4633  1.7212 -1.8712
 1221TIP3   OH225297   1.026   2.552   2.490 -0.9927  0.2098 -0.9470
 1221TIP3    H125298   0.980   2.487   2.543  0.5561  1.6540  2.4802
 1221TIP3    H225299   1.109   2.510   2.466  0.4298  0.9981  2.0645
 1222TIP3   OH225300   1.975   5.271   8.509 -0.1326 -0.2992  0.7585
 1222TIP3    H125301   1.995   5.344   8.450  2.5759 -1.6145 -0.0985
 1222TIP3    H225302   2.029   5.199   8.478 -1.5153 -2.2373  2.5459
 1223TIP3   OH225303   1.941   2.262   1.170  0.2862 -0.0352 -0.1771
 1223TIP3    H125304   2.033   2.237   1.161  0.2050 -0.9882  1.3166
 1223TIP3    H225305   1.935   2.347   1.126  1.8441 -0.0245 -0.4291
 1224TIP3   OH225306   6.798   0.901   3.776 -0.0759 -0.3449 -0.1557
 1224TIP3    H125307   6.721   0.935   3.731  0.3906 -1.6515 -2.0567
 1224TIP3    H225308   6.808   0.958   3.852 -0.0940  2.9462 -2.4236
 1225TIP3   OH225309   5.297   5.237   0.528  0.0819  0.0004  0.7102
 1225TIP3    H125310   5.333   5.270   0.610  2.1472  0.3622 -0.2651
 1225TIP3    H225311   5.333   5.296   0.461 -1.5803 -0.2470 -0.4795
 1226TIP3   OH225312   6.624   5.606   0.837  0.2898 -0.3647 -0.1239
 1226TIP3    H125313   6.687   5.597   0.766  0.6021  0.9353 -0.0355
 1226TIP3    H225314   6.632   5.524   0.886  1.3171 -0.5593 -0.5900
 1227TIP3   OH225315   4.833   6.491   0.713 -0.1096  0.1537 -0.6616
 1227TIP3    H125316   4.880   6.491   0.796  1.3136  0.8606 -1.4293
 1227TIP3    H225317   4.836   6.582   0.684  0.4330 -0.2833 -2.0369
 1228TIP3   OH225318   4.009   6.669   8.131 -0.3362  0.3263 -0.3366
 1228TIP3    H125319   3.956   6.747   8.115  0.0106  0.4209 -1.0636
 1228TIP3    H225320   4.060   6.690   8.209  2.8191  2.5280 -2.7144
 1229TIP3   OH225321   6.181   0.504   0.868 -0.2651  0.1581 -0.3097
 1229TIP3    H125322   6.218   0.592   0.857 -1.2110  0.4324 -1.5595
 1229TIP3    H225323   6.211   0.456   0.790  0.9584 -0.9230  0.7733
 1230TIP3   OH225324   6.148   2.042   3.295  0.0451 -0.2442  0.7257
 1230TIP3    H125325   6.212   2.109   3.319  1.3929 -1.0482 -0.4478
 1230TIP3    H225326   6.101   2.023   3.376  0.7031  0.9972  1.4201
 1231TIP3   OH225327   0.797   3.920   1.595 -0.3860  0.2405  0.2021
 1231TIP3    H125328   0.764   3.922   1.685 -0.7908  0.9223  0.0451
 1231TIP3    H225329   0.745   3.986   1.549 -0.1874 -0.1059 -0.5358
 1232TIP3   OH225330   5.827   1.095   0.312 -0.1490 -0.3333 -0.4830
 1232TIP3    H125331   5.823   1.003   0.337 -0.1422 -0.7126 -1.7671
 1232TIP3    H225332   5.896   1.099   0.246  1.8431  1.1318  1.5351
 1233TIP3   OH225333   3.741   2.013   1.292  0.0796 -0.0295  0.0512
 1233TIP3    H125334   3.807   1.992   1.227  0.6013  1.4507  0.0531
 1233TIP3    H225335   3.706   1.929   1.320  2.5154 -0.9251  0.6245
 1234TIP3   OH225336   3.613   1.606   2.224  0.1061 -0.3399 -0.4439
 1234TIP3    H125337   3.617   1.515   2.252  2.7542 -0.7685 -1.8822
 1234TIP3    H225338   3.603   1.602   2.129  0.9531  0.8198 -0.6157
 1235TIP3   OH225339   0.514   6.371   2.935  0.0258 -0.2641  0.0260
 1235TIP3    H125340   0.446   6.437   2.929 -0.2897 -0.5750  0.1451
 1235TIP3    H225341   0.469   6.293   2.968 -0.0905 -1.1931 -2.1602
 1236TIP3   OH225342   4.606   6.511   0.929 -0.3929  0.1073 -0.3864
 1236TIP3    H125343   4.560   6.428   0.945 -0.4504 -0.0275 -1.2256
 1236TIP3    H225344   4.696   6.495   0.956 -0.6136  0.0781  0.3662
 1237TIP3   OH225345   4.361   1.323   2.636 -0.2211  0.4412 -0.1041
 1237TIP3    H125346   4.423   1.254   2.659  0.6010  0.9900 -0.6392
 1237TIP3    H225347   4.358   1.322   2.540 -0.8664  0.5816 -0.0933
 1238TIP3   OH225348   3.160   4.762   3.086  0.5800  0.1547  0.2195
 1238TIP3    H125349   3.162   4.718   3.171 -0.1389 -0.0517  0.1391
 1238TIP3    H225350   3.199   4.848   3.102  0.0290  0.2919  0.8673
 1239TIP3   OH225351   5.405   2.633   1.762  0.5765  0.2892 -0.1290
 1239TIP3    H125352   5.432   2.668   1.847  1.7271  1.1914 -0.8226
 1239TIP3    H225353   5.371   2.546   1.781  0.1992  0.7346  1.3296
 1240TIP3   OH225354   6.827   0.207   0.084 -0.2984 -0.5063  0.3089
 1240TIP3    H125355   6.858   0.131   0.036 -1.5494 -0.2853 -0.8944
 1240TIP3    H225356   6.848   0.281   0.027 -1.3111 -0.1932  0.3249
 1241TIP3   OH225357   0.816   3.234   0.321  0.0349 -0.1280  0.5041
 1241TIP3    H125358   0.898   3.268   0.358  0.2515 -0.7027  0.5698
 1241TIP3    H225359   0.782   3.176   0.389 -0.9952  0.9235  0.9296
 1242TIP3   OH225360   2.363   1.424   8.457 -0.1299  0.0132  0.0427
 1242TIP3    H125361   2.303   1.478   8.406 -1.1514 -0.3660  0.8199
 1242TIP3    H225362   2.323   1.337   8.458  1.2290 -0.6632 -0.7465
 1243TIP3   OH225363   0.440   1.335   0.694 -0.2437 -0.4456 -0.0135
 1243TIP3    H125364   0.465   1.424   0.668 -1.0657 -0.4252 -0.7968
 1243TIP3    H225365   0.494   1.316   0.770  2.2411 -0.4839 -1.6928
 1244TIP3   OH225366   2.145   1.253   8.193  0.0561  0.0942  0.6461
 1244TIP3    H125367   2.129   1.174   8.141  1.1671 -0.3915  1.0033
 1244TIP3    H225368   2.173   1.220   8.279  0.6886  0.8711  0.7499
 1245TIP3   OH225369   4.225   0.652   1.969  0.3838  0.4394  0.0342
 1245TIP3    H125370   4.181   0.645   2.053 -1.3173  2.1761 -0.6309
 1245TIP3    H225371   4.301   0.593   1.976 -1.7987 -2.4377  1.3774
 1246TIP3   OH225372   1.227   1.954   3.088  0.8821 -0.0520 -0.5527
 1246TIP3    H125373   1.268   1.912   3.164 -0.1583 -2.1368 -1.0695
 1246TIP3    H225374   1.225   2.047   3.110 -1.0401 -0.7249  2.8302
 1247TIP3   OH225375   0.470   6.847   0.115  0.3330  0.3472  0.0296
 1247TIP3    H125376   0.425   6.930   0.101 -0.0058 -0.0540 -1.3276
 1247TIP3    H225377   0.435   6.788   0.048  0.2585 -1.0288  1.2287
 1248TIP3   OH225378   1.276   3.264   1.562 -0.2462  0.1583  0.3994
 1248TIP3    H125379   1.203   3.290   1.618 -0.4094  0.8726 -0.1253
 1248TIP3    H225380   1.236   3.240   1.478  0.1316  0.9032 -0.0088
 1249TIP3   OH225381   6.163   4.678   1.539  0.0205 -0.3007  0.1516
 1249TIP3    H125382   6.159   4.737   1.614  0.0403  0.4538 -0.4198
 1249TIP3    H225383   6.073   4.672   1.508 -0.4445 -2.6632  1.7361
 1250TIP3   OH225384   2.421   1.767   8.773  0.1190 -0.0658  0.4471
 1250TIP3    H125385   2.508   1.784   8.807 -0.0383 -0.0762  0.8588
 1250TIP3    H225386   2.429   1.782   8.679  0.1904  1.4713  0.6747
 1251TIP3   OH225387   0.114   3.906   3.513  0.5559 -0.1575 -0.2104
 1251TIP3    H125388   0.129   3.864   3.597 -1.1879  1.0844  0.8001
 1251TIP3    H225389   0.028   3.874   3.486  0.7911 -0.0012 -1.1733
 1252TIP3   OH225390   3.810   3.326   2.704  0.3947  0.9279  0.0975
 1252TIP3    H125391   3.726   3.281   2.692 -0.3756  1.6688  2.2337
 1252TIP3    H225392   3.805   3.401   2.645 -0.5201  1.0598  0.3249
 1253TIP3   OH225393   4.380   5.980   0.599  0.2099  0.2170  0.0710
 1253TIP3    H125394   4.347   6.068   0.580 -2.5984 -0.9366 -0.9270
 1253TIP3    H225395   4.377   5.973   0.694  0.3038  1.1526  0.1483
 1254TIP3   OH225396   1.819   5.924   2.701  0.6811  0.3356 -0.3932
 1254TIP3    H125397   1.743   5.870   2.680  1.2398 -0.6203  0.0289
 1254TIP3    H225398   1.890   5.862   2.719  0.4601  0.9669  3.7543
 1255TIP3   OH225399   5.133   0.155   1.259 -0.0498 -0.4940  0.6179
 1255TIP3    H125400   5.115   0.070   1.218 -0.5005 -0.1848  0.1729
 1255TIP3    H225401   5.225   0.172   1.239  0.4789 -1.5717  1.9807
 1256TIP3   OH225402   1.573   6.556   0.512  0.0887 -0.0766  0.1317
 1256TIP3    H125403   1.653   6.559   0.460  0.5060  0.3784  0.7714
 1256TIP3    H225404   1.585   6.624   0.578 -1.0540  0.3494 -0.0736
 1257TIP3   OH225405   4.699   0.570   1.091 -0.0064 -0.3696  0.7166
 1257TIP3    H125406   4.630   0.634   1.106 -0.8584 -1.6200  2.5481
 1257TIP3    H225407   4.768   0.618   1.044 -0.7180  1.7817  1.7801
 1258TIP3   OH225408   5.169   3.746   7.932 -1.1176  0.1411  0.2039
 1258TIP3    H125409   5.090   3.779   7.887 -1.2087 -0.5681 -0.1622
 1258TIP3    H225410   5.140   3.668   7.978 -0.6199 -0.1511  0.0321
 1259TIP3   OH225411   0.121   1.035   8.373  0.8954  0.3198  0.0498
 1259TIP3    H125412   0.214   1.045   8.396  0.9371  0.8663 -0.3293
 1259TIP3    H225413   0.106   1.101   8.305  0.4330 -0.3451 -0.4983
 1260TIP3   OH225414   6.502   2.041   3.896  1.2986 -0.0587  0.0214
 1260TIP3    H125415   6.428   2.051   3.957  2.6526  1.1521  1.5658
 1260TIP3    H225416   6.463   2.053   3.810 -0.1542  1.7243  0.8363
 1261TIP3   OH225417   6.557   4.532   0.017  0.4204  0.5504 -0.0366
 1261TIP3    H125418   6.634   4.541   0.072 -0.2309 -1.4348  1.3200
 1261TIP3    H225419   6.484   4.523   0.078 -0.8381  1.7662 -1.2799
 1262TIP3   OH225420   5.812   0.915   3.172 -0.4038  0.1095 -0.5080
 1262TIP3    H125421   5.891   0.861   3.172  0.1206  0.8552 -1.0835
 1262TIP3    H225422   5.753   0.871   3.232  0.5228 -0.3541  0.0846
 1263TIP3   OH225423   1.712   1.283   1.310  0.3273  0.1400  0.2125
 1263TIP3    H125424   1.679   1.286   1.220 -1.1224 -1.5353  0.6401
 1263TIP3    H225425   1.752   1.197   1.319  0.1347  0.1408  1.2726
 1264TIP3   OH225426   0.667   2.805   0.523 -0.2424 -0.3974 -0.4612
 1264TIP3    H125427   0.587   2.837   0.565  0.7314  1.0065  0.4046
 1264TIP3    H225428   0.713   2.884   0.494  1.0289 -1.1495 -0.5869
 1265TIP3   OH225429   1.032   2.043   8.598 -0.1415  0.4461 -0.0557
 1265TIP3    H125430   0.948   2.006   8.571  0.8464  0.1732 -3.1331
 1265TIP3    H225431   1.096   1.977   8.572  1.1513  1.2513  0.9737
 1266TIP3   OH225432   5.280   5.029   8.404  0.1378  0.0851  0.5664
 1266TIP3    H125433   5.332   5.109   8.401 -3.0548  2.3277 -2.2079
 1266TIP3    H225434   5.328   4.967   8.349  1.8331  0.5869  1.4034
 1267TIP3   OH225435   4.985   5.051   3.582 -0.0629  0.0112  0.2801
 1267TIP3    H125436   5.010   5.075   3.671 -0.8299 -2.4677  1.2446
 1267TIP3    H225437   4.964   5.134   3.539 -0.2981  1.2105  2.5903
 1268TIP3   OH225438   0.528   4.710   7.820 -0.3575  0.1365 -0.5335
 1268TIP3    H125439   0.512   4.743   7.908 -1.3183  3.1212 -1.6990
 1268TIP3    H225440   0.477   4.629   7.815 -2.0495  1.0325  0.9947
 1269TIP3   OH225441   5.728   1.776   8.766 -0.2417 -0.4309 -0.0967
 1269TIP3    H125442   5.744   1.683   8.751  1.2656 -0.1544 -0.3885
 1269TIP3    H225443   5.772   1.794   8.849 -1.6334 -0.2278  0.6316
 1270TIP3   OH225444   2.782   4.209   3.500  0.4434 -0.0621 -0.2366
 1270TIP3    H125445   2.779   4.151   3.424  0.1778 -0.9826  0.4552
 1270TIP3    H225446   2.691   4.237   3.511  0.4256 -0.1799 -0.0773
 1271TIP3   OH225447   5.701   0.726   0.952 -0.0181 -0.3450 -0.1425
 1271TIP3    H125448   5.638   0.796   0.937  1.3543  0.6878 -1.2991
 1271TIP3    H225449   5.677   0.691   1.038  0.0902  2.4941  1.1701
 1272TIP3   OH225450   5.202   4.573   3.572  0.0640 -0.2128 -0.0400
 1272TIP3    H125451   5.163   4.528   3.497 -1.9061  0.4202  0.5298
 1272TIP3    H225452   5.284   4.526   3.589 -1.5191 -3.1926  0.0818
 1273TIP3   OH225453   2.638   4.324   4.096 -0.2041  0.4266 -0.1743
 1273TIP3    H125454   2.704   4.357   4.034 -1.6807 -0.5112 -2.3850
 1273TIP3    H225455   2.597   4.403   4.132  0.5931  1.0060 -0.5007
 1274TIP3   OH225456   5.907   5.407   0.520  0.1626 -0.4191  0.1974
 1274TIP3    H125457   5.879   5.495   0.493 -2.0013 -1.1597 -0.1985
 1274TIP3    H225458   5.963   5.377   0.448 -0.6303 -0.0655 -0.5952
 1275TIP3   OH225459   1.881   1.903   0.571 -0.0496 -0.5944 -0.4449
 1275TIP3    H125460   1.847   1.872   0.487 -0.8625  1.5927 -0.9852
 1275TIP3    H225461   1.844   1.991   0.581  1.0347 -0.3184  1.6205
 1276TIP3   OH225462   6.440   3.097   3.068  0.2389 -0.1619  0.2938
 1276TIP3    H125463   6.531   3.128   3.067 -0.3530  2.0914  2.8629
 1276TIP3    H225464   6.393   3.159   3.013 -0.2165  0.7775  1.6857
 1277TIP3   OH225465   3.873   3.679   1.758  0.0585 -0.0873  0.6934
 1277TIP3    H125466   3.837   3.701   1.844 -0.3291 -1.6920  0.9712
 1277TIP3    H225467   3.803   3.632   1.713  1.0403 -1.3515  0.4185
 1278TIP3   OH225468   3.948   4.898   2.549 -0.4257 -0.2792  0.2782
 1278TIP3    H125469   3.958   4.809   2.582 -0.7658 -0.5684 -0.3875
 1278TIP3    H225470   3.914   4.887   2.460 -3.4686  0.5477  1.2276
 1279TIP3   OH225471   6.117   3.964   3.035  0.0383  0.2741  0.0224
 1279TIP3    H125472   6.041   4.022   3.030 -0.8907 -1.0121 -2.4665
 1279TIP3    H225473   6.108   3.920   3.120 -0.9533  1.4855  0.5734
 1280TIP3   OH225474   2.583   4.516   1.536  0.2989 -0.5307  0.4599
 1280TIP3    H125475   2.615   4.532   1.625  0.7531 -1.1572  0.4231
 1280TIP3    H225476   2.623   4.585   1.483  1.7733 -1.3719  0.3930
 1281TIP3   OH225477   3.058   4.660   2.514 -0.5971  0.0337 -0.1974
 1281TIP3    H125478   2.977   4.695   2.477 -0.4581 -0.1842 -0.7168
 1281TIP3    H225479   3.125   4.726   2.493 -0.8421  0.7623  1.2254
 1282TIP3   OH225480   1.218   2.350   2.102 -0.1354 -0.8605  0.2867
 1282TIP3    H125481   1.125   2.332   2.089 -0.6662  0.9318  1.3204
 1282TIP3    H225482   1.246   2.391   2.021 -1.1440  1.7342  1.1515
 1283TIP3   OH225483   1.584   1.267   2.496  0.1275 -0.0203  0.1291
 1283TIP3    H125484   1.575   1.337   2.561  1.0789  0.3674 -0.1368
 1283TIP3    H225485   1.669   1.228   2.515  0.3961  0.0722 -0.8525
 1284TIP3   OH225486   4.274   5.240   0.534 -0.0742 -0.2550 -0.2572
 1284TIP3    H125487   4.240   5.303   0.471  0.2478  1.2490  1.0071
 1284TIP3    H225488   4.197   5.211   0.582 -0.1685 -0.4943 -0.5517
 1285TIP3   OH225489   2.830   5.974   3.032 -0.8958  0.0455  0.8127
 1285TIP3    H125490   2.885   5.984   2.955 -1.3736  0.7813  0.5565
 1285TIP3    H225491   2.865   5.897   3.077  0.8344  0.9556  1.0798
 1286TIP3   OH225492   2.898   2.785   3.413 -0.1081 -0.0887  1.1798
 1286TIP3    H125493   2.915   2.737   3.494 -1.5426  1.1478  2.2558
 1286TIP3    H225494   2.821   2.838   3.432  0.0247  0.8616 -0.7352
 1287TIP3   OH225495   1.870   2.947   8.435  0.0003 -0.4961 -0.2177
 1287TIP3    H125496   1.827   2.863   8.445 -2.9645  0.7929 -0.8791
 1287TIP3    H225497   1.798   3.009   8.417  2.1045  2.0051 -0.7217
 1288TIP3   OH225498   6.211   2.752   2.896  0.0455  0.1104  0.1450
 1288TIP3    H125499   6.220   2.662   2.926  0.4647 -0.3596 -1.3233
 1288TIP3    H225500   6.228   2.805   2.974  0.4287 -1.0600  0.8777
 1289TIP3   OH225501   5.445   5.401   3.039  0.0119 -0.0856  0.4628
 1289TIP3    H125502   5.463   5.458   3.114  0.3915 -0.7758  0.9175
 1289TIP3    H225503   5.521   5.342   3.036 -0.6188 -0.9146  0.3491
 1290TIP3   OH225504   6.290   3.593   2.813  1.1783 -0.3021 -0.2112
 1290TIP3    H125505   6.364   3.531   2.815  1.1462 -0.3298  0.4485
 1290TIP3    H225506   6.213   3.537   2.809  1.1401 -0.3268  0.5998
 1291TIP3   OH225507   5.805   6.746   1.989  0.1950  0.2852 -0.2297
 1291TIP3    H125508   5.764   6.831   2.007 -0.3736  0.0963 -0.5798
 1291TIP3    H225509   5.811   6.743   1.894  0.5840  0.0971 -0.1991
 1292TIP3   OH225510   3.832   1.028   2.810  0.0481 -0.7070 -0.0690
 1292TIP3    H125511   3.857   1.110   2.767 -2.0320 -0.7834 -1.6023
 1292TIP3    H225512   3.824   1.051   2.902 -1.3220  1.0697 -0.5722
 1293TIP3   OH225513   1.826   2.663   2.489  0.6292 -0.4029  0.3809
 1293TIP3    H125514   1.857   2.646   2.401  0.7270 -0.2301  0.3815
 1293TIP3    H225515   1.762   2.734   2.479 -1.1406 -1.9498  0.1351
 1294TIP3   OH225516   2.134   5.072   8.404 -0.4273  0.3323  0.1544
 1294TIP3    H125517   2.197   5.027   8.348  0.4947  0.5818  0.9731
 1294TIP3    H225518   2.052   5.024   8.391 -0.1598  0.1993 -1.1616
 1295TIP3   OH225519   6.019   5.762   3.520  0.1181  0.0551 -0.5896
 1295TIP3    H125520   6.040   5.843   3.567  1.3339 -0.1356 -0.7594
 1295TIP3    H225521   5.925   5.766   3.506  0.0566  1.1224 -0.0022
 1296TIP3   OH225522   2.199   6.521   2.895 -0.2462  0.5130 -0.4421
 1296TIP3    H125523   2.178   6.488   2.807  0.2333  0.6279 -0.6054
 1296TIP3    H225524   2.160   6.458   2.955 -0.5109  0.3904 -0.7408
 1297TIP3   OH225525   3.617   5.121   3.745  0.3501  0.0957  0.2169
 1297TIP3    H125526   3.604   5.078   3.829 -0.7867  1.5376  0.8285
 1297TIP3    H225527   3.543   5.092   3.692  0.7933 -0.4213 -0.1260
 1298TIP3   OH225528   5.240   5.220   1.691  0.2161 -0.4736  0.5078
 1298TIP3    H125529   5.170   5.229   1.756  0.8085  0.3463  1.0365
 1298TIP3    H225530   5.316   5.262   1.730  0.6872 -0.2885 -0.5669
 1299TIP3   OH225531   0.028   5.821   2.680 -0.1584  0.2491 -0.4775
 1299TIP3    H125532   0.013   5.732   2.712 -0.3888  0.5137  0.1413
 1299TIP3    H225533  -0.057   5.850   2.648 -0.3340  0.6744  0.3769
 1300TIP3   OH225534   6.804   4.626   8.221 -0.5039  0.5590  0.6661
 1300TIP3    H125535   6.794   4.531   8.219  0.1804  0.4601  1.3521
 1300TIP3    H225536   6.877   4.641   8.281 -0.8287  1.5419  0.8330
 1301TIP3   OH225537   6.067   2.287   8.164 -0.3665 -0.6933 -0.2670
 1301TIP3    H125538   5.979   2.314   8.139 -0.2916  0.3130  0.4770
 1301TIP3    H225539   6.111   2.369   8.187  0.4969 -1.2680  0.1756
 1302TIP3   OH225540   4.926   3.568   2.451  0.4247 -0.1481 -0.0518
 1302TIP3    H125541   4.866   3.523   2.511  1.3830  0.5115  1.4541
 1302TIP3    H225542   5.013   3.540   2.480  0.9365  0.7968 -0.6457
 1303TIP3   OH225543   4.919   0.941   2.909 -0.6967 -0.4824 -0.5289
 1303TIP3    H125544   5.014   0.928   2.902 -0.4335  0.7092  0.4253
 1303TIP3    H225545   4.882   0.882   2.844  0.6508 -1.5875 -0.3555
 1304TIP3   OH225546   2.443   6.603   8.453 -0.0710  0.1358 -0.5619
 1304TIP3    H125547   2.467   6.571   8.366  1.0954 -1.1464  0.1902
 1304TIP3    H225548   2.424   6.696   8.440  2.3718  0.5329 -1.8069
 1305TIP3   OH225549   0.106   5.524   3.022  0.0795 -0.5031 -0.4187
 1305TIP3    H125550   0.118   5.529   3.117 -1.6739 -0.0868 -0.1893
 1305TIP3    H225551   0.057   5.604   3.001  2.7997  0.8716 -2.1104
 1306TIP3   OH225552   4.487   0.983   8.610 -0.1142  0.0543 -0.3480
 1306TIP3    H125553   4.438   1.055   8.569  0.7642 -0.6809 -2.8430
 1306TIP3    H225554   4.451   0.904   8.571 -1.4199 -1.0251  2.7446
 1307TIP3   OH225555   0.963   3.958   2.777  0.4499 -0.1544  0.0664
 1307TIP3    H125556   1.050   3.981   2.744  1.0161 -0.1453  1.4958
 1307TIP3    H225557   0.910   4.037   2.764  0.5917 -0.2116 -0.9506
 1308TIP3   OH225558   0.796   3.554   0.970 -0.0015 -0.0200  0.2406
 1308TIP3    H125559   0.813   3.625   1.032  0.1751  0.3008 -0.1778
 1308TIP3    H225560   0.751   3.487   1.023  0.3210  0.1671  0.7629
 1309TIP3   OH225561   6.785   5.111   1.543  0.7451  0.1834 -0.3157
 1309TIP3    H125562   6.865   5.064   1.568  0.6459  1.1512  2.0209
 1309TIP3    H225563   6.755   5.153   1.623 -0.9201  1.6616 -1.6234
 1310TIP3   OH225564   3.381   3.745   0.347  0.1874  0.1830 -0.7706
 1310TIP3    H125565   3.398   3.839   0.354  0.5643  0.1005 -0.6100
 1310TIP3    H225566   3.457   3.709   0.301  2.1252 -0.6938  2.7748
 1311TIP3   OH225567   4.651   1.373   1.438  0.6715 -0.1664 -0.3979
 1311TIP3    H125568   4.721   1.425   1.399  3.3213 -2.6613  0.6615
 1311TIP3    H225569   4.644   1.406   1.528 -0.2912  0.7554 -0.7935
 1312TIP3   OH225570   5.441   0.954   3.882  0.3477 -0.0819  0.0055
 1312TIP3    H125571   5.485   1.033   3.912 -1.3157  1.6537 -1.8701
 1312TIP3    H225572   5.399   0.979   3.799 -0.5239 -2.8328 -0.4948
 1313TIP3   OH225573   5.034   3.623   2.761  0.0473  0.1697 -0.1690
 1313TIP3    H125574   4.948   3.664   2.756  0.0733  0.1521 -0.8688
 1313TIP3    H225575   5.046   3.603   2.854 -0.3108  1.0051  0.0658
 1314TIP3   OH225576   0.220   2.948   2.582  0.1964 -0.0865  0.7912
 1314TIP3    H125577   0.310   2.974   2.562 -0.0130 -0.2408 -0.4018
 1314TIP3    H225578   0.166   3.017   2.544 -0.2698 -1.0847 -0.4111
 1315TIP3   OH225579   1.122   6.460   3.224 -0.4195 -0.1040  0.1896
 1315TIP3    H125580   1.149   6.473   3.315 -0.9736  1.0376  0.2059
 1315TIP3    H225581   1.031   6.430   3.230 -0.5037  0.1112  0.0146
 1316TIP3   OH225582   1.367   5.012   3.258  0.0853  0.0792 -0.0444
 1316TIP3    H125583   1.396   5.094   3.218 -0.0440 -0.0297 -0.3608
 1316TIP3    H225584   1.405   4.944   3.203  1.0660 -0.0903  0.8197
 1317TIP3   OH225585   5.009   0.152   2.848 -0.3545  0.4048  0.1693
 1317TIP3    H125586   4.950   0.155   2.922 -0.3926 -0.2856  0.1745
 1317TIP3    H225587   4.956   0.117   2.776  0.0378 -0.2097  0.1718
 1318TIP3   OH225588   2.443   6.831   2.021  0.2863  0.0324 -0.3284
 1318TIP3    H125589   2.426   6.801   2.111  0.7293  1.9230  0.4313
 1318TIP3    H225590   2.474   6.753   1.976  0.5933 -0.8512  1.3069
 1319TIP3   OH225591   3.724   4.638   2.574  0.2053  0.1301  0.2986
 1319TIP3    H125592   3.691   4.689   2.648 -1.2910  0.2337 -0.4196
 1319TIP3    H225593   3.810   4.608   2.603 -0.3361  0.1759  2.0792
 1320TIP3   OH225594   0.852   6.326   3.260 -0.6355  0.1116 -0.0538
 1320TIP3    H125595   0.857   6.270   3.338 -2.6026 -0.5145 -0.3106
 1320TIP3    H225596   0.851   6.266   3.186  0.3326  0.6632 -0.5386
 1321TIP3   OH225597   4.122   5.267   2.300  0.0640 -0.5944 -0.6004
 1321TIP3    H125598   4.042   5.220   2.324  0.1114 -0.9426 -1.1030
 1321TIP3    H225599   4.107   5.294   2.210  0.9971 -1.7317 -1.1229
 1322TIP3   OH225600   0.668   3.953   2.183 -0.0309 -0.1613 -0.0902
 1322TIP3    H125601   0.583   3.912   2.197  1.1329 -2.5203  0.7475
 1322TIP3    H225602   0.698   3.975   2.271  0.1050  0.9297 -0.4019
 1323TIP3   OH225603   3.162   2.416   1.010 -0.5720 -0.0338 -0.6549
 1323TIP3    H125604   3.112   2.339   0.985 -0.4406  0.3239 -2.0958
 1323TIP3    H225605   3.170   2.467   0.929  0.2319  0.9818  0.0390
 1324TIP3   OH225606   6.279   4.909   1.381 -0.0118 -0.0792  0.0541
 1324TIP3    H125607   6.297   5.001   1.398  0.9447  0.0713 -1.5301
 1324TIP3    H225608   6.268   4.870   1.467  0.0478  1.4196  0.7668
 1325TIP3   OH225609   6.683   2.215   8.551  0.1363  0.0338 -0.4875
 1325TIP3    H125610   6.731   2.267   8.487  1.7409  0.0287  0.6447
 1325TIP3    H225611   6.605   2.267   8.570  1.6428  2.0661  0.5406
 1326TIP3   OH225612   1.298   4.748   0.404  0.0089  0.2773  0.0213
 1326TIP3    H125613   1.272   4.735   0.313  1.0789 -2.0806 -0.0277
 1326TIP3    H225614   1.378   4.799   0.399  0.1890 -0.0397 -0.3828
 1327TIP3   OH225615   6.035   4.686   0.954  0.2171  0.1876 -0.2516
 1327TIP3    H125616   5.940   4.680   0.962  0.2257 -1.0764 -0.8067
 1327TIP3    H225617   6.069   4.659   1.040  0.0855  2.3933  0.5626
 1328TIP3   OH225618   0.852   2.340   0.414 -0.3850  0.0033  0.4088
 1328TIP3    H125619   0.834   2.379   0.328 -0.8530  2.0629  1.3880
 1328TIP3    H225620   0.829   2.408   0.477 -0.4487 -1.6001  2.2165
 1329TIP3   OH225621   6.205   3.252   1.325  0.2333 -0.4503 -0.2397
 1329TIP3    H125622   6.272   3.232   1.390  0.0681 -0.7286 -0.1548
 1329TIP3    H225623   6.130   3.199   1.351 -0.6738  1.2222  0.7685
 1330TIP3   OH225624   3.414   6.154   3.098  0.3224 -0.2671  0.9342
 1330TIP3    H125625   3.393   6.184   3.009 -0.1777 -0.7395  0.8878
 1330TIP3    H225626   3.502   6.118   3.090 -0.6883 -2.7321  0.0027
 1331TIP3   OH225627   2.624   4.584   8.226 -0.0939  0.2059 -1.2818
 1331TIP3    H125628   2.634   4.572   8.321 -2.0827  0.0009 -1.0558
 1331TIP3    H225629   2.634   4.678   8.213 -4.5125  1.0960 -0.0639
 1332TIP3   OH225630   4.511   2.212   1.294 -0.7249 -0.0771 -0.7799
 1332TIP3    H125631   4.457   2.166   1.229 -0.3334 -1.5867 -0.0730
 1332TIP3    H225632   4.490   2.170   1.377  0.2864  0.4646 -0.2338
 1333TIP3   OH225633   4.793   6.750   0.204  0.4024 -0.0927 -0.4893
 1333TIP3    H125634   4.870   6.746   0.260  1.4182 -2.7795 -1.8670
 1333TIP3    H225635   4.744   6.671   0.226 -0.1485 -0.2074 -2.0043
 1334TIP3   OH225636   0.487   5.592   1.194 -0.8633  0.3993 -0.1742
 1334TIP3    H125637   0.418   5.552   1.141 -0.5889 -0.7961  0.3124
 1334TIP3    H225638   0.459   5.682   1.206 -1.1547  0.5764 -1.9433
 1335TIP3   OH225639   5.702   4.018   0.252  0.5844 -0.2707  0.5823
 1335TIP3    H125640   5.645   4.095   0.245  0.3610 -0.5852 -2.0364
 1335TIP3    H225641   5.643   3.947   0.276  0.4632 -0.0016  1.1061
 1336TIP3   OH225642   6.234   3.300   1.886 -0.8080  0.0407 -0.2438
 1336TIP3    H125643   6.255   3.386   1.849 -0.2010  1.0472  2.1991
 1336TIP3    H225644   6.319   3.259   1.901 -0.7152  1.1913  3.1993
 1337TIP3   OH225645   0.042   0.964   8.620 -0.8449 -0.1249  0.8027
 1337TIP3    H125646  -0.048   0.993   8.632 -0.1262  2.4542  0.6248
 1337TIP3    H225647   0.057   0.972   8.525 -0.0845  0.6848  0.9811
 1338TIP3   OH225648   2.699   2.314   3.709  0.2106  0.0714 -0.2650
 1338TIP3    H125649   2.778   2.328   3.656 -0.4984  2.6036 -0.7791
 1338TIP3    H225650   2.643   2.259   3.655  0.1129  1.3759 -1.5412
 1339TIP3   OH225651   5.972   2.793   0.873 -0.4335  0.0130  0.2435
 1339TIP3    H125652   5.947   2.880   0.903  0.0467  0.0768  0.4729
 1339TIP3    H225653   5.890   2.744   0.871 -0.9045  0.8253 -1.1368
 1340TIP3   OH225654   0.941   5.736   3.201  0.0043 -0.2439  0.6476
 1340TIP3    H125655   1.006   5.743   3.270  0.3513 -2.4625  0.6263
 1340TIP3    H225656   0.979   5.675   3.138 -1.1753  0.1406 -0.4824
 1341TIP3   OH225657   0.949   5.305   2.575 -0.3097  0.1469 -0.3702
 1341TIP3    H125658   0.925   5.351   2.495 -0.9010  0.2559 -0.1309
 1341TIP3    H225659   0.866   5.285   2.618  0.0355  1.8662  1.2242
 1342TIP3   OH225660   6.671   1.369   3.433 -0.4908  0.2322 -0.3251
 1342TIP3    H125661   6.619   1.402   3.360 -1.4389  1.6989  0.9459
 1342TIP3    H225662   6.729   1.442   3.456 -0.4301 -0.0843  0.5701
 1343TIP3   OH225663   6.198   3.062   8.313  0.0972  0.0635  0.1784
 1343TIP3    H125664   6.181   3.151   8.282  0.7876 -0.3619 -1.5096
 1343TIP3    H225665   6.181   3.006   8.237  1.6032 -1.0606  0.6285
 1344TIP3   OH225666   2.907   0.212   3.269  0.5614  0.3002  0.0510
 1344TIP3    H125667   2.826   0.164   3.284  0.9602 -0.8312 -1.2123
 1344TIP3    H225668   2.945   0.222   3.357 -0.6544  0.3579  0.5934
 1345TIP3   OH225669   1.670   1.983   7.777 -0.0602  0.2288  0.5326
 1345TIP3    H125670   1.630   1.896   7.783 -1.8678  0.6654 -2.8453
 1345TIP3    H225671   1.761   1.966   7.753  0.1699 -0.7066  1.9550
 1346TIP3   OH225672   2.985   1.658   1.373  0.1194  0.4765  0.1108
 1346TIP3    H125673   2.919   1.636   1.438  0.0703  0.9540  0.2310
 1346TIP3    H225674   2.985   1.585   1.312  0.4952 -0.1958  0.9043
 1347TIP3   OH225675   4.856   3.719   2.251 -0.3393 -0.4814  0.5518
 1347TIP3    H125676   4.893   3.671   2.325  0.1101 -0.9444  0.0344
 1347TIP3    H225677   4.850   3.654   2.180  1.8598  0.5742 -0.7150
 1348TIP3   OH225678   4.334   3.898   8.417 -0.4800  0.2019 -0.0754
 1348TIP3    H125679   4.344   3.831   8.485 -2.3644 -0.4174 -0.3528
 1348TIP3    H225680   4.354   3.980   8.462  1.2632 -0.4359  0.4298
 1349TIP3   OH225681   2.681   3.623   0.494 -0.1230 -0.4401  0.0632
 1349TIP3    H125682   2.771   3.622   0.463 -0.2021 -0.3004 -0.1762
 1349TIP3    H225683   2.639   3.691   0.442 -1.2682 -2.8308 -2.3390
 1350TIP3   OH225684   4.860   1.147   0.494 -0.8218 -0.5813  0.5376
 1350TIP3    H125685   4.916   1.209   0.541  0.1739 -0.4391 -0.7660
 1350TIP3    H225686   4.887   1.061   0.525  0.8679 -0.5699 -0.8045
 1351TIP3   OH225687   5.293   0.085   0.133 -0.3202 -0.3733 -0.3629
 1351TIP3    H125688   5.260   0.072   0.222  1.8727 -1.9254  0.2982
 1351TIP3    H225689   5.379   0.124   0.144 -0.0739 -0.4422 -1.8161
 1352TIP3   OH225690   1.267   5.864   1.028  0.4786 -0.1899  0.3314
 1352TIP3    H125691   1.362   5.881   1.028  0.4900 -0.2524  0.6458
 1352TIP3    H225692   1.257   5.781   1.074  0.1731  0.3901  1.3370
 1353TIP3   OH225693   5.577   4.114   1.730 -0.2020 -0.0474  0.3672
 1353TIP3    H125694   5.628   4.187   1.694  0.6537 -0.2937  1.0607
 1353TIP3    H225695   5.518   4.154   1.794  0.3557  0.0238  0.8397
 1354TIP3   OH225696   3.917   2.558   0.060  0.6129  0.1567 -0.0618
 1354TIP3    H125697   4.001   2.549   0.105  1.4970  1.6175 -1.3235
 1354TIP3    H225698   3.912   2.650   0.036 -0.3782 -0.3155 -1.8506
 1355TIP3   OH225699   1.462   0.043   3.851 -0.3628  0.2800  0.1001
 1355TIP3    H125700   1.477   0.137   3.845  2.1290 -0.1241 -1.3444
 1355TIP3    H225701   1.393   0.026   3.786 -0.7116  1.0555  0.2525
 1356TIP3   OH225702   0.703   3.961   0.189 -0.3984  0.2650  0.4734
 1356TIP3    H125703   0.784   3.988   0.147 -1.3573 -0.1009 -1.7589
 1356TIP3    H225704   0.680   3.879   0.146 -2.6041  1.0180  0.0818
 1357TIP3   OH225705   2.021   5.344   0.587  0.4282  0.0339 -0.0432
 1357TIP3    H125706   2.070   5.377   0.512 -0.5351 -0.1089 -0.7654
 1357TIP3    H225707   2.087   5.310   0.646  1.2837  1.1539 -0.3208
 1358TIP3   OH225708   0.493   5.375   2.242 -0.2302 -0.1639 -0.5117
 1358TIP3    H125709   0.434   5.312   2.283  0.8644 -1.2000 -0.4634
 1358TIP3    H225710   0.475   5.368   2.148 -1.3858  0.8116 -0.3886
 1359TIP3   OH225711   2.735   5.339   3.704  0.0441 -0.1134 -0.4080
 1359TIP3    H125712   2.680   5.416   3.722 -0.7216 -1.0631  1.6800
 1359TIP3    H225713   2.680   5.265   3.729  1.7921 -1.1821  0.4007
 1360TIP3   OH225714   4.573   6.062   2.169  0.2500 -0.4843  0.2826
 1360TIP3    H125715   4.546   6.137   2.115  0.3536  0.2317  1.1983
 1360TIP3    H225716   4.554   5.986   2.115 -0.6627  0.1583 -0.3389
 1361TIP3   OH225717   1.242   4.144   2.887 -0.0120 -0.1314  0.3097
 1361TIP3    H125718   1.186   4.193   2.947  0.6173 -0.3318  1.0867
 1361TIP3    H225719   1.243   4.055   2.923  1.6786  0.1146  0.9858
 1362TIP3   OH225720   1.684   4.462   0.207  0.4311 -0.2398 -0.6844
 1362TIP3    H125721   1.779   4.467   0.220  0.1973  0.6131  1.0151
 1362TIP3    H225722   1.672   4.481   0.114  1.8635  0.6711 -0.7239
 1363TIP3   OH225723   1.847   1.627   0.228 -0.1059 -0.6134  0.1620
 1363TIP3    H125724   1.898   1.547   0.222 -0.5869 -0.9002 -0.2214
 1363TIP3    H225725   1.808   1.637   0.141  0.0244  0.0827  0.1825
 1364TIP3   OH225726   3.836   2.656   1.237  1.2229  0.3851 -0.5399
 1364TIP3    H125727   3.860   2.738   1.195  1.2836  0.8165  0.3001
 1364TIP3    H225728   3.883   2.658   1.321 -2.2401  1.6568  1.5766
 1365TIP3   OH225729   5.079   1.052   2.263  0.1279  0.1130 -0.3829
 1365TIP3    H125730   5.160   1.004   2.246 -0.2915 -0.9101  0.4549
 1365TIP3    H225731   5.011   1.004   2.215 -0.0445  0.8186 -0.8696
 1366TIP3   OH225732   2.066   3.192   2.246  0.4587  0.6474 -0.7423
 1366TIP3    H125733   2.075   3.254   2.319  0.9902  0.2069 -0.4264
 1366TIP3    H225734   2.027   3.244   2.176 -0.7177  0.9069  0.0712
 1367TIP3   OH225735   1.813   3.880   3.042  0.4275 -0.4235  0.4494
 1367TIP3    H125736   1.864   3.822   2.985  0.8862 -0.6113  1.0398
 1367TIP3    H225737   1.865   3.886   3.122  0.2860  0.6501  0.4707
 1368TIP3   OH225738   3.358   5.391   8.355 -0.3739 -0.9936  0.3283
 1368TIP3    H125739   3.289   5.457   8.364  0.8461  0.4304 -0.2632
 1368TIP3    H225740   3.356   5.367   8.262  0.0781 -0.7551  0.2534
 1369TIP3   OH225741   3.110   6.748   1.168 -0.1976  0.1177 -0.5588
 1369TIP3    H125742   3.029   6.782   1.130 -0.5919 -0.6734 -0.4522
 1369TIP3    H225743   3.102   6.766   1.261 -0.2178  0.1149 -0.5600
 1370TIP3   OH225744   3.721   4.663   2.942 -0.3014  0.0822 -0.0934
 1370TIP3    H125745   3.709   4.739   2.999  0.7134  0.7130 -0.7056
 1370TIP3    H225746   3.642   4.661   2.887  0.3549  1.6401 -1.1551
 1371TIP3   OH225747   6.175   3.365   8.369 -0.4428 -0.1080  0.0786
 1371TIP3    H125748   6.115   3.432   8.337  1.3841  0.7217 -1.8678
 1371TIP3    H225749   6.262   3.397   8.343  0.7130 -1.9861  1.4174
 1372TIP3   OH225750   5.405   5.184   0.172  0.0982  0.6297  0.2517
 1372TIP3    H125751   5.326   5.197   0.120 -0.8489  0.4275  1.6097
 1372TIP3    H225752   5.408   5.258   0.232  1.7413  1.4178 -0.7366
 1373TIP3   OH225753   6.563   1.600   0.322 -0.2731  0.0257 -0.6947
 1373TIP3    H125754   6.554   1.576   0.229 -0.4198  0.9938 -0.9401
 1373TIP3    H225755   6.526   1.688   0.327  0.5631  0.3367  0.1180
 1374TIP3   OH225756   6.180   0.765   2.453 -0.8605  0.1155  0.2104
 1374TIP3    H125757   6.090   0.799   2.446  0.0984  2.8883 -0.0087
 1374TIP3    H225758   6.187   0.739   2.545 -1.9157 -0.2066  0.2169
 1375TIP3   OH225759   4.004   6.534   1.709 -0.7822 -0.0001  0.4961
 1375TIP3    H125760   3.939   6.604   1.718 -0.5908  0.0428  1.7245
 1375TIP3    H225761   4.081   6.578   1.674 -0.9593  0.2188  0.3758
 1376TIP3   OH225762   6.595   6.456   0.126  0.3465  0.3543  0.3253
 1376TIP3    H125763   6.573   6.446   0.033  0.1100  3.3527 -0.0288
 1376TIP3    H225764   6.663   6.390   0.141 -1.1844 -1.7425 -1.3454
 1377TIP3   OH225765   2.391   2.932   8.593  0.5163 -0.4814 -0.2511
 1377TIP3    H125766   2.303   2.942   8.555  0.3052  0.6553  0.4922
 1377TIP3    H225767   2.407   2.838   8.591 -1.0889 -0.8059  0.3768
 1378TIP3   OH225768   3.296   4.513   1.838  0.7327 -0.0746  0.2580
 1378TIP3    H125769   3.270   4.588   1.892  0.1739  0.3980 -0.6545
 1378TIP3    H225770   3.298   4.439   1.899  1.2153  0.6633  1.1538
 1379TIP3   OH225771   5.303   4.741   1.629 -0.2928  0.2009 -0.3896
 1379TIP3    H125772   5.258   4.772   1.707 -0.5346  0.2817 -0.5593
 1379TIP3    H225773   5.267   4.653   1.613 -0.1918  0.1552 -0.3682
 1380TIP3   OH225774   5.636   6.533   1.280  0.3677 -0.5960  0.4615
 1380TIP3    H125775   5.587   6.572   1.208 -0.8580  0.6862  1.9110
 1380TIP3    H225776   5.606   6.443   1.285 -1.1023 -0.1250  0.6401
 1381TIP3   OH225777   5.294   2.679   0.064  0.1897  0.2477 -0.6771
 1381TIP3    H125778   5.317   2.766   0.029 -0.0752  1.0339  0.9865
 1381TIP3    H225779   5.376   2.645   0.099 -0.3876  1.6376  2.3097
 1382TIP3   OH225780   1.621   6.778   3.318 -0.0857  0.4345  0.5417
 1382TIP3    H125781   1.650   6.725   3.392  1.7471 -0.0138 -0.4257
 1382TIP3    H225782   1.528   6.757   3.308  0.5373 -2.6124  0.2437
 1383TIP3   OH225783   6.737   5.576   8.215 -0.1214 -0.1220 -0.0012
 1383TIP3    H125784   6.661   5.618   8.176  0.8848  0.9798 -0.8591
 1383TIP3    H225785   6.809   5.595   8.154  0.5584 -2.4456 -0.0190
 1384TIP3   OH225786   1.023   0.510   7.975 -0.7061 -0.0166 -0.4533
 1384TIP3    H125787   1.061   0.578   7.920  0.0960 -1.3753 -1.6518
 1384TIP3    H225788   1.082   0.503   8.049  0.5970 -1.0404 -1.5362
 1385TIP3   OH225789   3.596   5.734   3.157  0.3732  0.1950  0.1400
 1385TIP3    H125790   3.611   5.645   3.126 -0.9293 -0.8837  2.4160
 1385TIP3    H225791   3.683   5.773   3.158  0.9886 -1.0566 -0.7818
 1386TIP3   OH225792   3.647   2.501   1.498  0.1013 -0.7892 -0.2599
 1386TIP3    H125793   3.681   2.443   1.431  0.5400 -1.3321  0.4303
 1386TIP3    H225794   3.721   2.556   1.523  0.4298 -1.7885  1.0458
 1387TIP3   OH225795   2.997   2.663   2.225 -0.5815  0.2804 -0.1913
 1387TIP3    H125796   2.993   2.576   2.263 -1.6228  0.3856 -0.0180
 1387TIP3    H225797   3.044   2.651   2.142  1.4786  0.0112  0.9730
 1388TIP3   OH225798   6.815   2.679   3.266 -0.2118  0.1048 -0.1652
 1388TIP3    H125799   6.891   2.697   3.321  0.3186 -2.6943  0.1761
 1388TIP3    H225800   6.848   2.684   3.176 -0.0563  0.6061 -0.0800
 1389TIP3   OH225801   5.958   4.381   1.516  0.0443  0.4453 -0.2951
 1389TIP3    H125802   6.035   4.366   1.571 -0.6385 -1.4532  0.1982
 1389TIP3    H225803   5.889   4.404   1.577 -0.4655 -0.6468 -0.4505
 1390TIP3   OH225804   1.075   0.015   1.081 -0.0557  0.1894 -0.0820
 1390TIP3    H125805   1.085  -0.076   1.109 -2.3598  0.1625  0.8641
 1390TIP3    H225806   1.153   0.032   1.028 -0.1966 -2.7733 -1.4715
 1391TIP3   OH225807   2.171   3.685   7.991 -0.1672 -0.0625  0.3499
 1391TIP3    H125808   2.115   3.656   7.919 -0.9762  0.9279  0.5542
 1391TIP3    H225809   2.147   3.630   8.065 -0.5369  0.0323  0.3024
 1392TIP3   OH225810   2.979   5.957   0.092 -0.3404  0.2461  0.2127
 1392TIP3    H125811   3.031   5.878   0.104 -0.8163 -0.3169 -1.3302
 1392TIP3    H225812   2.898   5.928   0.052 -1.4356  1.2634  1.5664
 1393TIP3   OH225813   1.121   5.410   8.738  0.4361  0.3984  0.1466
 1393TIP3    H125814   1.194   5.470   8.724  1.2311 -0.0202  2.2666
 1393TIP3    H225815   1.051   5.465   8.774  0.1180  0.5608 -0.6888
 1394TIP3   OH225816   4.667   4.827   8.484 -0.2250  0.0413 -0.2535
 1394TIP3    H125817   4.681   4.827   8.390  0.7548  0.1322 -0.1136
 1394TIP3    H225818   4.755   4.821   8.522 -0.5034  1.3274  0.6579
 1395TIP3   OH225819   5.129   1.461   8.406 -0.2640 -0.3144 -0.0475
 1395TIP3    H125820   5.123   1.373   8.443  2.5609  0.0401  1.5299
 1395TIP3    H225821   5.102   1.450   8.315 -1.2985 -2.5060  0.4424
 1396TIP3   OH225822   5.913   5.733   0.560 -0.4782 -0.5696 -0.3148
 1396TIP3    H125823   6.004   5.756   0.538  0.5286 -3.6374  0.1670
 1396TIP3    H225824   5.874   5.816   0.587  1.8072  1.0912 -1.6739
 1397TIP3   OH225825   5.226   3.201   1.491  0.1806  0.2128  0.7314
 1397TIP3    H125826   5.209   3.292   1.518 -0.4533 -0.0339  1.1958
 1397TIP3    H225827   5.290   3.169   1.555  2.1683  1.0190 -0.7811
 1398TIP3   OH225828   3.169   3.586   0.956 -0.1855 -0.3563 -0.0428
 1398TIP3    H125829   3.214   3.601   0.873  0.6563 -1.4943  0.1801
 1398TIP3    H225830   3.084   3.549   0.931  1.3178 -3.9731 -0.4384
 1399TIP3   OH225831   5.153   1.365   3.380  0.2770  0.1364  0.4696
 1399TIP3    H125832   5.170   1.292   3.440  0.4765  1.3511  1.9363
 1399TIP3    H225833   5.211   1.435   3.410  0.1252  0.9029 -0.9478
 1400TIP3   OH225834   5.854   2.066   3.198 -0.0010 -0.2722  0.1480
 1400TIP3    H125835   5.942   2.077   3.160 -0.3357  0.1718 -0.5130
 1400TIP3    H225836   5.828   2.155   3.222 -0.6064 -0.2985 -0.4086
 1401TIP3   OH225837   5.692   4.847   1.357  0.1666 -0.6355 -0.2889
 1401TIP3    H125838   5.606   4.887   1.373  0.3467 -0.3899  0.0925
 1401TIP3    H225839   5.728   4.897   1.284 -1.0328 -2.3380 -2.1738
 1402TIP3   OH225840   6.261   1.728   0.580  0.3226  0.4035 -0.3207
 1402TIP3    H125841   6.289   1.797   0.640 -2.5271  1.5316 -0.1455
 1402TIP3    H225842   6.178   1.696   0.616  1.1068 -2.6063 -0.8654
 1403TIP3   OH225843   2.247   5.856   3.847  0.1056 -0.8701  0.3633
 1403TIP3    H125844   2.239   5.762   3.832 -3.3614 -0.8465  1.3136
 1403TIP3    H225845   2.171   5.879   3.901  0.3709  2.6083 -0.4986
 1404TIP3   OH225846   5.749   2.491   1.206 -0.1878 -0.3211  0.1466
 1404TIP3    H125847   5.664   2.535   1.203  0.1076  0.2096 -1.4805
 1404TIP3    H225848   5.807   2.548   1.155  1.1480 -0.6949  1.1864
 1405TIP3   OH225849   3.247   1.455   8.366 -0.2952 -1.0153  0.4847
 1405TIP3    H125850   3.249   1.371   8.320  1.0572  0.7085 -2.9861
 1405TIP3    H225851   3.339   1.478   8.378 -0.6259  0.4802  0.3099
 1406TIP3   OH225852   0.393   4.379   3.397 -0.0666 -0.0239 -0.1834
 1406TIP3    H125853   0.340   4.370   3.318 -0.8512 -0.6399  0.4049
 1406TIP3    H225854   0.344   4.442   3.451  0.3713  0.2498 -0.1000
 1407TIP3   OH225855   0.791   6.156   0.207  0.3562 -0.2143  0.6608
 1407TIP3    H125856   0.841   6.234   0.228  1.1954 -0.4849 -0.2312
 1407TIP3    H225857   0.829   6.125   0.124 -0.5623 -1.0489  0.5335
 1408TIP3   OH225858   0.493   4.944   1.872 -0.3904 -0.1098 -0.1540
 1408TIP3    H125859   0.535   4.997   1.940  1.5838 -1.6232 -0.0933
 1408TIP3    H225860   0.539   4.967   1.792 -1.9680  0.8598 -0.8217
 1409TIP3   OH225861   0.685   6.433   2.260 -0.6696 -0.0586 -0.0381
 1409TIP3    H125862   0.640   6.349   2.248 -3.1679  1.2140 -0.3502
 1409TIP3    H225863   0.640   6.492   2.200  0.4875  1.7113  0.7614
 1410TIP3   OH225864   1.079   1.749   7.997 -0.1441  0.3655 -0.0812
 1410TIP3    H125865   1.164   1.707   7.987 -0.2553  0.2782 -0.7032
 1410TIP3    H225866   1.020   1.699   7.940  0.0820  2.3728 -2.2543
 1411TIP3   OH225867   2.244   1.389   1.539 -0.4899  0.3603  0.1804
 1411TIP3    H125868   2.331   1.430   1.534 -0.4553  0.2500 -0.1984
 1411TIP3    H225869   2.262   1.296   1.552 -0.4031 -0.2586 -3.2206
 1412TIP3   OH225870   1.724   4.096   3.331  0.1405  0.2965 -0.0421
 1412TIP3    H125871   1.639   4.066   3.300 -0.2994 -0.4122  1.7177
 1412TIP3    H225872   1.707   4.185   3.364  0.2895  0.5078 -0.5352
 1413TIP3   OH225873   6.663   4.995   2.989  0.4861  0.0271 -0.1196
 1413TIP3    H125874   6.671   4.903   2.962 -1.4600 -0.0355 -0.6390
 1413TIP3    H225875   6.581   4.998   3.038  1.6403  1.0801  1.8491
 1414TIP3   OH225876   6.217   6.621   0.873  0.4124  0.0589  0.2762
 1414TIP3    H125877   6.279   6.601   0.943 -2.2680  0.3414  2.8981
 1414TIP3    H225878   6.225   6.715   0.860 -0.2441  0.3030  1.4784
 1415TIP3   OH225879   0.579   0.035   3.426 -0.1587  0.4240  0.2059
 1415TIP3    H125880   0.490   0.003   3.413 -0.3660  0.6415  1.0116
 1415TIP3    H225881   0.569   0.119   3.469  0.4461 -0.1930  1.6284
 1416TIP3   OH225882   6.343   0.892   2.262  0.1633  0.4210 -0.3554
 1416TIP3    H125883   6.322   0.836   2.187 -0.8517  0.5575 -0.1750
 1416TIP3    H225884   6.286   0.861   2.332 -0.0173  1.3279 -0.0954
 1417TIP3   OH225885   1.352   0.799   2.752 -0.3263  0.6510  0.1473
 1417TIP3    H125886   1.351   0.743   2.829  0.6553  0.8783  0.3439
 1417TIP3    H225887   1.301   0.876   2.777  0.1918  0.8347  0.6716
 1418TIP3   OH225888   4.528   3.639   0.068 -0.1585 -0.0259  0.6414
 1418TIP3    H125889   4.476   3.703   0.116  0.4364 -0.1209  1.4196
 1418TIP3    H225890   4.619   3.661   0.088  0.1748  0.6608 -1.3574
 1419TIP3   OH225891   4.685   3.705   1.209  0.2918 -0.2732  0.3380
 1419TIP3    H125892   4.620   3.742   1.150  0.5483  0.1669  0.3244
 1419TIP3    H225893   4.641   3.630   1.250  0.0175 -0.4033 -0.1898
 1420TIP3   OH225894   0.827   5.440   2.331  0.2427 -0.3155 -0.1096
 1420TIP3    H125895   0.755   5.495   2.299 -0.1686 -1.1476 -0.6548
 1420TIP3    H225896   0.902   5.463   2.276 -0.1440 -0.8684 -0.8884
 1421TIP3   OH225897   2.940   3.609   0.380 -0.1091 -0.0380 -0.2875
 1421TIP3    H125898   3.021   3.561   0.366 -0.8081 -0.8381 -1.8185
 1421TIP3    H225899   2.928   3.659   0.300 -1.8760 -1.0861 -0.7226
 1422TIP3   OH225900   1.491   5.781   0.310 -0.1267 -0.0772  0.2545
 1422TIP3    H125901   1.471   5.810   0.399 -0.2693  0.1210  0.1588
 1422TIP3    H225902   1.519   5.690   0.320  3.0680  0.8492  0.9219
 1423TIP3   OH225903   5.907   0.191   2.941  0.0350  0.3620  0.3821
 1423TIP3    H125904   5.982   0.158   2.991  0.7362  1.3583  0.0101
 1423TIP3    H225905   5.832   0.140   2.973  0.9122 -0.8543  0.5449
 1424TIP3   OH225906   1.591   3.487   3.359  0.0931  0.5797 -0.0676
 1424TIP3    H125907   1.632   3.568   3.391 -0.4294  0.5978  0.5953
 1424TIP3    H225908   1.498   3.509   3.352  0.1046  0.3622 -0.9639
 1425TIP3   OH225909   6.636   5.086   0.660 -0.6465 -0.0379 -0.0457
 1425TIP3    H125910   6.649   5.140   0.738 -0.9160 -0.3737  0.2315
 1425TIP3    H225911   6.551   5.044   0.672 -0.7458 -0.0014 -0.5771
 1426TIP3   OH225912   1.599   5.660   1.182 -0.1836  0.7242 -0.2630
 1426TIP3    H125913   1.619   5.573   1.218  1.5969  1.2633  0.1237
 1426TIP3    H225914   1.592   5.644   1.088  0.3843  0.1813 -0.2276
 1427TIP3   OH225915   3.661   3.130   0.938 -0.2936  0.2148  0.1761
 1427TIP3    H125916   3.723   3.079   0.886 -0.1545  0.8664 -0.3096
 1427TIP3    H225917   3.703   3.140   1.023 -0.6113 -1.0368  0.5060
 1428TIP3   OH225918   0.338   6.257   2.006 -0.0390  0.5075  0.1222
 1428TIP3    H125919   0.273   6.269   1.937 -1.6284  0.0673  1.4814
 1428TIP3    H225920   0.414   6.306   1.977 -0.0357 -0.9998 -2.7295
 1429TIP3   OH225921   2.432   1.577   1.505  0.9140  0.1950 -0.0002
 1429TIP3    H125922   2.449   1.671   1.492  1.2732  0.1588  0.2114
 1429TIP3    H225923   2.492   1.533   1.445 -0.6375  0.1269 -1.6134
 1430TIP3   OH225924   0.168   3.786   8.203  0.0583 -0.1791 -0.0834
 1430TIP3    H125925   0.179   3.849   8.275  1.7088 -0.7566  0.2173
 1430TIP3    H225926   0.204   3.832   8.127  1.8174 -0.9379  0.2567
 1431TIP3   OH225927   0.742   5.067   1.359  0.2339 -0.3447 -0.2943
 1431TIP3    H125928   0.772   5.127   1.427  0.1192 -0.5981 -0.0170
 1431TIP3    H225929   0.789   4.985   1.377 -0.7797 -0.8156  0.2771
 1432TIP3   OH225930   3.918   4.395   8.492  0.0071 -0.4332 -0.1508
 1432TIP3    H125931   3.823   4.384   8.494 -0.0729  0.2535  1.3206
 1432TIP3    H225932   3.953   4.307   8.504 -0.4639 -0.5213  0.6439
 1433TIP3   OH225933   2.614   0.384   3.516 -0.6882 -0.1146 -0.5276
 1433TIP3    H125934   2.560   0.457   3.543 -0.4947 -0.3220  0.4459
 1433TIP3    H225935   2.665   0.361   3.594 -0.9988 -1.5023 -0.7117
 1434TIP3   OH225936   1.378   2.456   8.329  0.3478  0.2084 -0.1637
 1434TIP3    H125937   1.325   2.379   8.345  1.7948 -0.8045 -0.0011
 1434TIP3    H225938   1.327   2.510   8.268 -1.7321  0.3010  1.5848
 1435TIP3   OH225939   3.389   0.376   8.309 -0.1322  0.1784  0.5677
 1435TIP3    H125940   3.458   0.312   8.325  1.1178  1.6300  1.2428
 1435TIP3    H225941   3.413   0.418   8.226 -1.2891 -0.6114 -0.2045
 1436TIP3   OH225942   5.982   2.938   8.033  0.3669  0.3170 -0.3612
 1436TIP3    H125943   6.064   2.961   7.990  0.2896  0.4238 -0.4500
 1436TIP3    H225944   5.918   2.935   7.962  0.4207 -0.3938 -0.3953
 1437TIP3   OH225945   0.844   0.767   8.094 -0.0640  0.1934 -1.0783
 1437TIP3    H125946   0.806   0.770   8.182  0.1794  3.1369 -0.9591
 1437TIP3    H225947   0.905   0.694   8.096 -0.6971 -0.3398  0.9201
 1438TIP3   OH225948   5.372   0.692   0.071  0.0896  0.0646 -0.2324
 1438TIP3    H125949   5.453   0.687   0.021  1.0252  0.5050  1.1728
 1438TIP3    H225950   5.391   0.754   0.141 -1.2536 -0.3079  0.4960
 1439TIP3   OH225951   6.145   0.560   2.184  0.3474 -0.3480  0.5498
 1439TIP3    H125952   6.223   0.516   2.218  0.9580 -1.1150 -1.6962
 1439TIP3    H225953   6.178   0.623   2.121 -0.8223 -0.0875  0.1793
 1440TIP3   OH225954   2.237   0.767   2.080  0.1106  0.1837  0.0460
 1440TIP3    H125955   2.315   0.818   2.059  0.3470 -0.6836 -1.3014
 1440TIP3    H225956   2.246   0.686   2.029  0.7508 -2.2140  3.5793
 1441TIP3   OH225957   3.061   3.828   0.606 -0.4915  0.6789  0.7583
 1441TIP3    H125958   3.002   3.753   0.609  0.3141  0.0490  1.1801
 1441TIP3    H225959   3.027   3.882   0.535  0.8330 -1.7119 -1.8530
 1442TIP3   OH225960   6.823   2.421   2.405  0.1536  0.8297  0.2036
 1442TIP3    H125961   6.865   2.493   2.359  0.9315  0.8738  0.9602
 1442TIP3    H225962   6.875   2.344   2.382  1.7844  1.1452  2.4833
 1443TIP3   OH225963   2.086   2.704   8.755  0.4033  1.2593  0.5881
 1443TIP3    H125964   2.061   2.682   8.665  2.4048  1.4629 -0.0757
 1443TIP3    H225965   2.017   2.764   8.785 -1.0629  0.0711 -0.2659
 1444TIP3   OH225966   3.096   2.406   2.246  0.3876  0.2188 -0.1842
 1444TIP3    H125967   3.177   2.440   2.208  0.3398 -1.6902 -2.2472
 1444TIP3    H225968   3.124   2.334   2.302  0.2817  1.5924  1.7154
 1445TIP3   OH225969   1.915   0.609   0.343  0.3941  0.3516  0.4957
 1445TIP3    H125970   1.945   0.658   0.420  0.1568 -1.0991  1.5682
 1445TIP3    H225971   1.850   0.666   0.302  1.1676  1.5312  0.8452
 1446TIP3   OH225972   4.854   6.663   1.284  0.2383  1.0085  0.1144
 1446TIP3    H125973   4.870   6.709   1.366 -0.7686  1.6647 -0.0399
 1446TIP3    H225974   4.865   6.729   1.216  2.2431  0.2151 -0.4171
 1447TIP3   OH225975   6.511   0.813   1.478  0.0622  0.0190  0.5863
 1447TIP3    H125976   6.544   0.884   1.534  2.1575  0.5063 -1.1339
 1447TIP3    H225977   6.507   0.737   1.536 -0.0740  1.0240  1.9366
 1448TIP3   OH225978   2.161   4.912   3.186  0.0947 -0.1791 -0.2072
 1448TIP3    H125979   2.183   4.897   3.278 -0.3109  1.7270  0.2490
 1448TIP3    H225980   2.245   4.903   3.140  0.2341 -1.4991  0.2849
 1449TIP3   OH225981   6.163   0.497   2.622  0.0303 -0.3771 -0.8617
 1449TIP3    H125982   6.229   0.465   2.560 -0.5560 -0.3525 -1.5119
 1449TIP3    H225983   6.144   0.421   2.678 -1.2693 -1.1973 -2.3269
 1450TIP3   OH225984   0.100   2.603   8.018  0.2733  0.1635  0.2724
 1450TIP3    H125985   0.115   2.509   8.031 -0.1826 -0.2341 -1.7165
 1450TIP3    H225986   0.184   2.636   7.987  0.2068  0.2363  0.1682
 1451TIP3   OH225987   3.711   0.604   0.911 -0.0156  0.2919  0.5327
 1451TIP3    H125988   3.669   0.533   0.959  0.2918 -2.9536 -3.5383
 1451TIP3    H225989   3.639   0.646   0.863  0.3708 -0.3276 -0.6101
 1452TIP3   OH225990   0.372   2.999   1.854 -0.0539  0.5701  0.0335
 1452TIP3    H125991   0.433   2.925   1.854  1.0817  1.4871  0.1556
 1452TIP3    H225992   0.401   3.054   1.781 -0.9342  0.8731 -0.1035
 1453TIP3   OH225993   3.485   4.445   2.123 -0.4754  0.5089  0.3320
 1453TIP3    H125994   3.438   4.385   2.066  0.8398 -0.3529  0.1165
 1453TIP3    H225995   3.437   4.442   2.206 -0.0346 -1.4455  0.5754
 1454TIP3   OH225996   1.992   3.306   8.513 -0.5534 -0.0664 -0.2288
 1454TIP3    H125997   1.997   3.264   8.427  0.4036  0.3946 -0.4198
 1454TIP3    H225998   1.901   3.296   8.540 -0.2553 -2.7273 -0.0095
 1455TIP3   OH225999   5.704   0.455   3.490  0.2557 -0.0397 -0.0075
 1455TIP3    H126000   5.657   0.435   3.571 -1.1660  1.8590 -0.2816
 1455TIP3    H226001   5.666   0.396   3.425  0.0221 -0.2241  0.2921
 1456TIP3   OH226002   3.667   4.730   0.330  0.1733 -0.3504  0.5143
 1456TIP3    H126003   3.645   4.774   0.248  2.6450 -2.5084 -1.4442
 1456TIP3    H226004   3.607   4.656   0.335 -1.1983  0.7690  1.6959
 1457TIP3   OH226005   4.587   0.268   3.091 -0.1978 -0.4370  0.1165
 1457TIP3    H126006   4.636   0.342   3.130 -0.0652 -0.2714 -0.3553
 1457TIP3    H226007   4.655   0.211   3.056 -0.3026  1.3416 -3.4349
 1458TIP3   OH226008   5.024   1.582   3.524  0.6274  0.1093 -0.4870
 1458TIP3    H126009   5.022   1.519   3.596  1.2100 -1.3499 -1.6740
 1458TIP3    H226010   5.117   1.589   3.502  0.4218  0.1802 -1.3743
 1459TIP3   OH226011   6.018   3.084   1.509  0.0563 -0.2872 -0.4702
 1459TIP3    H126012   5.931   3.061   1.476  0.6685 -3.2171 -0.2825
 1459TIP3    H226013   6.001   3.137   1.586 -1.7249 -2.7248  0.9557
 1460TIP3   OH226014   2.894   3.902   1.226  0.2099  0.2216 -0.2965
 1460TIP3    H126015   2.820   3.955   1.197  1.2390  2.1058  0.3756
 1460TIP3    H226016   2.915   3.847   1.150 -0.7767  0.8784 -1.0782
 1461TIP3   OH226017   0.275   1.354   1.119  0.1976 -0.1347 -0.2949
 1461TIP3    H126018   0.232   1.335   1.036  0.5816 -0.2532 -0.4715
 1461TIP3    H226019   0.345   1.289   1.125  1.2830  0.9336 -0.7225
 1462TIP3   OH226020   6.176   4.757   7.921 -0.2242  0.0214 -0.1415
 1462TIP3    H126021   6.130   4.675   7.900  0.2898 -0.6251  1.1057
 1462TIP3    H226022   6.163   4.813   7.845 -1.0742 -1.0188 -0.7846
 1463TIP3   OH226023   6.801   4.256   0.015  0.0921  0.2645  0.3323
 1463TIP3    H126024   6.867   4.326   0.018 -0.0493  0.3624  1.6922
 1463TIP3    H226025   6.735   4.283   0.078  0.4358 -1.4855  1.4931
 1464TIP3   OH226026   5.933   4.204   3.045 -0.1464  0.3522  0.6589
 1464TIP3    H126027   6.022   4.232   3.067  0.2380 -0.6849  0.4782
 1464TIP3    H226028   5.935   4.190   2.951 -0.6082  0.6587  0.5976
 1465TIP3   OH226029   6.388   6.804   8.710 -0.5618 -0.4762 -0.0157
 1465TIP3    H126030   6.476   6.793   8.746 -0.3893 -1.3738 -0.6843
 1465TIP3    H226031   6.340   6.850   8.779  1.4965  4.0282 -1.1534
 1466TIP3   OH226032   0.630   3.332   1.604  0.3647 -0.0104 -0.0572
 1466TIP3    H126033   0.592   3.411   1.642  1.6491  0.1287  1.0024
 1466TIP3    H226034   0.710   3.363   1.560  0.4568 -0.6097 -0.3171
 1467TIP3   OH226035   5.787   2.462   8.750  0.4260  0.0871  0.9258
 1467TIP3    H126036   5.753   2.394   8.691 -0.0679  0.0253  1.2751
 1467TIP3    H226037   5.882   2.459   8.738  0.3061  0.4879 -0.3214
 1468TIP3   OH226038   0.242   6.214   2.847  0.1073  0.0583  1.0350
 1468TIP3    H126039   0.239   6.124   2.816  1.8782  0.6523 -1.1436
 1468TIP3    H226040   0.191   6.263   2.783  2.3986  1.0828 -0.1373
 1469TIP3   OH226041   2.049   6.411   2.341 -0.1925  0.0763  0.1476
 1469TIP3    H126042   2.074   6.330   2.295  2.3388  0.0395  1.4169
 1469TIP3    H226043   1.953   6.409   2.343 -0.4966 -0.3318 -4.2833
 1470TIP3   OH226044   3.169   6.412   2.828 -0.1288  0.2160 -0.2063
 1470TIP3    H126045   3.124   6.476   2.884  0.4186  1.9542 -1.6915
 1470TIP3    H226046   3.116   6.333   2.837 -0.0921  0.3912  2.7262
 1471TIP3   OH226047   0.075   5.118   4.166  0.5743 -0.1333  0.0928
 1471TIP3    H126048   0.058   5.024   4.179  0.5712 -0.2605 -0.7578
 1471TIP3    H226049   0.139   5.121   4.095 -0.4579  0.5366 -0.8520
 1472TIP3   OH226050   1.996   0.137   8.461 -0.2317  0.2993  0.1421
 1472TIP3    H126051   2.052   0.175   8.529  0.2796  1.7593 -1.0594
 1472TIP3    H226052   2.044   0.151   8.380 -0.8197 -1.4532 -0.5458
 1473TIP3   OH226053   1.600   5.920   1.319 -0.0636  0.5751  0.1372
 1473TIP3    H126054   1.610   5.830   1.291 -1.1377  0.8021 -1.0194
 1473TIP3    H226055   1.656   5.970   1.259 -0.3100  0.7896  0.0854
 1474TIP3   OH226056   2.639   4.645   0.078 -0.0735  0.1305 -0.3683
 1474TIP3    H126057   2.727   4.618   0.052 -0.4088 -0.9122 -0.4680
 1474TIP3    H226058   2.594   4.563   0.100 -1.0711  0.6230 -0.4916
 1475TIP3   OH226059   5.667   6.770   0.145 -0.0389  0.3041 -0.3170
 1475TIP3    H126060   5.760   6.748   0.141  0.0180  0.4947 -0.0349
 1475TIP3    H226061   5.639   6.768   0.053  0.0201 -0.6822 -0.3244
 1476TIP3   OH226062   5.596   0.347   7.959  0.0969 -0.0311  0.2583
 1476TIP3    H126063   5.618   0.269   8.010  0.3254 -0.8991 -1.1067
 1476TIP3    H226064   5.677   0.398   7.956  0.4845 -0.6711 -0.4039
 1477TIP3   OH226065   5.654   4.763   0.158 -0.2974 -0.1268 -0.5626
 1477TIP3    H126066   5.735   4.766   0.208 -0.1342 -0.2572 -0.8170
 1477TIP3    H226067   5.645   4.851   0.121 -1.6241  0.7064  1.5783
 1478TIP3   OH226068   5.981   4.522   7.766  0.4290 -0.0525  0.2051
 1478TIP3    H126069   6.034   4.443   7.752 -0.6757 -0.8723  0.4744
 1478TIP3    H226070   5.891   4.490   7.766 -0.0699  1.2873 -0.1048
 1479TIP3   OH226071   5.385   3.683   1.434 -0.0263  0.0548 -0.2563
 1479TIP3    H126072   5.384   3.766   1.481 -0.0451 -0.0138 -0.1371
 1479TIP3    H226073   5.338   3.701   1.352  0.0784  0.1943 -0.2857
 1480TIP3   OH226074   0.481   0.476   2.882  0.2931 -0.0661 -0.2381
 1480TIP3    H126075   0.501   0.393   2.839  0.4372 -0.8108  1.2048
 1480TIP3    H226076   0.545   0.538   2.847 -0.1809 -0.4001 -1.7617
 1481TIP3   OH226077   4.652   3.080   0.659  0.2373 -0.3276 -0.0037
 1481TIP3    H126078   4.592   3.146   0.625 -0.6863 -0.4786  1.2881
 1481TIP3    H226079   4.733   3.094   0.608 -0.0332  1.5687 -0.0085
 1482TIP3   OH226080   1.934   2.289   3.711 -0.3974 -0.2549  0.3577
 1482TIP3    H126081   1.962   2.210   3.757 -1.0648 -0.3374  0.6345
 1482TIP3    H226082   1.870   2.258   3.647  0.7432 -0.1803 -0.8532
 1483TIP3   OH226083   2.496   3.086   8.794 -0.1038 -0.2531 -0.0760
 1483TIP3    H126084   2.586   3.064   8.768 -0.3030 -1.3617  0.1226
 1483TIP3    H226085   2.442   3.052   8.723 -0.4624 -0.8971  0.5020
 1484TIP3   OH226086   6.258   5.336   1.191 -0.1365  0.4495 -0.4492
 1484TIP3    H126087   6.246   5.388   1.271  0.9264 -0.2036  0.1538
 1484TIP3    H226088   6.253   5.400   1.120  1.0042  1.3936  0.2720
 1485TIP3   OH226089   2.203   6.825   2.902 -0.6304 -0.1344  0.1209
 1485TIP3    H126090   2.157   6.878   2.967 -0.9140 -1.3538  0.9381
 1485TIP3    H226091   2.152   6.745   2.895  0.0929 -0.5468 -0.6931
 1486TIP3   OH226092   1.483   6.313   0.373 -0.0154 -0.4873 -0.2330
 1486TIP3    H126093   1.503   6.380   0.439 -0.7093 -0.0840 -0.4329
 1486TIP3    H226094   1.569   6.291   0.336  0.4798 -1.1553  1.2040
 1487TIP3   OH226095   4.832   4.522   3.058 -0.1441 -0.0797 -0.1247
 1487TIP3    H126096   4.908   4.578   3.045 -0.1593  0.1042  0.5246
 1487TIP3    H226097   4.861   4.456   3.121 -0.2334 -0.5987 -0.6153
 1488TIP3   OH226098   0.050   0.121   1.118  0.7085  0.1852 -0.3066
 1488TIP3    H126099   0.011   0.058   1.178 -0.7694  0.0710 -1.3346
 1488TIP3    H226100   0.120   0.073   1.074 -0.4988 -0.8381 -1.1941
 1489TIP3   OH226101   5.163   5.464   0.690  0.0325 -0.6015  0.1632
 1489TIP3    H126102   5.203   5.415   0.762  0.6329  1.0127  0.9837
 1489TIP3    H226103   5.237   5.504   0.644 -0.4509 -0.1717 -0.2531
 1490TIP3   OH226104   0.186   0.799   1.514 -0.0273  0.3880  0.1717
 1490TIP3    H126105   0.188   0.732   1.582 -0.5821  0.3744  0.1822
 1490TIP3    H226106   0.140   0.873   1.555  1.4177  1.1520  0.4867
 1491TIP3   OH226107   5.511   3.398   0.571  0.0343  0.0728 -0.1106
 1491TIP3    H126108   5.437   3.381   0.629  0.0707  3.1387  1.0209
 1491TIP3    H226109   5.588   3.371   0.621 -0.1815 -2.9337 -1.2136
 1492TIP3   OH226110   5.427   2.422   2.483 -0.0638  0.2105  0.0433
 1492TIP3    H126111   5.396   2.352   2.540 -1.1565  0.9365  0.3743
 1492TIP3    H226112   5.516   2.439   2.512 -0.0306 -0.5738  0.4186
 1493TIP3   OH226113   0.951   2.111   1.565 -0.1538 -0.2993 -0.1466
 1493TIP3    H126114   0.911   2.029   1.594  1.2279 -0.6778  0.7820
 1493TIP3    H226115   0.990   2.148   1.644 -0.6983  1.2435 -0.5627
 1494TIP3   OH226116   4.253   0.072   1.717 -0.0820  0.2586  0.1047
 1494TIP3    H126117   4.244   0.113   1.631  1.4081 -0.6386 -0.5284
 1494TIP3    H226118   4.338   0.101   1.749  0.4955 -1.3466  0.1433
 1495TIP3   OH226119   2.987   3.767   3.380  0.2745 -0.1359 -0.0933
 1495TIP3    H126120   3.050   3.829   3.342 -0.1086 -0.1923 -0.8381
 1495TIP3    H226121   2.983   3.791   3.472  1.9650 -0.6146  0.1432
 1496TIP3   OH226122   6.475   1.339   2.589  0.1784  0.9411 -0.2489
 1496TIP3    H126123   6.467   1.412   2.527  2.2560  0.1322 -1.5801
 1496TIP3    H226124   6.552   1.290   2.559  0.3466 -0.3833  2.0938
 1497TIP3   OH226125   1.330   5.884   2.998  0.7790  0.2139 -0.5508
 1497TIP3    H126126   1.305   5.904   3.088 -0.4725 -1.8398 -0.3842
 1497TIP3    H226127   1.421   5.854   3.005 -0.8057 -5.5683  1.1637
 1498TIP3   OH226128   4.110   3.508   1.032  0.2121 -0.1408  0.0356
 1498TIP3    H126129   4.142   3.423   1.063 -0.7481 -0.5041  0.0631
 1498TIP3    H226130   4.093   3.558   1.111 -0.4086 -0.3797  0.0607
 1499TIP3   OH226131   1.765   2.041   8.785  0.9288  0.8334  0.1158
 1499TIP3    H126132   1.675   2.046   8.752  1.0724  0.8600 -0.2847
 1499TIP3    H226133   1.759   2.065   8.877  0.4934  0.6183  0.1450
 1500TIP3   OH226134   4.463   4.826   8.655  0.1377 -0.2080 -0.1001
 1500TIP3    H126135   4.462   4.732   8.673  0.9794 -0.2066 -0.0327
 1500TIP3    H226136   4.536   4.838   8.594  0.0242  0.3982 -0.1195
 1501TIP3   OH226137   2.570   2.276   2.095  0.0853  0.0421  0.0185
 1501TIP3    H126138   2.620   2.334   2.152  0.5222  1.4469 -1.7149
 1501TIP3    H226139   2.633   2.246   2.030 -0.4944 -1.1794  0.0026
 1502TIP3   OH226140   3.317   5.709   2.387 -0.0343  0.5071 -0.1525
 1502TIP3    H126141   3.279   5.639   2.333  1.1418  0.8961 -1.5607
 1502TIP3    H226142   3.250   5.778   2.388 -0.4485  0.1136 -0.3169
 1503TIP3   OH226143   5.228   5.741   1.382 -0.0330  0.2233 -0.3560
 1503TIP3    H126144   5.239   5.829   1.417 -0.5169 -0.0791  0.5858
 1503TIP3    H226145   5.176   5.753   1.303 -0.2244  0.7733 -0.1529
 1504TIP3   OH226146   1.506   6.425   2.234  0.7007  0.9112 -0.1152
 1504TIP3    H126147   1.425   6.431   2.284  0.5088 -2.3043  0.1628
 1504TIP3    H226148   1.482   6.456   2.146 -0.8938 -0.1080 -0.0793
 1505TIP3   OH226149   6.279   5.451   8.638  0.8379  1.0893 -0.0132
 1505TIP3    H126150   6.321   5.513   8.579  1.3460  0.3333 -0.4734
 1505TIP3    H226151   6.311   5.365   8.610 -1.9822  0.3095 -1.2422
 1506TIP3   OH226152   4.509   0.070   2.851  0.4753 -0.1872  0.3380
 1506TIP3    H126153   4.562   0.064   2.930  1.9454 -1.0735 -0.6793
 1506TIP3    H226154   4.527   0.157   2.816 -1.2465  0.7648  1.6476
 1507TIP3   OH226155   3.136   3.446   3.218 -0.3885  0.0116  0.1355
 1507TIP3    H126156   3.119   3.492   3.137 -1.8581 -0.1151  0.3485
 1507TIP3    H226157   3.130   3.513   3.286  1.3350  0.2179  0.1338
 1508TIP3   OH226158   3.266   3.904   3.276  0.1293 -0.6341 -0.4245
 1508TIP3    H126159   3.306   3.885   3.361  0.3309  1.6749  0.0732
 1508TIP3    H226160   3.335   3.886   3.212 -0.5559 -4.0590 -0.3551
 1509TIP3   OH226161   4.166   0.363   0.105 -0.1038 -0.2082 -0.3145
 1509TIP3    H126162   4.166   0.355   0.010  0.0830  0.6446 -0.3992
 1509TIP3    H226163   4.257   0.384   0.127 -0.2864  0.3041 -0.0266
 1510TIP3   OH226164   0.707   2.827   8.048 -0.0570  0.0244 -0.0357
 1510TIP3    H126165   0.750   2.907   8.077 -0.1637 -0.0830  0.4349
 1510TIP3    H226166   0.771   2.758   8.064 -1.4265 -0.6487  3.7827
 1511TIP3   OH226167   2.810   2.587   0.767 -0.1619 -0.2130 -0.1126
 1511TIP3    H126168   2.722   2.594   0.731 -1.6616 -4.6085  2.0567
 1511TIP3    H226169   2.860   2.540   0.699 -0.5159 -0.7918  0.0206
 1512TIP3   OH226170   6.182   4.344   1.063  0.2084 -0.5288  0.7428
 1512TIP3    H126171   6.134   4.359   1.145  0.2498 -0.7516  0.8067
 1512TIP3    H226172   6.113   4.332   0.997 -0.0140  3.6895 -0.1028
 1513TIP3   OH226173   1.804   3.963   1.123 -0.1246 -0.0815 -0.7204
 1513TIP3    H126174   1.789   3.939   1.031 -0.6101 -0.1882 -0.6169
 1513TIP3    H226175   1.720   3.944   1.166  0.0483  0.1338 -0.2908
 1514TIP3   OH226176   2.093   4.431   0.776  0.5283  0.1033  0.2493
 1514TIP3    H126177   2.003   4.452   0.751 -0.3586 -2.6496  0.7227
 1514TIP3    H226178   2.142   4.435   0.694  0.2350  2.4750  0.1177
 1515TIP3   OH226179   1.308   3.564   3.562  0.2754 -0.0148  0.3021
 1515TIP3    H126180   1.384   3.509   3.580  0.3596 -0.7837 -2.0639
 1515TIP3    H226181   1.284   3.600   3.647  1.5201 -2.0175  1.5848
 1516TIP3   OH226182   4.836   0.628   8.604 -0.2440 -0.2402 -0.1688
 1516TIP3    H126183   4.857   0.572   8.678  2.4697  1.7960  0.7938
 1516TIP3    H226184   4.874   0.713   8.627  0.4040  0.6079 -3.7273
 1517TIP3   OH226185   6.489   6.775   8.354  0.6646  0.1254 -0.0284
 1517TIP3    H126186   6.553   6.737   8.415  1.3227  0.4681 -0.4977
 1517TIP3    H226187   6.501   6.724   8.273  0.2987  0.1512 -0.0964
 1518TIP3   OH226188   4.208   4.973   2.532  0.0168 -0.7245 -0.0711
 1518TIP3    H126189   4.222   4.894   2.584 -1.3375  0.2264  1.8824
 1518TIP3    H226190   4.113   4.974   2.515 -0.4504  1.6892  2.1546
 1519TIP3   OH226191   2.511   4.374   1.914  0.2404 -0.0536  0.2375
 1519TIP3    H126192   2.528   4.443   1.979  2.1169  0.7341 -0.9953
 1519TIP3    H226193   2.416   4.376   1.902  0.1745  1.9530  0.6635
 1520TIP3   OH226194   4.297   6.344   8.308 -0.1775  0.1559 -0.3739
 1520TIP3    H126195   4.219   6.345   8.253  1.4278  0.8044 -2.7967
 1520TIP3    H226196   4.306   6.253   8.335 -2.1435  0.2027  0.5900
 1521TIP3   OH226197   5.443   0.281   1.790 -0.2728 -0.1207 -0.5253
 1521TIP3    H126198   5.416   0.193   1.818 -0.2830  0.3518  1.0818
 1521TIP3    H226199   5.538   0.281   1.804 -0.3939  0.4009  0.3325
 1522TIP3   OH226200   3.046   2.280   8.785 -0.0290  0.2350 -0.3348
 1522TIP3    H126201   2.980   2.220   8.820  1.3067 -1.0285  0.1132
 1522TIP3    H226202   3.022   2.291   8.693 -1.4929  0.7204  0.0679
 1523TIP3   OH226203   4.100   4.076   3.137 -0.1330 -0.7943  0.4755
 1523TIP3    H126204   4.194   4.084   3.120 -0.3761 -0.7970 -1.0016
 1523TIP3    H226205   4.095   4.024   3.217  1.1155 -2.0437 -0.2067
 1524TIP3   OH226206   1.597   5.494   0.315  0.2082  0.5400 -0.6881
 1524TIP3    H126207   1.561   5.492   0.226 -1.6447  0.6842  0.0081
 1524TIP3    H226208   1.542   5.433   0.364  1.7307 -0.1704  0.1973
 1525TIP3   OH226209   1.852   6.395   2.784 -0.1393 -0.2063 -0.5448
 1525TIP3    H126210   1.886   6.382   2.872 -0.9713 -1.4538 -0.3825
 1525TIP3    H226211   1.916   6.353   2.727  0.4829  0.7426 -0.5710
 1526TIP3   OH226212   4.300   2.064   0.149 -0.3418 -0.3389 -0.3951
 1526TIP3    H126213   4.374   2.077   0.090 -0.1183  2.5378  0.3324
 1526TIP3    H226214   4.223   2.080   0.095 -0.4036 -1.9646 -0.8327
 1527TIP3   OH226215   4.685   5.630   1.617  0.4847 -0.6111  0.1925
 1527TIP3    H126216   4.734   5.604   1.539 -0.5227  1.0029 -1.0371
 1527TIP3    H226217   4.600   5.588   1.607  0.7706 -1.4292  1.0877
 1528TIP3   OH226218   5.724   1.297   8.270 -0.5351  0.5181  0.2854
 1528TIP3    H126219   5.805   1.274   8.225 -0.2286  1.8368  0.1042
 1528TIP3    H226220   5.655   1.289   8.203 -0.7508 -1.5896  0.6948
 1529TIP3   OH226221   3.761   3.427   3.296 -0.0558 -0.7774  0.3572
 1529TIP3    H126222   3.748   3.477   3.376  0.5093 -1.0491  0.6248
 1529TIP3    H226223   3.686   3.368   3.292 -0.7590  0.1067  0.0130
 1530TIP3   OH226224   5.438   2.452   3.215 -0.2765 -0.0396  0.2979
 1530TIP3    H126225   5.465   2.477   3.127  0.8663 -2.7705 -0.2216
 1530TIP3    H226226   5.473   2.521   3.272 -0.8817  1.6646 -1.2997
 1531TIP3   OH226227   5.853   3.395   1.859 -0.1818  0.1576  0.5443
 1531TIP3    H126228   5.926   3.454   1.877  0.8875 -0.7338 -0.6871
 1531TIP3    H226229   5.826   3.415   1.769 -1.1537  0.1518  0.8200
 1532TIP3   OH226230   0.037   6.361   2.726 -0.1891 -0.1751  0.1644
 1532TIP3    H126231  -0.028   6.363   2.797 -0.4953  0.9234 -0.1333
 1532TIP3    H226232   0.006   6.426   2.663  0.0407 -1.1811 -1.0266
 1533TIP3   OH226233   0.532   3.053   8.418 -0.4727 -0.0516  0.4001
 1533TIP3    H126234   0.619   3.072   8.384 -0.2602  0.5414  1.2412
 1533TIP3    H226235   0.511   3.128   8.474 -1.6304 -0.0558  0.0101
 1534TIP3   OH226236   5.290   6.849   2.699 -0.1150 -0.1150  0.3134
 1534TIP3    H126237   5.334   6.779   2.747  1.6866  1.0175  0.3751
 1534TIP3    H226238   5.315   6.834   2.608  0.7397  0.7639  0.3976
 1535TIP3   OH226239   2.019   1.105   1.102  0.2799 -0.2737 -0.3571
 1535TIP3    H126240   1.989   1.187   1.063  0.6641  0.1667  0.2691
 1535TIP3    H226241   2.104   1.125   1.139  0.9083 -1.2608 -1.2074
 1536TIP3   OH226242   6.180   6.230   0.458 -0.0242  0.4850 -0.1831
 1536TIP3    H126243   6.173   6.203   0.550 -2.0198  3.1303  0.5608
 1536TIP3    H226244   6.271   6.257   0.448  0.3748 -0.4214  0.8134
 1537TIP3   OH226245   1.089   1.759   2.773  0.6403  0.3308  0.1216
 1537TIP3    H126246   1.073   1.762   2.867 -3.1823  0.5019 -0.3699
 1537TIP3    H226247   1.121   1.846   2.751 -0.1710  0.8877  1.0584
 1538TIP3   OH226248   0.767   3.629   1.870  0.4262  0.0579 -0.6038
 1538TIP3    H126249   0.813   3.600   1.949  2.5040  1.8442 -1.0490
 1538TIP3    H226250   0.825   3.694   1.831 -2.0380  1.7038 -1.8325
 1539TIP3   OH226251   3.561   4.119   1.239 -0.2394 -0.3938 -0.5183
 1539TIP3    H126252   3.553   4.131   1.334  0.4253 -0.8791 -0.3933
 1539TIP3    H226253   3.495   4.053   1.218 -0.0590 -0.6429 -0.3120
 1540TIP3   OH226254   1.628   2.941   8.624  0.2201 -0.0976 -0.1138
 1540TIP3    H126255   1.535   2.922   8.635  0.2634  0.0627  0.5738
 1540TIP3    H226256   1.667   2.859   8.595 -0.0723 -0.2706 -0.0158
 1541TIP3   OH226257   4.006   2.804   8.740  0.0687  0.2535 -0.1565
 1541TIP3    H126258   3.927   2.837   8.782  0.6728  2.8231 -0.8497
 1541TIP3    H226259   4.077   2.826   8.801  0.4475 -0.3423 -0.3688
 1542TIP3   OH226260   3.899   5.500   7.897 -0.1245 -0.1212 -0.3770
 1542TIP3    H126261   3.817   5.459   7.923 -0.6645 -0.0387 -1.8631
 1542TIP3    H226262   3.959   5.484   7.970 -0.7647 -2.2186 -0.2629
 1543TIP3   OH226263   1.526   4.178   1.205  0.0398  0.2352 -0.2223
 1543TIP3    H126264   1.529   4.217   1.292 -0.4514  1.0592 -0.5683
 1543TIP3    H226265   1.557   4.088   1.219 -2.2658 -0.4177  1.2434
 1544TIP3   OH226266   5.781   1.328   0.921 -0.0556  0.3031 -0.3855
 1544TIP3    H126267   5.721   1.262   0.889 -1.0427  0.4585  1.0633
 1544TIP3    H226268   5.725   1.398   0.956  0.9453  0.6268  0.6472
 1545TIP3   OH226269   6.398   3.801   0.348 -0.0296  0.6333  0.1094
 1545TIP3    H126270   6.322   3.851   0.379 -0.2121 -0.2443  1.1295
 1545TIP3    H226271   6.362   3.742   0.282 -0.8549 -1.6826  2.4220
 1546TIP3   OH226272   6.233   1.631   2.685  0.1230 -0.3212  0.0914
 1546TIP3    H126273   6.314   1.612   2.637  0.1768 -1.4916  0.6078
 1546TIP3    H226274   6.208   1.546   2.722 -0.6393  0.2999  1.0042
 1547TIP3   OH226275   1.584   0.882   8.215 -0.0313 -0.3230 -0.1910
 1547TIP3    H126276   1.603   0.956   8.158  0.0346 -0.1580  0.0444
 1547TIP3    H226277   1.668   0.837   8.224 -0.0308 -0.3217 -0.1896
 1548TIP3   OH226278   5.657   3.029   8.093 -0.2533 -0.0113 -0.0174
 1548TIP3    H126279   5.654   2.947   8.044 -2.8781 -0.9887  1.5197
 1548TIP3    H226280   5.591   3.085   8.051 -1.5922 -0.3866  1.4477
 1549TIP3   OH226281   5.698   0.253   1.057 -0.0529  0.0023 -0.3200
 1549TIP3    H126282   5.778   0.290   1.021  0.0586 -0.7799 -0.9136
 1549TIP3    H226283   5.667   0.193   0.989 -1.5527  0.8452 -0.4111
 1550TIP3   OH226284   5.797   2.578   0.891 -0.3300 -0.5099 -0.1711
 1550TIP3    H126285   5.758   2.497   0.924 -2.4787  1.3540  2.3127
 1550TIP3    H226286   5.751   2.595   0.809 -2.8307  0.0958  1.2383
 1551TIP3   OH226287   0.546   3.959   2.548 -0.1457 -0.7772 -0.6382
 1551TIP3    H126288   0.475   4.018   2.524 -1.2358 -2.1457 -0.9194
 1551TIP3    H226289   0.512   3.908   2.622  1.8719  0.9337  1.6354
 1552TIP3   OH226290   6.243   2.164   0.585 -0.6234  0.1934 -0.0273
 1552TIP3    H126291   6.233   2.222   0.509 -2.2658  1.0554  0.7969
 1552TIP3    H226292   6.161   2.116   0.588  0.6890 -2.2525 -0.6755
 1553TIP3   OH226293   4.666   2.157   8.546  0.3941 -0.0311 -0.3184
 1553TIP3    H126294   4.661   2.082   8.487  2.3953 -0.1566 -0.3986
 1553TIP3    H226295   4.585   2.153   8.597  1.6034 -3.9557  1.6720
 1554TIP3   OH226296   6.399   3.533   3.544 -0.2014 -0.2099  0.3389
 1554TIP3    H126297   6.452   3.608   3.571  2.5217 -1.7049 -0.5035
 1554TIP3    H226298   6.337   3.569   3.481 -0.7039  1.7278  1.8312
 1555TIP3   OH226299   1.225   6.202   2.512  0.1568 -0.6171 -0.3442
 1555TIP3    H126300   1.252   6.279   2.561 -1.8529 -0.9031  1.3347
 1555TIP3    H226301   1.162   6.236   2.448 -0.0596 -0.7417 -0.1979
 1556TIP3   OH226302   0.208   6.796   0.509  0.3986  0.2605  0.5320
 1556TIP3    H126303   0.253   6.760   0.433 -2.0810 -0.3680 -0.7412
 1556TIP3    H226304   0.211   6.891   0.497 -0.9667  0.1330 -0.9963
 1557TIP3   OH226305   5.519   3.069   1.100 -0.0957 -0.6711  0.1142
 1557TIP3    H126306   5.584   3.128   1.061  0.8201 -1.7086  0.0007
 1557TIP3    H226307   5.436   3.096   1.062  0.0937  1.3388  1.0114
 1558TIP3   OH226308   2.336   2.665   0.124 -0.5368  0.6222  0.1880
 1558TIP3    H126309   2.311   2.700   0.039 -4.0355 -1.6406  0.1126
 1558TIP3    H226310   2.260   2.680   0.180  0.9263  0.2675  2.3978
 1559TIP3   OH226311   5.539   3.545   0.057 -0.0778 -0.1117 -0.7976
 1559TIP3    H126312   5.493   3.592   0.127  1.2131  0.8284 -0.5428
 1559TIP3    H226313   5.524   3.598  -0.021  0.9489  0.4714 -0.6144
 1560TIP3   OH226314   5.746   3.535   2.840 -0.3984  0.7149 -0.6213
 1560TIP3    H126315   5.772   3.444   2.830  0.6127  1.0124 -0.8025
 1560TIP3    H226316   5.712   3.541   2.929  1.7632  0.6712  0.2576
 1561TIP3   OH226317   5.074   2.225   0.168  0.1067  0.5796 -0.6458
 1561TIP3    H126318   4.978   2.224   0.175  0.1744  2.0918  1.8873
 1561TIP3    H226319   5.095   2.312   0.135  0.6152  0.1059 -1.5959
 1562TIP3   OH226320   2.868   5.484   0.198 -0.2167 -0.0685 -0.3748
 1562TIP3    H126321   2.903   5.413   0.252  1.4269  0.1292 -1.1155
 1562TIP3    H226322   2.872   5.451   0.108  1.3345  1.2034 -0.8224
 1563TIP3   OH226323   0.080   6.563   2.512  0.4087  0.5415  0.1501
 1563TIP3    H126324   0.156   6.615   2.537 -0.6137  1.5974  1.2054
 1563TIP3    H226325   0.005   6.621   2.528 -0.6652 -0.6982 -0.2108
 1564TIP3   OH226326   1.836   2.910   0.484 -0.1746 -0.0212 -0.2878
 1564TIP3    H126327   1.916   2.952   0.454 -1.0092  0.9609 -1.2380
 1564TIP3    H226328   1.807   2.965   0.557  0.2678 -0.6758  0.3995
 1565TIP3   OH226329   4.303   6.031   0.871  0.9412 -0.6532  0.2979
 1565TIP3    H126330   4.300   5.980   0.952 -0.0234 -0.4738  0.3945
 1565TIP3    H226331   4.211   6.048   0.851  1.1978  2.7804  1.3584
 1566TIP3   OH226332   6.657   6.034   2.254  0.0276  0.5333 -0.2995
 1566TIP3    H126333   6.623   6.067   2.171 -0.2160  0.3031 -0.2899
 1566TIP3    H226334   6.675   5.941   2.239 -0.2477  0.4314 -0.0255
 1567TIP3   OH226335   4.753   4.202   2.039 -0.4820  0.4071 -0.0559
 1567TIP3    H126336   4.768   4.247   2.123  3.0635  0.7300 -0.6781
 1567TIP3    H226337   4.778   4.111   2.056 -0.3948  0.3315 -0.5640
 1568TIP3   OH226338   2.979   3.487   0.784 -0.4172  0.9073 -0.5452
 1568TIP3    H126339   3.020   3.449   0.707 -1.6676  1.8103 -1.7260
 1568TIP3    H226340   2.901   3.433   0.799  0.5398 -0.1090  0.9707
 1569TIP3   OH226341   1.174   6.522   1.729 -0.0229 -0.1993  0.2425
 1569TIP3    H126342   1.191   6.430   1.709 -0.5342 -0.6310  1.6501
 1569TIP3    H226343   1.101   6.546   1.671 -1.5803 -1.4488  1.5636
 1570TIP3   OH226344   6.372   5.245   3.046 -0.2344  0.1200 -0.0470
 1570TIP3    H126345   6.320   5.248   3.126 -1.2663 -0.1951 -0.6983
 1570TIP3    H226346   6.419   5.162   3.051  0.6508  0.6424  0.7916
 1571TIP3   OH226347   5.151   0.687   8.683 -0.3140 -0.2241  0.1342
 1571TIP3    H126348   5.204   0.690   8.764 -0.6325  1.6030  0.3179
 1571TIP3    H226349   5.082   0.751   8.698 -1.3560 -1.0662 -0.9612
 1572TIP3   OH226350   0.184   5.589   3.663 -1.1313  0.3094 -0.6580
 1572TIP3    H126351   0.187   5.659   3.599  0.0769  0.4470 -0.4749
 1572TIP3    H226352   0.091   5.570   3.674 -1.3552 -0.0546 -2.8051
 1573TIP3   OH226353   5.661   2.030   7.965  0.9190  0.0677 -0.8146
 1573TIP3    H126354   5.614   2.080   7.899  0.3613  1.0632  0.3092
 1573TIP3    H226355   5.670   2.089   8.039  1.8853 -0.8892 -0.1295
 1574TIP3   OH226356   1.155   3.219   1.325  0.1406 -0.1890 -0.1185
 1574TIP3    H126357   1.189   3.207   1.237  1.6144  2.1444  0.0342
 1574TIP3    H226358   1.121   3.309   1.326 -1.0150 -0.5993  1.3430
 1575TIP3   OH226359   2.237   2.726   7.761  0.4944 -0.2499  0.2218
 1575TIP3    H126360   2.285   2.703   7.682  0.2730  1.3156 -0.4094
 1575TIP3    H226361   2.173   2.655   7.772 -0.9894  0.5450 -2.3221
 1576TIP3   OH226362   4.866   2.307   2.980 -0.0803 -0.6858 -0.2716
 1576TIP3    H126363   4.947   2.280   2.937 -0.5035 -0.5897 -1.1464
 1576TIP3    H226364   4.808   2.231   2.974 -1.2325  0.2756 -2.6353
 1577TIP3   OH226365   2.430   6.845   3.156 -0.1687  0.1870  0.4840
 1577TIP3    H126366   2.435   6.888   3.071 -0.3090  0.5686  0.6655
 1577TIP3    H226367   2.396   6.758   3.138 -1.5013  0.7257  0.3054
 1578TIP3   OH226368   4.169   3.651   0.034 -0.0409 -0.1414 -0.0009
 1578TIP3    H126369   4.121   3.675   0.112 -0.0799 -0.5733  0.1131
 1578TIP3    H226370   4.146   3.718  -0.031  1.1581  1.0849  0.7945
 1579TIP3   OH226371   3.449   5.789   1.089  0.3010  0.9273  0.3509
 1579TIP3    H126372   3.411   5.872   1.116  2.1423  2.3033 -0.9797
 1579TIP3    H226373   3.498   5.810   1.009  1.2116 -1.3338  0.2350
 1580TIP3   OH226374   0.483   2.303   0.409  0.3304  0.4740  0.0556
 1580TIP3    H126375   0.513   2.392   0.392  0.7285  0.1436 -1.0668
 1580TIP3    H226376   0.495   2.290   0.503 -0.2127  1.7693  0.3229
 1581TIP3   OH226377   4.950   4.398   1.280  0.2545 -0.2348  0.1117
 1581TIP3    H126378   5.025   4.456   1.267  0.7506 -0.7217  0.7422
 1581TIP3    H226379   4.877   4.443   1.236  0.9097  0.2332 -0.5194
 1582TIP3   OH226380   0.794   1.278   2.836 -0.3985 -0.7813  0.6015
 1582TIP3    H126381   0.728   1.343   2.861 -0.8950 -0.5599 -1.1793
 1582TIP3    H226382   0.841   1.260   2.918 -1.3554  0.5417  1.4946
 1583TIP3   OH226383   2.477   5.822   1.241 -0.2731 -0.3061 -0.1284
 1583TIP3    H126384   2.466   5.805   1.335 -1.1719 -1.1479 -0.3593
 1583TIP3    H226385   2.431   5.904   1.225 -1.1197 -0.7537 -0.0244
 1584TIP3   OH226386   4.772   5.126   8.721 -0.6115 -0.2045 -0.0014
 1584TIP3    H126387   4.804   5.153   8.634 -1.5247  1.1592  0.0611
 1584TIP3    H226388   4.843   5.150   8.781  0.0371 -1.1803 -0.3485
 1585TIP3   OH226389   5.284   3.076   0.543 -0.2446  0.4552 -0.1211
 1585TIP3    H126390   5.216   3.139   0.522 -1.1328 -0.0964  0.9845
 1585TIP3    H226391   5.348   3.085   0.473 -1.8652  0.3965 -1.6622
 1586TIP3   OH226392   3.954   5.571   3.272  0.3137  0.4919  0.4859
 1586TIP3    H126393   3.904   5.652   3.264 -1.9973 -1.0498 -2.7459
 1586TIP3    H226394   4.038   5.592   3.231 -0.0225  1.4026  0.2217
 1587TIP3   OH226395   3.756   4.654   1.192 -0.1621 -0.1505 -0.6754
 1587TIP3    H126396   3.761   4.590   1.120 -0.5080  0.4177 -1.2186
 1587TIP3    H226397   3.791   4.735   1.154 -0.5180  0.2048 -0.2567
 1588TIP3   OH226398   2.891   5.666   1.927  0.3155  0.4148 -0.2154
 1588TIP3    H126399   2.832   5.733   1.894  0.5251  0.3956 -0.6329
 1588TIP3    H226400   2.968   5.671   1.870  1.6177  1.8280  1.5326
 1589TIP3   OH226401   2.256   0.988   1.302 -0.4466  0.1280  0.3585
 1589TIP3    H126402   2.344   1.026   1.307 -0.3552 -0.0907  0.4235
 1589TIP3    H226403   2.215   1.011   1.385 -0.2629 -0.2237  0.5537
 1590TIP3   OH226404   5.326   3.927   2.494  0.3606 -0.3596 -0.3086
 1590TIP3    H126405   5.356   3.863   2.429  0.8867  2.1838 -2.7495
 1590TIP3    H226406   5.232   3.937   2.477  0.3689 -0.1756 -0.2507
 1591TIP3   OH226407   5.661   1.477   8.476  0.0640 -0.1013  0.4383
 1591TIP3    H126408   5.670   1.410   8.409 -0.0396 -1.4961  1.7495
 1591TIP3    H226409   5.566   1.494   8.480  0.1702  0.8340 -0.5180
 1592TIP3   OH226410   2.894   6.723   0.638  0.7836 -0.3634 -0.0197
 1592TIP3    H126411   2.925   6.640   0.673 -0.1843 -0.7561 -0.0508
 1592TIP3    H226412   2.938   6.732   0.554 -0.4620 -1.7613 -0.8722
 1593TIP3   OH226413   5.031   1.621   1.096 -0.3807  0.2335 -0.4579
 1593TIP3    H126414   5.052   1.555   1.162  0.7183 -0.7023 -1.6925
 1593TIP3    H226415   4.952   1.587   1.053 -0.7530  0.5481 -0.0325
 1594TIP3   OH226416   6.062   3.893   3.304  0.3359 -0.0204 -0.0548
 1594TIP3    H126417   5.975   3.920   3.334 -0.1498 -0.2494 -1.1769
 1594TIP3    H226418   6.121   3.914   3.377 -0.3500  1.9877 -0.0090
 1595TIP3   OH226419   6.684   4.887   1.697 -0.4971 -0.3113 -0.4417
 1595TIP3    H126420   6.722   4.965   1.656 -0.7137 -0.3714 -0.7579
 1595TIP3    H226421   6.760   4.833   1.721 -0.3012  0.3543  0.5092
 1596TIP3   OH226422   4.739   1.012   0.028 -0.3351 -0.6695  0.3922
 1596TIP3    H126423   4.700   0.990   0.112 -0.9401  0.9002  0.5450
 1596TIP3    H226424   4.672   0.988  -0.037 -0.1380 -1.2363  0.3889
 1597TIP3   OH226425   0.616   2.252   8.491 -0.2394  0.3986 -0.4254
 1597TIP3    H126426   0.538   2.246   8.436 -1.0823 -2.5845  0.9009
 1597TIP3    H226427   0.687   2.276   8.430 -1.9276  2.1467 -1.8277
 1598TIP3   OH226428   2.177   0.237   8.649  0.5132  0.2981  0.3736
 1598TIP3    H126429   2.258   0.236   8.699  0.6135  0.8948  0.2270
 1598TIP3    H226430   2.144   0.326   8.659  0.8182  0.5873 -1.0769
 1599TIP3   OH226431   2.183   5.603   0.833  0.0370 -0.0065 -0.3129
 1599TIP3    H126432   2.157   5.562   0.915 -0.5547  0.1560 -0.4161
 1599TIP3    H226433   2.214   5.530   0.779  1.0395 -0.0290  0.2795
 1600TIP3   OH226434   2.901   6.129   1.596 -0.3836 -0.6618 -0.1386
 1600TIP3    H126435   2.961   6.097   1.663 -0.5614 -0.0466  0.3225
 1600TIP3    H226436   2.822   6.155   1.644 -0.2074  0.5520 -0.4632
 1601TIP3   OH226437   5.064   6.148   2.550 -0.2410  0.4610  0.4597
 1601TIP3    H126438   5.121   6.113   2.482 -1.5361  2.4276 -1.7787
 1601TIP3    H226439   4.994   6.082   2.558 -0.8305  0.8577 -1.1875
 1602TIP3   OH226440   1.774   5.599   8.221 -0.0265 -0.2820  0.1214
 1602TIP3    H126441   1.767   5.599   8.126  0.5433  1.2060  0.0590
 1602TIP3    H226442   1.684   5.586   8.251 -0.2149 -0.7205 -0.6115
 1603TIP3   OH226443   5.649   1.147   1.904  0.4527 -0.2546 -0.7291
 1603TIP3    H126444   5.627   1.062   1.867  0.4139 -1.2950  1.5393
 1603TIP3    H226445   5.744   1.147   1.912  0.4727  0.0235 -0.9413
 1604TIP3   OH226446   4.650   1.725   1.124 -0.4419  0.6866  0.3235
 1604TIP3    H126447   4.567   1.679   1.112  1.1081 -2.4110  0.6651
 1604TIP3    H226448   4.628   1.818   1.111 -3.4912 -0.1974 -1.8062
 1605TIP3   OH226449   2.930   5.929   2.748 -0.2412  0.1838 -0.5808
 1605TIP3    H126450   3.017   5.902   2.777  0.3607  0.9441 -1.6070
 1605TIP3    H226451   2.881   5.848   2.737  0.1388 -0.2134  0.5914
 1606TIP3   OH226452   5.938   5.029   0.601  0.2671 -0.3561  0.5106
 1606TIP3    H126453   6.007   5.087   0.568  0.4171 -0.1130  1.2339
 1606TIP3    H226454   5.897   4.994   0.522  1.8090 -1.2261  0.0605
 1607TIP3   OH226455   2.534   4.539   0.345  0.5458 -0.1576  0.0693
 1607TIP3    H126456   2.496   4.477   0.407 -0.7361  2.3268  1.9557
 1607TIP3    H226457   2.626   4.513   0.338  0.8358 -0.4079  3.3255
 1608TIP3   OH226458   6.557   4.893   7.942  0.4467  0.3534 -1.0206
 1608TIP3    H126459   6.605   4.914   8.022  1.0734 -1.2477 -0.9299
 1608TIP3    H226460   6.584   4.960   7.879  2.4034 -0.1777 -0.8054
 1609TIP3   OH226461   1.483   4.545   1.205 -0.5555  0.3683  0.4004
 1609TIP3    H126462   1.436   4.474   1.250  0.8460  0.0848  1.5063
 1609TIP3    H226463   1.576   4.524   1.220 -0.0574  0.9249 -1.6622
 1610TIP3   OH226464   5.936   3.493   0.924 -0.2288  0.1524 -0.6247
 1610TIP3    H126465   5.910   3.461   1.011  0.3816  0.6454 -0.2607
 1610TIP3    H226466   6.029   3.513   0.933  0.3453 -1.6468 -1.9348
 1611TIP3   OH226467   6.748   0.221   0.882  0.3722 -0.5505  0.2581
 1611TIP3    H126468   6.759   0.189   0.971  0.7322 -1.5996 -0.1480
 1611TIP3    H226469   6.824   0.187   0.835  0.9282  1.1522 -0.1411
 1612TIP3   OH226470   1.102   1.625   2.541 -0.2201  0.3053  0.3419
 1612TIP3    H126471   1.117   1.677   2.620  1.7015  1.6562 -0.8138
 1612TIP3    H226472   1.081   1.689   2.474  2.1260 -0.3058 -1.1064
 1613TIP3   OH226473   1.863   0.008   3.636 -0.3199  0.2501  0.4043
 1613TIP3    H126474   1.931   0.074   3.625 -0.6105  0.6074  0.7250
 1613TIP3    H226475   1.801   0.025   3.564  1.0284 -1.4770 -1.2705
 1614TIP3   OH226476   1.526   2.038   8.647  0.2845 -0.0797 -0.0556
 1614TIP3    H126477   1.490   2.110   8.699 -0.1359  0.3164 -0.8816
 1614TIP3    H226478   1.527   2.071   8.557  1.0127 -0.7547 -0.3051
 1615TIP3   OH226479   0.132   5.488   2.008  0.7874 -0.6585  0.1602
 1615TIP3    H126480   0.069   5.501   1.937  1.8440 -1.7108 -1.0026
 1615TIP3    H226481   0.099   5.544   2.079  0.8339  2.0614 -1.8201
 1616TIP3   OH226482   6.717   4.717   8.623  0.3815 -0.0998  0.3525
 1616TIP3    H126483   6.638   4.665   8.635  0.0759 -0.5015 -2.5331
 1616TIP3    H226484   6.787   4.652   8.610  1.2478  0.2506  2.8246
 1617TIP3   OH226485   3.977   0.478   1.942  0.3288 -0.0061 -0.1188
 1617TIP3    H126486   4.033   0.426   1.885  0.5374 -0.4827  0.5117
 1617TIP3    H226487   4.029   0.494   2.020  0.2069  1.0127 -0.2244
 1618TIP3   OH226488   6.621   3.325   2.210 -0.1158 -0.1376  0.1508
 1618TIP3    H126489   6.676   3.288   2.280  0.2281 -1.2301 -0.6704
 1618TIP3    H226490   6.580   3.249   2.169 -0.6669  0.5246 -0.5439
 1619TIP3   OH226491   4.169   0.065   1.399  0.1592  0.2823 -0.0643
 1619TIP3    H126492   4.100   0.036   1.340 -0.3713  0.5460  0.4272
 1619TIP3    H226493   4.235   0.103   1.340 -0.8655  1.5599 -0.4359
 1620TIP3   OH226494   4.519   4.761   2.653  0.0646 -0.6173 -0.0504
 1620TIP3    H126495   4.510   4.800   2.566 -0.0197  1.0577  0.6704
 1620TIP3    H226496   4.446   4.701   2.660 -2.7139  2.5324  0.4888
 1621TIP3   OH226497   0.381   5.599   0.194  0.3295  0.4441  0.3818
 1621TIP3    H126498   0.419   5.574   0.277 -0.4344 -0.3989  0.4948
 1621TIP3    H226499   0.341   5.685   0.211 -1.5831 -0.6027  1.4829
 1622TIP3   OH226500   1.309   5.064   1.777  0.2813  0.1033 -0.1362
 1622TIP3    H126501   1.267   4.993   1.728 -1.8780 -0.2248  1.9812
 1622TIP3    H226502   1.251   5.078   1.852  0.0449  4.7395 -0.8813
 1623TIP3   OH226503   1.920   3.126   0.930  0.7544  0.4526 -0.1437
 1623TIP3    H126504   1.891   3.154   1.017 -2.0611 -1.0782 -0.4412
 1623TIP3    H226505   1.933   3.031   0.938  2.9007  0.6321 -0.8563
 1624TIP3   OH226506   1.769   4.596   3.059 -0.5560 -0.2922 -0.0177
 1624TIP3    H126507   1.745   4.505   3.076 -0.5645 -0.5295 -1.1766
 1624TIP3    H226508   1.754   4.641   3.142  2.0346 -1.8528  1.4401
 1625TIP3   OH226509   0.627   2.733   2.680 -0.4712 -0.6809 -0.5916
 1625TIP3    H126510   0.637   2.717   2.586 -0.6525  1.7785 -1.1125
 1625TIP3    H226511   0.713   2.763   2.709 -0.7616 -0.0994 -0.3053
 1626TIP3   OH226512   1.851   4.985   2.082  0.3183  0.5666 -0.0105
 1626TIP3    H126513   1.925   4.950   2.032  0.3802 -0.8815  1.0277
 1626TIP3    H226514   1.890   5.029   2.157  0.2122  2.5145 -1.0195
 1627TIP3   OH226515   4.852   4.316   0.552  0.0229 -0.2563 -0.4440
 1627TIP3    H126516   4.912   4.390   0.562  0.1529 -0.4492  0.2411
 1627TIP3    H226517   4.766   4.356   0.539  0.1073  0.0154 -0.1702
 1628TIP3   OH226518   2.952   4.843   8.699 -0.4410  0.3174  0.1674
 1628TIP3    H126519   2.914   4.757   8.719  1.0091 -0.0719  1.4560
 1628TIP3    H226520   2.881   4.905   8.714 -1.4497 -0.6149 -0.5436
 1629TIP3   OH226521   1.492   4.826   1.008 -0.4628  0.2521 -0.0169
 1629TIP3    H126522   1.493   4.917   1.035 -1.1051  0.0892  0.5855
 1629TIP3    H226523   1.433   4.783   1.069  0.2061 -0.6680  0.0150
 1630TIP3   OH226524   2.717   4.904   2.777  0.3758 -0.0458 -0.7404
 1630TIP3    H126525   2.726   4.999   2.783 -0.4175 -0.0140  0.2155
 1630TIP3    H226526   2.632   4.890   2.735  0.5899 -0.3364 -1.0853
 1631TIP3   OH226527   3.001   2.952   1.545 -0.2492 -0.2982 -0.0277
 1631TIP3    H126528   3.030   2.904   1.467 -0.4650  0.7037 -0.7442
 1631TIP3    H226529   2.913   2.982   1.523 -0.5241 -0.4588  0.8230
 1632TIP3   OH226530   0.132   2.013   0.053 -0.9029 -0.0052 -0.2366
 1632TIP3    H126531   0.216   1.989   0.092 -0.1476  1.7200 -0.7442
 1632TIP3    H226532   0.142   1.993  -0.040 -0.7610  0.9405 -0.4294
 1633TIP3   OH226533   3.434   0.465   0.439 -0.2564 -0.2728 -0.0870
 1633TIP3    H126534   3.385   0.399   0.486 -0.6452  0.3922  0.4459
 1633TIP3    H226535   3.507   0.488   0.497 -1.1399  1.0691  0.5327
 1634TIP3   OH226536   6.308   5.331   8.086 -0.3249  0.0016  0.4234
 1634TIP3    H126537   6.303   5.270   8.012  0.3186  0.8521 -0.3439
 1634TIP3    H226538   6.399   5.329   8.113 -0.3832  0.3343  0.6503
 1635TIP3   OH226539   1.870   1.524   1.304  0.5015  0.6254  0.1298
 1635TIP3    H126540   1.822   1.441   1.296  1.2463  0.2860 -1.2547
 1635TIP3    H226541   1.962   1.497   1.303  0.7581  1.3227  1.9110
 1636TIP3   OH226542   4.697   4.067   2.841  0.5951  0.0986 -0.1593
 1636TIP3    H126543   4.694   4.121   2.920 -0.0611 -1.1333  0.6795
 1636TIP3    H226544   4.785   4.029   2.841  0.4732 -0.1852  0.1757
 1637TIP3   OH226545   1.303   3.347   2.079 -0.4074  0.2284 -0.0553
 1637TIP3    H126546   1.294   3.438   2.110  1.1937  0.3926 -0.0179
 1637TIP3    H226547   1.294   3.294   2.158  0.2515  0.4590  0.1833
 1638TIP3   OH226548   0.891   3.286   2.291  0.2768 -0.3458  0.3476
 1638TIP3    H126549   0.838   3.276   2.370  1.2457 -1.3474  0.8939
 1638TIP3    H226550   0.844   3.351   2.239 -0.9843 -0.5213  1.2237
 1639TIP3   OH226551   6.255   0.947   0.423 -0.0335 -0.0328 -0.2845
 1639TIP3    H126552   6.227   1.037   0.440  1.7139  0.8622 -1.7915
 1639TIP3    H226553   6.325   0.932   0.486 -0.1852 -0.2789 -0.1725
 1640TIP3   OH226554   4.620   1.237   3.466  0.4403  0.1728 -0.4097
 1640TIP3    H126555   4.597   1.150   3.500 -0.1697  0.4351 -0.1516
 1640TIP3    H226556   4.713   1.228   3.442  0.8783 -0.0627  1.2250
 1641TIP3   OH226557   0.982   4.852   0.325 -0.0624 -0.5503  0.6396
 1641TIP3    H126558   0.993   4.771   0.277 -1.0434 -0.2640 -0.0932
 1641TIP3    H226559   0.923   4.830   0.397 -1.8528 -0.1200 -0.6249
 1642TIP3   OH226560   5.125   4.557   1.530  0.1144  0.5926  0.2063
 1642TIP3    H126561   5.067   4.628   1.557 -1.9024 -1.0633  0.4651
 1642TIP3    H226562   5.112   4.549   1.436 -1.1410 -0.5974  0.4413
 1643TIP3   OH226563   1.069   2.311   1.388 -0.3617 -0.0632  0.4653
 1643TIP3    H126564   1.030   2.233   1.428  0.7047 -0.4595  0.7805
 1643TIP3    H226565   1.064   2.295   1.294 -2.3533  0.6077  0.4112
 1644TIP3   OH226566   4.646   2.677   0.126 -0.3632  0.0731  0.0583
 1644TIP3    H126567   4.617   2.748   0.182  0.5488 -0.7736  1.6651
 1644TIP3    H226568   4.738   2.665   0.147 -0.3836 -1.2795 -0.5127
 1645TIP3   OH226569   1.188   2.879   8.044 -0.3541  0.1432 -0.0191
 1645TIP3    H126570   1.243   2.949   8.012 -0.3500  0.0331 -0.2511
 1645TIP3    H226571   1.130   2.857   7.971 -0.5587  0.1096  0.1488
 1646TIP3   OH226572   5.487   6.723   2.829  0.1791  0.3573 -0.2172
 1646TIP3    H126573   5.517   6.691   2.914  1.5743 -0.7149 -1.0663
 1646TIP3    H226574   5.567   6.747   2.783 -0.6454  2.3141 -0.7268
 1647TIP3   OH226575   5.446   0.007   1.891  0.2590 -0.3706 -0.8376
 1647TIP3    H126576   5.460  -0.007   1.985  2.5272  2.4380 -0.6059
 1647TIP3    H226577   5.480  -0.071   1.849  0.9661 -0.8784  0.6174
 1648TIP3   OH226578   0.750   2.522   3.059  0.4704  0.2871  0.3892
 1648TIP3    H126579   0.815   2.508   3.127  2.4260  2.3315 -0.9261
 1648TIP3    H226580   0.666   2.518   3.104  1.3428 -3.0479  2.0707
 1649TIP3   OH226581   0.432   3.058   8.795 -0.0326  0.4447 -0.3830
 1649TIP3    H126582   0.480   2.976   8.789  0.3171  0.7303 -4.1331
 1649TIP3    H226583   0.477   3.108   8.862 -0.4149 -2.4060  2.2051
 1650TIP3   OH226584   0.156   4.013   1.929  0.2833  0.5036  0.4156
 1650TIP3    H126585   0.123   4.095   1.893  2.2227  1.1444 -0.0387
 1650TIP3    H226586   0.215   4.040   2.000  0.2439 -0.5449  0.8693
 1651TIP3   OH226587   1.263   5.870   8.445  0.0086 -0.3052  0.2151
 1651TIP3    H126588   1.286   5.799   8.384  1.6126 -1.0723  1.6270
 1651TIP3    H226589   1.287   5.950   8.398  0.3912 -0.8361 -0.5191
 1652TIP3   OH226590   6.185   2.164   2.347 -0.0016 -0.6772 -0.5746
 1652TIP3    H126591   6.222   2.229   2.286 -0.7903 -1.3266 -1.7857
 1652TIP3    H226592   6.262   2.119   2.382  0.4753 -0.3221 -1.1331
 1653TIP3   OH226593   6.509   6.836   1.535 -0.2297 -0.7406 -0.1555
 1653TIP3    H126594   6.468   6.780   1.468 -0.1958 -0.9679  0.0119
 1653TIP3    H226595   6.508   6.924   1.497  0.1109 -0.9280 -0.5980
 1654TIP3   OH226596   0.914   2.586   8.248  0.0030  0.5173 -0.7659
 1654TIP3    H126597   0.948   2.520   8.188 -0.0831  1.6101 -2.0728
 1654TIP3    H226598   0.819   2.573   8.248  0.0906 -0.2021  0.0370
 1655TIP3   OH226599   3.816   1.126   1.215 -0.3320 -0.1783 -0.0935
 1655TIP3    H126600   3.788   1.184   1.144  1.1182  0.8088  0.1128
 1655TIP3    H226601   3.736   1.080   1.241 -0.7173 -1.4965 -3.1417
 1656TIP3   OH226602   2.390   2.943   0.979 -0.2131  0.2328 -0.2344
 1656TIP3    H126603   2.451   2.876   1.009  0.9094  1.4618  0.3273
 1656TIP3    H226604   2.444   3.008   0.935 -0.7334  2.4219  2.0953
 1657TIP3   OH226605   4.583   6.231   1.520  0.2832  0.6778 -0.1156
 1657TIP3    H126606   4.531   6.151   1.531 -0.4591  1.2268  0.4838
 1657TIP3    H226607   4.520   6.302   1.531  0.9088  1.3571 -0.7621
 1658TIP3   OH226608   0.871   3.740   2.194  0.3973 -0.1960  0.4507
 1658TIP3    H126609   0.788   3.787   2.194  0.6106  0.1849  0.4909
 1658TIP3    H226610   0.918   3.775   2.270  1.7311  1.6156 -1.1165
 1659TIP3   OH226611   6.190   6.104   1.222 -0.1849  0.4793 -0.0403
 1659TIP3    H126612   6.129   6.175   1.204 -0.2756  0.4991  0.3326
 1659TIP3    H226613   6.229   6.083   1.137  0.9110  1.9657  0.0473
 1660TIP3   OH226614   4.587   0.243   0.709 -0.0422  0.1088  0.1836
 1660TIP3    H126615   4.660   0.220   0.651  0.4547  0.2205  0.7559
 1660TIP3    H226616   4.510   0.205   0.667  0.2232  0.6630 -0.8415
 1661TIP3   OH226617   3.179   0.843   0.082 -0.1346  0.4906  0.2615
 1661TIP3    H126618   3.211   0.779   0.145 -0.1681 -0.4333 -0.6418
 1661TIP3    H226619   3.090   0.815   0.061 -0.1473  0.8226 -0.1525
 1662TIP3   OH226620   4.242   6.422   2.269 -0.3751  0.1682  0.1343
 1662TIP3    H126621   4.269   6.353   2.330  0.6139 -0.7505 -1.2924
 1662TIP3    H226622   4.175   6.381   2.215  0.5022  0.1792 -0.9793
 1663TIP3   OH226623   6.645   3.963   2.302 -0.0984 -0.2976  0.2613
 1663TIP3    H126624   6.649   3.912   2.383  1.4478 -0.9818 -0.2037
 1663TIP3    H226625   6.639   3.898   2.233  1.1331  0.1612 -0.3059
 1664TIP3   OH226626   3.161   1.793   0.646 -0.0921 -0.1829 -0.0920
 1664TIP3    H126627   3.126   1.878   0.618  0.2030  0.1156  0.4271
 1664TIP3    H226628   3.200   1.810   0.731  3.2791  0.0219 -1.5195
 1665TIP3   OH226629   3.769   5.581   8.175 -0.3551  0.0727  0.0551
 1665TIP3    H126630   3.838   5.517   8.194 -0.6304 -0.8324 -1.7558
 1665TIP3    H226631   3.817   5.659   8.144 -0.1062 -0.1336 -0.0827
 1666TIP3   OH226632   5.220   1.420   3.032  0.3153  0.5120  0.8379
 1666TIP3    H126633   5.296   1.457   3.077 -0.0325  0.7239  1.2539
 1666TIP3    H226634   5.253   1.399   2.944  1.2210 -0.6981  1.4342
 1667TIP3   OH226635   2.132   2.903   0.696 -0.1524  0.3277  0.6064
 1667TIP3    H126636   2.179   2.978   0.733 -1.6925  2.0516 -0.7430
 1667TIP3    H226637   2.185   2.877   0.621  0.5659 -0.1906  1.2781
 1668TIP3   OH226638   0.547   1.338   8.726  0.0713  0.5032 -0.2899
 1668TIP3    H126639   0.505   1.419   8.757 -0.7956  0.3101 -0.9168
 1668TIP3    H226640   0.541   1.278   8.801  0.6143  0.9745  0.1384
 1669TIP3   OH226641   0.121   1.360   3.092  0.2126 -0.1533  0.4751
 1669TIP3    H126642   0.113   1.432   3.029  0.1159  0.1515  0.8352
 1669TIP3    H226643   0.038   1.312   3.085  0.6570 -0.8255 -0.4812
 1670TIP3   OH226644   4.099   1.865   3.801  0.6935  0.2647 -0.2588
 1670TIP3    H126645   4.146   1.782   3.792  0.1018 -0.4287  2.2011
 1670TIP3    H226646   4.152   1.916   3.863 -1.1596 -0.1309  1.7680
 1671TIP3   OH226647   5.120   2.291   2.890 -0.8979 -0.2663  0.0413
 1671TIP3    H126648   5.159   2.239   2.819 -0.1744  0.7787 -0.3567
 1671TIP3    H226649   5.178   2.276   2.964 -1.3668 -0.9554  0.2790
 1672TIP3   OH226650   2.163   4.363   2.046  0.2211  0.3373 -0.3831
 1672TIP3    H126651   2.096   4.418   2.006 -0.6163 -0.1415  0.3414
 1672TIP3    H226652   2.216   4.332   1.972  0.0486  1.2234 -0.9017
 1673TIP3   OH226653   2.476   2.639   0.798  0.1703  0.0105  0.0843
 1673TIP3    H126654   2.505   2.559   0.842  0.2643  0.4667  0.8694
 1673TIP3    H226655   2.419   2.608   0.727 -1.2637 -0.7015  1.4852
 1674TIP3   OH226656   3.048   0.228   2.236 -0.7041  0.2209  0.2487
 1674TIP3    H126657   3.024   0.314   2.201 -0.4455  0.1834 -0.0320
 1674TIP3    H226658   3.143   0.223   2.223 -1.0647 -1.3756 -2.6621
 1675TIP3   OH226659   0.232   4.419   0.693 -0.0340  0.2590  0.3135
 1675TIP3    H126660   0.215   4.500   0.644 -0.3697 -0.2502 -0.4363
 1675TIP3    H226661   0.164   4.358   0.663  0.2682 -0.3292  0.7968
 1676TIP3   OH226662   5.089   3.587   8.557  0.0861  0.4213 -0.5667
 1676TIP3    H126663   5.108   3.652   8.625  1.0570 -0.0332 -0.3905
 1676TIP3    H226664   5.108   3.632   8.475  2.4721 -0.1306 -0.3942
 1677TIP3   OH226665   6.440   5.504   3.712  1.0639 -0.1092 -0.1437
 1677TIP3    H126666   6.453   5.591   3.751 -0.6794 -0.8454  2.3502
 1677TIP3    H226667   6.351   5.507   3.676  0.3321 -1.2978  1.4465
 1678TIP3   OH226668   5.632   0.323   3.260 -0.1608 -0.2491 -0.0631
 1678TIP3    H126669   5.604   0.373   3.183  0.2563 -0.7890 -0.5803
 1678TIP3    H226670   5.561   0.260   3.275 -0.6772  0.4759  0.5772
 1679TIP3   OH226671   2.208   1.634   1.009 -0.3623  0.1928  0.0767
 1679TIP3    H126672   2.216   1.681   1.092  0.6220  0.2730 -0.0445
 1679TIP3    H226673   2.168   1.697   0.949  0.2027  0.6220  0.1334
 1680TIP3   OH226674   6.099   3.046   8.782 -0.3549 -0.2891  0.4160
 1680TIP3    H126675   6.028   3.054   8.718  1.3355  1.1491 -1.4367
 1680TIP3    H226676   6.058   3.009   8.859 -2.8915 -0.4809 -0.9141
 1681TIP3   OH226677   4.780   0.869   8.218 -0.0352  0.1436  0.1480
 1681TIP3    H126678   4.745   0.955   8.196  2.7393  1.3634  0.1340
 1681TIP3    H226679   4.872   0.885   8.238  0.4726 -2.7787  0.5546
 1682TIP3   OH226680   2.793   3.860   1.817 -0.0357 -0.1178 -0.1029
 1682TIP3    H126681   2.713   3.909   1.836 -0.5122 -1.1459  0.6100
 1682TIP3    H226682   2.781   3.830   1.727 -0.9986 -1.2475  0.3799
 1683TIP3   OH226683   3.846   0.194   2.054 -0.0703 -0.2454 -0.6291
 1683TIP3    H126684   3.901   0.227   2.125  0.7843  0.0789 -1.4220
 1683TIP3    H226685   3.822   0.106   2.081  0.8940 -0.4130 -0.2848
 1684TIP3   OH226686   3.457   5.264   3.415  0.4290  0.4629 -0.0746
 1684TIP3    H126687   3.491   5.354   3.419  0.2400  0.8538 -3.7876
 1684TIP3    H226688   3.454   5.244   3.322 -2.6516 -2.2483  0.4475
 1685TIP3   OH226689   4.589   3.828   0.555  0.2603 -0.2109  0.2466
 1685TIP3    H126690   4.632   3.746   0.579 -0.1085 -1.3112 -2.4615
 1685TIP3    H226691   4.629   3.853   0.472 -1.3406  1.0150 -0.2201
 1686TIP3   OH226692   4.599   5.463   3.470  0.7828  0.2164  0.4251
 1686TIP3    H126693   4.598   5.539   3.527  0.8457 -0.0085  0.7293
 1686TIP3    H226694   4.653   5.489   3.396 -0.9161  1.2223 -0.5286
 1687TIP3   OH226695   6.096   0.228   2.719  0.6348 -0.4193  0.0149
 1687TIP3    H126696   6.029   0.244   2.785 -1.3241 -0.9118 -1.7340
 1687TIP3    H226697   6.079   0.140   2.687  2.5983 -0.8419 -0.0140
 1688TIP3   OH226698   3.788   4.417   1.957  0.1250  0.6193 -0.2652
 1688TIP3    H126699   3.815   4.355   2.025 -0.5782 -2.7444 -2.7916
 1688TIP3    H226700   3.747   4.488   2.005  0.4510 -1.1158  2.8673
 1689TIP3   OH226701   5.124   0.898   0.463 -0.2350 -0.0715 -0.0392
 1689TIP3    H126702   5.194   0.905   0.527  0.3277 -0.8573 -0.5532
 1689TIP3    H226703   5.060   0.839   0.503  0.0469 -0.4445 -0.1380
 1690TIP3   OH226704   1.773   5.645   2.613 -0.4232  0.0254  0.0105
 1690TIP3    H126705   1.703   5.690   2.661 -0.5971  1.0503 -1.1713
 1690TIP3    H226706   1.727   5.588   2.551 -0.2042 -0.0470 -0.0867
 1691TIP3   OH226707   6.721   3.803   2.802 -0.4308 -0.2962 -0.4495
 1691TIP3    H126708   6.714   3.749   2.881 -0.6711 -0.3975 -0.5385
 1691TIP3    H226709   6.762   3.884   2.832  0.0280 -0.5712 -0.3353
 1692TIP3   OH226710   4.840   5.731   0.230 -0.4510 -0.0617  0.4440
 1692TIP3    H126711   4.831   5.667   0.301 -1.0257  0.8264  1.1817
 1692TIP3    H226712   4.934   5.747   0.224 -0.2600 -1.1976  0.0268
 1693TIP3   OH226713   0.560   2.784   1.790 -0.5269 -0.2398 -1.3509
 1693TIP3    H126714   0.643   2.826   1.815 -1.7324  1.1504  0.5387
 1693TIP3    H226715   0.560   2.701   1.837 -1.3568  0.9746  0.9697
 1694TIP3   OH226716   1.036   1.276   0.556  0.1629 -0.3253  0.1607
 1694TIP3    H126717   0.965   1.330   0.521  0.2718  0.3437  0.9526
 1694TIP3    H226718   1.049   1.308   0.645 -0.2944 -2.1769  0.9496
 1695TIP3   OH226719   2.505   3.385   1.686 -0.0354  0.3143 -0.1383
 1695TIP3    H126720   2.572   3.375   1.618  0.1815  0.9884 -0.0303
 1695TIP3    H226721   2.553   3.414   1.763 -0.3668  0.1757  0.1225
 1696TIP3   OH226722   3.222   0.728   2.284  0.2970 -0.1091  1.0595
 1696TIP3    H126723   3.151   0.686   2.236 -0.4484  1.3285  0.8671
 1696TIP3    H226724   3.281   0.760   2.215  0.4368 -0.0958  1.1861
 1697TIP3   OH226725   4.314   4.566   0.166 -0.3104  0.4055 -0.1735
 1697TIP3    H126726   4.397   4.534   0.200  0.1704  0.2663 -1.4372
 1697TIP3    H226727   4.251   4.497   0.186 -0.8051  1.6492  3.3056
 1698TIP3   OH226728   3.412   2.700   0.484  0.0682  0.1464  0.9465
 1698TIP3    H126729   3.432   2.607   0.474  0.0851  0.1494  0.9526
 1698TIP3    H226730   3.318   2.702   0.503 -0.7535  0.2903 -2.3703
 1699TIP3   OH226731   0.126   5.224   0.565  0.0619 -0.6615  0.1582
 1699TIP3    H126732   0.138   5.303   0.513 -2.7549 -0.4687 -0.3905
 1699TIP3    H226733   0.177   5.156   0.521  1.1278  0.4446 -0.3471
 1700TIP3   OH226734   6.026   3.107   0.903 -0.2556  0.2069  0.3975
 1700TIP3    H126735   6.063   3.168   0.967  0.3348 -0.3687  0.6163
 1700TIP3    H226736   6.078   3.121   0.824  1.6180 -1.7739  1.1906
 1701TIP3   OH226737   2.926   5.725   3.151  0.4011  0.2630 -0.1004
 1701TIP3    H126738   2.874   5.659   3.197 -0.0973  0.5910 -0.1785
 1701TIP3    H226739   2.987   5.675   3.098 -0.0945 -0.1428 -0.3003
 1702TIP3   OH226740   6.054   1.392   3.941 -0.4434  0.0814  0.3752
 1702TIP3    H126741   6.101   1.374   4.023 -1.6693  1.4319  1.4244
 1702TIP3    H226742   6.064   1.311   3.890  1.5883 -0.2662  1.2194
 1703TIP3   OH226743   6.089   4.897   1.186 -0.1743 -0.1547  0.1784
 1703TIP3    H126744   6.102   4.918   1.278 -0.7016 -1.2087  0.5158
 1703TIP3    H226745   6.173   4.860   1.158 -0.4713 -1.2816  0.6860
 1704TIP3   OH226746   1.365   5.374   0.440 -0.1130 -0.0628  0.3965
 1704TIP3    H126747   1.318   5.418   0.369  0.9097  0.8884  0.2757
 1704TIP3    H226748   1.299   5.320   0.483 -1.3913  1.4270  0.4004
 1705TIP3   OH226749   3.997   4.092   1.817 -0.4132 -0.2473  0.3760
 1705TIP3    H126750   4.002   4.089   1.913  1.7441 -0.3359  0.2945
 1705TIP3    H226751   4.069   4.148   1.791  1.5495 -3.3143 -1.3558
 1706TIP3   OH226752   6.544   1.402   3.183 -0.5334 -0.6780  0.2918
 1706TIP3    H126753   6.608   1.353   3.131 -0.0376 -0.4775  0.6994
 1706TIP3    H226754   6.459   1.366   3.157 -0.1721 -1.8470  0.6827
 1707TIP3   OH226755   2.798   5.977   1.976 -0.2180  0.5442  0.3367
 1707TIP3    H126756   2.868   6.036   1.947 -0.0527 -0.1586 -0.7593
 1707TIP3    H226757   2.770   5.933   1.896 -0.5572 -0.6335  1.0846
 1708TIP3   OH226758   6.550   4.786   0.568 -0.4655  0.0752  0.2476
 1708TIP3    H126759   6.629   4.762   0.617 -0.0920  1.7030  0.4836
 1708TIP3    H226760   6.583   4.820   0.485 -1.0475 -1.5536 -0.6915
 1709TIP3   OH226761   5.497   5.173   3.353 -0.0128  0.1963  0.1701
 1709TIP3    H126762   5.541   5.138   3.430 -0.9226  1.7743  1.4893
 1709TIP3    H226763   5.565   5.224   3.308  0.1839  0.4674  0.7538
 1710TIP3   OH226764   4.997   3.131   2.904  0.0055 -0.6549 -0.4539
 1710TIP3    H126765   5.078   3.167   2.868  1.1954 -0.6057  2.0945
 1710TIP3    H226766   4.977   3.186   2.979 -0.3079 -2.8624  1.1924
 1711TIP3   OH226767   2.651   0.741   8.605  0.1380 -0.1952 -0.2710
 1711TIP3    H126768   2.704   0.795   8.663  1.4594 -1.1011 -0.5897
 1711TIP3    H226769   2.713   0.681   8.564 -0.9091 -0.2442 -1.8787
 1712TIP3   OH226770   0.603   1.133   1.778 -0.2341  0.0544  0.3465
 1712TIP3    H126771   0.624   1.167   1.691 -0.5985  0.9965  0.6128
 1712TIP3    H226772   0.508   1.128   1.780 -0.2652  0.5996  0.8780
 1713TIP3   OH226773   5.494   0.580   0.812 -0.9328 -0.9879 -0.2064
 1713TIP3    H126774   5.528   0.644   0.875 -2.4799  1.7855 -1.9747
 1713TIP3    H226775   5.408   0.557   0.846 -1.5204  0.0542 -0.9333
 1714TIP3   OH226776   4.304   1.082   2.468 -0.2324 -0.3496 -0.0115
 1714TIP3    H126777   4.262   1.056   2.550 -1.7102 -0.1171 -0.6643
 1714TIP3    H226778   4.396   1.096   2.491 -0.5408 -0.7088  1.5065
 1715TIP3   OH226779   2.484   4.085   2.303 -0.2286 -0.5924  0.2142
 1715TIP3    H126780   2.406   4.138   2.288  0.4006  0.0439 -1.0303
 1715TIP3    H226781   2.538   4.100   2.225  1.3272 -0.6622  1.2326
 1716TIP3   OH226782   4.180   3.191   8.594 -0.1882  0.4853  0.0699
 1716TIP3    H126783   4.240   3.119   8.572 -0.5752  0.2601 -0.2702
 1716TIP3    H226784   4.215   3.226   8.676  0.1863  0.1084  0.0814
 1717TIP3   OH226785   2.740   5.435   0.996 -0.0327 -0.7271 -0.7887
 1717TIP3    H126786   2.695   5.497   1.053  0.8747  1.0358 -1.9058
 1717TIP3    H226787   2.686   5.430   0.918  0.3166 -0.7014 -1.0338
 1718TIP3   OH226788   2.839   0.030   2.197 -0.2291  0.0296  0.0532
 1718TIP3    H126789   2.918   0.073   2.229 -0.7847  1.3204 -0.2594
 1718TIP3    H226790   2.774   0.044   2.267 -0.5529  0.1119 -0.2613
 1719TIP3   OH226791   4.875   5.959   2.542 -0.3949  0.2219 -0.2962
 1719TIP3    H126792   4.859   5.866   2.555 -2.1620  0.7644  2.0666
 1719TIP3    H226793   4.818   5.983   2.469  0.1468 -0.5361 -0.9841
 1720TIP3   OH226794   6.409   1.977   0.699  0.0379  0.9628 -0.8875
 1720TIP3    H126795   6.469   1.949   0.630  0.6341  0.3116 -0.1116
 1720TIP3    H226796   6.349   2.038   0.655  1.7737  2.2940 -1.4838
 1721TIP3   OH226797   6.694   2.639   1.403 -0.3423  0.3414 -0.2543
 1721TIP3    H126798   6.704   2.695   1.326 -0.0066 -1.1162 -1.3163
 1721TIP3    H226799   6.780   2.641   1.445 -0.1462  0.1497 -0.6368
 1722TIP3   OH226800   2.904   4.051   0.067 -0.5243 -0.5428 -0.4746
 1722TIP3    H126801   2.942   4.085  -0.015 -0.3724  1.3882  0.3282
 1722TIP3    H226802   2.927   4.117   0.133 -0.7625 -1.9772  1.1151
 1723TIP3   OH226803   5.219   4.170   8.520  0.1788 -0.1944  0.0216
 1723TIP3    H126804   5.160   4.144   8.591 -1.1273  0.0382 -0.9487
 1723TIP3    H226805   5.263   4.248   8.553 -1.4567  0.7491  0.0534
 1724TIP3   OH226806   0.020   2.089   1.219  0.5708 -0.6335  0.2121
 1724TIP3    H126807  -0.066   2.066   1.184 -0.3239  2.5448  0.0024
 1724TIP3    H226808   0.080   2.075   1.146  0.3460 -3.0397  0.4088
 1725TIP3   OH226809   5.717   3.284   2.602 -0.1744  0.1999 -0.0232
 1725TIP3    H126810   5.639   3.339   2.604  0.5973  1.3066  0.1800
 1725TIP3    H226811   5.690   3.205   2.555 -1.4436  0.5123  0.1569
 1726TIP3   OH226812   4.722   1.973   0.695 -0.0832 -0.0537 -0.1367
 1726TIP3    H126813   4.759   1.920   0.625 -2.1351  0.3837 -1.6341
 1726TIP3    H226814   4.794   1.984   0.758  1.2820 -1.9630 -1.2781
 1727TIP3   OH226815   3.668   3.554   3.547 -0.0202  0.3612  0.1083
 1727TIP3    H126816   3.581   3.525   3.520 -0.9313  3.6384 -1.0157
 1727TIP3    H226817   3.658   3.648   3.561  3.0572  0.6128  1.3296
 1728TIP3   OH226818   1.319   1.584   2.828 -0.0871  0.4282  0.0996
 1728TIP3    H126819   1.375   1.657   2.857 -0.8127  1.0894 -0.1438
 1728TIP3    H226820   1.235   1.624   2.807 -0.4588 -0.4633 -0.1836
 1729TIP3   OH226821   0.878   5.583   8.785 -0.4463  0.0222  0.1680
 1729TIP3    H126822   0.791   5.553   8.812 -0.7975  1.3004  0.5412
 1729TIP3    H226823   0.886   5.670   8.824  1.3981 -0.4512  0.9091
 1730TIP3   OH226824   0.952   1.537   7.891  0.8926  0.0748  0.1774
 1730TIP3    H126825   0.963   1.453   7.936  0.4404  0.6459  1.3785
 1730TIP3    H226826   0.857   1.545   7.880  0.9841  0.0272 -0.7525
 1731TIP3   OH226827   1.775   4.299   0.828 -0.0220 -0.4681  0.2258
 1731TIP3    H126828   1.849   4.308   0.889  1.2993  0.8633 -1.4846
 1731TIP3    H226829   1.705   4.350   0.869  0.8156  0.3492  0.6932
 1732TIP3   OH226830   2.851   5.983   2.474  0.2970 -0.0584 -0.4414
 1732TIP3    H126831   2.846   5.985   2.569 -0.7113  1.8488 -0.4858
 1732TIP3    H226832   2.798   5.908   2.448  1.6947 -1.4405  0.4991
 1733TIP3   OH226833   1.070   4.550   0.219  0.6185 -0.5602 -0.5966
 1733TIP3    H126834   1.134   4.603   0.173 -0.5630  0.3173 -1.2948
 1733TIP3    H226835   0.992   4.551   0.163  0.0332 -1.7245  0.1346
 1734TIP3   OH226836   2.722   2.441   1.382 -0.1448  0.6222 -0.3044
 1734TIP3    H126837   2.814   2.466   1.372 -0.2307  0.7458 -0.8292
 1734TIP3    H226838   2.724   2.357   1.427  0.1855  1.1349  0.6568
 1735TIP3   OH226839   3.536   3.582   0.741  0.4653  0.2464 -0.6998
 1735TIP3    H126840   3.516   3.492   0.767  0.9778  0.8665  2.1474
 1735TIP3    H226841   3.451   3.627   0.743  0.4473  0.2026 -0.5156
 1736TIP3   OH226842   0.327   0.781   2.199 -0.0694 -0.6964  0.6083
 1736TIP3    H126843   0.373   0.700   2.219 -0.3735 -1.1108 -0.3446
 1736TIP3    H226844   0.238   0.766   2.231 -0.5709 -1.3798 -1.0077
 1737TIP3   OH226845   0.877   5.914   0.598 -0.1118  0.1172 -0.2326
 1737TIP3    H126846   0.869   5.902   0.693 -0.6312  0.0555 -0.2819
 1737TIP3    H226847   0.886   5.825   0.564  0.2594  0.1510 -0.2269
 1738TIP3   OH226848   2.293   2.151   1.453 -0.6498 -0.0392 -0.2193
 1738TIP3    H126849   2.350   2.221   1.487 -0.5989 -0.2112  0.0518
 1738TIP3    H226850   2.352   2.078   1.437 -0.6630  0.0692 -0.7598
 1739TIP3   OH226851   6.402   3.195   0.063  0.1472 -0.0054  0.4195
 1739TIP3    H126852   6.342   3.166  -0.006  0.2537  0.5318  0.0924
 1739TIP3    H226853   6.384   3.289   0.073  0.4757  0.0248  0.7793
 1740TIP3   OH226854   3.043   4.337   3.142  0.0415 -0.9674 -0.4748
 1740TIP3    H126855   3.063   4.284   3.219  0.8553  0.1721  0.1368
 1740TIP3    H226856   2.951   4.320   3.124  0.2539 -2.5227 -0.2740
 1741TIP3   OH226857   4.492   5.465   2.638 -0.2633  0.2148  0.0967
 1741TIP3    H126858   4.453   5.390   2.684  0.8254 -1.0577 -0.9706
 1741TIP3    H226859   4.575   5.479   2.684 -0.4534  0.7729  0.2762
 1742TIP3   OH226860   2.085   6.333   3.047  0.0094 -0.1310 -0.2320
 1742TIP3    H126861   1.990   6.328   3.056  0.1274 -0.0846  1.4066
 1742TIP3    H226862   2.113   6.241   3.046  0.0395 -0.1475  0.8237
 1743TIP3   OH226863   2.469   4.042   0.668  1.2184 -0.2437 -0.4208
 1743TIP3    H126864   2.553   4.021   0.707 -0.0040 -2.6704  1.1835
 1743TIP3    H226865   2.409   4.047   0.742 -0.4082 -0.5639 -1.6541
 1744TIP3   OH226866   4.650   1.235   2.871  0.0136 -0.2576 -0.1102
 1744TIP3    H126867   4.662   1.191   2.956 -3.4954  1.0808  1.2721
 1744TIP3    H226868   4.653   1.328   2.892 -1.7757  0.1050 -1.2115
 1745TIP3   OH226869   2.494   4.373   0.549  0.5746 -0.2793  0.1299
 1745TIP3    H126870   2.535   4.298   0.506  0.5003 -1.0190  1.3057
 1745TIP3    H226871   2.558   4.400   0.615  0.9316  1.1961 -0.7617
 1746TIP3   OH226872   5.357   4.526   2.038  0.3138 -0.1678  0.1737
 1746TIP3    H126873   5.389   4.540   2.127 -0.5406 -0.7172  0.5819
 1746TIP3    H226874   5.262   4.538   2.045  0.1849 -0.7110 -0.5612
 1747TIP3   OH226875   5.891   3.581   0.264 -0.2844  0.0080  0.0446
 1747TIP3    H126876   5.979   3.589   0.301 -0.9388 -0.1916  1.6961
 1747TIP3    H226877   5.886   3.651   0.199  1.5946 -0.8893 -1.1673
 1748TIP3   OH226878   4.154   1.712   1.832  0.6643 -0.1510 -0.3995
 1748TIP3    H126879   4.235   1.759   1.814  0.7511  0.5408  1.5888
 1748TIP3    H226880   4.147   1.711   1.927 -2.5514  1.3941 -0.4740
 1749TIP3   OH226881   5.985   1.753   8.400 -0.4127  1.0914 -0.2286
 1749TIP3    H126882   5.904   1.784   8.442 -0.4751  0.5327  0.0770
 1749TIP3    H226883   6.040   1.724   8.473 -0.6827 -0.2785 -0.5472
 1750TIP3   OH226884   0.219   2.698   7.336  0.5030  0.3118  0.8220
 1750TIP3    H126885   0.157   2.653   7.393  1.2275 -0.4338  1.0388
 1750TIP3    H226886   0.217   2.789   7.366 -0.7228  0.3774  0.6034
 1751TIP3   OH226887   2.895   6.261   0.873  0.2696  0.4918 -0.5215
 1751TIP3    H126888   2.851   6.181   0.844  1.6824  0.1824 -1.9307
 1751TIP3    H226889   2.985   6.234   0.891  0.4341  1.5111  0.2930
 1752TIP3   OH226890   4.583   4.140   1.378  0.0644  0.1323  0.0520
 1752TIP3    H126891   4.578   4.235   1.387  2.2893  0.1172  2.6116
 1752TIP3    H226892   4.542   4.105   1.457 -1.3252 -1.1330 -1.1532
 1753TIP3   OH226893   1.720   3.838   3.982  0.2451  0.5627 -0.4152
 1753TIP3    H126894   1.739   3.746   4.002  2.1370  0.7697 -1.1731
 1753TIP3    H226895   1.626   3.846   4.000  0.3783 -1.0685  1.3584
 1754TIP3   OH226896   4.946   3.561   1.994  0.2683  0.1644  0.0735
 1754TIP3    H126897   5.039   3.537   2.000  0.2777  0.4586  1.4714
 1754TIP3    H226898   4.935   3.593   1.904  1.5573  0.2799 -0.0618
 1755TIP3   OH226899   5.673   3.492   2.355  0.0870 -0.0889 -0.3841
 1755TIP3    H126900   5.596   3.443   2.384 -0.6870  0.5689 -1.2900
 1755TIP3    H226901   5.653   3.583   2.377  0.9229  0.0072  0.0140
 1756TIP3   OH226902   1.714   0.785   0.242 -0.2513 -0.1576 -0.1003
 1756TIP3    H126903   1.690   0.824   0.326 -0.8769 -0.6232 -0.0622
 1756TIP3    H226904   1.639   0.801   0.185 -0.3831 -1.0141 -0.1808
 1757TIP3   OH226905   1.095   5.325   1.116 -0.0416 -0.2842  0.0803
 1757TIP3    H126906   1.064   5.235   1.125 -1.5627  0.4011  2.8110
 1757TIP3    H226907   1.170   5.330   1.175 -0.2510  0.3356  0.2985
 1758TIP3   OH226908   5.539   1.245   8.681  0.3761  0.0957  0.2315
 1758TIP3    H126909   5.509   1.315   8.738 -0.6092 -0.4070  0.3573
 1758TIP3    H226910   5.566   1.175   8.740  2.2525  0.6853  0.1325
 1759TIP3   OH226911   6.579   3.669   0.913 -0.0799  0.4388  0.1974
 1759TIP3    H126912   6.601   3.667   0.819 -2.2893  1.6042 -0.3984
 1759TIP3    H226913   6.630   3.596   0.950 -2.5002 -3.1029 -2.6755
 1760TIP3   OH226914   0.945   3.148   3.065 -0.3243  0.1011  0.7223
 1760TIP3    H126915   0.859   3.184   3.085 -1.4227 -0.9712 -1.7616
 1760TIP3    H226916   0.937   3.054   3.085 -0.1311 -0.2143 -0.5963
 1761TIP3   OH226917   1.060   1.327   2.573  0.5073  0.1191 -0.3313
 1761TIP3    H126918   1.115   1.405   2.574 -0.3561  0.7412 -0.2693
 1761TIP3    H226919   1.036   1.313   2.664  0.7525 -0.2905 -0.3271
 1762TIP3   OH226920   2.920   2.470   0.504  0.4931 -0.0159 -0.5655
 1762TIP3    H126921   2.944   2.455   0.413  2.4312 -2.1161  0.1926
 1762TIP3    H226922   3.002   2.457   0.553 -0.6786  0.1326  1.5698
 1763TIP3   OH226923   3.095   2.626   1.962 -0.0448  0.0184 -1.2286
 1763TIP3    H126924   3.076   2.545   1.914 -2.4968  0.5138 -1.2137
 1763TIP3    H226925   3.080   2.695   1.898  0.8882  0.5289 -0.9111
 1764TIP3   OH226926   0.370   2.841   3.251 -0.1979 -0.3509 -0.0654
 1764TIP3    H126927   0.454   2.884   3.269  0.8370 -2.6983  1.0519
 1764TIP3    H226928   0.353   2.859   3.159  1.6401  0.0024 -0.3704
 1765TIP3   OH226929   3.953   2.823   1.076  0.1419 -0.3605 -0.2579
 1765TIP3    H126930   3.925   2.857   0.991 -0.6065 -4.5004 -1.9011
 1765TIP3    H226931   4.035   2.778   1.058 -0.0656 -1.3663  1.1663
 1766TIP3   OH226932   3.565   3.683   0.119 -0.0419  0.1161 -0.1273
 1766TIP3    H126933   3.540   3.769   0.086 -1.0297 -0.4475 -0.9199
 1766TIP3    H226934   3.532   3.622   0.052 -2.3712 -1.1179  1.9934
 1767TIP3   OH226935   5.643   2.585   0.653  0.0430 -0.3588  0.2007
 1767TIP3    H126936   5.574   2.622   0.599 -1.5722 -0.9018  1.7999
 1767TIP3    H226937   5.650   2.494   0.624  2.0014  0.3285 -1.7523
 1768TIP3   OH226938   6.395   5.980   8.049 -0.4610 -0.5657 -0.1290
 1768TIP3    H126939   6.348   6.040   8.108  0.1374  0.8110 -1.0036
 1768TIP3    H226940   6.384   6.019   7.962  1.0780 -0.9851 -0.5444
 1769TIP3   OH226941   5.840   1.282   2.662  0.3056  0.1098  0.1719
 1769TIP3    H126942   5.759   1.329   2.640 -0.3620 -0.1204  1.9412
 1769TIP3    H226943   5.814   1.190   2.666  1.2433 -0.2753 -1.6411
 1770TIP3   OH226944   0.219   4.219   3.189 -0.0798  0.0289  0.0975
 1770TIP3    H126945   0.295   4.177   3.149  1.0075  0.9726  1.1138
 1770TIP3    H226946   0.228   4.312   3.167  0.1580  0.4586  1.8780
 1771TIP3   OH226947   0.930   5.381   0.629  0.0378 -0.0020 -0.5420
 1771TIP3    H126948   0.892   5.369   0.716  0.8948  0.9098 -0.0164
 1771TIP3    H226949   0.871   5.335   0.570 -0.7414 -0.3510  0.4858
 1772TIP3   OH226950   2.389   3.371   1.955  0.3200  0.2916  0.0436
 1772TIP3    H126951   2.303   3.413   1.955 -0.0253 -0.4011 -0.7525
 1772TIP3    H226952   2.447   3.438   1.992 -0.5270  0.8058  0.4990
 1773TIP3   OH226953   1.765   0.113   1.414 -0.3959 -0.0795  1.1275
 1773TIP3    H126954   1.759   0.187   1.354 -0.5235  0.1854  1.4648
 1773TIP3    H226955   1.771   0.036   1.357  1.8855  0.3272  0.7353
 1774TIP3   OH226956   6.625   2.859   2.845  0.3416  1.0005 -0.4654
 1774TIP3    H126957   6.573   2.794   2.799  2.5670 -1.9797  0.8938
 1774TIP3    H226958   6.594   2.856   2.935  0.1186  2.2861 -0.4728
 1775TIP3   OH226959   4.935   3.969   2.685 -0.2199  0.4878  0.2828
 1775TIP3    H126960   5.000   3.905   2.654  0.1236  0.9506  0.0400
 1775TIP3    H226961   4.981   4.019   2.752 -0.7654 -0.0898  1.1019
 1776TIP3   OH226962   6.243   0.471   0.591  0.1560 -0.3175 -0.1405
 1776TIP3    H126963   6.217   0.558   0.559 -1.2824 -0.6335  0.1122
 1776TIP3    H226964   6.339   0.471   0.585  0.1830  1.2992 -0.0952
 1777TIP3   OH226965   5.121   5.327   1.932 -0.0666  0.1966  0.0803
 1777TIP3    H126966   5.158   5.337   2.019  0.4727 -3.1534  0.3925
 1777TIP3    H226967   5.164   5.394   1.879  2.8190 -0.3722  1.5184
 1778TIP3   OH226968   1.820   4.958   1.230 -0.3520  0.1380  0.7241
 1778TIP3    H126969   1.757   4.998   1.289  0.5239  1.1182  1.0252
 1778TIP3    H226970   1.902   4.957   1.279  0.0512 -0.3831  0.0591
 1779TIP3   OH226971   4.278   5.679   8.353  0.4190 -0.3084 -0.5901
 1779TIP3    H126972   4.279   5.736   8.430 -2.6008  3.2480 -2.8638
 1779TIP3    H226973   4.185   5.656   8.342  1.0252 -2.2590 -2.1600
 1780TIP3   OH226974   1.421   5.661   1.924 -0.1621 -0.1527  0.3665
 1780TIP3    H126975   1.371   5.727   1.877 -1.7393  0.4937  2.7498
 1780TIP3    H226976   1.358   5.620   1.983  1.7268 -0.5529  2.2505
 1781TIP3   OH226977   1.877   3.384   1.029 -0.3655  0.7318 -0.2624
 1781TIP3    H126978   1.847   3.475   1.019 -1.6927  0.2597 -0.6757
 1781TIP3    H226979   1.807   3.331   0.992 -0.2495 -0.5369  1.2357
 1782TIP3   OH226980   2.310   1.119   2.045 -0.2927 -0.0557  0.5840
 1782TIP3    H126981   2.266   1.185   2.098 -0.8942  0.9973 -1.1302
 1782TIP3    H226982   2.260   1.117   1.963  0.9272 -1.1843 -0.1760
 1783TIP3   OH226983   5.496   1.841   2.602 -0.4162 -0.0946  0.2910
 1783TIP3    H126984   5.412   1.844   2.557 -0.5703 -2.2643  0.3024
 1783TIP3    H226985   5.552   1.787   2.546 -0.4160 -2.3472  2.2711
 1784TIP3   OH226986   0.671   0.785   1.870 -0.1378  0.0562 -0.4838
 1784TIP3    H126987   0.615   0.848   1.915 -1.3514 -0.3053 -1.4392
 1784TIP3    H226988   0.726   0.838   1.812 -0.2846  0.3269 -0.3750
 1785TIP3   OH226989   6.492   6.592   8.148 -0.2794 -0.3667 -0.2401
 1785TIP3    H126990   6.580   6.600   8.111 -0.3851  1.3802 -0.1770
 1785TIP3    H226991   6.492   6.506   8.189  1.2475 -0.5925 -0.6260
 1786TIP3   OH226992   4.596   1.999   1.036 -0.0645  0.8848  0.4445
 1786TIP3    H126993   4.590   2.084   0.992 -2.8102  0.1075 -0.8390
 1786TIP3    H226994   4.506   1.976   1.057  0.7128 -1.2668  1.7176
 1787TIP3   OH226995   0.952   3.908   3.050 -0.3393  0.1714  0.5820
 1787TIP3    H126996   0.948   3.907   2.954 -2.2878 -1.0982  0.6212
 1787TIP3    H226997   0.926   3.997   3.074 -0.3663  0.3464 -0.0532
 1788TIP3   OH226998   4.361   0.415   2.880  0.0195 -0.1756 -0.5542
 1788TIP3    H126999   4.302   0.341   2.885 -1.3791  0.9515  0.3870
 1788TIP3    H227000   4.310   0.483   2.836  1.0145  0.4669 -0.7413
 1789TIP3   OH227001   0.766   4.321   1.607  0.2747 -0.2929 -0.6244
 1789TIP3    H127002   0.718   4.399   1.634  1.4513 -0.3113  1.7718
 1789TIP3    H227003   0.751   4.258   1.678  2.1130 -1.0132 -0.8124
 1790TIP3   OH227004   1.971   3.126   8.770 -0.7301 -0.0522  0.1133
 1790TIP3    H127005   2.019   3.102   8.691 -0.3275 -0.5615  0.5034
 1790TIP3    H227006   1.982   3.051   8.828  1.7422  1.5584  1.9308
 1791TIP3   OH227007   0.548   4.666   1.935  0.7281  0.0478  0.1590
 1791TIP3    H127008   0.536   4.760   1.924  2.8408  0.2817 -0.5412
 1791TIP3    H227009   0.610   4.658   2.007  0.3992 -0.8440  0.3649
 1792TIP3   OH227010   0.119   2.669   2.539 -0.0323 -0.8427  0.5703
 1792TIP3    H127011   0.102   2.673   2.444 -1.3307 -0.7085  0.7857
 1792TIP3    H227012   0.134   2.759   2.565 -2.2901 -0.5080  0.9008
 1793TIP3   OH227013   3.933   2.726   0.709  0.2430 -0.1431  0.4011
 1793TIP3    H127014   4.001   2.737   0.642  0.9418  0.6168  1.2034
 1793TIP3    H227015   3.894   2.641   0.691 -0.7542  0.7364 -2.0223
 1794TIP3   OH227016   4.243   4.766   1.976  0.4941  0.2079  1.0165
 1794TIP3    H127017   4.221   4.849   2.019 -2.3445 -0.0063  0.1706
 1794TIP3    H227018   4.158   4.726   1.957  1.7385 -1.6124 -1.0856
 1795TIP3   OH227019   2.322   3.314   0.441 -0.3175  0.1535  0.5241
 1795TIP3    H127020   2.301   3.236   0.391 -2.1121  0.1743  1.1871
 1795TIP3    H227021   2.282   3.386   0.391 -0.8224  0.3504  1.2121
 1796TIP3   OH227022   2.237   6.276   8.348 -0.4791  0.2915 -0.1361
 1796TIP3    H127023   2.144   6.260   8.365 -1.5169  1.7314 -3.5808
 1796TIP3    H227024   2.251   6.243   8.259  2.2075  0.5684  0.1029
 1797TIP3   OH227025   0.863   6.675   8.039 -0.0955  0.2920  0.0277
 1797TIP3    H127026   0.804   6.749   8.022 -1.7795 -1.1287 -0.7000
 1797TIP3    H227027   0.949   6.706   8.011 -1.3143  0.8821 -3.5911
 1798TIP3   OH227028   3.075   6.048   1.840 -0.3528 -0.3152 -0.1309
 1798TIP3    H127029   3.151   6.090   1.800 -0.8288  0.6627 -0.0408
 1798TIP3    H227030   3.073   6.083   1.929 -1.2377  0.1308 -0.3154
 1799TIP3   OH227031   4.551   4.167   3.603 -0.1153 -0.5397 -0.6117
 1799TIP3    H127032   4.569   4.189   3.695 -1.0354 -3.0999  0.2601
 1799TIP3    H227033   4.626   4.203   3.555  0.9876 -0.1627  1.2746
 1800TIP3   OH227034   2.579   4.437   0.850  0.1045 -0.2837  0.1901
 1800TIP3    H127035   2.520   4.510   0.833 -0.6654 -0.9744 -0.1424
 1800TIP3    H227036   2.578   4.427   0.945  0.5633  0.4199  0.2737
 1801TIP3   OH227037   6.207   6.226   2.684 -0.4455  0.0784 -0.2481
 1801TIP3    H127038   6.175   6.223   2.594 -2.8334  1.3269  0.4828
 1801TIP3    H227039   6.256   6.308   2.689  1.2672 -0.8340 -0.7955
 1802TIP3   OH227040   5.192   5.578   2.134  0.0203 -0.0489 -0.7256
 1802TIP3    H127041   5.226   5.493   2.162 -1.0760  0.2224  1.6721
 1802TIP3    H227042   5.222   5.639   2.200  0.3270  1.3678 -2.1217
 1803TIP3   OH227043   3.073   3.926   2.254  0.4158 -0.7194  0.3479
 1803TIP3    H127044   3.039   3.947   2.167  0.6770 -0.9775  0.1792
 1803TIP3    H227045   3.159   3.969   2.257 -0.2696  0.6711  1.0993
 1804TIP3   OH227046   3.865   1.507   2.079 -0.0159  0.0559 -0.0496
 1804TIP3    H127047   3.845   1.594   2.045 -0.0482 -0.2440 -0.8098
 1804TIP3    H227048   3.801   1.494   2.149 -0.7085  0.2167 -0.6367
 1805TIP3   OH227049   2.448   3.782   7.746  0.1044  0.1314 -0.2301
 1805TIP3    H127050   2.374   3.779   7.686  0.8099 -0.4682 -1.0966
 1805TIP3    H227051   2.458   3.691   7.776 -1.1118  0.6495  1.9180
 1806TIP3   OH227052   2.231   2.103   3.254 -0.4522 -0.8203 -0.2971
 1806TIP3    H127053   2.212   2.104   3.348 -0.8297  0.2452 -0.3627
 1806TIP3    H227054   2.273   2.019   3.239  2.3801  0.1354  1.3751
 1807TIP3   OH227055   3.637   5.105   1.617 -0.1430 -0.1031  0.0324
 1807TIP3    H127056   3.684   5.179   1.579  0.3459 -0.0316  0.7703
 1807TIP3    H227057   3.703   5.036   1.626 -0.5045 -0.4942 -0.2736
 1808TIP3   OH227058   4.627   1.832   8.703  0.0489 -0.1375  0.3696
 1808TIP3    H127059   4.629   1.799   8.613  0.7899 -0.1553  0.3851
 1808TIP3    H227060   4.537   1.863   8.715 -1.0157 -3.0365  0.6770
 1809TIP3   OH227061   0.136   0.317   2.538 -0.0891 -0.1997  0.1525
 1809TIP3    H127062   0.195   0.324   2.613  1.2686 -1.4311 -0.7225
 1809TIP3    H227063   0.144   0.225   2.510 -2.6817 -0.5013  0.1420
 1810TIP3   OH227064   3.581   0.110   1.430 -0.5363 -0.3496  0.1687
 1810TIP3    H127065   3.611   0.184   1.378 -1.0132 -0.0917  0.2540
 1810TIP3    H227066   3.540   0.149   1.507 -1.1264 -0.6902  0.0355
 1811TIP3   OH227067   4.552   2.556   0.950 -0.6445  0.1202  0.2292
 1811TIP3    H127068   4.557   2.526   0.860 -1.2344 -1.0999  0.5801
 1811TIP3    H227069   4.514   2.644   0.944  1.4328  1.0099 -0.8513
 1812TIP3   OH227070   4.042   0.788   2.293  0.2605 -0.1737  0.2570
 1812TIP3    H127071   4.119   0.769   2.348  0.2931 -1.5960 -0.2228
 1812TIP3    H227072   3.972   0.804   2.356  0.3971 -1.3394  0.7438
 1813TIP3   OH227073   5.861   1.015   0.657 -0.1436  0.7047 -0.4350
 1813TIP3    H127074   5.860   1.026   0.562  0.2247  0.7099 -0.4410
 1813TIP3    H227075   5.882   1.102   0.691 -0.0797  0.6584 -0.3559
 1814TIP3   OH227076   5.468   0.613   1.988 -0.3146  0.0608  0.3126
 1814TIP3    H127077   5.418   0.592   1.910 -1.6189 -0.7737  1.3373
 1814TIP3    H227078   5.559   0.593   1.965 -0.7167 -0.4273 -0.8955
 1815TIP3   OH227079   5.431   5.211   1.166  0.1223  0.0297 -0.7841
 1815TIP3    H127080   5.354   5.155   1.157  0.5184 -0.5237 -0.7536
 1815TIP3    H227081   5.453   5.237   1.076  1.2492 -1.6602 -1.0428
 1816TIP3   OH227082   1.264   3.642   1.166  0.0917 -0.5670  0.2638
 1816TIP3    H127083   1.347   3.614   1.204  0.8020 -0.1552 -0.9282
 1816TIP3    H227084   1.282   3.652   1.073 -1.0623  0.4225  0.1166
 1817TIP3   OH227085   4.747   5.237   3.685  0.3159 -0.1374  0.1901
 1817TIP3    H127086   4.811   5.263   3.618  0.9147  0.3665  0.9347
 1817TIP3    H227087   4.716   5.320   3.722 -0.2982 -0.3993  0.2738
 1818TIP3   OH227088   6.028   5.163   1.220 -0.1040  0.1695  0.2291
 1818TIP3    H127089   6.027   5.071   1.195 -0.4989  0.2200  0.0366
 1818TIP3    H227090   6.109   5.198   1.182  0.6212 -0.3462  1.2632
 1819TIP3   OH227091   1.886   1.390   2.491 -0.1579 -0.0905  0.9730
 1819TIP3    H127092   1.909   1.482   2.502  1.1844 -0.4236  1.1014
 1819TIP3    H227093   1.861   1.361   2.579 -3.2313  0.7710  0.5198
 1820TIP3   OH227094   6.201   5.527   8.291  0.2108  0.1388 -0.0680
 1820TIP3    H127095   6.150   5.581   8.230  1.8886  1.9518  0.0342
 1820TIP3    H227096   6.224   5.449   8.240  0.2780  0.9204 -1.2749
 1821TIP3   OH227097   3.587   5.228   0.380 -0.4514 -0.6701 -0.6673
 1821TIP3    H127098   3.513   5.276   0.414  0.2483  1.4503 -1.9189
 1821TIP3    H227099   3.576   5.230   0.285  0.8905 -0.7956 -0.8585
 1822TIP3   OH227100   2.244   5.219   1.163 -0.2160 -0.1701 -0.5404
 1822TIP3    H127101   2.323   5.169   1.186 -0.7376 -0.0836  1.6305
 1822TIP3    H227102   2.187   5.211   1.239 -1.9043  0.6211 -1.6625
 1823TIP3   OH227103   2.444   3.509   1.283 -0.5712  0.6475 -0.6168
 1823TIP3    H127104   2.509   3.523   1.214  0.6117 -0.7700  0.1405
 1823TIP3    H227105   2.362   3.493   1.236  0.1663 -0.0656 -1.7172
 1824TIP3   OH227106   1.175   4.525   8.627  0.0447  0.0678  0.3598
 1824TIP3    H127107   1.255   4.524   8.575  1.2008  0.5155  2.0226
 1824TIP3    H227108   1.199   4.481   8.709 -1.2239  0.7567  1.1422
 1825TIP3   OH227109   3.917   3.234   1.642  0.3118 -0.5860 -0.4624
 1825TIP3    H127110   3.965   3.159   1.610  0.8536 -0.3589 -0.1970
 1825TIP3    H227111   3.983   3.302   1.654 -0.4629  0.7777 -3.0860
 1826TIP3   OH227112   2.547   3.403   2.731  0.0618 -0.3117 -0.3662
 1826TIP3    H127113   2.629   3.354   2.731 -0.5660 -1.4022  0.6314
 1826TIP3    H227114   2.553   3.460   2.807  1.2001  1.9586 -2.0530
 1827TIP3   OH227115   4.473   4.683   2.068 -0.2253  0.6957 -0.3695
 1827TIP3    H127116   4.395   4.674   2.013  0.2001 -0.3822 -0.8311
 1827TIP3    H227117   4.439   4.701   2.156 -0.9817  0.4115 -0.5952
 1828TIP3   OH227118   6.785   1.760   2.950  0.3325 -0.2021  0.1527
 1828TIP3    H127119   6.846   1.831   2.968 -1.4000  1.2871  0.3805
 1828TIP3    H227120   6.772   1.717   3.034  0.8072 -0.3172  0.1682
 1829TIP3   OH227121   5.494   2.261   2.793  0.1012 -0.1260  0.1088
 1829TIP3    H127122   5.419   2.208   2.820 -1.5674  2.1187  0.1446
 1829TIP3    H227123   5.531   2.214   2.719 -3.1651  0.0680 -1.8318
 1830TIP3   OH227124   2.382   4.194   3.806  0.1296 -0.2407  0.3947
 1830TIP3    H127125   2.417   4.154   3.886  0.3759 -0.0446  0.3877
 1830TIP3    H227126   2.322   4.262   3.837 -1.2093 -1.3770  0.4099
 1831TIP3   OH227127   4.959   1.202   3.030  0.0327  0.0065 -0.3325
 1831TIP3    H127128   4.885   1.143   3.043  0.1517 -0.0068  0.3109
 1831TIP3    H227129   5.013   1.159   2.963 -0.6034  0.0890 -0.9170
 1832TIP3   OH227130   2.662   5.126   2.154 -0.1839 -0.0888  0.1900
 1832TIP3    H127131   2.619   5.085   2.229 -2.8129 -0.2675 -1.2676
 1832TIP3    H227132   2.714   5.057   2.114  0.3054 -0.2971  1.1596
 1833TIP3   OH227133   6.253   4.356   0.438  0.1665 -0.0712  0.3109
 1833TIP3    H127134   6.300   4.345   0.355 -0.9099  0.4779 -0.4013
 1833TIP3    H227135   6.252   4.450   0.453 -1.6235  0.0536 -0.2853
 1834TIP3   OH227136   1.402   4.202   8.652  0.0524 -0.1522  0.1441
 1834TIP3    H127137   1.386   4.264   8.723  0.3267 -1.9143  1.8061
 1834TIP3    H227138   1.316   4.188   8.612  0.1706  2.1754 -1.0930
 1835TIP3   OH227139   1.354   6.606   0.935  0.1382 -0.5459 -0.3936
 1835TIP3    H127140   1.271   6.566   0.963  0.0408 -1.5524 -1.9895
 1835TIP3    H227141   1.360   6.586   0.842  1.2342  1.2343 -0.7536
 1836TIP3   OH227142   2.445   6.232   1.176  0.2447  0.7055 -0.5896
 1836TIP3    H127143   2.525   6.189   1.145  1.3558  2.7079 -0.6316
 1836TIP3    H227144   2.431   6.304   1.115 -2.3428 -0.3179 -1.3042
 1837TIP3   OH227145   5.351   4.354   1.552  0.5935  0.1385 -0.1439
 1837TIP3    H127146   5.433   4.397   1.578  0.4081  1.9863 -2.2815
 1837TIP3    H227147   5.292   4.427   1.531 -0.8704 -1.1770 -0.7431
 1838TIP3   OH227148   0.486   6.235   0.181 -0.4877  0.4596 -0.1236
 1838TIP3    H127149   0.508   6.250   0.273 -0.3486  0.5239 -0.1656
 1838TIP3    H227150   0.501   6.320   0.139  0.4521  0.1822 -0.3919
 1839TIP3   OH227151   6.284   6.098   0.149  0.2425  0.1841  0.2810
 1839TIP3    H127152   6.311   6.189   0.162  0.4659 -0.1675  2.4923
 1839TIP3    H227153   6.188   6.103   0.142  0.2792  0.6123  0.0407
 1840TIP3   OH227154   1.560   6.270   1.054  0.1435 -0.3797 -0.1125
 1840TIP3    H127155   1.544   6.331   1.126  0.6813 -0.1621 -0.1673
 1840TIP3    H227156   1.533   6.317   0.975  1.5125  0.2074 -0.2661
 1841TIP3   OH227157   6.186   5.180   0.790 -0.2033  0.1179  0.1325
 1841TIP3    H127158   6.166   5.092   0.820  2.5265 -0.3505  0.7785
 1841TIP3    H227159   6.217   5.169   0.700  4.9163 -0.4474  1.6720
 1842TIP3   OH227160   0.250   1.924   0.974 -0.3587  0.1012  0.0534
 1842TIP3    H127161   0.297   1.954   1.052 -0.8544  0.3370  0.2668
 1842TIP3    H227162   0.190   1.996   0.953  0.5162  0.5021 -1.1793
 1843TIP3   OH227163   5.835   6.545   8.490  0.2195 -0.0554 -0.4542
 1843TIP3    H127164   5.838   6.579   8.401  0.1784  0.5174 -0.2462
 1843TIP3    H227165   5.743   6.530   8.507  0.2428 -0.3289 -0.5665
 1844TIP3   OH227166   4.865   2.191   2.653  0.3588 -0.4426  0.2382
 1844TIP3    H127167   4.778   2.150   2.660  0.4938 -0.6491  0.7038
 1844TIP3    H227168   4.860   2.241   2.571 -0.3696 -0.0498  0.5124
 1845TIP3   OH227169   1.653   4.575   1.702 -0.1363 -0.1431  0.4222
 1845TIP3    H127170   1.746   4.577   1.678 -0.4336 -0.1091 -0.7886
 1845TIP3    H227171   1.619   4.497   1.658 -1.2484  1.3061 -1.4325
 1846TIP3   OH227172   4.479   5.853   2.026 -0.2660  0.4648  0.3515
 1846TIP3    H127173   4.478   5.766   2.066  0.8383 -0.5003 -1.6123
 1846TIP3    H227174   4.459   5.838   1.934 -0.0406  2.3055 -0.0324
 1847TIP3   OH227175   5.061   1.266   0.935  0.3070 -0.5629 -0.5793
 1847TIP3    H127176   5.007   1.340   0.962 -0.1285 -1.1932  0.3459
 1847TIP3    H227177   5.065   1.210   1.013  3.0011 -0.1590 -0.3387
 1848TIP3   OH227178   4.212   0.062   0.769 -0.1055 -1.0460 -0.3336
 1848TIP3    H127179   4.264  -0.004   0.723 -1.0275 -0.2815 -2.6536
 1848TIP3    H227180   4.143   0.085   0.707  0.0922  1.9891  0.3905
 1849TIP3   OH227181   0.679   1.203   1.531  0.2283 -0.1123 -0.2891
 1849TIP3    H127182   0.650   1.135   1.469  2.4084 -1.6185  0.2324
 1849TIP3    H227183   0.746   1.252   1.484  1.4401 -0.8600  0.5851
 1850TIP3   OH227184   5.683   2.800   2.342 -0.4663  0.0283  0.5192
 1850TIP3    H127185   5.645   2.735   2.401  1.9064 -0.6121  1.4792
 1850TIP3    H227186   5.710   2.750   2.265 -1.4205  0.4451 -0.0938
 1851TIP3   OH227187   4.786   1.188   1.224 -0.1308 -0.2560 -0.1554
 1851TIP3    H127188   4.831   1.119   1.273 -0.6553 -0.4234  0.1054
 1851TIP3    H227189   4.698   1.190   1.263 -0.2030  0.3700 -0.3470
 1852TIP3   OH227190   0.854   4.429   0.834 -0.0341  0.0620 -0.2954
 1852TIP3    H127191   0.819   4.508   0.875  2.5447  1.4117 -0.4859
 1852TIP3    H227192   0.894   4.380   0.907 -0.4025 -0.3680 -0.3801
 1853TIP3   OH227193   2.810   0.671   1.779 -0.2575  0.3721 -0.0240
 1853TIP3    H127194   2.775   0.755   1.750 -0.9910 -0.6236 -2.2925
 1853TIP3    H227195   2.893   0.662   1.732  0.4426  0.3256  1.1629
 1854TIP3   OH227196   4.372   2.729   3.575 -0.4374  0.3743 -0.1663
 1854TIP3    H127197   4.461   2.722   3.608  0.2367 -0.0469 -1.9153
 1854TIP3    H227198   4.327   2.785   3.637  0.8492  0.0262  1.1359
 1855TIP3   OH227199   2.123   1.049   2.297  0.0620 -0.1084  0.4022
 1855TIP3    H127200   2.164   0.984   2.240  1.5861 -0.7207  2.1327
 1855TIP3    H227201   2.181   1.056   2.373 -1.1840  1.6964  1.2764
 1856TIP3   OH227202   3.615   4.831   0.076  0.0694  0.0948  0.2138
 1856TIP3    H127203   3.573   4.917   0.078  1.4296  0.8159 -0.5722
 1856TIP3    H227204   3.577   4.788  -0.001 -0.2174  0.2107  0.2881
 1857TIP3   OH227205   2.780   6.598   0.168  0.6550  0.5164 -0.2175
 1857TIP3    H127206   2.834   6.674   0.146  1.1671  0.0536 -0.5957
 1857TIP3    H227207   2.811   6.529   0.110  1.7266 -0.6102  1.5782
 1858TIP3   OH227208   4.368   3.421   7.863  0.2404  0.1147 -0.2055
 1858TIP3    H127209   4.280   3.441   7.830 -0.3991 -0.1614  1.2717
 1858TIP3    H227210   4.368   3.454   7.953  0.8826 -1.8986  0.5773
 1859TIP3   OH227211   2.689   6.168   8.751 -0.3604 -0.3841 -0.1363
 1859TIP3    H127212   2.602   6.196   8.779 -0.8004  0.6282 -2.2893
 1859TIP3    H227213   2.709   6.092   8.806 -2.7837 -0.9186  0.1156
 1860TIP3   OH227214   6.008   6.445   0.798  0.1238 -0.0872  0.2855
 1860TIP3    H127215   5.931   6.495   0.771 -0.4749 -1.0847  0.0714
 1860TIP3    H227216   6.079   6.509   0.801 -0.5681  0.7249 -0.1810
 1861TIP3   OH227217   1.141   0.895   2.137  0.5779  0.6046 -0.6355
 1861TIP3    H127218   1.070   0.904   2.073 -0.5425  1.3906  0.6695
 1861TIP3    H227219   1.204   0.963   2.113  0.4180  0.5623 -1.1962
 1862TIP3   OH227220   3.065   6.265   7.918  0.2604 -0.5740 -0.3728
 1862TIP3    H127221   2.993   6.318   7.952 -0.3089 -1.7034  0.2364
 1862TIP3    H227222   3.033   6.232   7.833 -0.0439 -1.2380 -0.0117
 1863TIP3   OH227223   0.251   4.389   0.986  0.1790 -0.2300 -0.2232
 1863TIP3    H127224   0.238   4.418   0.895 -1.7288 -0.3454 -0.0363
 1863TIP3    H227225   0.211   4.458   1.039 -0.1670 -0.9179  0.4334
 1864TIP3   OH227226   4.497   4.963   0.228  0.6784  0.5352 -0.1304
 1864TIP3    H127227   4.494   5.023   0.154 -0.6607 -0.0830 -0.6027
 1864TIP3    H227228   4.556   4.893   0.199 -1.6766 -0.9532 -1.6575
 1865TIP3   OH227229   2.140   4.024   2.920  0.0743 -0.3836  0.0328
 1865TIP3    H127230   2.190   4.075   2.856 -0.1426 -0.6488 -0.3572
 1865TIP3    H227231   2.058   4.071   2.929  0.2329 -0.1726  0.3579
 1866TIP3   OH227232   3.498   6.635   8.349 -0.7903  0.4576  0.0486
 1866TIP3    H127233   3.553   6.658   8.423 -0.6990 -1.2782  0.5721
 1866TIP3    H227234   3.558   6.629   8.275 -0.2042 -1.4962  0.6294
 1867TIP3   OH227235   2.137   3.278   0.159  0.1158  0.1672 -0.0784
 1867TIP3    H127236   2.186   3.277   0.077  0.3260 -3.2496 -0.0512
 1867TIP3    H227237   2.060   3.224   0.143  0.0478 -0.4148  1.8905
 1868TIP3   OH227238   1.733   3.941   0.110  0.4394  0.6218 -0.2078
 1868TIP3    H127239   1.745   4.008   0.178 -0.0177  2.3497 -1.7408
 1868TIP3    H227240   1.822   3.914   0.088  0.6677  1.1107  0.0788
 1869TIP3   OH227241   5.609   6.121   2.339  0.3528 -0.3827  0.1824
 1869TIP3    H127242   5.574   6.209   2.327  0.9282 -0.2911 -0.9567
 1869TIP3    H227243   5.536   6.071   2.375  0.3975  0.8607  2.2014
 1870TIP3   OH227244   3.786   6.078   1.810  0.1879  0.3004  0.5759
 1870TIP3    H127245   3.819   6.071   1.720  0.6734 -0.3995  0.7960
 1870TIP3    H227246   3.805   5.993   1.848 -0.2516  0.5087  1.2711
 1871TIP3   OH227247   2.630   6.227   1.367  0.1205  0.1749  0.2911
 1871TIP3    H127248   2.613   6.291   1.436 -1.5959 -0.9242  0.9357
 1871TIP3    H227249   2.553   6.230   1.311  0.1232 -1.1259  0.1855
 1872TIP3   OH227250   1.847   0.226   0.413 -0.2594  0.1299  0.0520
 1872TIP3    H127251   1.854   0.222   0.318  0.0958  1.8939 -0.0252
 1872TIP3    H227252   1.933   0.197   0.445  0.1465  1.0119 -0.2214
 1873TIP3   OH227253   3.858   6.495   8.658 -0.3307  0.2381 -0.0682
 1873TIP3    H127254   3.831   6.404   8.653  0.1315 -0.4811  4.9405
 1873TIP3    H227255   3.778   6.545   8.638 -1.5013 -1.4045  0.2774
 1874TIP3   OH227256   5.874   6.624   1.717  0.0068  0.2835 -0.1247
 1874TIP3    H127257   5.902   6.698   1.662 -0.5958  0.3541 -0.3477
 1874TIP3    H227258   5.812   6.576   1.662  0.2796 -0.3004  0.0795
 1875TIP3   OH227259   3.915   0.017   3.673 -0.3315 -0.2422 -0.2916
 1875TIP3    H127260   3.890   0.095   3.623 -1.4374 -1.4470 -1.7075
 1875TIP3    H227261   3.836  -0.008   3.721 -0.2380 -0.9662 -0.5025
 1876TIP3   OH227262   2.103   5.955   8.643  0.1720  0.2237  0.1538
 1876TIP3    H127263   2.041   5.895   8.684  1.1376 -2.7677 -2.3322
 1876TIP3    H227264   2.048   6.020   8.600 -1.3431 -1.8700 -1.2844
 1877TIP3   OH227265   1.470   3.865   2.389  0.0747  0.0637  0.1301
 1877TIP3    H127266   1.514   3.813   2.457 -2.1110 -2.3121 -0.0995
 1877TIP3    H227267   1.474   3.809   2.311 -3.5435 -0.5161  0.2064
 1878TIP3   OH227268   4.661   4.161   2.343  0.0041 -0.0660  0.0486
 1878TIP3    H127269   4.698   4.073   2.337 -0.2811 -0.1283 -1.0670
 1878TIP3    H227270   4.577   4.155   2.298 -0.5764  0.4935  1.0326
 1879TIP3   OH227271   5.504   3.031   2.551  0.5804  0.2003  0.1293
 1879TIP3    H127272   5.547   3.047   2.467 -0.8934 -1.1158 -0.9383
 1879TIP3    H227273   5.411   3.019   2.529 -0.2189  1.8234  2.2088
 1880TIP3   OH227274   3.399   0.904   2.147  0.0146 -0.1538  0.4779
 1880TIP3    H127275   3.491   0.881   2.136 -0.2230 -0.1568 -2.4975
 1880TIP3    H227276   3.400   0.983   2.202  1.7972 -0.0718  0.3914
 1881TIP3   OH227277   0.315   3.212   2.313  0.3318  0.1475  0.1121
 1881TIP3    H127278   0.232   3.168   2.331  0.6545 -1.5974 -2.1688
 1881TIP3    H227279   0.293   3.304   2.304 -0.9647  0.0331  1.6951
 1882TIP3   OH227280   1.155   0.314   8.778  0.2859 -0.4240  0.4368
 1882TIP3    H127281   1.246   0.316   8.808  1.2870  1.5574 -2.2639
 1882TIP3    H227282   1.159   0.267   8.694 -0.9361  0.7005 -0.2855
 1883TIP3   OH227283   1.483   3.323   0.081  0.4360 -0.1895  0.2513
 1883TIP3    H127284   1.442   3.252   0.130 -1.7079  0.2606 -0.7762
 1883TIP3    H227285   1.567   3.287   0.052  0.6557 -1.2879  2.1122
 1884TIP3   OH227286   1.364   1.350   8.567  0.3352 -0.2025 -0.1798
 1884TIP3    H127287   1.298   1.356   8.498 -0.8412 -0.0112  0.9225
 1884TIP3    H227288   1.365   1.257   8.590 -1.4781  0.1292  1.5474
 1885TIP3   OH227289   5.466   5.600   1.353 -0.3237 -0.1387 -0.0520
 1885TIP3    H127290   5.538   5.647   1.394 -0.6950 -0.2064  0.6788
 1885TIP3    H227291   5.396   5.664   1.345 -0.3839 -0.2262 -0.2492
 1886TIP3   OH227292   6.012   0.002   0.813 -0.5680  0.0999  0.1475
 1886TIP3    H127293   6.048  -0.023   0.728 -1.0474 -0.0238 -0.0245
 1886TIP3    H227294   6.086   0.037   0.862 -0.5000  1.2712 -0.7491
 1887TIP3   OH227295   3.952   2.966   1.555 -0.1844 -0.3564  0.1481
 1887TIP3    H127296   3.883   2.936   1.613 -0.6119 -0.3848 -0.3625
 1887TIP3    H227297   3.913   2.961   1.467 -0.6117  2.5873  0.0827
 1888TIP3   OH227298   1.269   3.955   0.184 -0.1908 -0.5913 -0.5166
 1888TIP3    H127299   1.360   3.927   0.172  0.4836  0.2637  2.0583
 1888TIP3    H227300   1.271   4.050   0.173 -0.9712 -0.6538 -1.3250
 1889TIP3   OH227301   5.013   5.639   0.503  0.6087  0.2445 -0.2423
 1889TIP3    H127302   4.996   5.550   0.474 -3.3844  1.4551 -2.3751
 1889TIP3    H227303   5.045   5.629   0.593  4.3790 -3.3296 -1.6698
 1890TIP3   OH227304   0.092   1.736   2.253 -0.5671  0.6153 -0.0907
 1890TIP3    H127305   0.141   1.654   2.247 -0.9431  0.2418  1.3965
 1890TIP3    H227306   0.009   1.718   2.209  0.1913  0.9163 -1.6921
 1891TIP3   OH227307   3.591   5.559   8.771 -0.0979 -1.0042  0.1745
 1891TIP3    H127308   3.552   5.646   8.774 -0.1040 -1.0279  1.1926
 1891TIP3    H227309   3.540   5.511   8.706 -0.5025 -0.4398  0.0727
 1892TIP3   OH227310   1.148   4.894   8.704  0.5832  0.0438  0.0714
 1892TIP3    H127311   1.087   4.829   8.669  1.9723 -0.5108 -1.4771
 1892TIP3    H227312   1.094   4.972   8.718 -0.3985 -0.2125 -1.8739
 1893TIP3   OH227313   3.721   4.085   8.682  0.5932 -0.0018  0.0975
 1893TIP3    H127314   3.677   4.167   8.661  0.4448 -0.0021  0.3938
 1893TIP3    H227315   3.807   4.092   8.640 -0.0808 -0.4679 -1.4306
 1894TIP3   OH227316   5.491   4.543   0.089  0.5842 -0.3261  0.5026
 1894TIP3    H127317   5.536   4.625   0.112  0.1282  0.5938 -1.6079
 1894TIP3    H227318   5.444   4.519   0.168  2.3976  0.2837  1.8568
 1895TIP3   OH227319   5.551   0.869   2.083  0.5906 -0.2270  0.7788
 1895TIP3    H127320   5.520   0.783   2.054  2.8376 -1.3302  1.4930
 1895TIP3    H227321   5.578   0.913   2.003 -1.9923  0.5060  0.2131
 1896TIP3   OH227322   3.024   4.954   1.980 -0.6121 -0.1258  0.0799
 1896TIP3    H127323   3.059   4.947   2.069 -0.5163  0.8485  0.1355
 1896TIP3    H227324   3.013   5.048   1.967  1.2915 -0.0705 -1.6532
 1897TIP3   OH227325   2.684   5.218   2.679  0.1966  0.0526 -0.0920
 1897TIP3    H127326   2.758   5.271   2.708 -0.4638  1.7474 -1.3010
 1897TIP3    H227327   2.670   5.244   2.588 -0.3420 -2.0670 -0.6701
 1898TIP3   OH227328   6.623   1.692   1.626  0.4859  0.0081  0.3540
 1898TIP3    H127329   6.650   1.724   1.713 -0.1222  2.0201 -0.1349
 1898TIP3    H227330   6.705   1.684   1.577  0.6801  0.7675  0.5382
 1899TIP3   OH227331   4.736   5.219   0.281 -0.8732 -0.0574 -1.1293
 1899TIP3    H127332   4.661   5.242   0.336 -0.2438  0.5593 -0.5164
 1899TIP3    H227333   4.717   5.131   0.250 -1.6385 -0.0824 -0.6109
 1900TIP3   OH227334   3.136   0.109   8.557  0.5375 -0.0083 -0.5056
 1900TIP3    H127335   3.137   0.189   8.504  1.3549 -0.8714 -1.8678
 1900TIP3    H227336   3.062   0.120   8.617 -0.0396  1.2817 -1.4197
 1901TIP3   OH227337   6.599   2.019   1.764  0.3947 -0.1169 -0.1475
 1901TIP3    H127338   6.518   2.001   1.716 -0.2431  1.0040  0.4575
 1901TIP3    H227339   6.639   2.092   1.717  1.1565 -0.7798 -0.5444
 1902TIP3   OH227340   2.363   1.010   0.779  0.1700  0.1180 -0.1834
 1902TIP3    H127341   2.448   1.012   0.736 -0.7725 -0.3223 -2.1526
 1902TIP3    H227342   2.299   1.002   0.708 -1.4310 -1.6790  1.3366
 1903TIP3   OH227343   5.124   1.760   2.317 -0.3288 -0.9018 -0.1994
 1903TIP3    H127344   5.031   1.768   2.295 -0.8726 -1.5945  1.6924
 1903TIP3    H227345   5.158   1.850   2.308 -1.5396 -0.3428  0.5677
 1904TIP3   OH227346   1.288   3.639   0.596  0.2697 -0.7734  0.4047
 1904TIP3    H127347   1.296   3.662   0.503 -1.3963  0.0304  0.4282
 1904TIP3    H227348   1.377   3.647   0.630  0.2711  3.6938 -0.0500
 1905TIP3   OH227349   0.551   4.677   3.362  0.3892  0.4303 -0.0213
 1905TIP3    H127350   0.542   4.705   3.453 -1.1016 -0.9366  0.3011
 1905TIP3    H227351   0.605   4.598   3.366 -2.5495 -1.7273  0.1993
 1906TIP3   OH227352   1.759   4.715   0.353  0.0809 -1.0054 -0.5096
 1906TIP3    H127353   1.725   4.628   0.374  0.9745 -1.2742 -0.1536
 1906TIP3    H227354   1.807   4.703   0.271 -0.8706 -0.5760 -1.1421
 1907TIP3   OH227355   5.885   3.910   8.609 -0.4990 -0.4425 -0.2461
 1907TIP3    H127356   5.821   3.848   8.645 -1.6366  0.0047 -1.4444
 1907TIP3    H227357   5.967   3.888   8.654 -0.6310 -3.4061 -1.2185
 1908TIP3   OH227358   6.110   3.864   0.422 -0.2101 -0.2472 -0.7176
 1908TIP3    H127359   6.122   3.876   0.516  1.6870 -0.1864 -0.9424
 1908TIP3    H227360   6.110   3.769   0.410  1.2989 -0.2405 -0.8463
 1909TIP3   OH227361   2.320   0.118   1.015  0.4762 -0.3438 -0.2838
 1909TIP3    H127362   2.401   0.160   1.043 -0.1289 -0.0255  1.0291
 1909TIP3    H227363   2.347   0.029   0.989  1.2545 -0.2060  0.0315
 1910TIP3   OH227364   4.932   5.526   2.097  0.3748 -0.0306  0.1975
 1910TIP3    H127365   5.028   5.523   2.100  0.4469 -0.6263 -1.5322
 1910TIP3    H227366   4.908   5.456   2.035 -1.2366 -0.5459  1.3467
 1911TIP3   OH227367   0.445   6.485   4.035  0.5568  0.3673 -0.7497
 1911TIP3    H127368   0.399   6.402   4.023  2.5262 -1.6024  3.2630
 1911TIP3    H227369   0.382   6.541   4.081  0.7805 -0.9335  1.2823
 1912TIP3   OH227370   4.572   3.138   3.307 -0.3807  0.4304 -0.1614
 1912TIP3    H127371   4.560   3.078   3.380  2.1606  0.8251  0.6783
 1912TIP3    H227372   4.604   3.083   3.236 -0.2087  0.4529 -0.1017
 1913TIP3   OH227373   5.696   2.467   2.535  0.0983  0.3127  0.5219
 1913TIP3    H127374   5.775   2.413   2.527 -0.2797 -0.1380 -0.2596
 1913TIP3    H227375   5.722   2.538   2.595  1.4633  0.8163 -0.5964
 1914TIP3   OH227376   2.545   5.567   0.004 -0.0128  0.3502 -0.4633
 1914TIP3    H127377   2.634   5.559  -0.029 -0.7547 -1.8427 -2.1806
 1914TIP3    H227378   2.499   5.491  -0.032 -2.6869  1.6306 -0.0146
 1915TIP3   OH227379   4.130   2.056   3.465  0.9099  0.0358  0.3180
 1915TIP3    H127380   4.055   2.116   3.463  3.0878  2.9288  0.2877
 1915TIP3    H227381   4.190   2.094   3.529  3.7041 -0.4071 -1.8444
 1916TIP3   OH227382   5.305   3.632   0.543  0.3322 -0.9270 -0.2520
 1916TIP3    H127383   5.395   3.602   0.549  0.5708 -0.1455  0.2826
 1916TIP3    H227384   5.273   3.597   0.459  1.5898 -0.0445 -1.1318
 1917TIP3   OH227385   6.795   6.804   1.631  0.3526  0.3174  0.1947
 1917TIP3    H127386   6.780   6.719   1.589  0.0196  1.0967 -1.3589
 1917TIP3    H227387   6.711   6.850   1.623  1.3125  1.8843 -1.7173
 1918TIP3   OH227388   2.487   3.194   4.049  0.5137 -0.0060 -0.4879
 1918TIP3    H127389   2.452   3.108   4.024 -1.5946  0.4520  0.6792
 1918TIP3    H227390   2.427   3.257   4.010  1.5122  0.9264 -0.5637
 1919TIP3   OH227391   1.441   2.844   1.035 -0.3632 -0.2103 -0.3519
 1919TIP3    H127392   1.385   2.777   1.074 -1.5555 -0.5242 -2.4423
 1919TIP3    H227393   1.512   2.794   0.993 -0.9264 -0.1488 -1.4023
 1920TIP3   OH227394   5.930   2.233   3.495 -0.0638 -0.2595  0.8623
 1920TIP3    H127395   6.001   2.218   3.557  0.4479 -0.7940  0.1599
 1920TIP3    H227396   5.894   2.147   3.478  0.6189 -0.2955 -0.5242
 1921TIP3   OH227397   5.498   4.195   0.228 -0.4397 -0.3932 -0.0992
 1921TIP3    H127398   5.513   4.241   0.145 -2.1732 -0.5031 -0.5097
 1921TIP3    H227399   5.405   4.176   0.228 -0.4827 -0.3565  1.9190
 1922TIP3   OH227400   4.023   0.949   0.316  0.4768 -0.4354 -0.4042
 1922TIP3    H127401   3.972   0.870   0.294 -1.2237 -0.1357  2.0075
 1922TIP3    H227402   3.971   0.992   0.383  1.6322  2.5146 -1.2582
 1923TIP3   OH227403   3.647   1.043   8.609  0.0280  0.3498 -0.2730
 1923TIP3    H127404   3.659   0.991   8.688  3.5207 -1.8657 -1.9940
 1923TIP3    H227405   3.674   1.131   8.634 -1.2323  0.2620  1.5236
 1924TIP3   OH227406   0.446   2.150   0.898  0.0001 -0.2499  0.2387
 1924TIP3    H127407   0.476   2.216   0.960  0.3664  0.5811 -0.7809
 1924TIP3    H227408   0.466   2.066   0.939  0.5226  0.2790  1.0883
 1925TIP3   OH227409   4.179   3.161   2.681  0.2826  0.1617 -0.1036
 1925TIP3    H127410   4.200   3.229   2.745  1.7721 -0.3522 -0.0085
 1925TIP3    H227411   4.093   3.128   2.708 -0.2270  1.6417  0.1448
 1926TIP3   OH227412   6.100   6.082   2.012  0.1596 -0.2602 -0.4069
 1926TIP3    H127413   6.106   6.158   1.953  1.3321 -1.2342 -1.6254
 1926TIP3    H227414   6.083   6.120   2.098  2.0911  1.5148 -0.7101
 1927TIP3   OH227415   1.665   6.185   8.642  0.0419 -0.0479 -0.3616
 1927TIP3    H127416   1.744   6.198   8.695  0.6062  0.3200 -1.2781
 1927TIP3    H227417   1.675   6.097   8.605 -1.0573 -0.9217  1.2768
 1928TIP3   OH227418   3.423   5.446   1.711 -0.3869 -0.2468 -0.0904
 1928TIP3    H127419   3.328   5.457   1.702 -0.6248 -1.1351  1.0289
 1928TIP3    H227420   3.454   5.427   1.623 -0.8147  2.8033 -1.0046
 1929TIP3   OH227421   0.909   6.202   3.969  0.4418  0.0454  0.1169
 1929TIP3    H127422   0.824   6.241   3.986  1.4958  2.2856  0.5925
 1929TIP3    H227423   0.892   6.107   3.968 -2.0272  0.4246  0.0897
 1930TIP3   OH227424   6.574   4.556   4.015 -0.6161  0.3626  0.1341
 1930TIP3    H127425   6.636   4.553   4.088 -0.5358  0.8159  0.0848
 1930TIP3    H227426   6.606   4.489   3.955 -0.1472  0.6182  0.0910
 1931TIP3   OH227427   5.434   1.279   1.803 -0.0300  0.3212 -0.5024
 1931TIP3    H127428   5.503   1.256   1.865 -1.1131 -0.7333  0.3352
 1931TIP3    H227429   5.455   1.369   1.777  1.7837 -0.0508 -0.4616
 1932TIP3   OH227430   2.999   0.808   1.597 -0.0451  0.0569  0.5583
 1932TIP3    H127431   2.944   0.885   1.580  0.8084  0.8828  1.3687
 1932TIP3    H227432   2.973   0.744   1.531 -1.8952  0.4524  0.8360
 1933TIP3   OH227433   5.073   2.083   3.145 -0.0505 -0.2653  0.2367
 1933TIP3    H127434   5.033   2.059   3.229 -1.3241 -2.3923 -0.8681
 1933TIP3    H227435   5.084   2.177   3.149  0.1886 -0.3387  2.8933
 1934TIP3   OH227436   0.091   3.351   2.920 -0.1005 -0.4961  0.0460
 1934TIP3    H127437   0.059   3.404   2.993  0.6788 -1.8220  1.4252
 1934TIP3    H227438   0.030   3.368   2.849  0.1875  2.3110  0.3442
 1935TIP3   OH227439   6.427   6.473   3.032 -0.0518  0.0473  0.2704
 1935TIP3    H127440   6.342   6.455   3.073 -0.5641 -0.8843 -1.1190
 1935TIP3    H227441   6.491   6.435   3.092 -0.7234 -0.5889  0.6033
 1936TIP3   OH227442   3.988   3.052   0.607  1.0644  1.0113 -0.0365
 1936TIP3    H127443   4.049   3.125   0.614 -0.0643  1.8817  1.3658
 1936TIP3    H227444   3.913   3.088   0.559  1.2039  0.2652 -0.8319
 1937TIP3   OH227445   2.753   0.962   3.540 -0.4460  0.7864  0.1179
 1937TIP3    H127446   2.697   1.036   3.518 -0.9386  0.0171 -1.2645
 1937TIP3    H227447   2.703   0.884   3.515  0.7870  0.0416 -0.1310
 1938TIP3   OH227448   0.683   2.487   7.799 -0.4349  0.2934 -0.0537
 1938TIP3    H127449   0.696   2.506   7.707 -0.7722 -1.2740 -0.4607
 1938TIP3    H227450   0.729   2.556   7.846  1.0772  0.2262 -1.3985
 1939TIP3   OH227451   0.750   0.949   3.144  0.6013  0.1243  0.4549
 1939TIP3    H127452   0.679   0.933   3.206  0.6663 -0.3383  0.4109
 1939TIP3    H227453   0.707   0.954   3.059  0.6141 -0.0785  0.4372
 1940TIP3   OH227454   0.635   1.069   3.531 -0.3265  0.8771 -0.1691
 1940TIP3    H127455   0.627   1.008   3.604  1.0248  0.0334 -0.6881
 1940TIP3    H227456   0.617   1.016   3.453  0.1537  1.2977 -0.5764
 1941TIP3   OH227457   6.661   5.319   0.495 -0.0772  0.1343  0.3798
 1941TIP3    H127458   6.663   5.229   0.527 -0.6047 -0.0451 -0.0763
 1941TIP3    H227459   6.592   5.320   0.429 -0.7976  1.1175  1.1087
 1942TIP3   OH227460   5.054   3.553   8.118 -0.1335 -0.3165  0.6210
 1942TIP3    H127461   5.056   3.613   8.192  2.5593 -0.3504  0.6580
 1942TIP3    H227462   5.002   3.479   8.149 -1.4027  0.8738  1.4439
 1943TIP3   OH227463   6.146   5.886   8.606 -0.3090 -0.2581 -0.0579
 1943TIP3    H127464   6.139   5.979   8.585 -2.9979  0.5696  3.5860
 1943TIP3    H227465   6.090   5.843   8.541  0.3856  0.7135 -1.3399
 1944TIP3   OH227466   6.118   5.889   2.217  0.1723  0.0688 -0.4401
 1944TIP3    H127467   6.051   5.956   2.225  1.5032  1.3140  0.7880
 1944TIP3    H227468   6.084   5.814   2.266 -0.9719  0.1016 -1.1536
 1945TIP3   OH227469   5.751   2.431   1.455  0.6053  0.3240 -0.3847
 1945TIP3    H127470   5.774   2.522   1.478  0.7267  0.1060  0.3835
 1945TIP3    H227471   5.767   2.426   1.361  1.6158  0.8060 -0.2570
 1946TIP3   OH227472   1.681   4.354   2.060 -0.3817 -0.1136 -0.0017
 1946TIP3    H127473   1.591   4.325   2.049 -0.7647  1.0177  0.0864
 1946TIP3    H227474   1.734   4.283   2.022 -1.2994 -0.7429 -0.1273
 1947TIP3   OH227475   3.460   5.072   1.824 -0.1715 -0.5374 -0.4207
 1947TIP3    H127476   3.517   5.024   1.884  0.5357 -0.6716 -1.1859
 1947TIP3    H227477   3.514   5.089   1.747 -0.6929  0.6787 -0.5506
 1948TIP3   OH227478   0.197   3.056   8.619  0.1868  0.0834  0.1795
 1948TIP3    H127479   0.118   3.063   8.673  0.2957 -1.0367  0.5118
 1948TIP3    H227480   0.265   3.030   8.681  0.5952  0.0443 -0.2887
 1949TIP3   OH227481   1.750   2.144   0.568 -0.3734 -0.6523 -0.2500
 1949TIP3    H127482   1.683   2.181   0.510 -2.8197  0.4658  2.9585
 1949TIP3    H227483   1.809   2.217   0.586  0.6771 -1.1256 -1.5329
 1950TIP3   OH227484   5.658   1.637   0.710 -0.4579  0.3397 -0.2579
 1950TIP3    H127485   5.668   1.562   0.652 -0.9194 -0.3037  0.4765
 1950TIP3    H227486   5.698   1.710   0.662  1.1217 -0.6149 -0.4579
 1951TIP3   OH227487   6.099   4.677   2.545 -0.7035  0.0619  0.1118
 1951TIP3    H127488   6.076   4.648   2.633 -0.5574 -0.7709 -0.1152
 1951TIP3    H227489   6.122   4.596   2.498 -2.9438  0.1986 -1.3502
 1952TIP3   OH227490   6.356   4.591   1.388 -0.0930  0.1096  0.1465
 1952TIP3    H127491   6.290   4.648   1.426  1.1859  2.4851 -0.9573
 1952TIP3    H227492   6.439   4.629   1.416  0.8496  0.1818 -2.5077
 1953TIP3   OH227493   1.813   5.344   3.314  0.2653 -0.5280  0.0783
 1953TIP3    H127494   1.771   5.430   3.325  0.0518 -0.5117 -0.8192
 1953TIP3    H227495   1.906   5.364   3.300  0.7681 -0.5881  2.6910
 1954TIP3   OH227496   1.972   6.532   8.698  0.3349  0.0940  0.1853
 1954TIP3    H127497   2.047   6.509   8.642  0.5434 -0.1552  0.5594
 1954TIP3    H227498   1.926   6.600   8.650  0.2768 -0.4098 -0.4848
 1955TIP3   OH227499   1.463   1.984   0.556  0.0140  0.2492 -0.2522
 1955TIP3    H127500   1.403   2.058   0.561 -0.3367 -0.0618  0.2632
 1955TIP3    H227501   1.515   2.000   0.477 -0.4564  0.7340 -0.4669
 1956TIP3   OH227502   2.441   1.921   2.749  0.1862 -0.7876 -0.1384
 1956TIP3    H127503   2.415   1.883   2.833  0.8870 -1.1842 -0.0822
 1956TIP3    H227504   2.359   1.946   2.706 -0.1649 -0.4032  0.7441
 1957TIP3   OH227505   5.607   0.898   0.711 -0.2923 -0.2489  0.5398
 1957TIP3    H127506   5.594   0.899   0.616 -0.4672 -0.1590  0.5633
 1957TIP3    H227507   5.700   0.916   0.723 -0.4844  0.8855  0.4259
 1958TIP3   OH227508   1.224   4.538   1.911  0.5584 -0.1037 -0.3483
 1958TIP3    H127509   1.184   4.563   1.994  1.2991 -1.8449  0.5881
 1958TIP3    H227510   1.158   4.483   1.868  0.0194  1.1108 -1.1360
 1959TIP3   OH227511   1.309   2.086   2.266  0.0785 -0.5906  1.1470
 1959TIP3    H127512   1.290   2.151   2.199 -1.3324 -0.7748  1.3280
 1959TIP3    H227513   1.403   2.072   2.260  0.0592 -0.2308 -0.4326
 1960TIP3   OH227514   5.911   3.731   2.543 -0.0185 -0.0691 -0.5481
 1960TIP3    H127515   5.931   3.639   2.559 -0.2855 -0.4621 -2.2315
 1960TIP3    H227516   5.885   3.734   2.451 -1.5175  1.4430 -0.1305
 1961TIP3   OH227517   3.585   5.024   2.362  0.2914 -0.2446  0.5672
 1961TIP3    H127518   3.499   4.987   2.378 -0.8512  2.4698  1.2048
 1961TIP3    H227519   3.602   5.079   2.438  1.5018  1.1456 -0.6450
 1962TIP3   OH227520   4.815   5.186   1.352 -0.4334  0.3314  0.4804
 1962TIP3    H127521   4.747   5.254   1.348  1.0547  1.8510 -0.7951
 1962TIP3    H227522   4.868   5.210   1.427  0.1156  0.6176  0.0067
 1963TIP3   OH227523   2.989   0.488   1.579  0.1896  0.0963  0.3107
 1963TIP3    H127524   3.041   0.469   1.657  0.0973  3.1410  1.2600
 1963TIP3    H227525   3.044   0.548   1.528 -1.2003  1.0568 -0.1035
 1964TIP3   OH227526   3.755   2.368   1.719  0.5514 -0.1229  0.0415
 1964TIP3    H127527   3.677   2.387   1.667  0.5294 -0.4299 -0.0404
 1964TIP3    H227528   3.786   2.454   1.748 -1.9410 -0.1105  3.2351
 1965TIP3   OH227529   5.034   4.936   2.741 -0.4635 -0.2780 -0.0670
 1965TIP3    H127530   4.998   5.012   2.696 -0.4752 -0.9409 -1.2166
 1965TIP3    H227531   5.084   4.889   2.674  1.2105 -0.2477  1.0992
 1966TIP3   OH227532   3.715   2.221   7.864 -0.2825 -0.3780 -0.2979
 1966TIP3    H127533   3.790   2.221   7.923  0.4934 -1.2277 -1.2559
 1966TIP3    H227534   3.677   2.133   7.874 -0.5793 -0.2773 -0.5320
 1967TIP3   OH227535   5.068   5.869   2.751  0.3736 -0.0300  0.0025
 1967TIP3    H127536   5.001   5.932   2.728  1.0322  0.1443 -1.6320
 1967TIP3    H227537   5.046   5.840   2.839 -2.0617 -0.2690 -0.6148
 1968TIP3   OH227538   3.678   3.204   3.685 -0.1535  0.3970 -0.3292
 1968TIP3    H127539   3.637   3.215   3.771  0.0924  0.9297 -0.2751
 1968TIP3    H227540   3.637   3.126   3.649  2.2829 -2.0443  1.7581
 1969TIP3   OH227541   0.193   2.897   1.205  0.0339 -0.5235 -0.0329
 1969TIP3    H127542   0.286   2.917   1.206 -0.2874  1.1299  1.0169
 1969TIP3    H227543   0.150   2.983   1.206 -1.5146 -1.2367 -0.9997
 1970TIP3   OH227544   3.320   4.079   0.120 -0.6651 -0.5376  0.3043
 1970TIP3    H127545   3.296   4.131   0.043  0.3204 -1.5717 -0.7670
 1970TIP3    H227546   3.339   3.992   0.084 -0.3976 -1.1070  1.7622
 1971TIP3   OH227547   0.654   4.132   8.148 -1.2297  0.2303  0.0605
 1971TIP3    H127548   0.614   4.057   8.104 -0.5269  0.7793 -1.6197
 1971TIP3    H227549   0.745   4.133   8.116 -0.5012  0.3705  1.9654
 1972TIP3   OH227550   1.621   3.253   0.932  0.6811  0.1987 -0.1257
 1972TIP3    H127551   1.637   3.165   0.898  2.5487  0.4893 -0.1388
 1972TIP3    H227552   1.598   3.305   0.854 -3.0688 -0.7156  0.1857
 1973TIP3   OH227553   2.048   2.437   3.147  0.4298 -0.5602  0.1601
 1973TIP3    H127554   1.989   2.413   3.218 -0.5215 -0.0314 -0.4281
 1973TIP3    H227555   2.130   2.390   3.166 -0.5537 -2.2564  0.3542
 1974TIP3   OH227556   5.018   1.644   2.012 -0.2022 -0.5979  0.0671
 1974TIP3    H127557   4.947   1.671   2.070 -0.3111  0.1042 -0.3779
 1974TIP3    H227558   5.025   1.715   1.948  2.6746  0.7302  1.6375
 1975TIP3   OH227559   4.036   3.502   1.899  0.6790  0.1560  0.0166
 1975TIP3    H127560   3.962   3.521   1.956 -0.1521 -1.9254 -0.2902
 1975TIP3    H227561   4.030   3.567   1.829 -1.2206 -0.3032 -0.3060
 1976TIP3   OH227562   0.616   3.883   1.129 -1.0451  0.2206  0.1642
 1976TIP3    H127563   0.682   3.913   1.067 -0.4148  0.2617  0.8360
 1976TIP3    H227564   0.559   3.959   1.142 -1.3156  0.1359 -0.5377
 1977TIP3   OH227565   5.048   1.796   0.214 -0.3099 -0.6430 -0.4468
 1977TIP3    H127566   5.005   1.714   0.239 -0.2105 -0.6018 -0.1429
 1977TIP3    H227567   5.063   1.787   0.120  1.3556 -1.7524 -0.1173
 1978TIP3   OH227568   2.424   0.920   8.570  0.1812 -0.3055  0.2718
 1978TIP3    H127569   2.464   0.993   8.523 -0.6515  1.4134  2.0622
 1978TIP3    H227570   2.498   0.868   8.600  0.9435  0.9748  0.7066
 1979TIP3   OH227571   3.077   6.806   2.936 -0.5016 -0.0295  0.2129
 1979TIP3    H127572   3.060   6.791   2.843 -0.0285  0.3548  0.0609
 1979TIP3    H227573   3.051   6.896   2.951  0.6081  0.3129  0.1592
 1980TIP3   OH227574   1.964   3.089   3.694 -0.0482 -0.3043  0.5981
 1980TIP3    H127575   1.908   3.018   3.727  0.2690  0.0375  1.9404
 1980TIP3    H227576   2.031   3.045   3.643 -0.2460 -0.9195  0.8551
 1981TIP3   OH227577   0.331   1.576   1.815 -0.2030  0.1604 -0.8480
 1981TIP3    H127578   0.242   1.608   1.829  0.3410  1.2190  0.3816
 1981TIP3    H227579   0.364   1.559   1.903  1.4646  1.6553 -1.1337
 1982TIP3   OH227580   2.636   2.239   3.295  0.4683  0.1202  0.3839
 1982TIP3    H127581   2.643   2.151   3.257 -1.4150 -0.0476  0.3503
 1982TIP3    H227582   2.578   2.227   3.370 -1.6453  1.7029 -0.9101
 1983TIP3   OH227583   4.124   3.482   7.770  0.9646  0.4057  0.4363
 1983TIP3    H127584   4.112   3.527   7.687 -0.3347  0.4239  0.6165
 1983TIP3    H227585   4.078   3.537   7.834  0.4284 -0.5169  0.8642
 1984TIP3   OH227586   1.144   1.788   1.700 -0.3707 -0.8541 -0.4020
 1984TIP3    H127587   1.099   1.851   1.757  0.8244  0.8615 -1.2398
 1984TIP3    H227588   1.078   1.723   1.678 -1.8342  0.4242  0.0674
 1985TIP3   OH227589   3.666   3.681   0.983  0.1100  0.1098  0.0952
 1985TIP3    H127590   3.641   3.659   0.893  1.3192  0.1660 -0.2700
 1985TIP3    H227591   3.711   3.764   0.977  1.4347 -0.5443  0.5438
 1986TIP3   OH227592   2.120   5.722   3.399 -0.1550  0.1937  0.3055
 1986TIP3    H127593   2.115   5.788   3.469  1.6332  1.6170 -0.8221
 1986TIP3    H227594   2.127   5.774   3.318  0.3501 -1.3900 -0.7070
 1987TIP3   OH227595   0.363   2.763   2.784 -0.0350  0.4444  0.2759
 1987TIP3    H127596   0.448   2.770   2.740  0.1549  1.2022  0.7423
 1987TIP3    H227597   0.301   2.802   2.722  0.1290  0.8911  0.3881
 1988TIP3   OH227598   5.722   2.702   1.992 -0.2775  0.3830  0.3965
 1988TIP3    H127599   5.744   2.645   2.065 -1.5482 -0.6159  0.0417
 1988TIP3    H227600   5.627   2.707   1.993 -0.3359  0.1663 -1.3140
 1989TIP3   OH227601   3.557   3.946   0.629 -0.1454 -0.0099  0.5243
 1989TIP3    H127602   3.591   4.029   0.663 -0.7297 -0.2812  1.8583
 1989TIP3    H227603   3.462   3.953   0.641 -0.4128 -0.0524 -1.3115
 1990TIP3   OH227604   5.044   0.426   2.760 -0.5245 -0.3170  0.1133
 1990TIP3    H127605   4.953   0.455   2.753  0.3297  2.8894  0.7006
 1990TIP3    H227606   5.039   0.333   2.783 -3.5844 -0.9495 -2.5229
 1991TIP3   OH227607   0.227   4.013   8.060 -0.0186  0.7428  0.2333
 1991TIP3    H127608   0.194   4.085   8.114 -1.1786  0.7724 -0.4910
 1991TIP3    H227609   0.191   4.029   7.973  1.9266  0.7756 -0.6250
 1992TIP3   OH227610   1.976   3.136   2.866 -0.6937 -0.0721  0.9708
 1992TIP3    H127611   1.950   3.061   2.812  1.4132  0.8108 -1.4497
 1992TIP3    H227612   1.975   3.211   2.807 -1.9332  1.7681  3.1242
 1993TIP3   OH227613   6.005   2.544   2.327  0.9915  0.1648  0.2602
 1993TIP3    H127614   5.974   2.486   2.397 -0.2241  2.5854  1.8864
 1993TIP3    H227615   6.031   2.624   2.372  0.9471  1.5429 -2.0114
 1994TIP3   OH227616   4.289   5.708   0.562 -0.5068  0.1056  0.0970
 1994TIP3    H127617   4.211   5.763   0.560  0.0912  1.0670  1.3604
 1994TIP3    H227618   4.359   5.768   0.589  0.2790 -1.1335  0.9161
 1995TIP3   OH227619   3.825   3.015   3.244 -0.0518 -0.5860 -0.2094
 1995TIP3    H127620   3.840   2.948   3.178 -0.4204  0.2534 -1.1675
 1995TIP3    H227621   3.730   3.030   3.241 -0.0320 -0.3510  0.3217
 1996TIP3   OH227622   1.037   5.046   2.310  0.3359 -0.4651 -0.2183
 1996TIP3    H127623   1.103   5.115   2.309 -0.9859  1.0329 -4.0104
 1996TIP3    H227624   0.954   5.094   2.321 -0.4186 -1.8490  0.3402
 1997TIP3   OH227625   0.052   1.791   3.737 -0.0519  0.1063  0.2635
 1997TIP3    H127626  -0.037   1.769   3.763 -1.2434  1.4048 -2.3718
 1997TIP3    H227627   0.094   1.706   3.723 -1.5669 -0.5572 -0.5132
 1998TIP3   OH227628   6.462   1.096   2.743  0.4664 -0.1007  0.6202
 1998TIP3    H127629   6.478   1.189   2.730 -0.1452  0.1332  1.4649
 1998TIP3    H227630   6.549   1.059   2.760  0.8678  0.0960 -0.8733
 1999TIP3   OH227631   0.303   6.372   3.263 -0.1160 -0.2951  0.2724
 1999TIP3    H127632   0.372   6.308   3.245  0.0985  0.4504 -1.8582
 1999TIP3    H227633   0.221   6.324   3.250  0.0183 -0.6508  0.7293
 2000TIP3   OH227634   2.337   5.741   2.393  0.0306  0.0823  0.1041
 2000TIP3    H127635   2.400   5.813   2.384  0.5161 -0.1383  1.5259
 2000TIP3    H227636   2.391   5.663   2.406 -0.4762  0.0852  2.7750
 2001TIP3   OH227637   6.064   6.486   0.453 -0.1115  0.0600  0.4220
 2001TIP3    H127638   6.084   6.392   0.451  1.2674  0.3449 -0.6347
 2001TIP3    H227639   6.108   6.521   0.376  0.4412  1.7919  1.4767
 2002TIP3   OH227640   2.129   1.344   2.088 -0.1859 -0.2546  0.3444
 2002TIP3    H127641   2.139   1.354   1.993 -3.0819 -2.6708 -0.3735
 2002TIP3    H227642   2.150   1.431   2.123  2.5016  0.3335 -2.2665
 2003TIP3   OH227643   2.532   6.745   3.712 -0.0362  0.4162 -0.1460
 2003TIP3    H127644   2.600   6.811   3.701 -0.0325  0.5762  0.7455
 2003TIP3    H227645   2.509   6.718   3.623  0.7708  0.7896 -0.4696
 2004TIP3   OH227646   5.286   6.436   8.621  0.4623 -0.1959  0.6714
 2004TIP3    H127647   5.217   6.481   8.573  0.3705 -1.0435 -0.0111
 2004TIP3    H227648   5.292   6.350   8.580 -1.4206 -2.0121  3.7667
 2005TIP3   OH227649   5.177   6.576   2.685  0.2802  0.2845  0.3225
 2005TIP3    H127650   5.084   6.557   2.670  0.6116 -0.2311 -1.2369
 2005TIP3    H227651   5.197   6.533   2.768 -0.2050 -2.0455 -0.6898
 2006TIP3   OH227652   0.417   0.436   1.095  0.3332  0.0660  0.0596
 2006TIP3    H127653   0.322   0.429   1.085 -0.0236  2.2156  1.3270
 2006TIP3    H227654   0.452   0.406   1.011 -1.5058  0.2852 -0.8448
 2007TIP3   OH227655   4.915   4.052   0.532  0.0790  0.1262  0.2581
 2007TIP3    H127656   4.906   4.025   0.624 -0.5448 -0.4315  0.0369
 2007TIP3    H227657   4.905   4.147   0.535 -1.5406 -0.0146  0.5978
 2008TIP3   OH227658   0.739   5.288   7.717  0.4920  0.4211 -0.1822
 2008TIP3    H127659   0.692   5.269   7.636 -0.7960 -0.8486  0.8131
 2008TIP3    H227660   0.703   5.372   7.746  0.1157  0.3112 -0.3298
 2009TIP3   OH227661   3.411   2.577   3.487  0.8196 -0.0600  0.8599
 2009TIP3    H127662   3.326   2.534   3.493  0.5933  0.1585 -0.4208
 2009TIP3    H227663   3.411   2.639   3.560 -0.2179  0.0857  0.7569
 2010TIP3   OH227664   0.825   5.387   1.194 -0.0045  0.2807 -0.4916
 2010TIP3    H127665   0.810   5.375   1.288  0.3765 -1.9929 -0.6549
 2010TIP3    H227666   0.920   5.381   1.184  0.3187  3.8407 -0.7077
 2011TIP3   OH227667   2.235   6.498   0.729 -0.1961  0.2358  0.0796
 2011TIP3    H127668   2.178   6.495   0.653 -0.9522 -2.5498  0.6233
 2011TIP3    H227669   2.324   6.507   0.693 -0.5778 -0.5846 -1.1269
 2012TIP3   OH227670   0.431   4.252   8.224 -0.0806 -0.5290  0.0235
 2012TIP3    H127671   0.390   4.297   8.150 -0.2090 -0.6545  0.0181
 2012TIP3    H227672   0.501   4.200   8.185  0.4329  0.1045  0.0917
 2013TIP3   OH227673   1.564   0.485   1.006 -0.2345  0.3573 -0.3447
 2013TIP3    H127674   1.605   0.569   0.987 -0.3004  0.1225 -1.6430
 2013TIP3    H227675   1.637   0.424   1.015 -0.1514  0.6814  1.3826
 2014TIP3   OH227676   2.185   4.106   2.175 -0.2300 -0.1508 -1.0431
 2014TIP3    H127677   2.241   4.064   2.109  0.6316 -0.1688 -0.3264
 2014TIP3    H227678   2.156   4.187   2.133  2.3087  1.0879 -0.6306
 2015TIP3   OH227679   4.520   4.268   1.622 -0.0603  0.3409  0.3700
 2015TIP3    H127680   4.544   4.202   1.686  0.9454 -0.7681 -1.0871
 2015TIP3    H227681   4.595   4.328   1.620 -0.3475  0.7126  0.6552
 2016TIP3   OH227682   2.423   4.245   3.301 -0.2994 -0.0652 -0.1792
 2016TIP3    H127683   2.473   4.278   3.375 -0.0271 -0.5830 -0.1302
 2016TIP3    H227684   2.487   4.198   3.247 -0.6724 -0.4865 -0.2609
 2017TIP3   OH227685   3.018   2.463   1.748  0.0324 -0.4603 -0.0401
 2017TIP3    H127686   3.071   2.518   1.690 -2.2455 -0.9116 -2.8216
 2017TIP3    H227687   3.033   2.374   1.716 -2.8295 -0.5327 -1.5011
 2018TIP3   OH227688   0.979   5.704   2.503 -0.1843  0.8199 -0.1598
 2018TIP3    H127689   0.895   5.684   2.544  0.5579 -1.8110  0.2475
 2018TIP3    H227690   0.968   5.679   2.411  0.9384 -2.5132  0.4771
 2019TIP3   OH227691   0.529   3.812   3.593 -0.3172  0.7387  0.0012
 2019TIP3    H127692   0.580   3.799   3.673  2.1066 -1.4057 -1.7148
 2019TIP3    H227693   0.584   3.869   3.539 -0.9393  0.4867 -0.9196
 2020TIP3   OH227694   3.691   4.828   8.452 -0.0596 -0.2120  0.4362
 2020TIP3    H127695   3.631   4.889   8.410  0.1545 -0.6966 -0.6050
 2020TIP3    H227696   3.758   4.884   8.491  0.3531  0.2226 -0.8404
 2021TIP3   OH227697   2.700   5.381   2.077 -0.2104  0.2052  0.8605
 2021TIP3    H127698   2.710   5.291   2.108  0.1211 -0.5894 -1.3575
 2021TIP3    H227699   2.657   5.373   1.991  0.0357  2.1464  0.4903
 2022TIP3   OH227700   1.498   2.385   0.531  0.0389  0.4486 -0.0057
 2022TIP3    H127701   1.477   2.373   0.624  1.6307 -0.7373  0.2463
 2022TIP3    H227702   1.418   2.358   0.485  0.7033 -3.8438  0.8762
 2023TIP3   OH227703   5.192   4.187   2.253 -0.3863  0.6047  0.0334
 2023TIP3    H127704   5.266   4.156   2.201 -0.3880 -0.7564  0.8062
 2023TIP3    H227705   5.132   4.225   2.189 -0.1523 -0.5369 -0.8998
 2024TIP3   OH227706   3.364   6.749   1.021  0.2903 -0.6939 -0.0415
 2024TIP3    H127707   3.370   6.815   1.091 -1.3028  0.9892 -1.3998
 2024TIP3    H227708   3.397   6.668   1.062  0.9977  0.5937  2.1142
 2025TIP3   OH227709   6.170   4.024   1.638 -0.8461  0.3780  0.1818
 2025TIP3    H127710   6.132   3.940   1.615  0.5853 -0.5083  0.8922
 2025TIP3    H227711   6.202   4.060   1.556  0.1882 -0.6614  0.0978
 2026TIP3   OH227712   0.640   3.906   1.821  0.3142  0.3115  0.6321
 2026TIP3    H127713   0.553   3.897   1.782  0.4929 -0.0356  0.3028
 2026TIP3    H227714   0.639   3.846   1.896 -0.6153  2.2376  2.2480
 2027TIP3   OH227715   1.722   5.346   2.587 -0.4767 -0.0258 -0.2574
 2027TIP3    H127716   1.715   5.383   2.499 -0.2436  0.2509 -0.1593
 2027TIP3    H227717   1.636   5.363   2.626 -0.8047 -0.7129 -0.6438
 2028TIP3   OH227718   3.355   5.024   2.151  0.3098  0.3621 -0.2860
 2028TIP3    H127719   3.335   5.115   2.128 -0.8376  0.2118  0.0673
 2028TIP3    H227720   3.280   4.995   2.202  1.6397 -0.0940  1.5233
 2029TIP3   OH227721   3.292   3.922   1.596 -0.1031 -0.0321 -0.0767
 2029TIP3    H127722   3.322   3.905   1.685 -0.5770 -1.3002 -0.1331
 2029TIP3    H227723   3.267   3.836   1.562 -0.8111  0.5493 -1.1106
 2030TIP3   OH227724   3.942   0.488   1.432  0.1290 -0.3460 -0.2096
 2030TIP3    H127725   3.945   0.488   1.336 -0.3399 -1.7829 -0.2459
 2030TIP3    H227726   4.024   0.529   1.458  1.7736 -2.7704 -1.2336
 2031TIP3   OH227727   1.603   6.020   7.842 -0.6053  0.1645  0.3123
 2031TIP3    H127728   1.639   5.966   7.771 -2.7874 -1.6179  0.4483
 2031TIP3    H227729   1.547   6.083   7.797 -2.4687 -1.3505  0.3792
 2032TIP3   OH227730   0.401   6.496   0.582 -0.1202 -0.1378 -0.3386
 2032TIP3    H127731   0.393   6.590   0.568 -1.9466  0.3828  3.0794
 2032TIP3    H227732   0.311   6.467   0.598  0.7546 -1.5517  2.8660
 2033TIP3   OH227733   2.433   3.474   0.640 -0.1766 -0.2627 -0.3129
 2033TIP3    H127734   2.385   3.423   0.575  0.4211 -1.3869  0.1019
 2033TIP3    H227735   2.515   3.497   0.597  0.4016 -1.3670  0.1512
 2034TIP3   OH227736   3.775   2.938   0.027  0.2506 -0.1186  0.4940
 2034TIP3    H127737   3.811   2.949   0.115  0.8041 -1.0298  0.3811
 2034TIP3    H227738   3.759   3.028  -0.003  2.4556  0.3325  0.5314
 2035TIP3   OH227739   2.408   6.213   8.767 -0.8822  0.1783  0.1238
 2035TIP3    H127740   2.401   6.197   8.673 -1.7838 -1.4345  0.4265
 2035TIP3    H227741   2.317   6.213   8.798 -0.5561 -0.0855  1.1055
 2036TIP3   OH227742   2.203   4.163   0.829 -0.2054 -0.0769  0.0647
 2036TIP3    H127743   2.178   4.243   0.782 -2.0939 -0.5537  0.1928
 2036TIP3    H227744   2.145   4.161   0.905  0.4017 -1.1593  0.5220
 2037TIP3   OH227745   5.702   3.846   1.041  0.6089  0.1748 -0.0670
 2037TIP3    H127746   5.630   3.885   0.991  0.6053  0.9354  0.5179
 2037TIP3    H227747   5.761   3.811   0.974 -1.1250 -2.0363 -0.5444
 2038TIP3   OH227748   2.063   0.640   1.002  0.7928 -0.2310  0.0265
 2038TIP3    H127749   2.070   0.546   0.987  0.7587  0.0580 -2.0611
 2038TIP3    H227750   2.122   0.657   1.076  1.2963 -1.7796  0.0176
 2039TIP3   OH227751   1.392   0.246   1.162  0.4519  0.3662 -0.1968
 2039TIP3    H127752   1.405   0.153   1.179 -0.8405  0.0579 -0.7417
 2039TIP3    H227753   1.461   0.270   1.102  0.8177 -0.2336 -0.0221
 2040TIP3   OH227754   3.247   0.253   2.635 -0.2674  0.1444  0.0457
 2040TIP3    H127755   3.167   0.281   2.590 -0.1268  0.9689  0.3025
 2040TIP3    H227756   3.302   0.218   2.565  0.5843  2.8408 -0.7372
 2041TIP3   OH227757   0.846   1.374   3.257  0.0579  0.5652 -0.4862
 2041TIP3    H127758   0.902   1.451   3.243 -0.5545  1.4663  1.5986
 2041TIP3    H227759   0.899   1.317   3.313  0.3892 -0.4420 -1.7826
 2042TIP3   OH227760   1.244   0.020   0.817 -0.1514 -0.7415  0.1987
 2042TIP3    H127761   1.276   0.042   0.730 -0.4435 -0.8231  0.0684
 2042TIP3    H227762   1.185  -0.054   0.803 -1.8631  0.5502  0.1781
 2043TIP3   OH227763   5.819   4.601   8.321  0.1671  0.6360 -0.4348
 2043TIP3    H127764   5.847   4.623   8.232 -0.4880  0.3417 -0.7269
 2043TIP3    H227765   5.871   4.524   8.345  0.8591  1.1457 -0.2787
 2044TIP3   OH227766   0.872   3.335   2.728  0.1041  0.4634 -0.5969
 2044TIP3    H127767   0.857   3.251   2.684 -0.2794 -0.2494  0.8360
 2044TIP3    H227768   0.785   3.363   2.758  0.7250 -1.6356  4.0949
 2045TIP3   OH227769   1.149   0.713   8.631 -0.0532 -0.5356 -0.7118
 2045TIP3    H127770   1.177   0.772   8.561 -1.3773  1.0951  0.0739
 2045TIP3    H227771   1.173   0.626   8.599  1.8268  0.3694 -1.9789
 2046TIP3   OH227772   6.756   1.962   7.932 -0.5213  0.5030  0.2080
 2046TIP3    H127773   6.810   1.959   7.853 -0.4966 -0.9816  0.2644
 2046TIP3    H227774   6.667   1.971   7.900 -0.5539 -0.5342 -0.0256
 2047TIP3   OH227775   3.383   3.112   3.459  0.3404  0.4027  0.9669
 2047TIP3    H127776   3.298   3.094   3.499  0.8845  0.0679  2.0016
 2047TIP3    H227777   3.447   3.076   3.521  1.2567  1.0451  0.4175
 2048TIP3   OH227778   6.035   6.524   2.690 -0.2730 -0.0768 -0.1358
 2048TIP3    H127779   6.048   6.454   2.754 -2.0181 -0.8122 -0.5280
 2048TIP3    H227780   5.992   6.594   2.739  1.1491  0.6274  0.1706
 2049TIP3   OH227781   4.556   3.105   3.805 -0.0786  0.1335  0.1789
 2049TIP3    H127782   4.556   3.132   3.897  0.6653  0.1776  0.1697
 2049TIP3    H227783   4.466   3.121   3.775 -0.3226  0.1313  0.8910
 2050TIP3   OH227784   6.036   3.622   7.762  0.8964  0.0440 -0.3341
 2050TIP3    H127785   5.952   3.667   7.772  1.0893  0.1871  0.7124
 2050TIP3    H227786   6.066   3.649   7.675  0.0888  0.3733 -0.5269
 2051TIP3   OH227787   5.932   0.406   0.903  0.6614  0.3835 -0.1127
 2051TIP3    H127788   5.863   0.415   0.837  0.7538 -0.3869 -0.3244
 2051TIP3    H227789   6.000   0.467   0.875  0.5412  0.3315 -0.5280
 2052TIP3   OH227790   5.971   6.850   1.614  0.2029 -0.1226 -0.0271
 2052TIP3    H127791   6.054   6.897   1.623  0.3871 -0.4363 -0.0652
 2052TIP3    H227792   5.934   6.884   1.532  0.8681 -0.8454 -0.6507
 2053TIP3   OH227793   4.423   6.176   1.187 -0.3421 -0.0672 -0.0992
 2053TIP3    H127794   4.348   6.137   1.231 -1.6984 -0.8483 -2.8564
 2053TIP3    H227795   4.499   6.131   1.224 -1.6431 -3.3199 -1.0146
 2054TIP3   OH227796   3.041   6.828   1.416 -0.1730  0.1907  0.1725
 2054TIP3    H127797   3.072   6.914   1.445  0.2920  0.3743 -0.8197
 2054TIP3    H227798   3.063   6.769   1.488  0.6529  0.6871  0.3423
 2055TIP3   OH227799   5.197   4.501   0.264  0.3020  0.5149 -0.1277
 2055TIP3    H127800   5.191   4.595   0.250 -0.0320  0.5303  0.1124
 2055TIP3    H227801   5.170   4.488   0.354  0.2672  0.1788 -0.1843
 2056TIP3   OH227802   3.469   4.028   0.334 -0.2551 -0.0664  0.1956
 2056TIP3    H127803   3.410   4.062   0.268 -1.1052  1.0160  1.4529
 2056TIP3    H227804   3.465   4.092   0.405  0.9987 -0.9276  1.0993
 2057TIP3   OH227805   0.927   2.089   0.437  0.0054 -0.2530 -0.4439
 2057TIP3    H127806   0.923   2.184   0.443  0.5976 -0.0521 -2.6693
 2057TIP3    H227807   0.903   2.069   0.347  0.9534 -2.1501 -0.3161
 2058TIP3   OH227808   4.352   5.615   0.301  0.0246  0.0796 -0.3779
 2058TIP3    H127809   4.373   5.521   0.294  2.6152  0.3896  1.6404
 2058TIP3    H227810   4.337   5.629   0.394 -0.5805  1.6676 -0.6894
 2059TIP3   OH227811   2.730   6.474   1.099  0.0574  0.4436  0.4381
 2059TIP3    H127812   2.664   6.520   1.150  0.1478 -0.7694  1.7045
 2059TIP3    H227813   2.811   6.483   1.149  0.5577  0.7278 -0.3906
 2060TIP3   OH227814   6.343   0.365   1.449 -0.2392 -0.0511  0.2088
 2060TIP3    H127815   6.297   0.442   1.416  2.1843  1.3882 -0.0030
 2060TIP3    H227816   6.428   0.367   1.406  0.3053 -2.2551  1.0393
 2061TIP3   OH227817   4.014   0.157   0.578  0.0418 -0.2200  0.2149
 2061TIP3    H127818   4.060   0.176   0.496  1.3104 -0.3144  0.8730
 2061TIP3    H227819   3.923   0.181   0.561  0.3238 -0.0464 -1.1486
 2062TIP3   OH227820   3.142   6.405   3.681 -0.3654 -0.5465 -0.2459
 2062TIP3    H127821   3.090   6.381   3.604  0.7509  0.2883 -1.2997
 2062TIP3    H227822   3.090   6.471   3.726 -1.1266 -1.1951 -0.1476
 2063TIP3   OH227823   5.530   3.868   0.805  0.0442 -0.0190  0.0284
 2063TIP3    H127824   5.455   3.921   0.779  0.2523  0.3862  0.2426
 2063TIP3    H227825   5.514   3.783   0.764  0.5813  0.7028 -1.7906
 2064TIP3   OH227826   0.927   3.265   0.801  0.5685  1.0098  0.4267
 2064TIP3    H127827   1.014   3.226   0.791  0.1358  0.2858 -0.7095
 2064TIP3    H227828   0.944   3.355   0.828  1.6696  0.9029  0.1282
 2065TIP3   OH227829   4.590   3.096   4.078  0.5772  0.3572 -0.2297
 2065TIP3    H127830   4.538   3.099   4.159 -0.7021  0.0118 -1.0100
 2065TIP3    H227831   4.628   3.008   4.078  0.7849  0.4428  0.1083
 2066TIP3   OH227832   0.224   2.591   8.303  0.2459 -0.1149  0.5113
 2066TIP3    H127833   0.288   2.657   8.326  1.6072 -0.8409 -0.9635
 2066TIP3    H227834   0.158   2.638   8.252 -0.2289  0.5724  1.7399
 2067TIP3   OH227835   6.706   0.977   2.865 -0.5798  0.5611  0.1359
 2067TIP3    H127836   6.737   0.896   2.825  0.5212  0.4557  1.1873
 2067TIP3    H227837   6.674   0.951   2.951  0.3676  1.3388  0.7303
 2068TIP3   OH227838   4.164   3.039   1.093  0.1037  0.1951  0.2239
 2068TIP3    H127839   4.197   3.114   1.043  1.8538 -0.6864 -0.0403
 2068TIP3    H227840   4.138   3.076   1.178 -0.2339  1.2744 -0.3383
 2069TIP3   OH227841   6.248   2.542   7.400 -0.3975  0.0513  0.0006
 2069TIP3    H127842   6.301   2.551   7.321 -0.3817  0.0766  0.0145
 2069TIP3    H227843   6.291   2.472   7.450 -1.1759 -0.9168 -0.6435
 2070TIP3   OH227844   0.479   5.514   0.424 -0.0461 -0.3862 -0.0769
 2070TIP3    H127845   0.552   5.539   0.481 -1.3177 -0.5320  1.6927
 2070TIP3    H227846   0.471   5.419   0.435  1.8526 -1.0776 -3.2455
 2071TIP3   OH227847   2.853   4.769   1.860 -0.2534 -0.0651 -0.3145
 2071TIP3    H127848   2.916   4.831   1.896 -0.6200  0.7252 -0.9881
 2071TIP3    H227849   2.898   4.685   1.861  0.0856  0.1058  1.0679
 2072TIP3   OH227850   5.490   0.440   2.236  0.3624  0.0996  0.6303
 2072TIP3    H127851   5.421   0.484   2.186  0.2431  0.2210  0.8989
 2072TIP3    H227852   5.558   0.506   2.247  0.5638 -0.0466  0.2901
 2073TIP3   OH227853   4.358   6.262   0.540 -0.7531 -0.5792 -0.0575
 2073TIP3    H127854   4.301   6.308   0.479  0.8454  0.9355 -0.4492
 2073TIP3    H227855   4.417   6.328   0.574  0.2539 -1.9443  0.9844
 2074TIP3   OH227856   3.987   2.568   2.839 -0.1935 -0.0050 -0.2333
 2074TIP3    H127857   4.059   2.620   2.877 -2.1326  1.3648  1.8614
 2074TIP3    H227858   3.937   2.631   2.788 -2.1536  0.1116  1.7045
 2075TIP3   OH227859   5.216   2.792   0.451 -0.5695  0.1391  0.4512
 2075TIP3    H127860   5.170   2.786   0.535 -0.9174 -2.7974  0.1600
 2075TIP3    H227861   5.245   2.883   0.446 -3.7261  1.4104  2.0494
 2076TIP3   OH227862   4.355   4.123   8.574 -0.2369 -0.1509  0.3257
 2076TIP3    H127863   4.391   4.188   8.634  0.6777 -0.5285  0.2078
 2076TIP3    H227864   4.265   4.111   8.602 -0.8535  2.1302 -0.4547
 2077TIP3   OH227865   1.879   6.682   2.765  0.7252  0.7249  0.3499
 2077TIP3    H127866   1.862   6.678   2.859 -0.5948 -0.4808  0.0878
 2077TIP3    H227867   1.875   6.591   2.735 -0.5644  1.2183 -1.1363
 2078TIP3   OH227868   3.993   4.414   0.726  0.1541  0.5164  0.3111
 2078TIP3    H127869   4.045   4.359   0.667 -0.8900 -2.0256  1.5972
 2078TIP3    H227870   3.924   4.450   0.671  0.9306  0.6784 -0.5902
 2079TIP3   OH227871   0.984   4.741   8.537  0.2801 -0.0358 -0.4848
 2079TIP3    H127872   1.036   4.689   8.476 -0.1093  0.7990 -1.5677
 2079TIP3    H227873   0.911   4.773   8.484 -0.5943 -0.0633  0.6681
 2080TIP3   OH227874   3.331   4.266   1.436  0.0514  0.0698  0.0633
 2080TIP3    H127875   3.416   4.241   1.400 -0.1801 -0.0583 -0.3958
 2080TIP3    H227876   3.269   4.255   1.364 -0.3427  0.2563  0.3647
 2081TIP3   OH227877   1.750   5.774   2.372  0.3716  0.1933 -0.4127
 2081TIP3    H127878   1.783   5.736   2.454  0.2818  0.1382 -0.4019
 2081TIP3    H227879   1.745   5.699   2.313  1.6277  0.4274 -0.8569
 2082TIP3   OH227880   5.917   4.060   1.076  0.0514  0.0502  0.3830
 2082TIP3    H127881   5.924   4.089   1.167 -1.5040  0.4646  0.3933
 2082TIP3    H227882   5.861   3.982   1.080  1.6595 -1.1861 -0.0091
 2083TIP3   OH227883   0.568   4.637   1.011 -0.2415 -0.4764 -0.2088
 2083TIP3    H127884   0.568   4.542   1.009  0.3574 -0.4900  0.1359
 2083TIP3    H227885   0.658   4.661   1.034  0.1102  0.2142 -2.1358
 2084TIP3   OH227886   4.777   5.052   8.253  0.1208 -0.2834  0.3265
 2084TIP3    H127887   4.768   5.147   8.262 -0.4783 -0.2641 -0.3257
 2084TIP3    H227888   4.870   5.038   8.236  0.3434  0.1135  1.2031
 2085TIP3   OH227889   3.285   3.285   3.731 -0.0415 -0.2292  0.4374
 2085TIP3    H127890   3.252   3.206   3.690  1.3925 -0.1457 -0.9780
 2085TIP3    H227891   3.207   3.333   3.758 -1.0241 -0.8031 -1.2467
 2086TIP3   OH227892   5.938   5.715   2.338 -0.6647  0.1464  0.1379
 2086TIP3    H127893   5.936   5.627   2.303  0.5546  0.7484 -1.5567
 2086TIP3    H227894   5.848   5.746   2.332 -0.9025 -0.6159 -0.2167
 2087TIP3   OH227895   2.545   5.600   3.958  0.3580 -0.7335  0.6513
 2087TIP3    H127896   2.533   5.623   3.866  1.1278 -0.8041  0.5290
 2087TIP3    H227897   2.525   5.507   3.963 -0.2904 -0.5995  0.6773
 2088TIP3   OH227898   1.253   1.755   8.699  0.6202 -0.1665 -0.1387
 2088TIP3    H127899   1.344   1.733   8.678  0.7247  0.7722 -0.7328
 2088TIP3    H227900   1.226   1.813   8.627  0.1298  0.9848  0.9492
 2089TIP3   OH227901   2.982   3.797   0.965 -0.0862 -0.0498  0.0000
 2089TIP3    H127902   2.923   3.738   0.917 -1.0001  0.3774  0.5738
 2089TIP3    H227903   3.064   3.749   0.972 -0.6871 -1.0845  0.0897
 2090TIP3   OH227904   4.768   3.452   2.686 -0.7389  0.4137  0.6226
 2090TIP3    H127905   4.762   3.418   2.775 -0.2072  0.5139  0.7003
 2090TIP3    H227906   4.736   3.542   2.692 -0.7642  0.3998  0.6964
 2091TIP3   OH227907   6.011   1.147   8.540 -0.0247  0.2542  0.0239
 2091TIP3    H127908   5.922   1.178   8.527 -1.4324 -2.9292  0.8839
 2091TIP3    H227909   6.033   1.102   8.458 -0.1081 -0.7526  0.5259
 2092TIP3   OH227910   4.924   2.579   0.107 -0.6846  0.4175 -0.2511
 2092TIP3    H127911   4.902   2.493   0.143 -1.2762 -0.3679 -2.3296
 2092TIP3    H227912   4.971   2.560   0.025  0.7378  2.0952  0.1179
 2093TIP3   OH227913   4.713   3.347   2.936  0.0282 -0.6121  0.5997
 2093TIP3    H127914   4.685   3.255   2.932 -0.8860 -0.3026 -2.5862
 2093TIP3    H227915   4.762   3.353   3.018 -1.3444 -3.4930  1.7923
 2094TIP3   OH227916   6.795   0.727   1.345 -0.6346 -0.4150 -0.3562
 2094TIP3    H127917   6.729   0.732   1.414 -0.2325  0.4046 -0.0159
 2094TIP3    H227918   6.878   0.739   1.390 -0.1299 -2.4833 -0.6420
 2095TIP3   OH227919   6.597   6.645   2.918 -0.0947 -0.7932 -0.6166
 2095TIP3    H127920   6.602   6.705   2.993 -0.1997  0.2061 -1.3736
 2095TIP3    H227921   6.519   6.592   2.935  0.1817 -0.9456  0.2276
 2096TIP3   OH227922   2.657   2.873   3.353 -0.3200 -0.4068 -0.3197
 2096TIP3    H127923   2.590   2.836   3.297 -2.7724  1.3936  1.2154
 2096TIP3    H227924   2.677   2.958   3.314 -0.2931 -0.1522  0.2424
 2097TIP3   OH227925   4.483   0.014   1.368  0.4041  0.2005 -0.5693
 2097TIP3    H127926   4.508   0.092   1.319 -2.7447  1.8771  0.2132
 2097TIP3    H227927   4.514   0.031   1.457  0.4329  0.1997 -0.5793
 2098TIP3   OH227928   3.255   2.141   8.446 -0.0757  0.7414 -0.9604
 2098TIP3    H127929   3.294   2.115   8.363 -2.5152 -1.2007 -1.5992
 2098TIP3    H227930   3.191   2.209   8.423 -0.1345  0.8359 -0.5320
 2099TIP3   OH227931   2.235   5.979   8.289  0.4526 -0.0869  0.0992
 2099TIP3    H127932   2.202   5.898   8.249 -1.5341  0.9334 -0.5128
 2099TIP3    H227933   2.318   5.995   8.244  0.0684 -0.9251 -0.9867
 2100TIP3   OH227934   3.282   1.324   0.668  0.3700 -0.0436  0.1520
 2100TIP3    H127935   3.377   1.326   0.653  0.1295  2.4066 -1.6122
 2100TIP3    H227936   3.260   1.231   0.670  3.0323 -0.7381  2.5617
 2101TIP3   OH227937   4.486   0.946   2.990 -0.2118  0.1364 -0.2880
 2101TIP3    H127938   4.496   0.894   2.910 -1.8722  0.4798 -0.7554
 2101TIP3    H227939   4.448   0.885   3.053  0.6029  0.0095  0.0920
 2102TIP3   OH227940   1.685   3.983   1.749  0.9783 -0.5251  0.8401
 2102TIP3    H127941   1.744   3.921   1.792  0.1649 -1.5906  0.4827
 2102TIP3    H227942   1.639   3.930   1.683  2.7968  1.2071 -1.9956
 2103TIP3   OH227943   2.012   3.631   0.756  0.8736 -0.2474 -0.4475
 2103TIP3    H127944   1.997   3.574   0.681  1.8516  0.0235 -0.8584
 2103TIP3    H227945   2.077   3.694   0.727  1.5474 -0.3603  0.7413
 2104TIP3   OH227946   2.980   3.346   1.638  0.0341 -0.0288  0.9462
 2104TIP3    H127947   2.949   3.437   1.637 -0.0837 -0.0175  2.6861
 2104TIP3    H227948   3.075   3.353   1.646  0.1744 -0.0872 -0.3579
 2105TIP3   OH227949   4.274   2.550   8.565 -0.0498 -0.3555 -0.6328
 2105TIP3    H127950   4.345   2.600   8.606 -0.2991 -0.3040 -0.2593
 2105TIP3    H227951   4.315   2.468   8.538 -0.0406 -0.6907  0.3761
 2106TIP3   OH227952   5.114   4.769   0.417  0.2656 -0.4216 -0.1907
 2106TIP3    H127953   5.191   4.821   0.394 -0.7724  0.5465 -1.6468
 2106TIP3    H227954   5.051   4.788   0.348 -1.5790 -0.5890  1.3674
 2107TIP3   OH227955   2.570   4.804   0.288  0.0149  0.6804  0.5628
 2107TIP3    H127956   2.534   4.728   0.335  0.9388 -0.7733 -0.9965
 2107TIP3    H227957   2.608   4.768   0.208 -1.8718  3.0914 -1.6123
 2108TIP3   OH227958   1.397   2.125   2.921 -1.0002 -0.2865 -0.4442
 2108TIP3    H127959   1.336   2.162   2.985  0.4926  0.2744  0.7304
 2108TIP3    H227960   1.476   2.106   2.972  1.4396  3.0014 -2.5767
 2109TIP3   OH227961   5.944   2.912   3.627 -0.3464 -0.2053 -0.1626
 2109TIP3    H127962   6.006   2.983   3.615 -0.9736  0.0210 -2.7241
 2109TIP3    H227963   5.992   2.844   3.674  1.4758  0.4053 -1.0843
 2110TIP3   OH227964   4.787   2.548   3.126  0.0867  0.7613  0.3510
 2110TIP3    H127965   4.712   2.573   3.071  0.6131  0.9105 -0.3147
 2110TIP3    H227966   4.835   2.484   3.073 -0.7103 -0.9933  1.6257
 2111TIP3   OH227967   2.882   3.618   3.079  0.5130 -0.3756  0.2106
 2111TIP3    H127968   2.906   3.559   3.007 -0.2601 -0.4323 -0.0121
 2111TIP3    H227969   2.788   3.629   3.070  0.5309  0.2601  0.7405
 2112TIP3   OH227970   1.875   0.930   8.472  0.0240  0.0723 -0.0596
 2112TIP3    H127971   1.888   0.959   8.382  0.8696  0.3351  0.1343
 2112TIP3    H227972   1.813   0.858   8.466 -0.2920  0.3963 -0.8012
 2113TIP3   OH227973   1.243   6.386   3.743  0.3989 -0.2260 -0.4325
 2113TIP3    H127974   1.182   6.438   3.796 -0.1962 -0.3641 -0.9657
 2113TIP3    H227975   1.329   6.408   3.777  0.0093 -0.5751  0.8345
 2114TIP3   OH227976   2.346   4.531   8.671 -0.0047 -0.5019 -0.1937
 2114TIP3    H127977   2.276   4.471   8.645 -0.4060  0.1974 -0.7587
 2114TIP3    H227978   2.312   4.618   8.651  0.0193  0.0382  1.8946
 2115TIP3   OH227979   4.643   3.485   1.357  0.3518 -0.1669  0.1025
 2115TIP3    H127980   4.593   3.407   1.332  0.4476 -0.3426  0.4536
 2115TIP3    H227981   4.684   3.461   1.440  3.3105 -1.0630 -1.4879
 2116TIP3   OH227982   2.429   4.508   3.126 -0.1907 -0.7419 -0.3820
 2116TIP3    H127983   2.481   4.480   3.201  0.8386 -0.2674 -0.8962
 2116TIP3    H227984   2.478   4.583   3.090 -2.6119  1.5582  0.7341
 2117TIP3   OH227985   2.382   6.108   2.093  0.2896  0.6469  0.8952
 2117TIP3    H127986   2.322   6.154   2.034  0.2533  0.0703  0.4594
 2117TIP3    H227987   2.362   6.015   2.078 -0.0524  0.5049  2.1812
 2118TIP3   OH227988   3.080   1.911   1.022 -0.7307  0.1109 -0.2560
 2118TIP3    H127989   3.001   1.930   1.072 -0.2583 -0.8012  0.8842
 2118TIP3    H227990   3.090   1.816   1.027 -0.6081 -0.0008 -2.0297
 2119TIP3   OH227991   1.533   0.532   0.735 -0.2313  0.5158 -0.8333
 2119TIP3    H127992   1.461   0.473   0.713  0.9985 -1.1726 -0.5872
 2119TIP3    H227993   1.572   0.493   0.814  0.5472  1.7414 -0.5860
 2120TIP3   OH227994   6.153   0.198   2.180 -0.4026  0.8672  0.0073
 2120TIP3    H127995   6.098   0.247   2.119  1.9000  3.1003 -0.4546
 2120TIP3    H227996   6.115   0.214   2.266 -1.4338  0.9431 -0.4550
 2121TIP3   OH227997   4.746   5.258   2.918  0.6164 -0.0520  0.0176
 2121TIP3    H127998   4.783   5.313   2.987 -0.6148  0.9942 -0.1297
 2121TIP3    H227999   4.685   5.201   2.963  0.7326 -0.2233 -0.0422
 2122TIP3   OH228000   2.863   6.232   1.165 -0.1978  0.1214 -0.3234
 2122TIP3    H128001   2.896   6.270   1.084  1.1174  4.6721  2.0298
 2122TIP3    H228002   2.768   6.238   1.158 -0.0812  1.0035 -1.2815
 2123TIP3   OH228003   0.846   2.157   8.237 -0.5806  0.1431 -0.2175
 2123TIP3    H128004   0.792   2.125   8.164  0.4886  4.7896 -3.5039
 2123TIP3    H228005   0.934   2.124   8.219 -0.9971 -2.4344  1.7788
 2124TIP3   OH228006   0.595   0.973   2.912  0.0949  0.1318 -0.2638
 2124TIP3    H128007   0.557   0.899   2.865  0.2481 -0.6244  0.7617
 2124TIP3    H228008   0.533   1.045   2.897 -0.5336 -0.4527 -0.5397
 2125TIP3   OH228009   4.901   0.768   2.427  0.6372 -0.3172  0.4897
 2125TIP3    H128010   4.877   0.851   2.386 -0.4495 -1.7767 -2.0724
 2125TIP3    H228011   4.818   0.721   2.435  1.4821 -2.0019 -0.1699
 2126TIP3   OH228012   4.010   2.275   2.484 -0.1651 -0.3603  0.2197
 2126TIP3    H128013   4.098   2.275   2.447 -0.1511  0.4659  0.2319
 2126TIP3    H228014   3.960   2.335   2.428 -0.1543  0.8828  1.4797
 2127TIP3   OH228015   5.259   4.018   7.889  0.6313 -0.5911  0.2348
 2127TIP3    H128016   5.261   3.922   7.881  1.0742 -0.6069  0.5118
 2127TIP3    H228017   5.174   4.043   7.853  0.1653 -1.1641  0.9177
 2128TIP3   OH228018   3.055   1.228   0.482  0.1501  0.8487 -1.1740
 2128TIP3    H128019   3.090   1.199   0.398  0.8898  1.1156 -0.9678
 2128TIP3    H228020   3.114   1.299   0.509  0.6118  0.0152  0.1101
 2129TIP3   OH228021   2.553   0.413   8.703 -0.2291 -0.3591  0.1755
 2129TIP3    H128022   2.635   0.375   8.671 -0.7771 -0.9170 -0.6104
 2129TIP3    H228023   2.504   0.435   8.624 -1.2044 -0.8566  0.6253
 2130TIP3   OH228024   1.842   2.524   0.094  0.0417  0.0350 -0.5557
 2130TIP3    H128025   1.868   2.588   0.161  1.0900 -1.2684  0.3464
 2130TIP3    H228026   1.924   2.487   0.063 -0.5505 -1.1793 -0.7381
 2131TIP3   OH228027   2.988   3.664   2.054 -0.5260  0.0480  0.4308
 2131TIP3    H128028   3.019   3.754   2.043 -1.0232  0.2247  0.4452
 2131TIP3    H228029   3.019   3.619   1.976 -0.5134  0.2989  0.2893
 2132TIP3   OH228030   0.313   0.051   1.027 -0.1081  0.4388 -0.9510
 2132TIP3    H128031   0.374  -0.016   0.996 -0.1819  0.6956 -1.6775
 2132TIP3    H228032   0.315   0.044   1.122  0.7711  0.1888 -0.9818
 2133TIP3   OH228033   6.335   4.424   0.156 -0.2710  0.9353 -0.0408
 2133TIP3    H128034   6.302   4.511   0.175 -1.5856  0.1034  1.8498
 2133TIP3    H228035   6.259   4.376   0.123  0.7683  0.8306 -2.5030
 2134TIP3   OH228036   5.730   3.359   0.757 -0.3850  0.3812 -0.5355
 2134TIP3    H128037   5.715   3.321   0.844 -1.9066  0.5134 -0.7107
 2134TIP3    H228038   5.791   3.432   0.773  0.2421 -0.2951  0.2339
 2135TIP3   OH228039   5.905   1.748   1.362 -0.1598 -0.2941  0.1428
 2135TIP3    H128040   5.818   1.785   1.379 -0.0657 -0.3433  0.7653
 2135TIP3    H228041   5.895   1.655   1.383 -0.0682 -0.3845 -0.2069
 2136TIP3   OH228042   5.219   5.574   3.204 -0.0472 -0.5986  0.5204
 2136TIP3    H128043   5.271   5.625   3.266 -1.0144 -0.1312  0.9689
 2136TIP3    H228044   5.183   5.502   3.256  1.0046 -1.5610 -0.0249
 2137TIP3   OH228045   6.560   2.236   1.402  0.3728 -0.0102  0.3885
 2137TIP3    H128046   6.465   2.232   1.409  0.4307  0.0888  1.3883
 2137TIP3    H228047   6.577   2.296   1.330 -0.3207  0.9243  0.9845
 2138TIP3   OH228048   1.798   5.274   1.278  0.2348 -0.1981 -0.3883
 2138TIP3    H128049   1.773   5.271   1.185 -2.1677  1.4260  0.1174
 2138TIP3    H228050   1.737   5.336   1.317  0.4028 -1.7336  2.5506
 2139TIP3   OH228051   3.748   1.323   1.576 -0.0815  0.4466 -0.0416
 2139TIP3    H128052   3.762   1.237   1.616  2.3793  0.2467 -1.1372
 2139TIP3    H228053   3.787   1.385   1.638  0.6538  0.4650 -0.5049
 2140TIP3   OH228054   3.644   3.744   8.591  0.3955 -0.6767  0.4594
 2140TIP3    H128055   3.732   3.780   8.580 -0.1046  0.5018  0.1659
 2140TIP3    H228056   3.601   3.758   8.507  0.2847 -2.3459  0.2007
 2141TIP3   OH228057   4.894   6.783   0.676 -0.0068 -0.1445  0.0021
 2141TIP3    H128058   4.875   6.864   0.629 -0.0385 -0.6027 -0.7820
 2141TIP3    H228059   4.980   6.798   0.716 -0.5547  0.7402  0.9234
 2142TIP3   OH228060   6.170   1.825   1.715  0.2753 -0.0075  0.4081
 2142TIP3    H128061   6.254   1.843   1.673 -0.2090 -1.6754 -1.4206
 2142TIP3    H228062   6.182   1.741   1.759 -0.1434  0.2289  0.9886
 2143TIP3   OH228063   0.073   1.673   1.899 -0.5711 -0.5582 -0.7058
 2143TIP3    H128064   0.044   1.754   1.857 -1.9358 -0.2194  0.7742
 2143TIP3    H228065  -0.002   1.645   1.951 -0.0632 -2.6957 -1.0291
 2144TIP3   OH228066   2.147   6.331   0.985 -0.0556  0.4133  0.2041
 2144TIP3    H128067   2.242   6.323   0.997 -0.3473  0.6784  3.8137
 2144TIP3    H228068   2.137   6.374   0.900  3.0495  0.7742 -0.0909
 2145TIP3   OH228069   5.209   5.074   1.366  0.1047  0.0227 -1.3874
 2145TIP3    H128070   5.195   5.054   1.273 -0.9580  0.8414 -1.4163
 2145TIP3    H228071   5.190   5.167   1.374 -1.2173 -0.3255 -0.0888
 2146TIP3   OH228072   1.500   6.454   3.790 -0.1229 -0.3141  0.4888
 2146TIP3    H128073   1.549   6.528   3.825  0.3431  0.0903 -0.9734
 2146TIP3    H228074   1.562   6.408   3.733 -1.6856  0.9484 -2.4461
 2147TIP3   OH228075   2.931   6.374   4.094 -0.0164  0.3842  0.2166
 2147TIP3    H128076   2.925   6.441   4.163  1.5597  1.4386 -0.6111
 2147TIP3    H228077   2.896   6.417   4.016 -0.8005 -0.4480  0.0918
 2148TIP3   OH228078   2.751   3.982   2.361  0.2251 -0.3244  0.2095
 2148TIP3    H128079   2.685   4.052   2.367  1.1745  0.6995 -0.8307
 2148TIP3    H228080   2.821   4.020   2.308  0.7453 -2.1063 -0.4339
 2149TIP3   OH228081   0.193   4.511   1.590 -0.4438  0.0170 -0.1140
 2149TIP3    H128082   0.167   4.450   1.659  2.2314 -0.8832  0.2194
 2149TIP3    H228083   0.166   4.468   1.509  0.1762 -0.9961  0.1942
 2150TIP3   OH228084   5.136   6.139   2.811 -0.2954  0.2157  0.1886
 2150TIP3    H128085   5.070   6.161   2.745 -0.6348 -1.3757 -0.0286
 2150TIP3    H228086   5.216   6.122   2.760 -0.7430 -1.7489  0.0733
 2151TIP3   OH228087   1.526   0.492   8.379 -0.1774 -0.2878 -0.1057
 2151TIP3    H128088   1.604   0.480   8.325 -0.7691 -2.6302 -0.5474
 2151TIP3    H228089   1.486   0.405   8.383 -3.4109  1.0426 -0.8334
 2152TIP3   OH228090   6.430   1.534   2.425 -0.3399 -0.0597 -0.0583
 2152TIP3    H128091   6.438   1.528   2.330 -0.6780  0.4914 -0.1226
 2152TIP3    H228092   6.464   1.621   2.446  1.4605 -0.8449  0.5229
 2153TIP3   OH228093   2.242   2.483   8.611  0.2366  0.5271 -0.6770
 2153TIP3    H128094   2.186   2.539   8.665 -0.1137 -1.1541  0.8226
 2153TIP3    H228095   2.182   2.421   8.571  0.8322 -0.2660 -0.3700
 2154TIP3   OH228096   1.781   1.578   3.187  0.1775  0.6282 -0.0590
 2154TIP3    H128097   1.718   1.542   3.125  0.2659  0.7777 -0.2369
 2154TIP3    H228098   1.866   1.552   3.153  0.1999  0.1297  0.3703
 2155TIP3   OH228099   2.142   4.190   3.308  0.6496 -0.4026 -0.4472
 2155TIP3    H128100   2.230   4.226   3.301  0.6466 -0.4051 -0.4942
 2155TIP3    H228101   2.103   4.202   3.221 -0.3825  2.1448  0.2721
 2156TIP3   OH228102   0.692   5.022   0.320 -0.2443 -0.5951 -0.2301
 2156TIP3    H128103   0.645   4.965   0.381  0.5598 -1.2652 -0.2231
 2156TIP3    H228104   0.723   4.964   0.251  2.0514 -0.5241  0.6415
 2157TIP3   OH228105   1.196   2.978   1.776  0.3154 -0.1610  0.1256
 2157TIP3    H128106   1.155   3.026   1.848 -0.7261  2.3288 -1.9604
 2157TIP3    H228107   1.288   3.002   1.780  0.4071 -0.6141  1.0095
 2158TIP3   OH228108   3.901   0.418   2.885  0.5970  0.6873 -0.6578
 2158TIP3    H128109   3.814   0.396   2.853  0.1068  1.0026  0.4217
 2158TIP3    H228110   3.955   0.421   2.806 -0.2032 -0.2318 -1.2689
 2159TIP3   OH228111   0.038   5.464   1.036 -0.0962 -0.4217  0.6406
 2159TIP3    H128112   0.028   5.453   1.131 -2.1006 -0.4808  0.4639
 2159TIP3    H228113   0.083   5.548   1.026  0.1849 -0.4398  1.6528
 2160TIP3   OH228114   1.139   2.025   1.306  0.6852  0.0566 -0.3509
 2160TIP3    H128115   1.101   1.944   1.272 -2.2975  1.3166 -0.3084
 2160TIP3    H228116   1.158   2.006   1.398  0.6849 -0.8072 -0.5237
 2161TIP3   OH228117   5.388   1.225   2.226 -0.3631  0.3178 -0.0668
 2161TIP3    H128118   5.352   1.310   2.248 -3.0004 -0.3852 -1.2087
 2161TIP3    H228119   5.361   1.210   2.135  0.5529 -1.4628 -0.0980
 2162TIP3   OH228120   2.810   4.453   1.709 -0.2935  0.2289 -0.4309
 2162TIP3    H128121   2.853   4.373   1.678  1.1632  0.5135  0.7213
 2162TIP3    H228122   2.871   4.523   1.685 -0.9147  0.8401 -0.2280
 2163TIP3   OH228123   5.615   4.366   1.206  0.0002 -0.0295  0.3027
 2163TIP3    H128124   5.577   4.353   1.119 -0.4467  0.5979  0.3974
 2163TIP3    H228125   5.569   4.442   1.241  2.5869  1.9235 -0.2813
 2164TIP3   OH228126   5.247   5.267   2.892  0.3506  0.4072 -0.3159
 2164TIP3    H128127   5.267   5.183   2.850 -0.2369 -0.1992  0.5907
 2164TIP3    H228128   5.331   5.296   2.929  0.5857  0.2960 -0.7521
 2165TIP3   OH228129   2.739   2.139   3.937 -0.6970  0.1829  0.6001
 2165TIP3    H128130   2.697   2.187   3.866 -0.6850  0.7655  0.9806
 2165TIP3    H228131   2.829   2.171   3.937 -0.4578 -0.4645  0.3124
 2166TIP3   OH228132   3.372   4.986   0.254  0.5170  0.0300  0.8951
 2166TIP3    H128133   3.278   4.998   0.243  0.1797 -2.5285  0.4211
 2166TIP3    H228134   3.382   4.959   0.345  0.6110 -1.0095  0.5853
 2167TIP3   OH228135   0.353   2.580   2.989  0.5273  0.5721  0.5285
 2167TIP3    H128136   0.355   2.637   2.913  1.1270  0.5200  0.4978
 2167TIP3    H228137   0.418   2.511   2.969 -0.2252 -0.1541  0.5330
 2168TIP3   OH228138   6.482   0.860   0.927 -0.9053  0.1002 -0.2160
 2168TIP3    H128139   6.396   0.817   0.924  0.2014 -2.3159  0.0851
 2168TIP3    H228140   6.511   0.862   0.836 -0.1053 -1.8108 -0.0604
 2169TIP3   OH228141   2.530   6.536   1.277  0.7400 -0.2602  0.0598
 2169TIP3    H128142   2.439   6.543   1.249  0.4462  1.5219  1.2883
 2169TIP3    H228143   2.525   6.499   1.365  1.1140  0.6849  0.4901
 2170TIP3   OH228144   0.037   2.813   2.787  0.0274 -0.1176 -0.2251
 2170TIP3    H128145  -0.057   2.824   2.795  0.0167  0.1310 -0.6373
 2170TIP3    H228146   0.063   2.878   2.721  0.4338 -0.4161 -0.3625
 2171TIP3   OH228147   0.094   6.691   8.541  0.5524  0.6496 -0.1741
 2171TIP3    H128148   0.156   6.618   8.530  0.3009  0.6161 -1.6392
 2171TIP3    H228149   0.090   6.730   8.454 -1.4978  0.6526 -0.1110
 2172TIP3   OH228150   6.053   6.158   1.682  0.0948  0.0055  0.5557
 2172TIP3    H128151   6.147   6.172   1.667  0.0022 -1.0419 -1.1986
 2172TIP3    H228152   6.010   6.203   1.609 -0.7788  0.3022  1.2305
 2173TIP3   OH228153   1.544   1.960   1.579  0.3126  0.1407 -0.1384
 2173TIP3    H128154   1.450   1.971   1.589  0.4758  0.8101  0.7574
 2173TIP3    H228155   1.557   1.865   1.577 -0.2277 -0.0093  1.4953
 2174TIP3   OH228156   3.454   1.791   3.250  0.4185  0.1408  0.4478
 2174TIP3    H128157   3.478   1.805   3.158  1.5293 -0.7331  0.5746
 2174TIP3    H228158   3.495   1.707   3.272 -0.4923 -0.0312  1.5229
 2175TIP3   OH228159   1.040   6.381   0.902  0.0105  0.1496  0.5584
 2175TIP3    H128160   1.076   6.339   0.823  0.0282  0.7501  0.2457
 2175TIP3    H228161   0.948   6.394   0.881 -0.1568 -0.3948  0.9409
 2176TIP3   OH228162   3.596   6.117   2.027  0.0327 -0.3901 -0.4973
 2176TIP3    H128163   3.661   6.086   2.090  0.9887 -1.0521 -1.7876
 2176TIP3    H228164   3.644   6.129   1.946 -1.4373 -0.8339 -1.4706
 2177TIP3   OH228165   4.774   3.030   0.120 -0.2622 -0.1957  0.2648
 2177TIP3    H128166   4.683   3.049   0.145 -1.1106 -2.8276 -0.5061
 2177TIP3    H228167   4.816   3.001   0.201 -0.4139 -0.0123  0.4102
 2178TIP3   OH228168   4.226   0.396   2.412 -0.2582  0.3584 -0.0819
 2178TIP3    H128169   4.282   0.326   2.445  0.4059  1.3640  0.9958
 2178TIP3    H228170   4.139   0.358   2.407 -0.7193  0.4715  4.1460
 2179TIP3   OH228171   0.290   5.114   3.389 -0.1166  1.0545 -0.3917
 2179TIP3    H128172   0.279   5.187   3.449  3.0287  1.6729 -0.3993
 2179TIP3    H228173   0.239   5.043   3.427 -0.8279  2.3761  1.2308
 2180TIP3   OH228174   0.757   2.067   2.595  0.0332 -0.5764  0.5755
 2180TIP3    H128175   0.706   2.129   2.648  0.9479  0.3680  0.3786
 2180TIP3    H228176   0.768   2.112   2.511  0.7570 -0.9851  0.4494
 2181TIP3   OH228177   6.534   1.325   0.464 -0.4145 -0.3645 -0.3890
 2181TIP3    H128178   6.599   1.388   0.493 -1.5446  0.6772 -0.0083
 2181TIP3    H228179   6.529   1.261   0.535 -2.9181  1.9808  1.8070
 2182TIP3   OH228180   3.259   1.357   4.312 -0.3479 -0.3774  0.6941
 2182TIP3    H128181   3.198   1.287   4.336 -2.8559  1.7501  1.0456
 2182TIP3    H228182   3.294   1.330   4.227 -0.6166 -2.3936  1.1852
 2183TIP3   OH228183   0.138   1.378   8.402 -0.1428 -0.2131  0.3390
 2183TIP3    H128184   0.158   1.403   8.492 -0.4690  0.1511  0.3150
 2183TIP3    H228185   0.220   1.394   8.354  0.8896 -2.8870  1.0177
 2184TIP3   OH228186   3.087   1.414   3.448 -0.2618 -0.2154  0.4713
 2184TIP3    H128187   3.040   1.334   3.423 -2.1726  0.4943  1.5337
 2184TIP3    H228188   3.079   1.418   3.543  1.5875  0.2214  0.6464
 2185TIP3   OH228189   2.116   1.371   1.823  0.2725  0.0236  0.7031
 2185TIP3    H128190   2.165   1.289   1.815 -1.1067 -0.9729  1.8433
 2185TIP3    H228191   2.104   1.401   1.733  0.8021 -1.0322  0.2579
 2186TIP3   OH228192   1.744   6.357   0.834 -0.4288 -0.0917  0.2698
 2186TIP3    H128193   1.770   6.308   0.912  2.6755  0.1229 -0.4929
 2186TIP3    H228194   1.808   6.330   0.767 -1.8269  1.1545 -1.6488
 2187TIP3   OH228195   2.431   1.381   0.306  0.5026 -0.0766  0.2293
 2187TIP3    H128196   2.476   1.349   0.385  0.1939 -2.0555 -0.3470
 2187TIP3    H228197   2.500   1.427   0.258  1.2788 -0.8252  0.5835
 2188TIP3   OH228198   1.271   2.915   8.684 -0.4103  0.5386 -0.5769
 2188TIP3    H128199   1.286   2.838   8.629 -2.4051  0.4253 -1.0438
 2188TIP3    H228200   1.228   2.978   8.626 -0.2716  1.3958  0.2206
 2189TIP3   OH228201   6.384   1.816   1.948  0.1481 -0.0403 -0.3946
 2189TIP3    H128202   6.293   1.810   1.979 -0.7280  2.8375 -2.0703
 2189TIP3    H228203   6.389   1.754   1.876 -0.2118 -0.8018  0.2182
 2190TIP3   OH228204   1.672   2.010   2.840  0.0157 -0.0046 -0.0907
 2190TIP3    H128205   1.613   2.004   2.765 -1.1949  1.0583  0.7434
 2190TIP3    H228206   1.705   2.100   2.838  2.1356 -0.7237 -0.8790
 2191TIP3   OH228207   3.207   1.505   2.097  0.0656 -0.6154 -0.1752
 2191TIP3    H128208   3.239   1.416   2.113 -1.4508 -1.0610  0.5913
 2191TIP3    H228209   3.161   1.529   2.178 -0.3897  0.4841 -0.7345
 2192TIP3   OH228210   6.257   1.394   2.756  0.2709  0.0951  0.3230
 2192TIP3    H128211   6.217   1.307   2.756  1.1778 -0.3540 -1.1831
 2192TIP3    H228212   6.342   1.382   2.714 -0.1784  1.9594 -1.2599
 2193TIP3   OH228213   5.244   1.168   1.981  0.1802  0.3029  0.2689
 2193TIP3    H128214   5.191   1.096   1.946  1.2881 -1.1620  1.4642
 2193TIP3    H228215   5.291   1.203   1.906 -2.7885  2.0265 -0.9505
 2194TIP3   OH228216   2.203   0.233   8.259 -0.1863  0.0947 -0.0206
 2194TIP3    H128217   2.167   0.293   8.194 -0.4031 -0.4268 -0.3905
 2194TIP3    H228218   2.295   0.223   8.234 -0.3227 -0.2830 -0.3987
 2195TIP3   OH228219   6.315   1.149   1.753  0.5351 -0.4108 -0.0267
 2195TIP3    H128220   6.389   1.096   1.722 -0.2093  0.1697 -3.0892
 2195TIP3    H228221   6.307   1.219   1.688 -2.4549 -0.2160  0.4281
 2196TIP3   OH228222   3.209   3.980   2.835 -0.4368  0.8360 -0.6434
 2196TIP3    H128223   3.200   3.917   2.763  1.3175 -0.8503  0.4978
 2196TIP3    H228224   3.128   3.972   2.884 -0.5012 -0.1111 -0.8729
 2197TIP3   OH228225   0.245   4.493   3.140  0.1899 -0.6042 -0.7637
 2197TIP3    H128226   0.170   4.506   3.081 -0.7254  0.0041  0.4986
 2197TIP3    H228227   0.290   4.577   3.140 -2.1345  0.8287  2.4799
 2198TIP3   OH228228   3.939   1.157   2.498  0.0333 -0.5554 -0.1080
 2198TIP3    H128229   3.862   1.211   2.519 -0.3482 -1.4474  0.8719
 2198TIP3    H228230   3.997   1.216   2.450 -1.1203  0.2326 -0.5778
 2199TIP3   OH228231   5.886   4.738   7.564  0.7495  0.2169  0.3606
 2199TIP3    H128232   5.827   4.735   7.489  1.7354 -1.9941 -0.4121
 2199TIP3    H228233   5.875   4.654   7.608  1.8539  0.5577  1.3687
 2200TIP3   OH228234   0.226   0.952   2.612  0.0118 -0.5742  0.1046
 2200TIP3    H128235   0.190   1.013   2.676 -0.1115 -0.7978  0.2487
 2200TIP3    H228236   0.157   0.886   2.600  0.1199 -0.6521 -0.0944
 2201TIP3   OH228237   5.714   0.235   1.368  0.1641 -0.3863 -0.7667
 2201TIP3    H128238   5.675   0.220   1.282 -0.7575 -0.4577 -0.3479
 2201TIP3    H228239   5.701   0.152   1.415 -1.8848  0.5042  0.3875
 2202TIP3   OH228240   0.625   1.718   8.794  0.1010  0.1142  0.0284
 2202TIP3    H128241   0.607   1.812   8.789 -1.3811 -0.1352  0.3572
 2202TIP3    H228242   0.581   1.689   8.874 -0.7042 -1.1267 -0.8280
 2203TIP3   OH228243   0.466   1.951   0.546 -0.1937  0.2997 -0.0005
 2203TIP3    H128244   0.450   1.896   0.622 -0.3675  1.5521  0.8929
 2203TIP3    H228245   0.522   2.022   0.579  0.9164  0.0876 -1.3586
 2204TIP3   OH228246   4.004   5.374   1.016  0.1897  1.0338 -0.5890
 2204TIP3    H128247   3.957   5.332   1.088 -0.2464  2.6427  0.1116
 2204TIP3    H228248   4.093   5.341   1.023  0.0731  0.9162  0.4995
 2205TIP3   OH228249   1.121   2.940   4.082 -0.2210 -0.1327  0.1743
 2205TIP3    H128250   1.134   2.865   4.024 -2.1072  0.2207 -0.8311
 2205TIP3    H228251   1.169   2.919   4.161  2.3509 -0.7254 -1.4392
 2206TIP3   OH228252   6.596   5.074   1.328 -0.0197  0.0231 -0.0908
 2206TIP3    H128253   6.650   5.025   1.266  0.1668 -1.2399  1.0393
 2206TIP3    H228254   6.653   5.088   1.404 -0.7572  0.1038  0.4618
 2207TIP3   OH228255   3.214   0.611   0.249  0.5677  0.3785  0.8983
 2207TIP3    H128256   3.199   0.531   0.198  0.2267  0.6015  0.6443
 2207TIP3    H228257   3.284   0.587   0.310 -0.6855 -0.6379  1.9896
 2208TIP3   OH228258   3.485   2.945   8.367  0.1837 -0.2865  0.4375
 2208TIP3    H128259   3.473   3.006   8.440  0.4972  1.7152 -1.0977
 2208TIP3    H228260   3.548   2.988   8.310 -1.4999 -0.8609 -1.9850
 2209TIP3   OH228261   6.043   3.759   2.852 -0.1181 -0.1998  0.4536
 2209TIP3    H128262   6.033   3.808   2.933  0.8771 -0.7382  0.9179
 2209TIP3    H228263   6.132   3.778   2.822 -0.5677  0.2278 -0.6834
 2210TIP3   OH228264   1.355   5.821   1.569  0.1756 -0.3241 -0.6224
 2210TIP3    H128265   1.348   5.879   1.645  2.8214 -1.4133  0.5782
 2210TIP3    H228266   1.354   5.880   1.494  0.3119  1.0502  0.4022
 2211TIP3   OH228267   6.061   5.369   2.507  0.1676  0.5321  0.0507
 2211TIP3    H128268   5.966   5.384   2.510  0.0560 -0.2731  0.5973
 2211TIP3    H228269   6.098   5.444   2.554 -0.1877  0.8809 -0.2100
 2212TIP3   OH228270   2.078   6.749   2.342  0.1407 -0.2785 -0.2024
 2212TIP3    H128271   2.086   6.753   2.438 -0.5003 -1.3912 -0.0820
 2212TIP3    H228272   2.046   6.835   2.317  2.0418  0.6490  0.3860
 2213TIP3   OH228273   2.142   3.847   2.394  0.4260  0.4547 -0.4215
 2213TIP3    H128274   2.191   3.845   2.477  1.1252 -0.3038 -0.8440
 2213TIP3    H228275   2.176   3.925   2.349 -1.1038  1.8097  0.6647
 2214TIP3   OH228276   3.645   1.929   3.450 -0.3828  0.2812 -0.4198
 2214TIP3    H128277   3.570   1.870   3.458 -0.4205  0.4595  0.6964
 2214TIP3    H228278   3.706   1.900   3.519 -0.4815  1.6396  0.2643
 2215TIP3   OH228279   2.225   2.404   0.900 -0.0854  0.0174 -0.1106
 2215TIP3    H128280   2.220   2.472   0.832  1.0720 -0.8906 -1.1776
 2215TIP3    H228281   2.156   2.342   0.878  1.4218 -1.2359 -1.6618
 2216TIP3   OH228282   2.945   3.404   2.941 -0.1910  0.0477  0.1550
 2216TIP3    H128283   2.894   3.370   2.868  0.0668  2.0647 -1.0697
 2216TIP3    H228284   3.032   3.366   2.929 -0.4917 -0.6527  0.1820
 2217TIP3   OH228285   1.541   3.643   1.140 -0.5130 -0.2613 -0.1230
 2217TIP3    H128286   1.510   3.613   1.055 -1.9865  0.9418 -0.0454
 2217TIP3    H228287   1.528   3.737   1.139  1.4444  0.0827  0.6647
 2218TIP3   OH228288   4.153   5.058   0.987  0.0946 -0.1368 -0.2542
 2218TIP3    H128289   4.093   5.102   1.047 -0.5291  1.4525 -1.9377
 2218TIP3    H228290   4.163   4.970   1.023  1.1506  1.2005  3.1237
 2219TIP3   OH228291   1.535   0.818   3.202 -0.8153 -0.2382 -0.0328
 2219TIP3    H128292   1.562   0.746   3.260 -0.8729 -1.4819 -1.4893
 2219TIP3    H228293   1.596   0.889   3.223 -1.0616 -0.5105  1.7869
 2220TIP3   OH228294   3.814   5.095   2.976 -0.1163  0.0371 -0.4743
 2220TIP3    H128295   3.818   5.063   2.886  0.4643 -0.5072 -0.2584
 2220TIP3    H228296   3.747   5.040   3.018  1.1378 -1.1828 -0.0053
 2221TIP3   OH228297   6.703   2.616   8.397  0.1148 -0.1405  0.2414
 2221TIP3    H128298   6.630   2.586   8.452  1.0745 -2.1660  0.5328
 2221TIP3    H228299   6.735   2.694   8.442  0.8331 -1.6853  2.6470
 2222TIP3   OH228300   2.932   2.148   1.415  0.1606  0.3687  0.1909
 2222TIP3    H128301   2.989   2.203   1.361 -1.3429  1.0918 -0.7267
 2222TIP3    H228302   2.969   2.060   1.406 -0.2413  0.3813 -2.3779
 2223TIP3   OH228303   2.316   0.261   1.869 -0.2086 -0.5014  0.2711
 2223TIP3    H128304   2.332   0.309   1.788 -2.0476 -2.1317 -1.1683
 2223TIP3    H228305   2.352   0.316   1.938 -0.2751  1.8546 -1.4684
 2224TIP3   OH228306   0.008   3.715   2.400  0.3417  0.4246  0.1627
 2224TIP3    H128307  -0.024   3.627   2.382 -1.6576  1.4068 -1.4231
 2224TIP3    H228308  -0.064   3.757   2.448  0.4616  1.7532 -0.7700
 2225TIP3   OH228309   4.864   6.253   8.698  0.2148  0.1921 -0.0214
 2225TIP3    H128310   4.860   6.344   8.669  1.2178  0.2523  0.0029
 2225TIP3    H228311   4.945   6.219   8.660 -0.7928 -1.0851 -1.1186
 2226TIP3   OH228312   4.002   0.244   1.810 -0.2778 -0.2108 -0.2756
 2226TIP3    H128313   3.945   0.230   1.885  0.5184 -1.2898  0.1573
 2226TIP3    H228314   4.081   0.192   1.829 -0.0442 -0.4886 -1.8301
 2227TIP3   OH228315   3.603   1.986   1.590  0.1867 -0.3484  0.0031
 2227TIP3    H128316   3.665   1.930   1.637  1.2312 -0.9320 -1.9334
 2227TIP3    H228317   3.532   1.928   1.564  0.2302 -0.3096 -0.2049
 2228TIP3   OH228318   1.339   5.644   2.344  0.2762  0.4415 -0.0225
 2228TIP3    H128319   1.354   5.722   2.290 -1.6503  0.5372 -0.4638
 2228TIP3    H228320   1.388   5.575   2.299  0.4454  0.9866 -0.6960
 2229TIP3   OH228321   5.940   6.669   1.011  0.3306  0.2046 -0.0862
 2229TIP3    H128322   6.023   6.644   1.052 -0.5156 -0.4584  1.3140
 2229TIP3    H228323   5.965   6.724   0.937  1.9728  0.8371  0.8813
 2230TIP3   OH228324   2.250   5.333   0.442 -0.5583  0.6217  0.1553
 2230TIP3    H128325   2.272   5.310   0.352  1.7668 -1.6443  1.1597
 2230TIP3    H228326   2.285   5.421   0.454  0.0682  0.5242 -0.8755
 2231TIP3   OH228327   5.049   2.169   2.349  0.1676  0.3359  0.0185
 2231TIP3    H128328   4.988   2.096   2.362  0.6636  0.1183  1.2039
 2231TIP3    H228329   5.109   2.138   2.281 -1.3834  0.7915 -1.6406
 2232TIP3   OH228330   0.651   6.449   1.725 -0.0074  0.2100  0.4077
 2232TIP3    H128331   0.557   6.455   1.707  0.1501  0.6968 -0.3060
 2232TIP3    H228332   0.672   6.356   1.715 -0.6666 -0.1330  1.9515
 2233TIP3   OH228333   6.043   0.227   0.109 -0.3033 -0.0514 -0.5802
 2233TIP3    H128334   6.094   0.303   0.081 -2.7316  2.0902  0.4340
 2233TIP3    H228335   6.012   0.187   0.028  1.0633 -0.0622 -1.1289
 2234TIP3   OH228336   4.834   2.823   1.177 -0.4718 -0.3065  0.2861
 2234TIP3    H128337   4.865   2.755   1.236  0.1311 -0.7527 -0.5157
 2234TIP3    H228338   4.749   2.848   1.211  0.5100  0.5689  2.2423
 2235TIP3   OH228339   1.873   1.045   1.318 -0.3484  0.1375  0.2977
 2235TIP3    H128340   1.938   1.061   1.250  0.1062 -0.3745  0.5984
 2235TIP3    H228341   1.840   0.957   1.299 -0.1874 -0.0278  0.7494
 2236TIP3   OH228342   6.479   2.322   0.575  0.4886  0.2467 -0.3933
 2236TIP3    H128343   6.409   2.261   0.596  1.1211 -0.4053 -0.1435
 2236TIP3    H228344   6.465   2.397   0.634 -0.6701  0.6495 -1.1581
 2237TIP3   OH228345   0.951   2.561   2.184 -0.8401  0.5062 -0.3014
 2237TIP3    H128346   0.962   2.575   2.278 -0.4813  0.4930 -0.3434
 2237TIP3    H228347   0.896   2.635   2.156  0.4205  1.4504 -0.3807
 2238TIP3   OH228348   3.295   6.555   7.881 -0.2471 -0.2571 -0.0240
 2238TIP3    H128349   3.389   6.537   7.873 -0.3002 -1.5700  1.6348
 2238TIP3    H228350   3.289   6.622   7.949 -0.4015  2.1485 -2.2637
 2239TIP3   OH228351   0.398   4.968   8.439  0.4628  0.0155  0.1210
 2239TIP3    H128352   0.419   5.061   8.430 -0.2099  0.4098  2.1584
 2239TIP3    H228353   0.471   4.923   8.397  2.0966  1.4277  1.3181
 2240TIP3   OH228354   6.345   5.394   0.625 -0.2579 -0.2570  0.0490
 2240TIP3    H128355   6.430   5.367   0.660 -0.2180 -0.9255 -0.5419
 2240TIP3    H228356   6.309   5.316   0.584 -0.9313  0.1503 -0.1670
 2241TIP3   OH228357   4.603   6.370   0.529  0.4386  0.0487  0.2972
 2241TIP3    H128358   4.615   6.276   0.543  0.5641 -0.0937 -0.6747
 2241TIP3    H228359   4.648   6.411   0.603 -0.7693 -0.6663  1.4663
 2242TIP3   OH228360   0.210   6.170   1.294  0.2586 -0.0952 -0.1745
 2242TIP3    H128361   0.257   6.089   1.313 -1.9144 -2.1226 -2.6892
 2242TIP3    H228362   0.267   6.219   1.236  0.5590 -1.0402 -0.6860
 2243TIP3   OH228363   3.568   3.625   2.711 -0.9533  0.0984 -0.0615
 2243TIP3    H128364   3.535   3.684   2.644 -1.7411  0.6223  0.7660
 2243TIP3    H228365   3.661   3.614   2.689 -0.7381  1.7951 -0.1371
 2244TIP3   OH228366   4.114   4.233   0.551  0.1725  0.4191  0.1550
 2244TIP3    H128367   4.186   4.295   0.548 -0.3214  1.0660  1.0523
 2244TIP3    H228368   4.126   4.177   0.474  2.3579 -0.2984  0.9405
 2245TIP3   OH228369   5.552   0.834   2.802  0.4927 -0.9888 -0.2789
 2245TIP3    H128370   5.556   0.902   2.736 -2.5799 -0.2062  0.1736
 2245TIP3    H228371   5.619   0.858   2.866 -0.8624  2.0013  0.1573
 2246TIP3   OH228372   3.227   6.533   8.365  0.2738 -1.4072  0.6612
 2246TIP3    H128373   3.289   6.597   8.398 -1.1293 -0.1027  0.8846
 2246TIP3    H228374   3.246   6.527   8.271 -1.5933  1.8376 -0.0628
 2247TIP3   OH228375   3.155   5.886   2.890  0.2473  0.3642 -0.6204
 2247TIP3    H128376   3.165   5.977   2.917  0.1663  0.7465 -1.8354
 2247TIP3    H228377   3.208   5.837   2.953  0.7815  1.3077 -0.3109
 2248TIP3   OH228378   3.398   2.890   0.717  0.5913  0.1078  0.4813
 2248TIP3    H128379   3.428   2.866   0.630  0.0376  0.0246  0.3108
 2248TIP3    H228380   3.343   2.968   0.703  0.3305 -0.0311  0.7272
 2249TIP3   OH228381   4.524   4.741   0.523 -0.6094 -0.1755 -0.4072
 2249TIP3    H128382   4.472   4.804   0.474 -1.4659 -0.4267  0.1532
 2249TIP3    H228383   4.526   4.775   0.612  0.1708 -0.1891 -0.4130
 2250TIP3   OH228384   6.042   4.971   0.903  0.0130 -0.0856 -0.6355
 2250TIP3    H128385   6.001   4.900   0.853  0.0412 -0.2390 -0.4430
 2250TIP3    H228386   6.062   4.931   0.988  2.4957 -0.6649 -1.4079
 2251TIP3   OH228387   3.488   1.885   2.003 -0.4001  0.4046  0.0705
 2251TIP3    H128388   3.494   1.800   2.048 -1.4359  0.4327  0.2939
 2251TIP3    H228389   3.539   1.944   2.057  1.3707 -0.3180 -0.7408
 2252TIP3   OH228390   3.441   3.147   8.581  0.1579  0.0090 -0.0335
 2252TIP3    H128391   3.521   3.130   8.631  0.6866  0.9054 -0.5462
 2252TIP3    H228392   3.453   3.236   8.546 -0.6086 -0.2364 -0.9644
 2253TIP3   OH228393   5.265   1.499   0.696 -0.7391  0.1945 -0.2640
 2253TIP3    H128394   5.301   1.483   0.784 -1.8949 -0.9870  0.0221
 2253TIP3    H228395   5.273   1.415   0.651 -0.1348  0.7971 -1.3277
 2254TIP3   OH228396   5.848   4.507   1.152 -0.0335  0.2168 -0.3776
 2254TIP3    H128397   5.771   4.450   1.153  1.5197 -1.9983  0.6463
 2254TIP3    H228398   5.818   4.586   1.108 -2.8155 -0.6508 -0.2458
 2255TIP3   OH228399   3.829   1.103   3.067 -0.3761 -0.0580 -0.3930
 2255TIP3    H128400   3.909   1.052   3.073  0.0693  0.5690 -0.8721
 2255TIP3    H228401   3.770   1.063   3.130  0.5769 -0.0475  0.5323
 2256TIP3   OH228402   2.424   4.939   0.487  0.3989  0.3815 -0.0305
 2256TIP3    H128403   2.436   4.916   0.395  1.6392 -1.6075  0.5645
 2256TIP3    H228404   2.511   4.926   0.526  0.1080  2.0391  1.2739
 2257TIP3   OH228405   3.858   5.180   2.309 -0.0693  0.3476 -0.6464
 2257TIP3    H128406   3.814   5.098   2.328 -0.2084  0.7039  0.6939
 2257TIP3    H228407   3.833   5.201   2.219 -0.3533 -0.8571 -0.8667
 2258TIP3   OH228408   0.047   0.467   1.796  0.5908 -0.3300  0.0244
 2258TIP3    H128409   0.009   0.388   1.757 -0.2418 -0.0498  0.2332
 2258TIP3    H228410  -0.027   0.529   1.800  0.5720 -0.4413  2.2685
 2259TIP3   OH228411   1.640   6.679   3.552 -0.1362  0.3854  0.0579
 2259TIP3    H128412   1.561   6.725   3.581  0.7088  2.6446 -0.9847
 2259TIP3    H228413   1.693   6.671   3.631 -1.0445 -0.4587  0.6087
 2260TIP3   OH228414   5.477   6.339   1.568 -0.0844  0.7670  0.0650
 2260TIP3    H128415   5.399   6.320   1.621 -0.7942  3.0919 -0.0268
 2260TIP3    H228416   5.442   6.351   1.479  0.5836  0.4482 -0.2404
 2261TIP3   OH228417   1.401   1.901   1.969  0.1299 -0.3039  0.2231
 2261TIP3    H128418   1.431   1.990   1.984 -0.3039 -0.2041  0.5257
 2261TIP3    H228419   1.309   1.911   1.944  0.3238 -0.6014 -0.6556
 2262TIP3   OH228420   3.023   6.749   0.096  0.3507 -0.5316 -0.2297
 2262TIP3    H128421   3.078   6.693   0.041  0.4618  0.3512 -1.0481
 2262TIP3    H228422   3.008   6.827   0.042  1.7977  1.1023  1.5842
 2263TIP3   OH228423   1.780   0.220   3.076  0.5870 -0.5684  0.5720
 2263TIP3    H128424   1.685   0.222   3.071  0.5693 -0.2142  1.0948
 2263TIP3    H228425   1.801   0.239   3.167  1.1548 -0.7856  0.4945
 2264TIP3   OH228426   1.156   5.510   2.002 -0.1714  0.0471  0.1402
 2264TIP3    H128427   1.205   5.478   1.926  2.3793  1.1493  1.2043
 2264TIP3    H228428   1.080   5.555   1.964  1.0630  0.6450 -1.7928
 2265TIP3   OH228429   4.738   3.585   0.556  0.5946  0.0565  0.4997
 2265TIP3    H128430   4.737   3.502   0.603  1.3291  0.2193  0.8118
 2265TIP3    H228431   4.812   3.578   0.496  1.5345  1.0157  1.5042
 2266TIP3   OH228432   1.656   2.873   2.389  0.1181  0.2200  0.0373
 2266TIP3    H128433   1.747   2.893   2.369 -0.2222  0.3872 -1.4621
 2266TIP3    H228434   1.605   2.922   2.324 -1.0574  0.2306  0.9185
 2267TIP3   OH228435   1.963   2.525   4.027  0.5600 -0.2370  0.0118
 2267TIP3    H128436   2.058   2.518   4.031  0.5268 -0.8288 -0.1938
 2267TIP3    H228437   1.947   2.618   4.009  1.0961 -0.1304  0.0628
 2268TIP3   OH228438   3.202   5.191   0.473 -0.2484 -0.1727  0.0473
 2268TIP3    H128439   3.197   5.106   0.430  0.3184 -0.7690  1.1173
 2268TIP3    H228440   3.237   5.172   0.560  0.2878  1.2088  0.1626
 2269TIP3   OH228441   0.609   3.180   8.088 -0.2526  0.1425 -0.4798
 2269TIP3    H128442   0.526   3.132   8.082 -0.0035 -0.7044  1.7339
 2269TIP3    H228443   0.587   3.259   8.137  0.0799  0.3958 -0.7360
 2270TIP3   OH228444   4.819   1.410   1.082 -0.8056 -0.2655 -0.3546
 2270TIP3    H128445   4.816   1.458   1.165 -2.4870 -1.4492  0.3312
 2270TIP3    H228446   4.799   1.319   1.106 -1.1850 -0.6614 -2.0376
 2271TIP3   OH228447   6.399   4.042   2.988  0.3723  0.3295  0.1183
 2271TIP3    H128448   6.404   4.059   2.894  0.3820 -0.2641  0.0101
 2271TIP3    H228449   6.306   4.025   3.004  0.7574 -2.8242 -0.3785
 2272TIP3   OH228450   0.440   3.825   2.156  0.1334 -0.4651 -0.8731
 2272TIP3    H128451   0.452   3.787   2.069  0.0309  0.4348 -1.2855
 2272TIP3    H228452   0.345   3.833   2.166  0.1815  1.5667 -1.6398
 2273TIP3   OH228453   1.721   5.150   8.437  0.2685 -0.6985 -0.0281
 2273TIP3    H128454   1.785   5.183   8.500  0.3215 -0.6463 -0.1095
 2273TIP3    H228455   1.670   5.227   8.412  0.1632 -0.7437  0.0496
 2274TIP3   OH228456   2.370   3.176   2.481 -0.0506 -0.3234  0.0492
 2274TIP3    H128457   2.424   3.097   2.474  1.2365  0.4815  0.3360
 2274TIP3    H228458   2.370   3.213   2.393 -1.8295 -1.3492 -0.4115
 2275TIP3   OH228459   6.610   2.768   8.765 -0.1051 -0.1580 -0.2377
 2275TIP3    H128460   6.668   2.704   8.806 -0.1916 -0.7931 -1.0739
 2275TIP3    H228461   6.603   2.839   8.829  2.3370  0.3822 -0.5022
 2276TIP3   OH228462   6.437   6.320   0.453  0.3268  0.3278 -0.7551
 2276TIP3    H128463   6.503   6.255   0.478  0.0778  0.4276  0.1954
 2276TIP3    H228464   6.463   6.400   0.500 -1.3990 -0.0826  1.0071
 2277TIP3   OH228465   6.459   3.112   3.352  0.8445 -0.3130 -0.5283
 2277TIP3    H128466   6.492   3.023   3.365  2.7030 -0.2852 -3.9531
 2277TIP3    H228467   6.396   3.104   3.280 -0.2996  0.9540  0.2790
 2278TIP3   OH228468   2.957   0.694   0.054  0.1349 -0.1426  0.0806
 2278TIP3    H128469   2.898   0.766   0.033  0.9898  0.2517 -1.0214
 2278TIP3    H228470   2.922   0.658   0.136 -0.4332  1.3696  0.5333
 2279TIP3   OH228471   2.618   0.323   3.230  0.3733 -0.4103 -0.1739
 2279TIP3    H128472   2.614   0.367   3.315 -0.3633  0.7011 -0.7504
 2279TIP3    H228473   2.588   0.234   3.247 -1.7106  0.3498  0.4145
 2280TIP3   OH228474   2.616   1.082   2.732  0.2967 -0.3866 -0.0192
 2280TIP3    H128475   2.689   1.023   2.719 -0.5168 -1.2735 -0.7587
 2280TIP3    H228476   2.581   1.096   2.643 -2.1559 -2.3002  0.5282
 2281TIP3   OH228477   4.168   5.661   3.118  0.1514  0.2651 -0.6553
 2281TIP3    H128478   4.220   5.737   3.092  1.3646 -1.1978 -2.8929
 2281TIP3    H228479   4.115   5.641   3.041 -0.2290 -1.0454 -0.0787
 2282TIP3   OH228480   3.565   6.482   1.613  0.2047  0.3587 -0.5645
 2282TIP3    H128481   3.584   6.572   1.640  0.8713  0.8148 -2.4323
 2282TIP3    H228482   3.471   6.483   1.592 -0.2230  0.1068  1.1474
 2283TIP3   OH228483   3.969   4.642   3.036 -0.1401  0.1924  0.0372
 2283TIP3    H128484   3.941   4.602   3.118  0.2031 -0.3662 -0.1148
 2283TIP3    H228485   3.891   4.642   2.981  0.1008 -1.2743 -0.3517
 2284TIP3   OH228486   0.880   4.833   0.604  0.4162  0.2046 -0.3213
 2284TIP3    H128487   0.960   4.856   0.653 -0.4685  1.4453  0.5981
 2284TIP3    H228488   0.856   4.747   0.638  1.1660 -0.0244 -0.3478
 2285TIP3   OH228489   6.647   1.178   3.636  0.5401  0.0383  0.0052
 2285TIP3    H128490   6.636   1.087   3.607  0.6625 -0.7929  2.3154
 2285TIP3    H228491   6.642   1.230   3.556 -1.8329 -1.8085 -1.1770
 2286TIP3   OH228492   2.623   4.987   1.016  0.1109  0.2171 -0.3942
 2286TIP3    H128493   2.601   5.056   1.078  0.6555 -0.0446  0.0968
 2286TIP3    H228494   2.554   4.991   0.950  0.1876  1.2923 -0.4235
 2287TIP3   OH228495   5.826   0.213   2.459  0.4531  0.1916 -0.2130
 2287TIP3    H128496   5.891   0.275   2.428  1.6977  0.0735  1.9435
 2287TIP3    H228497   5.815   0.234   2.552 -1.0932 -1.1063 -0.0494
 2288TIP3   OH228498   2.863   4.638   0.769  0.4478  1.0225 -0.3566
 2288TIP3    H128499   2.805   4.657   0.843  0.4584 -0.8218  0.1768
 2288TIP3    H228500   2.939   4.695   0.783  0.0285  1.3913  0.5111
 2289TIP3   OH228501   6.443   6.490   1.296 -0.1097  0.1383  0.1908
 2289TIP3    H128502   6.441   6.454   1.207 -0.0799  1.3833 -0.3320
 2289TIP3    H228503   6.518   6.550   1.296 -0.7297  0.9352  0.7279
 2290TIP3   OH228504   1.662   4.339   3.409 -0.3512  0.0520 -0.3352
 2290TIP3    H128505   1.687   4.428   3.384  3.3721 -1.0332 -1.0689
 2290TIP3    H228506   1.608   4.350   3.487 -3.3060  3.0525 -2.5268
 2291TIP3   OH228507   0.836   2.397   0.840  0.0890  0.0866  0.0328
 2291TIP3    H128508   0.840   2.306   0.810 -0.6137  0.5015 -1.4028
 2291TIP3    H228509   0.872   2.394   0.929 -0.0187 -1.6065  0.0591
 2292TIP3   OH228510   0.065   5.123   2.739 -0.2389  0.2721  0.3221
 2292TIP3    H128511  -0.022   5.149   2.769 -0.9286 -1.1610 -0.3657
 2292TIP3    H228512   0.077   5.035   2.775  1.1166  0.6182  0.7691
 2293TIP3   OH228513   1.736   3.351   1.304  0.7594  0.3755 -0.0035
 2293TIP3    H128514   1.666   3.348   1.368  1.2516  0.0132  0.5307
 2293TIP3    H228515   1.758   3.443   1.295  0.1604  0.4975 -0.2421
 2294TIP3   OH228516   6.062   5.286   8.470 -0.8041 -0.2166  0.4159
 2294TIP3    H128517   6.109   5.294   8.386  1.0983  0.5549  1.4817
 2294TIP3    H228518   5.998   5.357   8.468  0.7939  1.2984  0.5025
 2295TIP3   OH228519   1.314   1.461   2.475 -0.6978 -0.7650 -0.4254
 2295TIP3    H128520   1.249   1.514   2.520 -1.1425 -1.1683 -0.5747
 2295TIP3    H228521   1.385   1.522   2.453 -0.8302 -0.4108  0.1193
 2296TIP3   OH228522   2.156   0.537   1.691 -0.1916 -0.1800 -0.5663
 2296TIP3    H128523   2.120   0.462   1.642 -1.4502 -1.3313  1.9448
 2296TIP3    H228524   2.149   0.610   1.629 -2.5206 -1.3469 -1.8571
 2297TIP3   OH228525   2.361   4.980   0.844 -0.0935  0.7889  0.2941
 2297TIP3    H128526   2.318   5.041   0.785  0.2021  0.5883 -0.1371
 2297TIP3    H228527   2.405   4.917   0.786  1.5344  1.5045  0.6951
 2298TIP3   OH228528   2.796   1.713   8.312  0.3452  0.1510  0.1108
 2298TIP3    H128529   2.787   1.743   8.221 -0.1302  2.6089  0.9110
 2298TIP3    H228530   2.888   1.688   8.320  0.5278  0.4484 -0.8726
 2299TIP3   OH228531   6.095   4.331   0.754 -0.0691 -0.5954 -0.1129
 2299TIP3    H128532   6.022   4.315   0.814  0.1952  0.5692  0.5343
 2299TIP3    H228533   6.169   4.285   0.794 -0.2376 -1.0767 -0.3403
 2300TIP3   OH228534   6.598   3.153   2.787  0.2973  0.3152 -0.5840
 2300TIP3    H128535   6.598   3.058   2.782  0.3042  0.3831 -2.9716
 2300TIP3    H228536   6.657   3.173   2.859 -0.5244 -1.4803  0.6662
 2301TIP3   OH228537   4.323   1.916   0.584 -0.4546  0.3909  0.1259
 2301TIP3    H128538   4.364   1.839   0.622 -1.1014 -0.5898 -1.1087
 2301TIP3    H228539   4.320   1.898   0.490  0.6382  2.5176 -0.3775
 2302TIP3   OH228540   6.016   5.983   3.727  0.6386 -0.3278 -0.0555
 2302TIP3    H128541   5.944   6.030   3.769 -0.0573  0.2398 -1.8232
 2302TIP3    H228542   6.061   5.939   3.800 -0.3196  0.8555  1.3082
 2303TIP3   OH228543   3.064   6.126   2.096 -0.1177  0.3387 -0.2121
 2303TIP3    H128544   3.001   6.155   2.162 -0.2909 -0.7724  0.1223
 2303TIP3    H228545   3.136   6.089   2.146 -0.3155 -0.6542 -0.6353
 2304TIP3   OH228546   0.192   6.080   3.465 -0.0410 -0.2622 -0.5169
 2304TIP3    H128547   0.180   6.046   3.377 -0.4150 -1.5833  0.0203
 2304TIP3    H228548   0.135   6.157   3.470 -1.2083 -1.0904 -0.9349
 2305TIP3   OH228549   6.642   1.927   8.551  0.1931  0.5902  0.5699
 2305TIP3    H128550   6.637   1.920   8.456 -1.1893 -0.0470  0.6559
 2305TIP3    H228551   6.656   2.020   8.569  0.6294  0.6877 -0.2480
 2306TIP3   OH228552   3.818   2.322   1.295  0.2102 -0.4248  0.2682
 2306TIP3    H128553   3.793   2.234   1.265 -2.3813  0.1711  0.4387
 2306TIP3    H228554   3.844   2.368   1.215 -1.8235 -0.3466 -0.3999
 2307TIP3   OH228555   1.955   6.703   1.556 -0.5252  0.5177 -0.7757
 2307TIP3    H128556   1.915   6.673   1.638 -0.8091 -0.1319 -1.1403
 2307TIP3    H228557   1.913   6.650   1.488  3.9035 -3.5364 -0.9002
 2308TIP3   OH228558   3.288   3.234   0.405  0.3947  0.5125 -0.3565
 2308TIP3    H128559   3.318   3.274   0.324 -3.0987  1.8552 -1.1995
 2308TIP3    H228560   3.226   3.167   0.378  0.6178 -0.3908  1.2117
 2309TIP3   OH228561   6.001   4.601   2.943  0.3285 -0.6577  0.3223
 2309TIP3    H128562   6.000   4.557   3.028 -0.2856 -1.4495 -0.0816
 2309TIP3    H228563   5.908   4.620   2.926  0.5490  0.5789  0.3648
 2310TIP3   OH228564   0.993   0.063   2.813 -0.3143  0.1305 -0.0579
 2310TIP3    H128565   1.077   0.088   2.776 -0.4381  1.2055  0.3391
 2310TIP3    H228566   1.010  -0.018   2.861  0.3530  0.0095 -0.5050
 2311TIP3   OH228567   0.033   0.867   3.127 -0.1113 -0.3390  0.5693
 2311TIP3    H128568  -0.012   0.912   3.198  0.2659 -1.5209  1.5760
 2311TIP3    H228569  -0.024   0.793   3.105  0.1682 -0.4484  0.1985
 2312TIP3   OH228570   6.358   4.025   0.001 -0.3130 -0.1536  0.6096
 2312TIP3    H128571   6.416   3.949   0.006 -0.3982 -0.3207 -0.6846
 2312TIP3    H228572   6.397   4.081  -0.065 -0.4529  0.7689  1.2928
 2313TIP3   OH228573   6.204   0.802   1.672 -0.1832 -0.7061  0.1881
 2313TIP3    H128574   6.207   0.820   1.766  1.3482  0.0912  0.0164
 2313TIP3    H228575   6.161   0.879   1.634 -1.3269 -1.2820  0.2617
 2314TIP3   OH228576   1.852   3.814   8.568  0.4345  0.1942 -0.6824
 2314TIP3    H128577   1.801   3.895   8.576  1.2202  0.7388 -1.0629
 2314TIP3    H228578   1.918   3.833   8.501 -0.0404 -1.1169 -1.5634
 2315TIP3   OH228579   5.266   2.834   3.128  0.3195 -0.0464  0.1932
 2315TIP3    H128580   5.297   2.912   3.081 -0.4985  0.0079 -0.2714
 2315TIP3    H228581   5.334   2.816   3.193  0.4279  1.1566  0.4226
 2316TIP3   OH228582   6.364   3.479   0.977 -0.0376 -0.3207 -0.5726
 2316TIP3    H128583   6.388   3.485   0.884 -1.0969  2.5192 -0.7525
 2316TIP3    H228584   6.317   3.560   0.995  1.2371 -0.1675  2.7975
 2317TIP3   OH228585   1.445   0.573   8.060 -0.4074 -0.1162  0.2369
 2317TIP3    H128586   1.509   0.502   8.063 -0.0688  0.2094  0.7125
 2317TIP3    H228587   1.493   0.650   8.088 -0.5614  0.4705 -1.0357
 2318TIP3   OH228588   1.656   1.320   8.786 -0.8798  0.3044  0.1821
 2318TIP3    H128589   1.642   1.378   8.860  1.0282  1.0796 -0.0065
 2318TIP3    H228590   1.631   1.372   8.710 -0.7585  0.2925  0.1330
 2319TIP3   OH228591   4.442   4.527   8.694  0.5059 -0.0453  0.2831
 2319TIP3    H128592   4.532   4.495   8.686  0.4363 -0.1424 -0.1293
 2319TIP3    H228593   4.422   4.519   8.787  0.5336 -1.0756  0.2141
 2320TIP3   OH228594   4.709   1.127   2.150  0.3119  0.1937 -0.1984
 2320TIP3    H128595   4.619   1.136   2.116 -0.2362  1.2694  1.4169
 2320TIP3    H228596   4.752   1.208   2.122  1.0342 -0.6220 -1.5661
 2321TIP3   OH228597   4.407   1.989   3.048  0.1281 -0.4939 -0.4336
 2321TIP3    H128598   4.328   1.953   3.088 -0.2221  0.5846 -0.1024
 2321TIP3    H228599   4.375   2.052   2.983  0.7041 -1.6224 -1.8609
 2322TIP3   OH228600   3.827   1.583   1.532 -0.1841 -0.3477 -0.1476
 2322TIP3    H128601   3.917   1.589   1.500 -0.6473  1.3586 -1.2641
 2322TIP3    H228602   3.786   1.518   1.475  0.5045 -1.7754  0.9074
 2323TIP3   OH228603   2.995   4.732   8.347 -0.4788  0.1045  0.5326
 2323TIP3    H128604   3.047   4.727   8.266 -0.6553 -1.0511  0.4703
 2323TIP3    H228605   3.025   4.657   8.399 -2.3712 -0.8436  0.3201
 2324TIP3   OH228606   6.466   2.344   2.343  0.1762  0.0953  0.0742
 2324TIP3    H128607   6.405   2.329   2.270 -1.3117  1.1347  1.0485
 2324TIP3    H228608   6.459   2.264   2.396 -1.4107  0.7416  0.8899
 2325TIP3   OH228609   3.614   3.570   1.677  0.1892 -0.2381 -0.2184
 2325TIP3    H128610   3.577   3.542   1.760 -0.1355 -0.2135 -0.3542
 2325TIP3    H228611   3.621   3.489   1.626 -0.1927 -0.1651 -0.3923
 2326TIP3   OH228612   2.542   2.750   1.128 -0.4716  0.2208  0.0556
 2326TIP3    H128613   2.527   2.656   1.118  0.1107  0.0425  0.7955
 2326TIP3    H228614   2.629   2.765   1.092 -0.6157  0.5056 -0.1822
 2327TIP3   OH228615   0.103   5.796   3.518 -0.5330 -0.1894 -0.1151
 2327TIP3    H128616   0.190   5.824   3.491 -1.2057 -0.0425 -2.2960
 2327TIP3    H228617   0.096   5.824   3.610  1.7802 -0.4417  0.1967
 2328TIP3   OH228618   2.077   0.457   0.166 -0.6466 -0.4494 -0.3777
 2328TIP3    H128619   2.018   0.474   0.240  0.2583 -1.0082  0.4979
 2328TIP3    H228620   2.041   0.380   0.123 -1.2621 -0.0342 -0.6209
 2329TIP3   OH228621   4.788   0.560   2.910 -0.3707 -0.0809 -0.0695
 2329TIP3    H128622   4.832   0.642   2.889 -0.3443  0.1205  0.7607
 2329TIP3    H228623   4.697   0.585   2.925 -0.4516 -0.2706 -0.2305
 2330TIP3   OH228624   2.770   5.836   8.742  0.6991  0.0662 -0.4006
 2330TIP3    H128625   2.773   5.741   8.732  0.2422 -0.1134  1.0599
 2330TIP3    H228626   2.708   5.865   8.675 -0.1146 -0.7934 -0.0375
 2331TIP3   OH228627   4.630   6.045   1.828 -0.4134 -0.1483  0.1132
 2331TIP3    H128628   4.663   6.135   1.828  2.3855 -1.0561 -1.6937
 2331TIP3    H228629   4.536   6.055   1.810 -0.3020  2.4051  0.4647
 2332TIP3   OH228630   3.768   0.548   2.125 -0.5770 -0.2054 -0.4381
 2332TIP3    H128631   3.717   0.472   2.154 -0.1495 -0.6687 -0.8572
 2332TIP3    H228632   3.839   0.509   2.073 -1.1368  0.5733 -1.8290
 2333TIP3   OH228633   2.085   0.525   3.167 -0.6123  0.0701 -0.1382
 2333TIP3    H128634   2.147   0.498   3.234 -0.9951 -2.0293 -0.5530
 2333TIP3    H228635   2.140   0.558   3.096  0.0434 -1.2759 -0.2919
 2334TIP3   OH228636   0.258   1.126   0.716 -0.5088 -0.2062 -0.5537
 2334TIP3    H128637   0.310   1.204   0.695  0.3530 -0.5426  0.2257
 2334TIP3    H228638   0.198   1.156   0.785 -1.4739  0.2119 -1.5348
 2335TIP3   OH228639   0.654   1.553   1.499 -0.4150 -0.7029  0.1699
 2335TIP3    H128640   0.681   1.624   1.441 -0.2330 -1.2074 -0.3774
 2335TIP3    H228641   0.690   1.474   1.458  0.9761 -0.9253  1.7169
 2336TIP3   OH228642   5.763   4.706   0.981 -0.2497 -0.2930  0.2313
 2336TIP3    H128643   5.685   4.760   0.996 -0.1045  0.2815 -0.9755
 2336TIP3    H228644   5.738   4.646   0.911 -0.0617 -1.0987  0.8378
 2337TIP3   OH228645   1.263   2.641   8.147 -0.4297  0.4306 -0.5791
 2337TIP3    H128646   1.316   2.586   8.090 -1.2119  0.1407 -1.0385
 2337TIP3    H228647   1.248   2.721   8.097  1.7104  1.6283  0.5400
 2338TIP3   OH228648   3.582   4.826   3.376  0.4087 -0.0306  0.6163
 2338TIP3    H128649   3.638   4.794   3.447  1.0316  0.3319  0.3004
 2338TIP3    H228650   3.498   4.845   3.417  0.5670 -0.4275  1.1332
 2339TIP3   OH228651   6.248   0.764   0.839 -0.5395  0.5403  0.3114
 2339TIP3    H128652   6.153   0.772   0.830 -0.4502  0.4064 -0.9364
 2339TIP3    H228653   6.282   0.791   0.754  0.5995  1.4346  1.0092
 2340TIP3   OH228654   2.330   3.842   2.156  0.1758  0.3220 -0.5626
 2340TIP3    H128655   2.386   3.915   2.131 -0.2331  1.1456  0.7929
 2340TIP3    H228656   2.359   3.819   2.245 -2.0586  1.2743  0.4932
 2341TIP3   OH228657   4.613   4.483   0.615 -0.8238  0.3817 -0.2123
 2341TIP3    H128658   4.563   4.562   0.597  0.3533  1.1439 -0.2768
 2341TIP3    H228659   4.697   4.515   0.648  0.6237 -0.7241 -2.5722
 2342TIP3   OH228660   4.789   6.352   2.512  0.3416  0.0281  0.0774
 2342TIP3    H128661   4.794   6.269   2.464  0.1851  0.1408 -0.1358
 2342TIP3    H228662   4.794   6.326   2.604  0.9279 -0.1639 -0.0046
 2343TIP3   OH228663   6.433   5.127   0.941  0.1335  0.3281 -0.7619
 2343TIP3    H128664   6.371   5.161   0.876 -0.8879  1.0233  0.5381
 2343TIP3    H228665   6.452   5.202   0.997  1.0514 -0.2462 -0.2878
 2344TIP3   OH228666   5.946   6.703   2.889  0.0332  0.0650  0.2002
 2344TIP3    H128667   6.036   6.736   2.890 -0.6515  2.1576  2.2208
 2344TIP3    H228668   5.940   6.648   2.968 -0.4407 -0.1615  0.0105
 2345TIP3   OH228669   5.732   0.292   1.786 -0.2454  0.0440 -0.3227
 2345TIP3    H128670   5.782   0.346   1.725  0.9136 -0.6139  0.0115
 2345TIP3    H228671   5.725   0.207   1.743  0.7356 -0.4804  0.5012
 2346TIP3   OH228672   0.759   1.693   3.584  0.2919  0.6064  0.5348
 2346TIP3    H128673   0.756   1.771   3.639  1.2009  0.6052  0.6043
 2346TIP3    H228674   0.691   1.707   3.518  0.3779  1.4109  0.6090
 2347TIP3   OH228675   0.285   2.114   2.090  0.2011 -0.3730  0.1770
 2347TIP3    H128676   0.307   2.021   2.093 -1.3637 -0.7753 -0.2751
 2347TIP3    H228677   0.211   2.124   2.149 -0.7935  0.2403 -1.1277
 2348TIP3   OH228678   5.165   1.618   1.732 -0.3343  0.5793 -0.0108
 2348TIP3    H128679   5.139   1.612   1.641  0.5242 -0.0620 -0.2260
 2348TIP3    H228680   5.135   1.536   1.771 -0.6145  0.8100  0.2605
 2349TIP3   OH228681   1.464   1.108   8.644 -0.4649 -0.2251 -0.1209
 2349TIP3    H128682   1.549   1.139   8.674 -0.2783 -0.1750 -0.6948
 2349TIP3    H228683   1.416   1.089   8.725  1.2629 -3.5564  0.2954
 2350TIP3   OH228684   0.171   4.764   8.313  0.5915 -0.4264  0.2389
 2350TIP3    H128685   0.233   4.825   8.272 -0.2571 -0.0001 -0.4599
 2350TIP3    H228686   0.199   4.759   8.404  2.1396 -0.8900 -0.2292
 2351TIP3   OH228687   5.589   3.155   3.803  0.2278  0.2574 -0.1262
 2351TIP3    H128688   5.561   3.073   3.844 -2.0251  1.4024  0.7703
 2351TIP3    H228689   5.637   3.127   3.724 -0.3876 -1.9040  0.1971
 2352TIP3   OH228690   3.159   5.337   1.501 -0.1870 -0.2685  0.1308
 2352TIP3    H128691   3.220   5.263   1.497  0.9609  0.6362  0.3722
 2352TIP3    H228692   3.140   5.348   1.594  0.5724  0.4582  0.2108
 2353TIP3   OH228693   2.120   6.073   3.118 -0.2501  0.3962 -0.2781
 2353TIP3    H128694   2.096   6.015   3.046  1.5917 -0.4981 -0.2141
 2353TIP3    H228695   2.076   6.035   3.194  1.2822 -1.2736 -0.1486
 2354TIP3   OH228696   2.575   5.823   8.274  0.4295  0.3726 -0.1510
 2354TIP3    H128697   2.526   5.905   8.261  0.6543  0.6812  0.9146
 2354TIP3    H228698   2.598   5.795   8.185  0.0815  1.3006 -0.5435
 2355TIP3   OH228699   5.168   1.897   1.788  0.0716  0.1993  0.6470
 2355TIP3    H128700   5.159   1.804   1.770 -1.3648  0.8801 -3.0617
 2355TIP3    H228701   5.232   1.928   1.723 -1.6947  2.2256 -0.2446
 2356TIP3   OH228702   1.885   6.163   0.996 -0.0568 -0.3258  0.5185
 2356TIP3    H128703   1.890   6.068   0.981  0.0410 -0.6383  2.3681
 2356TIP3    H228704   1.972   6.195   0.974  0.2989 -0.8622  1.1222
 2357TIP3   OH228705   2.737   2.479   2.217 -0.5775 -0.3890 -0.1139
 2357TIP3    H128706   2.705   2.561   2.179  1.8962  0.8470  0.2975
 2357TIP3    H228707   2.791   2.506   2.291  1.8242 -2.2533 -1.0518
 2358TIP3   OH228708   2.346   4.408   2.852  0.3785 -0.2838 -0.6114
 2358TIP3    H128709   2.331   4.351   2.928 -0.4869  0.7158 -0.0080
 2358TIP3    H228710   2.343   4.496   2.888 -3.1822  0.4138 -2.2453
 2359TIP3   OH228711   1.289   3.321   3.152  0.2703  0.2106 -0.2914
 2359TIP3    H128712   1.263   3.347   3.240  2.2291  1.2149  0.0450
 2359TIP3    H228713   1.273   3.227   3.149  0.4336  0.1156  1.2380
 2360TIP3   OH228714   1.834   3.457   1.662  0.3065  0.1291  0.7409
 2360TIP3    H128715   1.860   3.429   1.574  0.7617  0.9598  0.6008
 2360TIP3    H228716   1.871   3.390   1.720 -1.7036 -1.5550  0.2075
 2361TIP3   OH228717   2.942   6.225   0.214 -0.0911 -0.2080  0.5080
 2361TIP3    H128718   3.010   6.271   0.263  0.3822 -1.6223  1.2178
 2361TIP3    H228719   2.976   6.137   0.202 -0.7427 -0.2525 -1.3146
 2362TIP3   OH228720   3.016   3.464   1.357  0.4064 -0.2320 -0.5397
 2362TIP3    H128721   2.957   3.408   1.407 -2.1748  1.1707 -1.8198
 2362TIP3    H228722   3.089   3.407   1.334 -0.8228 -2.3110  0.3994
 2363TIP3   OH228723   2.424   3.550   2.521 -0.4383 -0.1100 -0.0734
 2363TIP3    H128724   2.350   3.568   2.579  0.3688 -0.8344  1.2366
 2363TIP3    H228725   2.493   3.519   2.580  0.6175 -0.2868 -1.3664
 2364TIP3   OH228726   4.079   0.705   0.569  0.3634  0.0634 -0.5371
 2364TIP3    H128727   3.992   0.676   0.596  0.5181  0.0181 -0.0771
 2364TIP3    H228728   4.094   0.662   0.485  0.8648 -1.7339  0.4208
 2365TIP3   OH228729   3.464   5.364   1.459  0.3114  0.0356 -0.0870
 2365TIP3    H128730   3.430   5.275   1.473 -0.6685  0.2418 -1.0113
 2365TIP3    H228731   3.393   5.410   1.413  1.4111  0.8235 -1.0626
 2366TIP3   OH228732   6.575   2.783   1.903 -0.0840 -0.0343  0.1855
 2366TIP3    H128733   6.632   2.722   1.855 -2.0415  0.2685 -2.8282
 2366TIP3    H228734   6.487   2.760   1.873 -1.3336  1.2187  2.6483
 2367TIP3   OH228735   0.240   2.376   3.446  0.1822 -0.3708  0.2432
 2367TIP3    H128736   0.273   2.353   3.533 -0.4113 -0.4832  0.4400
 2367TIP3    H228737   0.190   2.457   3.460  0.6959  0.0131 -0.1221
 2368TIP3   OH228738   6.763   5.889   3.346  0.2991 -0.1103  0.5595
 2368TIP3    H128739   6.733   5.806   3.311 -0.2106 -0.9299  2.7378
 2368TIP3    H228740   6.840   5.867   3.399  0.6696  0.9292  0.4849
 2369TIP3   OH228741   3.639   0.828   3.186 -0.2867 -0.2281  0.0524
 2369TIP3    H128742   3.656   0.911   3.231 -0.7761 -0.2780  0.3354
 2369TIP3    H228743   3.588   0.777   3.248  0.8461 -1.1328  0.2563
 2370TIP3   OH228744   2.685   6.303   2.823 -0.5503  0.3747 -0.0312
 2370TIP3    H128745   2.671   6.354   2.743  3.2945 -0.6558 -1.6308
 2370TIP3    H228746   2.651   6.216   2.802 -1.5001  0.6546  0.3168
 2371TIP3   OH228747   4.364   6.224   2.426  0.3691  0.5118 -0.7428
 2371TIP3    H128748   4.455   6.196   2.435  0.5223  1.1360 -0.2852
 2371TIP3    H228749   4.322   6.151   2.380  1.1645  0.3594 -1.2605
 2372TIP3   OH228750   2.724   3.404   0.749 -0.5938  0.2332 -0.1846
 2372TIP3    H128751   2.671   3.332   0.714 -0.6037 -0.1490  0.6113
 2372TIP3    H228752   2.720   3.471   0.680 -0.7214 -0.4518 -0.8602
 2373TIP3   OH228753   1.525   5.897   7.558  0.2379 -0.0359 -0.5343
 2373TIP3    H128754   1.564   5.901   7.471  1.0620  1.6993 -0.1365
 2373TIP3    H228755   1.519   5.989   7.586 -2.7855 -0.3030  0.0442
 2374TIP3   OH228756   3.204   2.189   1.968 -0.3398  0.2018  0.0946
 2374TIP3    H128757   3.149   2.256   2.008  0.0804  0.8830 -0.4391
 2374TIP3    H228758   3.201   2.209   1.874  0.5115  0.0206  0.0214
 2375TIP3   OH228759   4.892   3.043   0.446  0.2699  0.4418  1.0374
 2375TIP3    H128760   4.946   3.116   0.414 -1.5973  0.3307 -2.9632
 2375TIP3    H228761   4.939   2.965   0.420  0.1188  0.2846  1.2325
 2376TIP3   OH228762   5.069   4.335   7.785  0.5626  0.0196  0.2262
 2376TIP3    H128763   5.149   4.340   7.734 -0.9577  0.0397 -2.3306
 2376TIP3    H228764   5.054   4.242   7.799  0.7262 -0.0056  0.2314
 2377TIP3   OH228765   3.899   3.843   2.066 -0.3237 -0.2299 -0.4030
 2377TIP3    H128766   3.944   3.927   2.071 -0.8878  0.0332  0.4000
 2377TIP3    H228767   3.963   3.779   2.098  0.0946 -0.1189 -0.9903
 2378TIP3   OH228768   6.656   4.506   2.705  0.1489  0.1359  0.3669
 2378TIP3    H128769   6.730   4.540   2.655 -1.0091  1.1375 -0.7356
 2378TIP3    H228770   6.678   4.415   2.722  1.7227  0.4737  0.2508
 2379TIP3   OH228771   1.157   4.117   0.777 -0.3545 -0.3368 -0.1399
 2379TIP3    H128772   1.190   4.200   0.812 -1.6436  0.2592 -0.2591
 2379TIP3    H228773   1.118   4.141   0.693  0.0359 -1.2333 -0.5893
 2380TIP3   OH228774   0.855   4.151   3.681 -0.2107  0.0562  0.1393
 2380TIP3    H128775   0.933   4.153   3.626 -0.6868 -0.3338 -0.5620
 2380TIP3    H228776   0.799   4.220   3.645  0.1039  0.8224  1.0914
 2381TIP3   OH228777   1.915   4.088   2.205  0.2960 -0.0405  0.6233
 2381TIP3    H128778   1.918   4.126   2.117 -2.1788 -0.8506  0.0936
 2381TIP3    H228779   2.003   4.053   2.219  0.5308 -0.6769 -1.9188
 2382TIP3   OH228780   3.336   4.464   2.367 -0.3328  0.1832  0.2675
 2382TIP3    H128781   3.250   4.502   2.351  0.1783  0.9804 -0.7250
 2382TIP3    H228782   3.326   4.415   2.449 -2.2149 -1.2926 -0.7617
 2383TIP3   OH228783   4.931   1.636   0.557 -0.2431  0.0268 -0.3354
 2383TIP3    H128784   4.967   1.678   0.635  1.2781 -0.1065 -0.9308
 2383TIP3    H228785   4.917   1.707   0.495  0.6398 -0.1021 -0.7035
 2384TIP3   OH228786   2.315   4.532   3.571  0.6683 -0.1318 -0.6229
 2384TIP3    H128787   2.281   4.606   3.622  1.0463 -0.6496  0.4127
 2384TIP3    H228788   2.237   4.482   3.546  0.4982 -0.1387 -0.1086
 2385TIP3   OH228789   3.586   2.921   2.512  0.5424 -0.2700  0.2152
 2385TIP3    H128790   3.535   2.941   2.433  0.2395  1.3253  0.7632
 2385TIP3    H228791   3.677   2.923   2.483  0.3904 -2.1911 -0.5754
 2386TIP3   OH228792   2.702   1.848   0.032  0.0472 -0.0989  0.4176
 2386TIP3    H128793   2.683   1.870   0.123 -0.1269  0.3318  0.2791
 2386TIP3    H228794   2.764   1.775   0.038  0.1941  0.0569  0.8814
 2387TIP3   OH228795   0.570   1.787   7.626 -0.2019  0.0723  0.4185
 2387TIP3    H128796   0.543   1.768   7.716 -0.2262 -2.8206 -0.1166
 2387TIP3    H228797   0.488   1.803   7.579 -0.2855  0.2586  0.6254
 2388TIP3   OH228798   1.463   3.983   7.971  0.0348  0.3807 -0.0696
 2388TIP3    H128799   1.417   3.963   8.052  3.0043 -1.6350  1.2830
 2388TIP3    H228800   1.400   3.962   7.902 -2.4399  1.7867  1.6141
 2389TIP3   OH228801   3.916   6.506   0.935 -0.4311 -0.5821  0.2162
 2389TIP3    H128802   4.008   6.530   0.930 -0.2815 -1.3236 -1.1210
 2389TIP3    H228803   3.916   6.412   0.951 -0.8947 -0.8995 -1.3714
 2390TIP3   OH228804   4.965   6.012   1.672  0.0435  0.4922 -0.0808
 2390TIP3    H128805   4.877   6.038   1.700  0.0888  0.3092  0.2316
 2390TIP3    H228806   4.962   6.017   1.576 -0.1307  1.0659 -0.0515
 2391TIP3   OH228807   1.329   2.379   1.439  0.0407  0.2178  0.2528
 2391TIP3    H128808   1.371   2.324   1.373  0.0125  0.6128 -0.1030
 2391TIP3    H228809   1.235   2.371   1.421  0.1030  1.8756 -1.0507
 2392TIP3   OH228810   0.230   3.562   3.629 -0.5475 -0.2417  0.0506
 2392TIP3    H128811   0.296   3.548   3.562 -0.0817 -0.6339  0.5839
 2392TIP3    H228812   0.264   3.633   3.683 -0.0740 -1.1056  0.9183
 2393TIP3   OH228813   2.008   5.918   3.638  0.1378 -0.0617 -0.5080
 2393TIP3    H128814   1.953   5.997   3.632  1.4832  0.8046 -2.1850
 2393TIP3    H228815   2.055   5.929   3.721 -0.7016  0.2123 -0.0614
 2394TIP3   OH228816   1.930   5.636   3.096  0.1778  0.0739  0.1091
 2394TIP3    H128817   1.903   5.660   3.185  0.6894 -1.3183  0.6744
 2394TIP3    H228818   1.849   5.609   3.053  0.0503 -0.0325  0.4145
 2395TIP3   OH228819   5.942   0.716   2.917 -0.5521  0.0503 -0.1395
 2395TIP3    H128820   6.033   0.719   2.946 -1.0895  0.4652  1.6170
 2395TIP3    H228821   5.915   0.626   2.936 -0.2508 -0.3825 -1.6124
 2396TIP3   OH228822   2.188   3.769   3.063 -0.3607 -0.3637 -0.4521
 2396TIP3    H128823   2.172   3.860   3.039 -0.6414 -0.0989  0.6919
 2396TIP3    H228824   2.123   3.719   3.012 -1.0215  0.1891 -0.1691
 2397TIP3   OH228825   4.022   0.051   8.441  0.0165  0.2054  0.0086
 2397TIP3    H128826   4.075   0.001   8.379  1.2367  0.3334  0.9165
 2397TIP3    H228827   3.969   0.109   8.386 -0.2276 -0.9221 -0.9784
 2398TIP3   OH228828   6.695   0.705   1.823  0.5704  0.0459 -0.3770
 2398TIP3    H128829   6.628   0.700   1.891 -0.5481  0.9101 -1.3538
 2398TIP3    H228830   6.687   0.794   1.788  1.5722 -0.1553 -1.1726
 2399TIP3   OH228831   1.950   5.106   0.427 -0.8985 -0.1022 -0.1182
 2399TIP3    H128832   1.951   5.178   0.489  0.7067  0.4052 -0.6754
 2399TIP3    H228833   1.993   5.034   0.473  0.6920  0.4099 -0.7530
 2400TIP3   OH228834   2.421   0.525   8.481 -0.0314 -0.1311  0.0786
 2400TIP3    H128835   2.443   0.469   8.406 -1.3486  0.9553 -1.1864
 2400TIP3    H228836   2.332   0.499   8.505 -0.7378  1.4613 -0.6454
 2401TIP3   OH228837   5.822   5.558   2.136 -0.1659  0.1009 -0.3098
 2401TIP3    H128838   5.787   5.471   2.117 -0.6080  0.1676  0.1715
 2401TIP3    H228839   5.747   5.617   2.124  0.1989  0.4493 -0.9096
 2402TIP3   OH228840   0.718   2.232   2.381  0.0660 -0.4109  0.2119
 2402TIP3    H128841   0.629   2.232   2.346 -0.8508 -0.0863  2.4017
 2402TIP3    H228842   0.735   2.323   2.402  0.5568 -0.6030  0.6625
 2403TIP3   OH228843   5.036   1.695   8.524 -0.1686 -0.3394 -0.5477
 2403TIP3    H128844   4.954   1.719   8.480 -1.0967 -2.2921  0.0061
 2403TIP3    H228845   5.084   1.643   8.460 -1.6164 -3.3686  0.6267
 2404TIP3   OH228846   0.024   0.974   0.806  0.1237 -0.0973 -0.0274
 2404TIP3    H128847   0.118   0.958   0.798  0.1468 -1.1451  1.8430
 2404TIP3    H228848  -0.017   0.903   0.758  0.2923 -0.4216  0.3048
 2405TIP3   OH228849   3.868   3.822   2.457 -0.3309  0.4096 -0.1291
 2405TIP3    H128850   3.961   3.801   2.461 -0.3003 -0.2669 -2.6499
 2405TIP3    H228851   3.864   3.908   2.416 -0.8135  0.3066 -0.3080
 2406TIP3   OH228852   4.608   6.543   0.300  0.2338 -0.7142  0.4126
 2406TIP3    H128853   4.594   6.520   0.208  0.4356  0.0338  0.1909
 2406TIP3    H228854   4.599   6.460   0.347 -0.7268 -0.9563 -0.1784
 2407TIP3   OH228855   1.081   6.193   3.530  0.1966  0.1655 -0.6848
 2407TIP3    H128856   1.025   6.117   3.516  0.8580 -0.3569 -0.5701
 2407TIP3    H228857   1.047   6.234   3.610 -0.7109  0.5019 -1.2410
 2408TIP3   OH228858   0.713   1.343   8.154 -0.0949  0.2632  0.5698
 2408TIP3    H128859   0.701   1.438   8.147  0.2575  0.3702  1.3177
 2408TIP3    H228860   0.641   1.314   8.210 -0.2443  0.0787  0.2824
 2409TIP3   OH228861   1.325   5.744   8.217  0.4177  0.0868  0.0285
 2409TIP3    H128862   1.411   5.704   8.227  0.8482  0.9266 -0.2453
 2409TIP3    H228863   1.297   5.719   8.129 -0.9122 -2.5959  1.1007
 2410TIP3   OH228864   1.122   0.846   0.754  0.2805 -0.0853  0.6145
 2410TIP3    H128865   1.071   0.773   0.789  0.2230 -0.3470 -0.0039
 2410TIP3    H228866   1.067   0.883   0.685  0.7054 -0.0502  0.2877
 2411TIP3   OH228867   4.365   4.547   2.422  0.3302 -0.1741  0.3894
 2411TIP3    H128868   4.448   4.503   2.406 -0.4373 -1.2977 -0.6691
 2411TIP3    H228869   4.350   4.600   2.344 -0.0314 -0.1206  0.4930
 2412TIP3   OH228870   3.748   1.965   0.228  0.1873 -0.1806 -0.1073
 2412TIP3    H128871   3.681   1.920   0.281 -0.2245 -0.1988 -0.6360
 2412TIP3    H228872   3.823   1.907   0.230  0.2644 -0.0724  0.6573
 2413TIP3   OH228873   3.505   5.178   7.808  0.0372  0.1425 -0.3654
 2413TIP3    H128874   3.528   5.259   7.854 -1.1230  1.1444 -1.4823
 2413TIP3    H228875   3.413   5.163   7.830  0.4348 -1.3417  0.4617
 2414TIP3   OH228876   3.699   0.993   1.970  0.1085  0.2843 -0.2470
 2414TIP3    H128877   3.710   1.082   2.002  0.2303  0.0727  0.3067
 2414TIP3    H228878   3.781   0.973   1.925  0.0136  0.5143 -0.5209
 2415TIP3   OH228879   3.827   5.574   0.437  0.3663 -0.4233  0.0464
 2415TIP3    H128880   3.832   5.634   0.362 -1.5069 -1.0431 -0.6259
 2415TIP3    H228881   3.737   5.582   0.468  0.1879 -2.5249  0.2253
 2416TIP3   OH228882   5.224   0.781   8.153 -0.4144  0.4344  0.4979
 2416TIP3    H128883   5.202   0.749   8.065 -1.4761  0.5471  0.7070
 2416TIP3    H228884   5.241   0.702   8.203  0.8545  0.3931  0.0447
 2417TIP3   OH228885   3.509   6.715   2.740  0.3000 -0.4248 -0.7280
 2417TIP3    H128886   3.472   6.720   2.828 -0.8507 -2.9297 -0.9923
 2417TIP3    H228887   3.434   6.720   2.681  0.9841  0.3787 -1.5790
 2418TIP3   OH228888   3.938   2.270   3.185 -0.3942 -0.5707 -0.4084
 2418TIP3    H128889   3.993   2.193   3.170  2.5927  1.7466 -2.4264
 2418TIP3    H228890   3.866   2.260   3.124  0.7249 -1.1222 -1.6792
 2419TIP3   OH228891   0.482   2.551   1.215 -0.3466  0.2533 -0.0422
 2419TIP3    H128892   0.534   2.629   1.233  0.4245 -0.1741 -0.3613
 2419TIP3    H228893   0.481   2.503   1.298 -1.3953  0.9250  0.3423
 2420TIP3   OH228894   2.379   4.396   1.405 -0.0276  0.1147  0.5669
 2420TIP3    H128895   2.425   4.320   1.370  1.2249  1.2840 -0.4357
 2420TIP3    H228896   2.436   4.431   1.473  0.0511  0.8795  0.1330
 2421TIP3   OH228897   1.671   1.238   1.758 -0.9337  0.2621  0.2254
 2421TIP3    H128898   1.668   1.161   1.815 -1.6117  0.3995  0.3820
 2421TIP3    H228899   1.746   1.288   1.791 -0.3625 -0.4132 -0.0018
 2422TIP3   OH228900   3.214   5.606   8.344 -0.6428  0.0807  0.1169
 2422TIP3    H128901   3.190   5.689   8.387 -1.2271  0.6832 -1.2980
 2422TIP3    H228902   3.220   5.629   8.252  0.0884 -1.2870 -0.1897
 2423TIP3   OH228903   0.499   1.441   8.468 -0.6431  0.1584  0.2281
 2423TIP3    H128904   0.550   1.394   8.534  0.7062 -0.8138 -1.4105
 2423TIP3    H228905   0.495   1.380   8.394 -3.0803  0.7605 -0.2020
 2424TIP3   OH228906   4.864   0.803   1.080 -0.2218 -0.2977 -0.5613
 2424TIP3    H128907   4.843   0.828   1.170  2.2716  0.0323 -0.0058
 2424TIP3    H228908   4.801   0.851   1.026 -2.8563 -1.7787  1.0096
 2425TIP3   OH228909   0.970   3.512   2.085  0.1992 -0.1651 -0.2193
 2425TIP3    H128910   1.028   3.490   2.158  3.3542  0.3886 -2.3684
 2425TIP3    H228911   0.915   3.583   2.119  0.8953 -0.5571  1.8774
 2426TIP3   OH228912   2.827   0.643   0.698 -0.2323 -0.1285 -0.1726
 2426TIP3    H128913   2.799   0.693   0.622 -0.4666 -2.3322 -1.6486
 2426TIP3    H228914   2.745   0.616   0.740 -0.1381 -0.1262  0.0123
 2427TIP3   OH228915   2.003   1.748   3.397 -0.0150  0.6160 -0.2862
 2427TIP3    H128916   2.081   1.758   3.343 -0.2602  1.3604 -0.5175
 2427TIP3    H228917   2.001   1.827   3.451  1.0429 -0.7841  1.9103
 2428TIP3   OH228918   0.136   6.332   8.730  0.2632  0.2930 -0.0334
 2428TIP3    H128919   0.137   6.424   8.704  0.1625  0.4249  0.4140
 2428TIP3    H228920   0.088   6.287   8.660 -0.2061  0.6744  0.0425
 2429TIP3   OH228921   1.206   4.569   3.938 -0.0289  0.1976  0.0253
 2429TIP3    H128922   1.124   4.557   3.986  0.3842 -2.1358  0.2648
 2429TIP3    H228923   1.206   4.661   3.913 -1.6364  0.7988  1.9882
 2430TIP3   OH228924   2.571   4.093   2.884 -0.1015  0.5976  0.3755
 2430TIP3    H128925   2.551   4.021   2.944  1.2570  0.7521  1.0687
 2430TIP3    H228926   2.667   4.102   2.890 -0.0350  1.1651 -1.1988
 2431TIP3   OH228927   1.726   1.892   3.270 -0.5240 -0.3703 -0.0704
 2431TIP3    H128928   1.809   1.924   3.235  0.3653 -2.1498  0.2643
 2431TIP3    H228929   1.705   1.951   3.343  0.5528 -0.0089 -0.0422
 2432TIP3   OH228930   6.702   1.043   0.530  0.0415  0.7904  0.1888
 2432TIP3    H128931   6.626   0.989   0.551 -0.3654  0.9078 -0.9042
 2432TIP3    H228932   6.769   0.979   0.503 -0.7695  0.8160 -2.1212
 2433TIP3   OH228933   4.351   5.258   2.855 -0.8194 -0.1290  0.2729
 2433TIP3    H128934   4.432   5.224   2.893 -1.0077  0.2180  1.0036
 2433TIP3    H228935   4.285   5.190   2.874 -0.7312 -0.3480 -0.1980
 2434TIP3   OH228936   0.588   2.297   1.081 -0.2114 -0.2699 -0.3912
 2434TIP3    H128937   0.679   2.304   1.107 -0.3587 -0.5467  0.2076
 2434TIP3    H228938   0.555   2.387   1.084  0.0058 -0.1853 -0.4944
 2435TIP3   OH228939   0.728   1.075   0.457 -0.0428 -0.5294 -0.0667
 2435TIP3    H128940   0.655   1.135   0.472  1.5597  1.4554  0.1945
 2435TIP3    H228941   0.694   1.012   0.393 -1.7534  0.7760 -0.5215
 2436TIP3   OH228942   6.259   5.422   1.595 -0.6520  0.1317  0.4007
 2436TIP3    H128943   6.327   5.470   1.642 -0.8891  1.2669 -0.3625
 2436TIP3    H228944   6.199   5.490   1.564 -1.3250 -0.7172 -0.2095
 2437TIP3   OH228945   2.451   0.982   2.427  0.6079  0.3586 -0.2645
 2437TIP3    H128946   2.500   0.942   2.356 -0.6825  1.1351 -1.6478
 2437TIP3    H228947   2.467   1.076   2.418 -0.4932  0.5651 -0.2926
 2438TIP3   OH228948   6.180   5.629   0.340 -0.6213 -0.2491 -0.9162
 2438TIP3    H128949   6.125   5.670   0.273 -0.5331  0.6076 -0.4785
 2438TIP3    H228950   6.156   5.537   0.338 -0.6534 -0.2273 -2.0946
 2439TIP3   OH228951   1.573   4.375   1.416 -0.0296 -0.2229 -0.6883
 2439TIP3    H128952   1.482   4.367   1.447 -0.7330  0.3990 -2.4654
 2439TIP3    H228953   1.626   4.345   1.490 -1.6602 -0.2061  0.5488
 2440TIP3   OH228954   6.837   3.787   8.733 -0.3374  0.0819 -0.0824
 2440TIP3    H128955   6.818   3.814   8.644 -1.0235  1.3010  0.4079
 2440TIP3    H228956   6.869   3.867   8.776  2.8621 -1.1173  0.0107
 2441TIP3   OH228957   0.281   3.257   0.715 -0.2927 -0.2651  0.0783
 2441TIP3    H128958   0.363   3.271   0.762  0.1141  1.6292 -1.1265
 2441TIP3    H228959   0.236   3.342   0.718 -0.2159 -0.0212 -2.9609
 2442TIP3   OH228960   0.381   5.408   2.001  0.5431 -0.4849  0.7000
 2442TIP3    H128961   0.351   5.331   1.953 -1.0770  0.8848 -0.6025
 2442TIP3    H228962   0.303   5.463   2.009  1.5650  0.8576  1.9566
 2443TIP3   OH228963   0.535   0.341   8.618 -0.1018 -0.0990 -0.3089
 2443TIP3    H128964   0.605   0.299   8.567  0.3909  0.5584 -0.1993
 2443TIP3    H228965   0.460   0.283   8.610  0.8899 -1.5957  0.8135
 2444TIP3   OH228966   5.718   3.041   1.454 -0.1069  0.3785 -0.2694
 2444TIP3    H128967   5.700   3.012   1.543  0.5008 -0.0175 -0.2730
 2444TIP3    H228968   5.640   3.090   1.428 -1.5314 -1.9305 -0.5764
 2445TIP3   OH228969   6.385   3.256   3.592  0.7343  0.3535 -0.0259
 2445TIP3    H128970   6.395   3.347   3.565  1.0747 -0.0976 -1.4661
 2445TIP3    H228971   6.414   3.204   3.517 -0.7156 -0.9600  0.2645
 2446TIP3   OH228972   3.003   1.676   2.485 -0.7627 -0.0028 -0.1458
 2446TIP3    H128973   2.931   1.616   2.504  1.0572 -1.2765  3.7974
 2446TIP3    H228974   3.065   1.624   2.434 -1.5940  0.4030 -1.6221
 2447TIP3   OH228975   0.597   0.380   1.563  0.6768 -0.5112 -0.4432
 2447TIP3    H128976   0.547   0.314   1.611  2.5125 -0.4996  1.6712
 2447TIP3    H228977   0.661   0.330   1.513  1.0245 -0.3935 -0.1172
 2448TIP3   OH228978   4.191   0.100   2.008 -0.0455 -0.2462 -0.3422
 2448TIP3    H128979   4.239   0.025   1.972 -1.1585 -2.5833  2.5932
 2448TIP3    H228980   4.220   0.105   2.099 -0.6000  2.4670 -0.2518
 2449TIP3   OH228981   6.366   0.428   2.441 -0.4868  0.5579 -0.3411
 2449TIP3    H128982   6.426   0.467   2.377 -1.3067  1.0929 -0.7980
 2449TIP3    H228983   6.416   0.355   2.479 -0.3282 -0.3952 -2.2809
 2450TIP3   OH228984   0.157   5.324   0.156 -0.0625  0.1563  0.1277
 2450TIP3    H128985   0.252   5.317   0.157  0.0506  1.3444  1.9477
 2450TIP3    H228986   0.134   5.359   0.242 -2.2087 -0.7189 -0.0226
 2451TIP3   OH228987   6.070   0.600   8.610  1.0252 -0.5435 -0.5634
 2451TIP3    H128988   6.062   0.631   8.519  1.7239  0.7124 -0.2144
 2451TIP3    H228989   6.049   0.677   8.663  0.2945 -1.3576  0.3578
 2452TIP3   OH228990   4.361   0.712   0.288 -0.2387 -0.6178  0.3565
 2452TIP3    H128991   4.453   0.684   0.296 -0.3361 -0.9795  0.2401
 2452TIP3    H228992   4.311   0.630   0.287 -0.4923 -0.4686 -0.5079
 2453TIP3   OH228993   0.931   5.372   0.243  0.7171 -1.1181 -0.5643
 2453TIP3    H128994   0.867   5.401   0.179 -1.3202 -0.4829  1.6217
 2453TIP3    H228995   0.948   5.449   0.297  0.7803 -2.1354  0.9264
 2454TIP3   OH228996   1.846   4.990   0.771  0.0233 -0.4899 -0.0403
 2454TIP3    H128997   1.884   4.955   0.691 -3.3958 -2.7131 -0.9172
 2454TIP3    H228998   1.814   4.912   0.817 -1.5153  1.0316  1.5830
 2455TIP3   OH228999   1.400   1.961   8.271  0.2731  0.7554  0.4993
 2455TIP3    H129000   1.402   1.999   8.183 -1.2797  1.3436  0.6928
 2455TIP3    H229001   1.420   1.869   8.258  1.3938  1.0912 -0.3044
 2456TIP3   OH229002   4.027   4.112   2.085 -0.0745 -0.2930 -0.4320
 2456TIP3    H129003   3.969   4.188   2.090 -0.5409 -0.5381 -1.7604
 2456TIP3    H229004   4.113   4.146   2.109 -0.8429 -0.0930  2.3737
 2457TIP3   OH229005   0.893   2.626   7.914 -0.5694  0.0535 -0.1908
 2457TIP3    H129006   0.951   2.577   7.972  0.2304  0.5749 -0.5366
 2457TIP3    H229007   0.943   2.635   7.833 -0.3393  2.2050  0.1464
 2458TIP3   OH229008   1.552   5.239   0.602  0.1466  0.1373 -0.9727
 2458TIP3    H129009   1.489   5.302   0.568  2.3433  2.1138 -1.6606
 2458TIP3    H229010   1.576   5.186   0.525 -0.3041 -0.3176 -0.8083
 2459TIP3   OH229011   0.329   4.121   2.151  0.2199 -0.1985  0.6530
 2459TIP3    H129012   0.243   4.160   2.166 -1.1804 -2.3113 -1.2200
 2459TIP3    H229013   0.353   4.083   2.236 -0.2011  1.2682  1.4504
 2460TIP3   OH229014   5.179   4.121   1.301  0.0131 -0.0620 -0.6679
 2460TIP3    H129015   5.225   4.168   1.232 -1.0093  1.2937 -0.4765
 2460TIP3    H229016   5.116   4.065   1.255 -1.3536  1.5679 -0.8676
 2461TIP3   OH229017   3.734   4.699   0.788 -0.4333  0.2317 -0.3557
 2461TIP3    H129018   3.753   4.640   0.860 -0.8123  0.5038 -0.0275
 2461TIP3    H229019   3.680   4.648   0.728 -0.7703  0.2527 -0.0673
 2462TIP3   OH229020   5.696   1.009   2.650  0.1348  0.1629 -0.7283
 2462TIP3    H129021   5.747   0.958   2.588 -0.6445 -1.0516 -0.4183
 2462TIP3    H229022   5.631   1.055   2.596 -1.4706 -1.9926 -0.7853
 2463TIP3   OH229023   2.511   3.824   2.404  0.1219  0.1277 -0.5337
 2463TIP3    H129024   2.481   3.821   2.496 -0.9198 -0.8710 -0.8815
 2463TIP3    H229025   2.561   3.906   2.398 -1.2777  1.1095  0.4955
 2464TIP3   OH229026   3.749   1.718   0.963  0.2269  0.8290 -0.3169
 2464TIP3    H129027   3.719   1.642   0.914 -0.0782  0.5168  0.3416
 2464TIP3    H229028   3.832   1.691   1.002  0.2317  0.9153 -0.2660
 2465TIP3   OH229029   6.238   6.696   2.816 -0.2892 -0.2348 -0.4668
 2465TIP3    H129030   6.206   6.608   2.794  1.8415 -1.6417  1.6241
 2465TIP3    H229031   6.305   6.714   2.751  1.2005 -1.4206  0.6728
 2466TIP3   OH229032   5.674   2.229   1.857 -0.5041 -0.0080 -0.5155
 2466TIP3    H129033   5.753   2.248   1.806  0.7501 -1.1941  0.8640
 2466TIP3    H229034   5.602   2.265   1.805  0.9316  1.1154 -1.8318
 2467TIP3   OH229035   1.211   3.866   2.982 -0.0531 -0.2869 -0.1176
 2467TIP3    H129036   1.215   3.788   2.926  1.4257  0.9504 -1.8603
 2467TIP3    H229037   1.134   3.853   3.036  0.5138 -3.2684  0.1403
 2468TIP3   OH229038   1.578   2.904   2.124 -0.6050  0.4909  0.4474
 2468TIP3    H129039   1.517   2.848   2.077 -2.5862  0.8200  2.4546
 2468TIP3    H229040   1.647   2.845   2.154 -1.1987 -0.3493  0.1863
 2469TIP3   OH229041   2.146   5.100   2.977 -0.0113  0.0091 -0.3736
 2469TIP3    H129042   2.223   5.065   2.933  1.2001  1.7173  0.3090
 2469TIP3    H229043   2.123   5.034   3.041  1.8490  0.1333  0.4780
 2470TIP3   OH229044   3.479   4.539   1.650 -0.3721  0.5539  0.3315
 2470TIP3    H129045   3.484   4.633   1.671 -1.1520  0.5362  0.6662
 2470TIP3    H229046   3.409   4.506   1.706  0.4171 -0.4006  0.7821
 2471TIP3   OH229047   0.016   3.543   0.065 -0.2003 -0.0576  0.3547
 2471TIP3    H129048   0.017   3.630   0.025  0.7175  0.4466  1.3949
 2471TIP3    H229049   0.055   3.557   0.152  2.1179 -1.8693 -0.2911
 2472TIP3   OH229050   4.780   1.153   1.662 -0.0625  0.4436  0.1518
 2472TIP3    H129051   4.783   1.164   1.567  0.6274  1.2078  0.2486
 2472TIP3    H229052   4.688   1.135   1.682 -0.0471 -0.7331 -0.7554
 2473TIP3   OH229053   6.520   5.221   3.437  0.3568 -0.0289 -0.4746
 2473TIP3    H129054   6.532   5.212   3.532 -1.0169  1.2576 -0.1382
 2473TIP3    H229055   6.484   5.137   3.409  0.9505 -0.4843  0.1028
 2474TIP3   OH229056   5.414   4.850   2.004 -0.4705  0.3363  0.1291
 2474TIP3    H129057   5.429   4.883   1.915  2.1634  1.9180  1.0529
 2474TIP3    H229058   5.440   4.758   1.999 -1.2319  0.1549 -0.9151
 2475TIP3   OH229059   4.465   3.274   0.562  0.2384 -0.4100  0.0665
 2475TIP3    H129060   4.386   3.268   0.508  0.2988 -0.6451  0.0048
 2475TIP3    H229061   4.500   3.362   0.544 -1.1860  0.5574  1.7214
 2476TIP3   OH229062   5.858   5.138   7.694 -0.6657 -0.5131  0.1681
 2476TIP3    H129063   5.803   5.077   7.743 -1.3670 -0.5864 -0.6800
 2476TIP3    H229064   5.818   5.142   7.607  1.1814 -1.2679 -0.7712
 2477TIP3   OH229065   1.008   6.721   0.790 -0.2496  0.0461 -0.0871
 2477TIP3    H129066   0.978   6.662   0.721 -0.3043 -0.1161  0.0747
 2477TIP3    H229067   0.927   6.748   0.834 -0.1565 -0.4277  0.3813
 2478TIP3   OH229068   5.587   2.105   2.601  0.5793  0.3624 -0.3132
 2478TIP3    H129069   5.629   2.111   2.515 -2.0570  1.8480 -1.6206
 2478TIP3    H229070   5.550   2.017   2.604  3.8386 -1.1183  1.0236
 2479TIP3   OH229071   3.529   5.070   8.357  0.2196 -1.0856 -0.5027
 2479TIP3    H129072   3.598   5.131   8.330  0.8354 -1.8618 -0.7169
 2479TIP3    H229073   3.466   5.072   8.284  1.3612 -2.3914 -1.5666
 2480TIP3   OH229074   1.208   0.677   1.633 -0.0073  0.0083 -0.2129
 2480TIP3    H129075   1.146   0.748   1.651 -0.1764  0.0479 -0.8890
 2480TIP3    H229076   1.290   0.706   1.671  0.0356  0.7760 -0.8649
 2481TIP3   OH229077   3.805   5.694   3.508 -0.1950 -0.5598  0.0857
 2481TIP3    H129078   3.727   5.744   3.529 -0.8715 -1.9712  1.1569
 2481TIP3    H229079   3.871   5.760   3.487 -1.1273  0.7548  1.0801
 2482TIP3   OH229080   5.242   1.505   2.114 -0.1412 -0.0336  0.5958
 2482TIP3    H129081   5.314   1.536   2.060  0.9513 -0.6880  1.6111
 2482TIP3    H229082   5.169   1.563   2.095  0.3021 -0.0664 -1.3222
 2483TIP3   OH229083   6.005   3.785   0.946 -0.0675  0.5797 -0.3144
 2483TIP3    H129084   6.004   3.878   0.925 -0.8973 -0.0157 -3.3310
 2483TIP3    H229085   5.999   3.741   0.862  0.9268 -2.2554  0.9670
 2484TIP3   OH229086   5.864   3.173   1.230  0.2957 -0.1170  0.6179
 2484TIP3    H129087   5.810   3.133   1.298 -4.1317  2.3549 -1.0041
 2484TIP3    H229088   5.826   3.142   1.148  2.0294  1.0506 -0.7106
 2485TIP3   OH229089   4.268   0.917   0.421  0.5842  1.1137 -0.6220
 2485TIP3    H129090   4.306   0.852   0.362  0.3598  1.0405 -0.6867
 2485TIP3    H229091   4.175   0.921   0.396  0.8962  2.6270 -1.7107
 2486TIP3   OH229092   3.643   6.132   1.441 -0.0308 -0.2309  0.3901
 2486TIP3    H129093   3.660   6.185   1.363 -0.0950 -0.1419  0.4370
 2486TIP3    H229094   3.691   6.175   1.511  0.3669 -0.5474  0.3128
 2487TIP3   OH229095   5.278   1.537   0.957 -0.0641  0.3300  0.3076
 2487TIP3    H129096   5.202   1.593   0.968 -0.4003 -0.1672  0.5194
 2487TIP3    H229097   5.279   1.481   1.035  0.4453  0.2468  0.2480
 2488TIP3   OH229098   4.701   6.727   2.148 -0.0134  0.3244 -0.3679
 2488TIP3    H129099   4.776   6.758   2.198  1.8799 -2.2261 -1.4112
 2488TIP3    H229100   4.637   6.701   2.215  0.9738  0.3412  0.6058
 2489TIP3   OH229101   0.544   6.521   1.191 -0.4472  0.0373  0.0767
 2489TIP3    H129102   0.544   6.538   1.285  1.8930 -0.6583  0.2788
 2489TIP3    H229103   0.508   6.433   1.183 -2.4635  0.8223  0.0900
 2490TIP3   OH229104   3.658   1.516   0.133 -0.1006 -0.2357 -0.5794
 2490TIP3    H129105   3.679   1.559   0.216 -2.3764 -0.8336  0.3774
 2490TIP3    H229106   3.700   1.570   0.067  0.2605  1.3007  0.8426
 2491TIP3   OH229107   2.216   4.940   3.454  0.3048  0.0274  0.3289
 2491TIP3    H129108   2.189   4.896   3.534 -0.6524  1.7557  1.0069
 2491TIP3    H229109   2.180   5.028   3.461  3.7024  1.6215 -0.0417
 2492TIP3   OH229110   6.454   0.296   2.739  0.2137  0.7205 -0.1758
 2492TIP3    H129111   6.409   0.288   2.823 -0.9684  0.1781 -0.8308
 2492TIP3    H229112   6.505   0.216   2.730 -0.1761  0.4806 -0.2613
 2493TIP3   OH229113   1.146   3.506   2.285  0.4225 -0.0451  0.2230
 2493TIP3    H129114   1.099   3.496   2.368  0.5972  1.3227  0.5137
 2493TIP3    H229115   1.232   3.539   2.311  1.0032 -1.0323 -0.4134
 2494TIP3   OH229116   5.902   2.592   2.709 -0.3424  0.9073 -0.3406
 2494TIP3    H129117   5.933   2.675   2.674  0.9030  0.2246 -0.9226
 2494TIP3    H229118   5.982   2.540   2.722 -0.6773  1.0105  3.3125
 2495TIP3   OH229119   4.652   1.227   2.463  0.1886  0.1397  0.1111
 2495TIP3    H129120   4.708   1.262   2.532  1.7701 -1.3603 -0.3312
 2495TIP3    H229121   4.609   1.151   2.503 -0.8007  0.7012  0.1462
 2496TIP3   OH229122   2.388   2.154   1.923  0.3861  0.0222 -0.0044
 2496TIP3    H129123   2.438   2.091   1.872 -0.0082  0.6704 -1.2526
 2496TIP3    H229124   2.454   2.203   1.972  0.8359 -0.2225 -0.3554
 2497TIP3   OH229125   4.954   0.935   8.454 -0.2140 -0.3351  0.7101
 2497TIP3    H129126   4.866   0.964   8.428  0.1241 -0.1278 -0.2415
 2497TIP3    H229127   5.013   0.979   8.393  0.5965 -0.1389  1.6045
 2498TIP3   OH229128   5.204   6.069   1.248 -0.3134 -0.1259  0.5296
 2498TIP3    H129129   5.186   6.008   1.177 -0.2450  0.5128 -0.0433
 2498TIP3    H229130   5.259   6.137   1.208  1.0136 -0.5514  1.5541
 2499TIP3   OH229131   3.099   5.263   7.723  0.8070 -0.0648 -1.0393
 2499TIP3    H129132   3.035   5.206   7.679  2.0795 -1.8158 -0.7526
 2499TIP3    H229133   3.143   5.205   7.786  0.0563  1.9973  1.5497
 2500TIP3   OH229134   2.568   5.864   3.356  0.1915  0.0715 -0.1124
 2500TIP3    H129135   2.597   5.828   3.272  1.8394 -0.8715  0.8017
 2500TIP3    H229136   2.474   5.879   3.345  0.4404  0.3551 -2.2337
 2501TIP3   OH229137   0.580   6.793   0.379  0.2605 -0.3185  0.1154
 2501TIP3    H129138   0.606   6.884   0.391 -0.2110 -0.1093 -0.4141
 2501TIP3    H229139   0.527   6.793   0.299 -0.1472 -0.9786  0.3748
 2502TIP3   OH229140   3.943   1.495   3.318 -0.6554  0.2735 -0.1930
 2502TIP3    H129141   3.999   1.534   3.385  0.5745 -1.1046 -0.3580
 2502TIP3    H229142   3.855   1.524   3.340 -0.2272  0.1837  1.7770
 2503TIP3   OH229143   0.961   0.516   2.285 -0.0939 -0.0471 -1.0389
 2503TIP3    H129144   0.896   0.459   2.244 -0.8884  1.5201 -2.0339
 2503TIP3    H229145   0.913   0.595   2.307  0.9459  0.1872  0.5083
 2504TIP3   OH229146   1.969   5.079   1.023 -0.2595 -0.1148  0.6745
 2504TIP3    H129147   1.950   5.067   0.930  1.1051  1.0574  0.2011
 2504TIP3    H229148   1.899   5.032   1.068 -1.3107 -0.1755 -0.9312
 2505TIP3   OH229149   6.026   4.190   2.768 -0.1766  0.2991 -0.7078
 2505TIP3    H129150   6.064   4.125   2.709 -1.7610  0.4589 -1.9844
 2505TIP3    H229151   5.993   4.258   2.710 -2.7446 -0.0428  0.2319
 2506TIP3   OH229152   5.205   3.739   1.216 -0.0995  0.3845 -0.6670
 2506TIP3    H129153   5.110   3.744   1.228 -0.3118 -0.7846 -1.6025
 2506TIP3    H229154   5.221   3.789   1.135  0.1238  0.7986 -0.3698
 2507TIP3   OH229155   3.317   0.969   3.004 -0.4793  0.4939  0.0612
 2507TIP3    H129156   3.254   0.922   2.950 -0.4462  0.1167  0.3528
 2507TIP3    H229157   3.311   0.929   3.091 -1.1094  1.6288  0.5644
 2508TIP3   OH229158   1.830   2.357   2.464 -0.2253  0.0734 -0.1454
 2508TIP3    H129159   1.807   2.338   2.373 -1.1268  0.2185  0.0422
 2508TIP3    H229160   1.922   2.330   2.472 -0.1877 -0.0920 -1.0485
 2509TIP3   OH229161   1.761   2.309   8.528  0.0399 -0.3372 -0.2420
 2509TIP3    H129162   1.675   2.273   8.510 -0.1489  0.5806 -1.2119
 2509TIP3    H229163   1.775   2.375   8.460  0.2877  1.5738  1.5649
 2510TIP3   OH229164   4.659   5.927   1.554  0.2938 -0.2994 -0.8774
 2510TIP3    H129165   4.570   5.949   1.582  1.2543  1.9955  0.6535
 2510TIP3    H229166   4.687   5.858   1.613 -0.0233 -0.1267 -0.5229
 2511TIP3   OH229167   6.486   5.580   0.322  0.0695  0.0462  0.0024
 2511TIP3    H129168   6.446   5.598   0.238 -0.1852  0.4886  0.2139
 2511TIP3    H229169   6.413   5.556   0.379  0.4007 -1.7042 -0.2751
 2512TIP3   OH229170   5.070   4.985   8.560  0.2347  0.1915 -0.4662
 2512TIP3    H129171   5.022   5.057   8.519  0.8540  0.8228 -0.1124
 2512TIP3    H229172   5.152   4.981   8.512  0.2293 -0.2360 -0.4398
 2513TIP3   OH229173   2.411   3.223   1.176 -0.6200 -0.0446  0.0460
 2513TIP3    H129174   2.337   3.200   1.232 -1.3129  0.9899 -0.4149
 2513TIP3    H229175   2.374   3.227   1.088  0.4445 -1.6411 -0.5345
 2514TIP3   OH229176   2.705   2.002   3.152  0.1323 -0.2135  0.3441
 2514TIP3    H129177   2.655   1.925   3.124 -1.8667  0.5967  1.4887
 2514TIP3    H229178   2.706   2.058   3.074  2.3419 -1.6622 -0.7794
 2515TIP3   OH229179   1.057   0.041   8.305 -0.2830  0.3163  0.2802
 2515TIP3    H129180   1.015  -0.032   8.260 -1.2381  0.8668  0.2300
 2515TIP3    H229181   0.991   0.111   8.302  0.8579  1.4051 -0.2804
 2516TIP3   OH229182   3.677   0.809   2.180 -0.1733 -0.3973  0.1597
 2516TIP3    H129183   3.702   0.870   2.111  1.4042  0.7317  1.6244
 2516TIP3    H229184   3.714   0.725   2.152  0.4317  0.0376 -0.3752
 2517TIP3   OH229185   0.238   4.804   2.143 -0.1445 -0.5238  0.0968
 2517TIP3    H129186   0.247   4.810   2.238  0.7141  0.2533 -0.0255
 2517TIP3    H229187   0.305   4.862   2.109 -0.4518 -0.7939 -0.9934
 2518TIP3   OH229188   4.437   2.218   8.716 -0.5449  0.3750  0.1562
 2518TIP3    H129189   4.385   2.258   8.647  0.2587  0.4674 -0.4011
 2518TIP3    H229190   4.426   2.277   8.791 -0.0259  1.2268 -0.4139
 2519TIP3   OH229191   6.031   1.318   2.470 -0.1586  0.1087  0.1360
 2519TIP3    H129192   5.963   1.295   2.533  0.6555  0.6553  1.2600
 2519TIP3    H229193   6.039   1.413   2.477  0.8275  0.0378  0.1513
 2520TIP3   OH229194   6.847   2.149   2.006  0.3094 -0.4663  0.3372
 2520TIP3    H129195   6.916   2.201   1.965  0.4791  2.3365  3.6716
 2520TIP3    H229196   6.766   2.192   1.977  0.0103 -2.0210 -1.3441
 2521TIP3   OH229197   1.894   2.968   2.281  0.4406  0.5543 -0.3327
 2521TIP3    H129198   1.939   3.052   2.273  1.9047 -0.2805 -1.3254
 2521TIP3    H229199   1.929   2.914   2.210 -3.4448  0.3715 -2.4377
 2522TIP3   OH229200   3.968   3.522   3.440 -0.5490  0.3131  0.1845
 2522TIP3    H129201   3.939   3.501   3.351 -2.1917 -1.6552  1.0923
 2522TIP3    H229202   3.943   3.614   3.452 -0.0132  0.7133 -1.4465
 2523TIP3   OH229203   3.939   4.652   1.401  0.4954 -0.1016  0.1648
 2523TIP3    H129204   4.008   4.620   1.343  1.3962  1.5454  0.2923
 2523TIP3    H229205   3.860   4.649   1.347  1.1348  0.4377 -0.8407
 2524TIP3   OH229206   4.109   5.169   0.147  0.3147  0.1493  0.0053
 2524TIP3    H129207   4.109   5.101   0.214 -0.7355 -0.3177 -0.4413
 2524TIP3    H229208   4.138   5.124   0.067 -1.2709 -0.0283 -0.5046
 2525TIP3   OH229209   1.402   6.670   1.303 -0.1063 -0.4648 -0.1933
 2525TIP3    H129210   1.397   6.728   1.227 -3.4521  0.2927  0.4453
 2525TIP3    H229211   1.389   6.728   1.379  2.8119 -1.2455  1.0365
 2526TIP3   OH229212   2.503   0.268   1.360  0.3467 -0.2704 -0.3011
 2526TIP3    H129213   2.555   0.348   1.343  1.1193 -0.3160  1.6209
 2526TIP3    H229214   2.568   0.203   1.388 -0.4354 -1.1927 -0.5914
 2527TIP3   OH229215   1.834   5.863   8.677  0.3011 -0.3326 -0.3902
 2527TIP3    H129216   1.807   5.789   8.622 -0.8644  0.1127 -0.4439
 2527TIP3    H229217   1.781   5.855   8.756  0.0850  0.4970 -0.4445
 2528TIP3   OH229218   1.315   1.782   2.235  0.5619  0.5880  0.6107
 2528TIP3    H129219   1.362   1.819   2.160  2.4487 -1.9752  0.3976
 2528TIP3    H229220   1.382   1.772   2.302 -0.3554 -0.2822  1.4244
 2529TIP3   OH229221   0.800   4.424   1.926 -0.0107 -0.0229 -0.0894
 2529TIP3    H129222   0.841   4.337   1.924 -0.3015 -0.1590 -0.3413
 2529TIP3    H229223   0.731   4.416   1.993  0.1161  0.0846  0.0534
 2530TIP3   OH229224   4.995   4.820   1.239  0.0085  0.7607 -0.7048
 2530TIP3    H129225   4.960   4.908   1.220 -2.2607  0.2172  0.5554
 2530TIP3    H229226   4.962   4.766   1.167 -0.3410  0.5725 -0.4074
 2531TIP3   OH229227   4.948   1.557   0.274 -0.0781 -0.4325  0.2312
 2531TIP3    H129228   4.872   1.499   0.274 -0.4444  0.0288 -0.1734
 2531TIP3    H229229   4.995   1.536   0.355  0.2233 -1.8144 -0.2826
 2532TIP3   OH229230   5.944   4.462   0.241 -0.6580 -0.0716  0.1159
 2532TIP3    H129231   5.978   4.374   0.226  2.9613  1.1108  0.2434
 2532TIP3    H229232   5.933   4.500   0.154  0.7923  0.2888  0.0648
 2533TIP3   OH229233   2.651   6.172   3.977  0.1353  0.6145 -0.3999
 2533TIP3    H129234   2.702   6.246   4.010  0.0697  1.2462 -1.6640
 2533TIP3    H229235   2.610   6.204   3.896  1.1436 -1.1807 -1.7033
 2534TIP3   OH229236   0.223   2.633   1.181 -0.2824  0.4342  0.3676
 2534TIP3    H129237   0.315   2.627   1.207  0.0843  0.1462 -0.9291
 2534TIP3    H229238   0.193   2.715   1.220  0.8610  1.1309 -0.1684
 2535TIP3   OH229239   0.686   5.755   3.342  0.1973 -0.4715  0.4153
 2535TIP3    H129240   0.633   5.714   3.411 -0.3217 -0.0141  0.3014
 2535TIP3    H229241   0.752   5.689   3.320 -0.9959 -1.4936 -0.2068
 2536TIP3   OH229242   5.883   3.455   8.206  0.1098  0.7602  0.0882
 2536TIP3    H129243   5.827   3.529   8.230 -0.7546  0.0320  0.3966
 2536TIP3    H229244   5.861   3.387   8.270 -0.1977 -0.2606 -1.0627
 2537TIP3   OH229245   0.206   4.159   8.345  0.2358  0.3334 -0.1895
 2537TIP3    H129246   0.211   4.201   8.431 -0.9843 -0.8349  0.4930
 2537TIP3    H229247   0.285   4.187   8.300  1.5207  0.0200  1.7528
 2538TIP3   OH229248   2.101   0.098   0.384 -0.2878  0.2612 -0.6348
 2538TIP3    H129249   2.098   0.057   0.297 -0.3231  1.4654 -1.2107
 2538TIP3    H229250   2.194   0.105   0.404 -0.2778  0.0834 -0.6136
 2539TIP3   OH229251   2.623   5.629   3.654  0.1729 -0.8538 -0.0235
 2539TIP3    H129252   2.570   5.607   3.578 -0.0118 -1.9030  0.3830
 2539TIP3    H229253   2.679   5.701   3.625  0.3036 -1.4149 -1.2328
 2540TIP3   OH229254   2.583   4.722   1.151 -0.6463  0.0384 -0.4708
 2540TIP3    H129255   2.565   4.696   1.242  0.5331  0.3092 -0.1413
 2540TIP3    H229256   2.568   4.816   1.149  2.5484  0.6923  0.3686
 2541TIP3   OH229257   3.164   3.277   8.658  0.4187  0.6813  0.4985
 2541TIP3    H129258   3.112   3.357   8.647  0.7009  0.8944  0.6812
 2541TIP3    H229259   3.241   3.291   8.602 -0.6955 -0.5249 -1.4584
 2542TIP3   OH229260   2.747   5.209   0.066  0.3681  0.1910  0.8228
 2542TIP3    H129261   2.805   5.265   0.014 -0.0232  0.2293  0.4200
 2542TIP3    H229262   2.683   5.176   0.004  0.0364  0.0393  1.2366
 2543TIP3   OH229263   3.468   4.707   2.761  0.0877  0.5736 -0.2560
 2543TIP3    H129264   3.387   4.686   2.807  0.3422  0.8725  0.3489
 2543TIP3    H229265   3.443   4.712   2.669 -0.5930  0.7235 -0.0691
 2544TIP3   OH229266   2.800   0.316   1.473  0.0734 -0.0160 -0.3133
 2544TIP3    H129267   2.879   0.357   1.509 -0.1576 -0.3634  0.6170
 2544TIP3    H229268   2.754   0.387   1.429  0.1038  0.5453  0.5419
 2545TIP3   OH229269   0.697   3.235   3.165  0.2171 -0.9987 -0.4405
 2545TIP3    H129270   0.667   3.233   3.256 -1.2155 -1.8084 -0.8986
 2545TIP3    H229271   0.635   3.178   3.118 -0.0090  0.6179 -2.2029
 2546TIP3   OH229272   3.136   5.978   2.404  0.4079 -0.1300 -0.6064
 2546TIP3    H129273   3.163   6.070   2.412 -0.2233  0.1180 -1.2849
 2546TIP3    H229274   3.043   5.979   2.427  0.8643 -0.9393  1.4748
 2547TIP3   OH229275   2.640   4.523   3.305 -0.3973 -0.3908 -0.5621
 2547TIP3    H129276   2.638   4.572   3.387  0.0264 -1.7890  0.3301
 2547TIP3    H229277   2.709   4.565   3.253  0.4716 -0.4672  0.4828
 2548TIP3   OH229278   4.920   6.483   0.103  0.4144  0.1439 -0.4279
 2548TIP3    H129279   4.829   6.513   0.098  0.3816 -0.1004 -1.6583
 2548TIP3    H229280   4.970   6.563   0.119 -0.1192  0.0730  2.0015
 2549TIP3   OH229281   2.957   4.715   0.213 -0.2073 -0.0178  0.3978
 2549TIP3    H129282   2.897   4.789   0.213  1.0733  1.1008 -1.1378
 2549TIP3    H229283   2.941   4.671   0.129 -0.0464 -0.6975  0.7211
 2550TIP3   OH229284   4.242   4.997   8.427 -0.2448  0.0596  0.4557
 2550TIP3    H129285   4.235   4.992   8.332 -0.9728  1.1041  0.4335
 2550TIP3    H229286   4.170   5.055   8.453  2.3913  3.3272  1.2010
 2551TIP3   OH229287   0.431   4.902   8.783 -0.4231 -0.3823  0.6189
 2551TIP3    H129288   0.396   4.893   8.872  1.2142 -0.1365  1.3136
 2551TIP3    H229289   0.517   4.861   8.786 -0.0680  0.1967 -0.6865
 2552TIP3   OH229290   2.728   3.429   1.435  0.0073 -0.8589  0.6790
 2552TIP3    H129291   2.640   3.417   1.399  1.1301 -3.0092 -1.6927
 2552TIP3    H229292   2.756   3.515   1.402 -1.5788  0.4827  2.5698
 2553TIP3   OH229293   0.895   5.854   1.092  0.2612  0.0194 -0.3715
 2553TIP3    H129294   0.867   5.764   1.112  0.9361 -0.7125 -2.4805
 2553TIP3    H229295   0.954   5.845   1.018  0.3379  2.2343 -0.6460
 2554TIP3   OH229296   6.547   6.103   0.885 -0.2243  0.2317 -0.4380
 2554TIP3    H129297   6.600   6.181   0.896  0.0779 -0.0441  0.0785
 2554TIP3    H229298   6.572   6.045   0.957  0.4021 -0.8166 -1.4546
 2555TIP3   OH229299   1.089   5.351   2.820  0.1970  0.2696  0.2751
 2555TIP3    H129300   1.028   5.295   2.866 -1.0118  1.4344  0.1540
 2555TIP3    H229301   1.071   5.336   2.727  0.4668  0.2303  0.2266
 2556TIP3   OH229302   6.749   4.604   0.214  0.6069  0.0552 -0.0748
 2556TIP3    H129303   6.842   4.589   0.230  0.3755 -0.7823  0.5757
 2556TIP3    H229304   6.704   4.537   0.267 -0.3905  1.0069  0.3252
 2557TIP3   OH229305   5.119   2.992   1.704 -0.0617  0.4462  0.4958
 2557TIP3    H129306   5.045   2.986   1.644  0.5784  0.9561 -0.3550
 2557TIP3    H229307   5.080   3.018   1.787 -1.0158 -0.7646  0.4564
 2558TIP3   OH229308   0.684   0.159   1.959  0.2529  0.1818 -0.1473
 2558TIP3    H129309   0.607   0.109   1.988 -1.5576  2.0712 -1.3912
 2558TIP3    H229310   0.667   0.177   1.867  2.2648  0.6237 -0.4741
 2559TIP3   OH229311   0.639   3.555   0.735 -0.1869  0.0443  0.4750
 2559TIP3    H129312   0.676   3.622   0.678  0.1970  0.3149  1.0479
 2559TIP3    H229313   0.670   3.576   0.822  0.6836 -1.3983  0.5440
 2560TIP3   OH229314   1.467   4.498   3.963 -0.0373  0.1028  0.0667
 2560TIP3    H129315   1.397   4.563   3.972  0.4777  0.7615 -0.6096
 2560TIP3    H229316   1.430   4.419   4.002 -1.4727  0.2007 -1.0060
 2561TIP3   OH229317   5.166   4.570   7.918 -0.1613 -0.4757 -0.1004
 2561TIP3    H129318   5.139   4.480   7.899 -0.7705 -0.4511  0.6078
 2561TIP3    H229319   5.092   4.624   7.889 -0.3608 -0.3088  0.7097
 2562TIP3   OH229320   3.016   5.648   2.676  0.4104 -0.1833  0.0664
 2562TIP3    H129321   2.986   5.646   2.585 -1.9049  0.0078  0.7605
 2562TIP3    H229322   3.111   5.662   2.670  0.0629  1.7391 -2.2663
 2563TIP3   OH229323   6.187   2.406   1.478  0.2893 -0.8180  0.2623
 2563TIP3    H129324   6.139   2.340   1.426  0.7720 -0.8291 -0.1775
 2563TIP3    H229325   6.255   2.438   1.419  0.6729 -0.6244  0.8053
 2564TIP3   OH229326   5.678   5.049   3.524  0.8948  0.3383  0.3064
 2564TIP3    H129327   5.741   4.981   3.500 -0.8190 -1.1853 -0.1569
 2564TIP3    H229328   5.679   5.050   3.619  2.1932  0.9266  0.2998
 2565TIP3   OH229329   3.803   3.858   3.099  0.3771  0.4336 -0.1279
 2565TIP3    H129330   3.825   3.924   3.034 -0.0644 -1.1754 -2.0172
 2565TIP3    H229331   3.884   3.807   3.110  0.5646  0.9188  0.9242
 2566TIP3   OH229332   3.231   3.645   0.697  0.2148  0.0874  0.5036
 2566TIP3    H129333   3.229   3.587   0.621  1.4524  0.3007  0.2874
 2566TIP3    H229334   3.172   3.717   0.675  0.1755 -0.1074 -0.0341
 2567TIP3   OH229335   2.855   1.263   3.066 -0.0447 -0.0101  0.2740
 2567TIP3    H129336   2.789   1.328   3.088  0.5026  1.0478 -1.0041
 2567TIP3    H229337   2.806   1.182   3.052 -1.0317  0.6566 -0.2536
 2568TIP3   OH229338   6.113   3.508   1.375 -0.0294 -0.3734 -0.2706
 2568TIP3    H129339   6.153   3.424   1.354 -0.3330 -0.5594 -0.1093
 2568TIP3    H229340   6.020   3.498   1.352 -0.0308 -0.0217 -0.4286
 2569TIP3   OH229341   6.354   0.257   2.993  0.8123 -0.5368  0.4952
 2569TIP3    H129342   6.331   0.169   3.021 -1.0933  0.0820  1.0202
 2569TIP3    H229343   6.278   0.311   3.016  0.9746  0.8416 -1.8348
 2570TIP3   OH229344   6.158   6.105   0.730  0.2045 -0.3091  0.1822
 2570TIP3    H129345   6.064   6.118   0.742  0.1427 -1.3867  1.0153
 2570TIP3    H229346   6.180   6.032   0.788  1.8322  0.8731  1.1564
 2571TIP3   OH229347   5.199   5.033   1.091  0.3856  0.6625 -0.1790
 2571TIP3    H129348   5.206   4.963   1.026  0.3722  1.3651 -0.9531
 2571TIP3    H229349   5.105   5.052   1.095  0.4685  1.1760 -0.5673
 2572TIP3   OH229350   0.479   3.853   0.377 -0.1040 -0.4330  0.3964
 2572TIP3    H129351   0.559   3.903   0.362  0.4051 -0.9048  1.4674
 2572TIP3    H229352   0.445   3.885   0.460  0.5621 -2.2595  1.4271
 2573TIP3   OH229353   4.071   5.782   2.489  0.3691  0.2083  0.5292
 2573TIP3    H129354   4.119   5.823   2.418  0.6490 -0.6284  0.2310
 2573TIP3    H229355   4.104   5.692   2.493 -0.8812 -0.2811  0.5609
 2574TIP3   OH229356   3.583   5.398   7.982 -0.3154  0.0467  0.0353
 2574TIP3    H129357   3.594   5.486   8.020  1.4525  0.3606 -1.0810
 2574TIP3    H229358   3.494   5.372   8.008  0.4218  0.5452  3.6730
 2575TIP3   OH229359   1.076   4.068   1.328 -0.3100 -0.0329  0.3184
 2575TIP3    H129360   1.035   4.141   1.375  1.7027  1.0337  0.5496
 2575TIP3    H229361   1.069   4.091   1.236 -0.7089 -0.1378  0.3207
 2576TIP3   OH229362   5.971   0.949   2.781 -0.5729  0.1814 -0.1203
 2576TIP3    H129363   5.958   0.873   2.838 -0.3958  0.8511  0.8521
 2576TIP3    H229364   5.923   0.928   2.701  0.0739 -1.2486 -0.1493
 2577TIP3   OH229365   5.536   4.839   1.075 -0.0274 -0.4540 -0.0836
 2577TIP3    H129366   5.503   4.904   1.138 -0.2902 -0.4589 -0.2153
 2577TIP3    H229367   5.469   4.771   1.075  0.3476 -0.8218  0.2058
 2578TIP3   OH229368   3.902   0.505   1.149  0.3052  0.2184 -0.1205
 2578TIP3    H129369   3.835   0.509   1.082 -1.5507 -0.6313  1.5883
 2578TIP3    H229370   3.969   0.447   1.113 -0.0402  0.7584 -1.6895
 2579TIP3   OH229371   2.255   3.023   3.042  0.2559 -0.0069 -0.5956
 2579TIP3    H129372   2.312   2.975   3.102  1.2199  2.4239  0.5741
 2579TIP3    H229373   2.298   3.015   2.957  1.9879  1.0760  0.1148
 2580TIP3   OH229374   0.272   1.026   3.168  0.4651  0.6452  0.4188
 2580TIP3    H129375   0.340   0.978   3.215  0.0714  1.2588  1.6538
 2580TIP3    H229376   0.196   0.968   3.170 -0.1265  1.4324  2.2467
 2581TIP3   OH229377   5.719   0.974   2.929  0.0006 -0.1624  0.0424
 2581TIP3    H129378   5.765   1.006   2.852  0.1668 -0.5413 -0.0153
 2581TIP3    H229379   5.783   0.919   2.975 -0.0801  0.1005  0.4749
 2582TIP3   OH229380   5.162   2.462   1.741 -0.0234  0.0711  0.2103
 2582TIP3    H129381   5.090   2.414   1.781 -1.7904  0.8194 -1.8673
 2582TIP3    H229382   5.158   2.549   1.780 -1.5135  0.6873 -1.1813
 2583TIP3   OH229383   1.474   3.902   2.935 -0.1710 -0.0486  0.1870
 2583TIP3    H129384   1.392   3.898   2.983 -0.9899  0.1268 -1.1361
 2583TIP3    H229385   1.510   3.814   2.943 -1.7966 -0.9243 -1.3518
 2584TIP3   OH229386   5.109   2.068   2.694  0.0319 -0.1455  0.1613
 2584TIP3    H129387   5.068   2.032   2.772 -0.3497  0.2828  0.1651
 2584TIP3    H229388   5.035   2.095   2.639  0.1426  3.7931  1.5917
 2585TIP3   OH229389   0.124   4.557   1.155  0.2229  0.0799 -0.7213
 2585TIP3    H129390   0.052   4.581   1.213  0.8047  0.0293  0.0289
 2585TIP3    H229391   0.120   4.623   1.085  1.5349  2.2212  1.0898
 2586TIP3   OH229392   1.305   1.058   8.077  0.2551  0.8972 -0.1621
 2586TIP3    H129393   1.259   1.118   8.018  0.8936  0.0307 -1.5735
 2586TIP3    H229394   1.398   1.075   8.060  0.4403 -0.1479 -0.2290
 2587TIP3   OH229395   5.720   2.663   1.675  0.6123  0.1217 -0.5365
 2587TIP3    H129396   5.757   2.611   1.746  0.6574  0.5243 -0.2682
 2587TIP3    H229397   5.793   2.677   1.614  0.7931  0.5313 -0.2287
 2588TIP3   OH229398   6.750   1.864   0.836 -0.1871 -0.0435 -0.5331
 2588TIP3    H129399   6.731   1.950   0.798  2.4626  0.6920 -0.3730
 2588TIP3    H229400   6.773   1.810   0.761 -1.0569 -0.4284 -0.5433
 2589TIP3   OH229401   2.603   6.244   2.180  0.0922 -0.2720  0.1759
 2589TIP3    H129402   2.635   6.298   2.108 -1.6314  1.8851  0.9068
 2589TIP3    H229403   2.517   6.214   2.152  0.1917 -0.9989  0.6092
 2590TIP3   OH229404   3.492   2.425   8.143 -0.4207  0.3460  0.0338
 2590TIP3    H129405   3.432   2.362   8.102  0.7252 -1.4522  0.9918
 2590TIP3    H229406   3.569   2.426   8.086  1.3160 -2.4111  2.0513
 2591TIP3   OH229407   0.934   3.003   0.416  0.0276  0.2033 -0.0385
 2591TIP3    H129408   0.994   3.020   0.343  0.9195  0.5917  0.7591
 2591TIP3    H229409   0.988   3.014   0.494 -1.1886  1.0119  0.7278
 2592TIP3   OH229410   0.558   4.077   1.520  0.0496 -0.6255 -0.3293
 2592TIP3    H129411   0.521   4.117   1.598 -0.1677 -0.0977 -0.6938
 2592TIP3    H229412   0.500   4.106   1.449  0.0527 -1.3645 -0.6412
 2593TIP3   OH229413   2.000   2.777   3.603 -0.1095  0.4125 -0.1801
 2593TIP3    H129414   2.011   2.691   3.643 -1.4181  0.7709  1.0269
 2593TIP3    H229415   2.040   2.838   3.665 -3.3767  1.1233  1.4611
 2594TIP3   OH229416   2.049   1.370   3.982  0.6956 -0.1787  1.0325
 2594TIP3    H129417   1.982   1.407   4.040  0.4541  2.1727 -0.5705
 2594TIP3    H229418   2.000   1.322   3.916  0.6629  0.4603  0.5841
 2595TIP3   OH229419   5.508   3.857   0.327 -0.2983  0.4698 -0.4240
 2595TIP3    H129420   5.431   3.875   0.380 -0.9930 -0.5009 -1.0847
 2595TIP3    H229421   5.557   3.790   0.377  0.6723  1.8033  0.4915
 2596TIP3   OH229422   1.288   3.886   1.319 -0.5033  0.3760 -0.0513
 2596TIP3    H129423   1.260   3.808   1.271 -0.4139  0.1741  0.2236
 2596TIP3    H229424   1.212   3.945   1.315 -1.2531 -0.4509  1.3033
 2597TIP3   OH229425   0.256   6.572   2.105  0.3089 -0.4644  0.0125
 2597TIP3    H129426   0.292   6.604   2.187  1.7631 -2.4466  0.2352
 2597TIP3    H229427   0.260   6.476   2.113 -1.0325 -0.7158 -1.7289
 2598TIP3   OH229428   4.013   0.493   2.639 -0.7055  0.0217 -0.4404
 2598TIP3    H129429   3.986   0.415   2.591  1.3585  0.1984 -1.9989
 2598TIP3    H229430   3.975   0.566   2.589 -3.2297  0.1070  1.4000
 2599TIP3   OH229431   1.528   1.407   0.602  0.3996 -0.1664 -0.2987
 2599TIP3    H129432   1.457   1.346   0.586  0.1691 -0.0345  0.1974
 2599TIP3    H229433   1.512   1.480   0.543  0.2162 -0.2167 -0.3102
 2600TIP3   OH229434   1.910   2.368   3.417 -0.5848  0.5342  0.1857
 2600TIP3    H129435   1.974   2.387   3.486 -0.5560  0.6641  0.1240
 2600TIP3    H229436   1.876   2.281   3.439  1.6590 -0.8353 -1.3088
 2601TIP3   OH229437   4.313   1.686   8.138 -0.2631 -0.0600  0.3414
 2601TIP3    H129438   4.368   1.608   8.142 -1.2150 -0.7965 -0.5117
 2601TIP3    H229439   4.357   1.743   8.075 -0.3900 -0.5842 -0.2310
 2602TIP3   OH229440   4.166   2.142   2.040 -0.6712  0.1402  0.4363
 2602TIP3    H129441   4.122   2.102   1.965  0.6472  0.1698 -0.3851
 2602TIP3    H229442   4.157   2.236   2.025  0.5610  0.1673 -0.3301
 2603TIP3   OH229443   0.418   6.128   3.120 -0.1494 -0.5379 -0.2419
 2603TIP3    H129444   0.372   6.053   3.081  1.1237 -0.9162 -1.0481
 2603TIP3    H229445   0.492   6.089   3.167  1.7871  0.3110 -2.4317
 2604TIP3   OH229446   5.093   0.180   2.413 -0.3363  0.2316  0.4409
 2604TIP3    H129447   5.100   0.237   2.490  1.1225 -0.0087  0.5077
 2604TIP3    H229448   5.060   0.098   2.448  0.4486  0.0784  0.8550
 2605TIP3   OH229449   3.360   1.776   2.266  0.3400 -0.1708 -0.5181
 2605TIP3    H129450   3.430   1.716   2.242  0.5679  0.4159 -1.3747
 2605TIP3    H229451   3.279   1.731   2.240  0.4616 -0.4207 -0.4659
 2606TIP3   OH229452   1.946   4.490   0.304 -0.2605 -0.2413 -0.1350
 2606TIP3    H129453   2.012   4.427   0.274  0.0424  0.2236 -0.4529
 2606TIP3    H229454   1.906   4.448   0.380  0.0183 -0.7692 -0.2750
 2607TIP3   OH229455   0.643   3.185   1.364 -0.0956 -0.5553 -0.1727
 2607TIP3    H129456   0.613   3.229   1.444  1.7883  1.2743 -0.4025
 2607TIP3    H229457   0.732   3.156   1.384  0.2240 -0.5049 -1.4385
 2608TIP3   OH229458   0.138   4.450   0.061  0.2323 -0.1175 -0.0965
 2608TIP3    H129459   0.216   4.395   0.054 -0.6009 -1.1745 -1.6196
 2608TIP3    H229460   0.149   4.496   0.145  1.9929 -0.9634  0.1928
 2609TIP3   OH229461   1.226   6.785   2.265  0.0315 -0.6160  0.7404
 2609TIP3    H129462   1.148   6.808   2.315  0.6746  0.0376  1.4738
 2609TIP3    H229463   1.231   6.690   2.270 -1.0919 -0.7177  0.0979
 2610TIP3   OH229464   6.349   3.513   1.790  0.3353 -0.4243 -0.0519
 2610TIP3    H129465   6.283   3.569   1.749 -0.9647 -1.4580  0.5702
 2610TIP3    H229466   6.414   3.499   1.721  0.6468  1.7119 -0.2692
 2611TIP3   OH229467   3.920   2.274   8.001 -0.6282 -0.0575 -0.5444
 2611TIP3    H129468   3.998   2.224   8.023 -0.7404  0.2173  0.5615
 2611TIP3    H229469   3.944   2.365   8.018 -1.8627 -0.1249  2.1696
 2612TIP3   OH229470   5.378   3.159   8.287 -0.9870 -0.4136 -0.9180
 2612TIP3    H129471   5.293   3.196   8.307 -1.1934 -0.4779 -1.6589
 2612TIP3    H229472   5.410   3.209   8.212  0.1935  0.4538  0.1038
 2613TIP3   OH229473   4.750   6.160   8.165 -0.3164  0.3914 -0.2284
 2613TIP3    H129474   4.803   6.238   8.180  0.4706 -0.2972  0.7628
 2613TIP3    H229475   4.770   6.103   8.240 -2.3646  0.0462  0.1125
 2614TIP3   OH229476   2.730   4.770   8.473  0.3757 -0.0107  0.3933
 2614TIP3    H129477   2.821   4.747   8.454  0.0222 -0.9613 -0.2633
 2614TIP3    H229478   2.727   4.865   8.466  1.2758  0.0158  0.2321
 2615TIP3   OH229479   3.322   6.039   2.621  0.5434 -0.1468  0.0582
 2615TIP3    H129480   3.357   6.012   2.536 -0.7759 -0.8801 -0.2767
 2615TIP3    H229481   3.228   6.027   2.613  0.1941  1.5938  0.9991
 2616TIP3   OH229482   0.990   0.635   3.609  0.2074  0.4491  0.2268
 2616TIP3    H129483   0.933   0.623   3.532  0.2620  0.8453  0.1212
 2616TIP3    H229484   1.071   0.672   3.573  0.2244  0.6556  0.4757
 2617TIP3   OH229485   1.669   0.905   0.497  0.3431 -0.2584  0.4134
 2617TIP3    H129486   1.598   0.961   0.468  0.6645  0.1910  0.4915
 2617TIP3    H229487   1.634   0.859   0.573  0.2354  0.1756  0.6278
 2618TIP3   OH229488   2.184   4.418   1.019 -0.5176  0.0030 -0.2996
 2618TIP3    H129489   2.139   4.425   0.935 -0.0446 -0.1326 -0.5696
 2618TIP3    H229490   2.116   4.434   1.084 -1.8314 -3.7306 -0.5172
 2619TIP3   OH229491   2.869   0.588   8.451  0.2659 -0.4256 -0.9439
 2619TIP3    H129492   2.841   0.530   8.379 -1.8861  0.8564 -1.2160
 2619TIP3    H229493   2.902   0.666   8.406  0.9755 -0.4754 -0.5285
 2620TIP3   OH229494   0.530   6.627   3.084  0.3516 -0.0052  0.4043
 2620TIP3    H129495   0.501   6.537   3.093  0.4710  0.0042  0.9308
 2620TIP3    H229496   0.610   6.632   3.137  0.1610  0.4888  0.6569
 2621TIP3   OH229497   6.569   0.554   2.301  0.2661  0.3181 -0.0736
 2621TIP3    H129498   6.560   0.484   2.236  1.9065  1.3083 -1.4709
 2621TIP3    H229499   6.627   0.518   2.367 -2.9266 -1.4183  2.0819
 2622TIP3   OH229500   4.287   3.298   1.081  0.5317 -0.0275  0.2673
 2622TIP3    H129501   4.361   3.308   1.141  0.9006 -1.0050  0.0115
 2622TIP3    H229502   4.327   3.282   0.996  0.0183  0.4977 -0.0779
 2623TIP3   OH229503   4.808   4.874   7.961 -0.7343 -0.6244  0.2485
 2623TIP3    H129504   4.777   4.880   8.052  1.7942  0.5777  1.1207
 2623TIP3    H229505   4.798   4.962   7.926 -0.0678 -0.6684 -0.0638
 2624TIP3   OH229506   2.172   2.080   8.176 -0.1258 -0.0695 -0.7308
 2624TIP3    H129507   2.202   1.994   8.207 -1.9150  0.2199  2.3233
 2624TIP3    H229508   2.247   2.138   8.189  0.1950 -0.6427  0.1015
 2625TIP3   OH229509   6.661   5.671   3.165 -0.2830 -0.7236  0.6675
 2625TIP3    H129510   6.587   5.611   3.161  1.3380 -3.0910  2.8816
 2625TIP3    H229511   6.713   5.650   3.088 -0.9451 -0.3609  0.1070
 2626TIP3   OH229512   4.733   3.188   2.230  0.0026 -0.5400  0.4017
 2626TIP3    H129513   4.780   3.106   2.213 -1.2526 -1.6813  2.1101
 2626TIP3    H229514   4.749   3.206   2.322  2.4516  2.6840 -0.4824
 2627TIP3   OH229515   3.191   1.561   1.807 -0.5068  0.4671 -0.1184
 2627TIP3    H129516   3.217   1.530   1.894 -1.9790  1.9308  0.9091
 2627TIP3    H229517   3.204   1.655   1.810 -1.1125  0.6144 -1.2900
 2628TIP3   OH229518   4.980   5.875   8.558 -0.0334  0.0404  0.0361
 2628TIP3    H129519   5.075   5.884   8.551 -0.1047  0.4302 -0.4286
 2628TIP3    H229520   4.966   5.851   8.650  0.4615  0.6725  0.2903
 2629TIP3   OH229521   6.382   5.050   2.428  0.1964 -0.5236  0.1572
 2629TIP3    H129522   6.309   5.053   2.489 -0.4128 -2.7002 -0.3835
 2629TIP3    H229523   6.362   4.976   2.370  1.2546  0.7964 -2.0220
 2630TIP3   OH229524   3.904   5.123   1.134  0.2861 -0.0564  0.3617
 2630TIP3    H129525   3.893   5.115   1.229  0.5619 -1.1662  0.3190
 2630TIP3    H229526   3.826   5.171   1.105  0.8904  1.5807  1.2958
 2631TIP3   OH229527   5.909   0.597   2.500 -0.4253 -0.1469  0.5030
 2631TIP3    H129528   5.981   0.567   2.556 -1.0599 -1.8619  0.4583
 2631TIP3    H229529   5.832   0.552   2.533 -1.0594 -0.1813 -0.9408
 2632TIP3   OH229530   4.257   4.691   2.610 -0.1663 -0.0637 -0.7064
 2632TIP3    H129531   4.299   4.638   2.543  0.9112 -0.5201  0.2966
 2632TIP3    H229532   4.249   4.633   2.685 -0.0859  0.8325  0.0187
 2633TIP3   OH229533   4.392   3.248   0.842  0.5607  0.3766  0.0539
 2633TIP3    H129534   4.479   3.287   0.840  0.5505  0.3810 -0.2914
 2633TIP3    H229535   4.362   3.250   0.751  0.3384  0.0686  0.1181
 2634TIP3   OH229536   5.678   0.141   8.104 -0.2220  0.1736  0.5745
 2634TIP3    H129537   5.684   0.046   8.108 -2.4298 -0.1735 -1.8709
 2634TIP3    H229538   5.763   0.172   8.136  1.1933 -2.6553 -0.1505
 2635TIP3   OH229539   3.735   4.300   2.694  0.5662 -0.1637 -0.4187
 2635TIP3    H129540   3.643   4.294   2.668  0.4377 -3.1122  0.3695
 2635TIP3    H229541   3.736   4.274   2.786  2.1474  0.4582 -0.2256
 2636TIP3   OH229542   6.372   1.858   0.357 -0.1040 -0.6806  0.0218
 2636TIP3    H129543   6.448   1.905   0.391 -1.4170  2.8647 -1.4320
 2636TIP3    H229544   6.333   1.817   0.434  1.3759  0.3713  1.4073
 2637TIP3   OH229545   4.731   0.471   0.707  0.0609 -0.3208 -0.6479
 2637TIP3    H129546   4.658   0.410   0.718  0.3094 -0.9742 -2.3820
 2637TIP3    H229547   4.807   0.415   0.693  0.5219  0.3753 -0.9734
 2638TIP3   OH229548   1.482   4.527   3.684 -0.8839 -0.2111  0.3883
 2638TIP3    H129549   1.473   4.522   3.779 -1.1207  2.2940  0.5759
 2638TIP3    H229550   1.490   4.436   3.655 -1.0263 -1.0398  2.7664
 2639TIP3   OH229551   5.762   4.602   2.719  0.3295 -0.0489  0.1342
 2639TIP3    H129552   5.736   4.569   2.805  0.0069 -0.4764 -0.1274
 2639TIP3    H229553   5.803   4.527   2.675 -1.2548 -0.4001 -0.8201
 2640TIP3   OH229554   3.988   1.798   8.480  0.5796 -0.0774 -0.1964
 2640TIP3    H129555   4.077   1.828   8.465  0.3957  0.5205 -0.0972
 2640TIP3    H229556   3.941   1.818   8.398  1.2584 -3.2437 -1.5066
 2641TIP3   OH229557   5.093   4.316   2.623 -0.3629 -0.0547 -0.2342
 2641TIP3    H129558   5.138   4.388   2.579 -0.3715  0.5050  0.6355
 2641TIP3    H229559   5.006   4.314   2.583 -1.6690  2.8045  2.1006
 2642TIP3   OH229560   0.568   5.565   2.422  0.2056  0.0527 -0.3104
 2642TIP3    H129561   0.516   5.540   2.499  0.9030  2.7814  1.2039
 2642TIP3    H229562   0.547   5.500   2.356 -1.7770 -1.4249  1.6368
 2643TIP3   OH229563   4.973   0.780   7.846  0.3975  0.0107  0.5197
 2643TIP3    H129564   4.967   0.859   7.899  0.1038 -0.5923  1.4059
 2643TIP3    H229565   5.038   0.726   7.890 -0.8074 -1.0593  1.0377
 2644TIP3   OH229566   0.286   0.813   8.675  0.2507 -0.2370 -0.4225
 2644TIP3    H129567   0.342   0.736   8.685 -0.1516 -0.5101 -0.2764
 2644TIP3    H229568   0.235   0.796   8.597  0.3707  0.0151 -0.5572
 2645TIP3   OH229569   1.672   2.184   0.873  0.6571 -0.0253  0.2888
 2645TIP3    H129570   1.707   2.273   0.864 -1.5898  0.8335 -0.7863
 2645TIP3    H229571   1.660   2.154   0.783  0.2505 -0.9259  0.6312
 2646TIP3   OH229572   5.800   4.784   2.949  0.1515 -0.1970 -0.2728
 2646TIP3    H129573   5.825   4.868   2.987  0.8420 -0.5002 -0.0315
 2646TIP3    H229574   5.806   4.798   2.854  0.0321  0.0910 -0.2390
 2647TIP3   OH229575   4.924   1.835   1.391  0.4301 -0.5660 -0.3608
 2647TIP3    H129576   4.910   1.901   1.459  0.7099 -0.2032 -0.6516
 2647TIP3    H229577   4.906   1.881   1.309  0.2583 -0.9566 -0.5456
 2648TIP3   OH229578   2.742   6.391   1.902  0.3745 -0.1944 -0.5250
 2648TIP3    H129579   2.804   6.457   1.934 -0.2186 -0.5099  1.3927
 2648TIP3    H229580   2.798   6.318   1.875  0.9152  0.0242 -0.0371
 2649TIP3   OH229581   4.496   3.260   1.276  0.2494  0.2486  0.0184
 2649TIP3    H129582   4.542   3.184   1.242  0.5164  0.1011  0.6929
 2649TIP3    H229583   4.437   3.225   1.343 -3.5916 -0.0838 -3.2062
 2650TIP3   OH229584   1.348   2.993   1.474  0.1457  0.1799  0.0978
 2650TIP3    H129585   1.292   2.927   1.516  0.9967 -0.3003  0.5127
 2650TIP3    H229586   1.322   3.076   1.514 -0.2302 -0.0461  0.3252
 2651TIP3   OH229587   3.111   1.712   8.399  0.0199  0.0521  1.1443
 2651TIP3    H129588   3.100   1.757   8.315 -0.0663  1.6687  1.9796
 2651TIP3    H229589   3.151   1.628   8.376 -0.9893 -0.0055 -0.6043
 2652TIP3   OH229590   5.627   6.255   1.309 -0.4313 -0.7773  0.2289
 2652TIP3    H129591   5.600   6.230   1.398  0.0650 -0.2917  0.5243
 2652TIP3    H229592   5.717   6.222   1.302  0.0957  0.5464  0.4864
 2653TIP3   OH229593   5.545   0.156   0.215  0.2698  0.7769  0.5200
 2653TIP3    H129594   5.581   0.068   0.202 -0.9832 -0.1062  2.5951
 2653TIP3    H229595   5.622   0.213   0.214  1.3317 -0.5893  1.1385
 2654TIP3   OH229596   4.402   3.830   0.216  0.2964  0.0487 -0.2364
 2654TIP3    H129597   4.460   3.831   0.292  0.6736  1.1166 -0.5234
 2654TIP3    H229598   4.314   3.846   0.252  0.0078 -2.3294  0.2921
 2655TIP3   OH229599   6.090   5.482   1.848 -0.2768 -0.6898  0.3480
 2655TIP3    H129600   5.995   5.473   1.859 -0.7493  0.8610 -1.6409
 2655TIP3    H229601   6.122   5.393   1.841 -1.8393 -1.2310 -0.4895
 2656TIP3   OH229602   6.086   2.797   2.653 -0.1691 -0.1030 -0.1880
 2656TIP3    H129603   6.143   2.766   2.583  0.0748  1.1397 -0.5649
 2656TIP3    H229604   6.129   2.770   2.733 -0.1581 -1.0419 -0.5005
 2657TIP3   OH229605   1.282   5.404   3.232  0.2689 -0.0848  0.7215
 2657TIP3    H129606   1.304   5.412   3.139  0.1329 -0.6029  0.6416
 2657TIP3    H229607   1.359   5.364   3.272 -0.2922 -1.4223  0.5303
 2658TIP3   OH229608   3.516   1.666   3.537 -0.0826  0.1636  0.3212
 2658TIP3    H129609   3.606   1.670   3.569  0.9309  1.6795 -2.3190
 2658TIP3    H229610   3.523   1.629   3.449 -1.7820  1.8148 -0.5976
 2659TIP3   OH229611   3.423   4.139   8.190  0.2137 -0.0462  0.2336
 2659TIP3    H129612   3.380   4.068   8.143  0.3592  1.1663 -1.8551
 2659TIP3    H229613   3.351   4.199   8.212  0.5639  1.6029 -2.5842
 2660TIP3   OH229614   0.860   3.571   3.429  0.4587 -0.6193  0.1305
 2660TIP3    H129615   0.935   3.626   3.452  0.8360 -0.8323 -0.5808
 2660TIP3    H229616   0.882   3.535   3.344 -0.4817 -0.6446 -0.1064
 2661TIP3   OH229617   0.481   2.836   0.788 -0.1857 -0.5895  0.1772
 2661TIP3    H129618   0.559   2.886   0.812 -0.4560 -1.3811  3.0476
 2661TIP3    H229619   0.408   2.889   0.822 -0.9295 -0.0638 -2.1021
 2662TIP3   OH229620   6.784   4.889   1.228 -0.5041 -0.1745  0.4092
 2662TIP3    H129621   6.700   4.849   1.206 -0.3865  0.2151 -0.8345
 2662TIP3    H229622   6.832   4.820   1.274 -0.8559 -0.9785 -0.4008
 2663TIP3   OH229623   3.372   2.805   3.292  0.2278 -0.0066 -0.4979
 2663TIP3    H129624   3.407   2.775   3.376  0.7823  0.7786 -0.4339
 2663TIP3    H229625   3.287   2.842   3.313  1.0694  1.7344  0.0227
 2664TIP3   OH229626   6.217   3.044   2.770  0.0468  0.1789 -0.9194
 2664TIP3    H129627   6.221   3.080   2.682 -1.6897  1.6411 -0.4526
 2664TIP3    H229628   6.192   2.952   2.757  1.6959 -0.1607 -1.9955
 2665TIP3   OH229629   6.350   4.865   0.976 -0.2879  0.1452 -0.5800
 2665TIP3    H129630   6.381   4.954   0.989  0.6901 -0.3509  0.8439
 2665TIP3    H229631   6.328   4.859   0.883  0.4687  1.6000 -0.8670
 2666TIP3   OH229632   1.079   5.878   1.744 -0.3198  0.8188 -0.1497
 2666TIP3    H129633   1.164   5.917   1.768 -1.0650  2.3439  0.1641
 2666TIP3    H229634   1.044   5.938   1.678 -0.6323 -0.4612 -1.1748
 2667TIP3   OH229635   4.220   6.066   2.272  0.6353  0.0830 -0.1182
 2667TIP3    H129636   4.233   6.073   2.178 -0.8632  1.3129 -0.2585
 2667TIP3    H229637   4.234   5.973   2.291  1.2707 -0.1266 -1.4787
 2668TIP3   OH229638   1.503   5.580   2.891  0.4130 -0.3522 -0.1406
 2668TIP3    H129639   1.410   5.572   2.914  0.0813  0.3691 -1.1990
 2668TIP3    H229640   1.532   5.660   2.935  0.7553 -0.9825  0.8283
 2669TIP3   OH229641   0.444   2.469   0.811 -0.4632 -0.1525  0.4893
 2669TIP3    H129642   0.480   2.406   0.748  0.3119  1.4877 -0.7880
 2669TIP3    H229643   0.513   2.535   0.820 -1.0874  0.3121  2.1096
 2670TIP3   OH229644   2.506   0.501   1.077  0.2349  0.0410 -0.2806
 2670TIP3    H129645   2.559   0.511   1.157  0.0089  2.2630 -0.3487
 2670TIP3    H229646   2.459   0.584   1.069 -0.9604 -0.7451 -1.8851
 2671TIP3   OH229647   6.016   1.323   3.408  0.2338 -0.1915  0.0710
 2671TIP3    H129648   5.958   1.395   3.385 -0.2369  0.5460  3.0815
 2671TIP3    H229649   5.979   1.247   3.362 -1.1905  0.8663 -0.6243
 2672TIP3   OH229650   1.033   4.522   2.441 -0.5379 -0.1517 -0.2505
 2672TIP3    H129651   1.104   4.469   2.476 -1.1822 -0.4720  0.5976
 2672TIP3    H229652   1.076   4.601   2.407  0.1448 -0.0201  0.8732
 2673TIP3   OH229653   6.322   1.015   8.402  0.1713 -0.2353  0.4900
 2673TIP3    H129654   6.296   0.948   8.465 -2.6824  2.4559  2.5039
 2673TIP3    H229655   6.239   1.049   8.369  1.5611  0.5340 -2.5297
 2674TIP3   OH229656   5.550   1.003   1.464 -0.6032  0.0640 -0.2188
 2674TIP3    H129657   5.494   0.929   1.440 -2.1303 -0.5245  4.2169
 2674TIP3    H229658   5.634   0.963   1.486 -0.5783  0.0199 -0.3934
 2675TIP3   OH229659   4.752   4.753   2.054 -0.4950  0.0684 -0.5753
 2675TIP3    H129660   4.746   4.837   2.098  3.1749 -0.2879  0.9356
 2675TIP3    H229661   4.665   4.715   2.063 -1.7119  2.8242  0.4068
 2676TIP3   OH229662   6.395   5.914   2.166 -0.6869 -0.1318 -0.2846
 2676TIP3    H129663   6.459   5.919   2.237 -0.2771  0.7067 -0.6907
 2676TIP3    H229664   6.311   5.898   2.209 -0.1787 -1.5170  0.2367
 2677TIP3   OH229665   2.390   6.358   0.474  0.3990  0.3542 -0.1482
 2677TIP3    H129666   2.309   6.409   0.478  0.6128  0.7107 -0.2915
 2677TIP3    H229667   2.415   6.360   0.381 -0.4265 -1.3401 -0.4401
 2678TIP3   OH229668   1.988   6.748   0.599  0.1319  0.6780 -0.0043
 2678TIP3    H129669   2.028   6.835   0.597  1.2927  0.1628 -0.0529
 2678TIP3    H229670   1.987   6.725   0.692  0.7804  0.3171 -0.0877
 2679TIP3   OH229671   4.689   1.498   0.869 -0.1611 -0.3675 -0.5919
 2679TIP3    H129672   4.617   1.557   0.892  0.8884  1.8969 -2.6977
 2679TIP3    H229673   4.741   1.491   0.949 -2.0135 -1.1381  0.6287
 2680TIP3   OH229674   2.948   1.306   0.731  0.0866 -0.1098 -0.3496
 2680TIP3    H129675   2.986   1.252   0.662  2.0139  0.8609 -0.1201
 2680TIP3    H229676   3.017   1.312   0.798 -0.7023  1.2210  0.3959
 2681TIP3   OH229677   6.786   1.692   1.139 -0.2674 -0.8081  0.0328
 2681TIP3    H129678   6.861   1.641   1.109  1.1580  1.0415  0.2529
 2681TIP3    H229679   6.757   1.739   1.061 -1.3300 -1.6160 -0.0811
 2682TIP3   OH229680   5.525   6.635   1.067 -0.6675 -0.7980 -0.3015
 2682TIP3    H129681   5.440   6.664   1.100 -0.0095  0.5575  0.2708
 2682TIP3    H229682   5.568   6.715   1.037  1.1566 -1.1847  1.1285
 2683TIP3   OH229683   5.016   2.425   2.450 -0.8286  0.2961 -0.1992
 2683TIP3    H129684   5.072   2.495   2.419  1.1320 -0.9067  0.4329
 2683TIP3    H229685   5.050   2.346   2.408 -2.2913 -0.4352 -0.0712
 2684TIP3   OH229686   4.443   2.962   1.087  0.6664 -0.7338  0.3743
 2684TIP3    H129687   4.356   3.001   1.100  1.2127  1.3908 -1.6295
 2684TIP3    H229688   4.470   2.935   1.175 -1.6136 -0.6406  1.1975
 2685TIP3   OH229689   5.516   1.376   0.243  0.1439  0.7745 -0.4210
 2685TIP3    H129690   5.473   1.436   0.304  1.2603  1.8242 -0.6272
 2685TIP3    H229691   5.489   1.406   0.156  1.9309  2.0442 -0.6033
 2686TIP3   OH229692   0.766   2.605   1.404 -0.2705  0.3328  0.1922
 2686TIP3    H129693   0.696   2.539   1.409  0.7969 -0.8074  0.4239
 2686TIP3    H229694   0.719   2.688   1.400 -1.6671 -0.1947  2.9494
 2687TIP3   OH229695   2.371   5.167   0.216 -0.3854  0.1314  0.3338
 2687TIP3    H129696   2.355   5.082   0.174 -0.0793 -0.4414  1.3400
 2687TIP3    H229697   2.465   5.166   0.238 -0.1977  1.0719 -0.3642
 2688TIP3   OH229698   4.674   5.136   1.756  0.4002  0.0515  0.0509
 2688TIP3    H129699   4.622   5.087   1.820  0.6751 -1.0175 -0.5223
 2688TIP3    H229700   4.611   5.190   1.709  0.0123 -0.1989  0.2839
 2689TIP3   OH229701   3.889   6.540   2.486 -0.0144 -0.3273 -0.7196
 2689TIP3    H129702   3.878   6.454   2.527 -0.3990 -0.1903 -0.5369
 2689TIP3    H229703   3.847   6.601   2.546 -0.5174 -0.1186 -1.2743
 2690TIP3   OH229704   5.106   0.397   8.350 -0.7161  0.0066  0.0560
 2690TIP3    H129705   5.143   0.418   8.436 -0.7465 -1.1412  0.3623
 2690TIP3    H229706   5.030   0.454   8.342 -2.9670 -2.3592  2.4265
 2691TIP3   OH229707   4.169   5.009   2.073 -0.1565 -0.3734  0.3196
 2691TIP3    H129708   4.178   5.096   2.035 -1.7786  0.2810  1.3532
 2691TIP3    H229709   4.228   5.009   2.149 -1.2180  0.3703  1.1769
 2692TIP3   OH229710   0.810   3.729   0.565 -0.2084 -0.1303  0.0178
 2692TIP3    H129711   0.781   3.818   0.582  3.4175  1.6565 -1.8385
 2692TIP3    H229712   0.801   3.718   0.470  2.6112 -0.2422 -0.3428
 2693TIP3   OH229713   3.676   5.942   0.302  0.0065  0.1413 -0.2373
 2693TIP3    H129714   3.646   5.985   0.222 -0.6092  1.5309  0.6970
 2693TIP3    H229715   3.651   5.851   0.291  0.1781  0.2516 -1.7363
 2694TIP3   OH229716   6.780   1.033   3.332  0.2100  0.3108  0.0024
 2694TIP3    H129717   6.750   0.970   3.398 -1.8153 -0.7739 -1.7991
 2694TIP3    H229718   6.809   1.109   3.382 -2.6636  0.1514  2.1382
 2695TIP3   OH229719   1.852   4.182   2.451 -0.3306  0.1672 -0.1297
 2695TIP3    H129720   1.761   4.194   2.477 -0.9194 -1.2471 -1.3342
 2695TIP3    H229721   1.846   4.141   2.364  1.4657  0.7863 -0.5797
 2696TIP3   OH229722   3.996   1.477   2.774 -0.0504  0.8091  0.3599
 2696TIP3    H129723   4.036   1.392   2.792 -0.9261  0.0017 -1.2629
 2696TIP3    H229724   3.902   1.460   2.773 -0.2286  0.7377 -4.0246
 2697TIP3   OH229725   3.688   6.124   8.320  0.4647 -0.1834  0.3197
 2697TIP3    H129726   3.679   6.215   8.350 -1.1427 -0.5285  0.9920
 2697TIP3    H229727   3.631   6.119   8.243  1.3601 -0.3759 -0.3473
 2698TIP3   OH229728   2.485   2.134   8.517  0.4294 -0.0736 -0.3568
 2698TIP3    H129729   2.559   2.110   8.574 -1.6617  1.2452  3.2884
 2698TIP3    H229730   2.423   2.062   8.526 -0.1675  0.4148 -0.4922
 2699TIP3   OH229731   6.422   2.111   2.009 -0.3683  0.0529 -0.0964
 2699TIP3    H129732   6.480   2.123   1.933 -0.8155 -1.5603 -0.7396
 2699TIP3    H229733   6.406   2.017   2.011 -0.6068  0.1106  1.8491
 2700TIP3   OH229734   1.590   6.210   3.019  0.2735  0.2044 -0.7434
 2700TIP3    H129735   1.499   6.222   3.044  0.1129 -1.2102 -0.5607
 2700TIP3    H229736   1.606   6.278   2.954 -0.4116  1.5281  0.4163
 2701TIP3   OH229737   4.302   2.353   1.657 -0.9998 -1.1119 -0.5205
 2701TIP3    H129738   4.215   2.368   1.621 -1.2854 -3.1591 -0.8503
 2701TIP3    H229739   4.351   2.312   1.586 -0.6525 -2.5149  0.4754
 2702TIP3   OH229740   6.802   6.229   3.753 -0.1308  0.2982 -0.4783
 2702TIP3    H129741   6.885   6.187   3.777 -1.5507 -1.6674  1.4049
 2702TIP3    H229742   6.776   6.184   3.672 -0.7448 -1.2850  0.5423
 2703TIP3   OH229743   5.893   6.215   1.460 -0.0754  0.3011  0.2848
 2703TIP3    H129744   5.843   6.134   1.472 -2.7158  1.5931 -1.1685
 2703TIP3    H229745   5.943   6.201   1.379 -3.0762  1.1426 -1.8959
 2704TIP3   OH229746   5.656   6.452   2.960  0.1355 -0.6324  0.5707
 2704TIP3    H129747   5.573   6.484   2.996 -0.6907 -2.9536  0.9126
 2704TIP3    H229748   5.717   6.456   3.034  0.7451  2.2012  0.0164
 2705TIP3   OH229749   1.313   0.805   0.576  0.6696 -0.7527 -0.3458
 2705TIP3    H129750   1.387   0.830   0.631  1.7771 -2.9515 -0.7287
 2705TIP3    H229751   1.238   0.803   0.636  0.7293  1.9071 -0.0353
 2706TIP3   OH229752   0.271   2.441   2.666 -0.2180  0.2315 -0.1988
 2706TIP3    H129753   0.248   2.375   2.600  0.3539  1.4307 -1.6577
 2706TIP3    H229754   0.209   2.512   2.652 -1.0414 -0.0739  1.5818
 2707TIP3   OH229755   4.785   6.348   3.677 -0.0496  0.4848 -0.1624
 2707TIP3    H129756   4.745   6.419   3.626  1.3237  2.4100  1.3046
 2707TIP3    H229757   4.712   6.305   3.720 -0.8555  1.4464 -0.5377
 2708TIP3   OH229758   6.627   4.207   8.097  0.5622 -0.0846  0.0703
 2708TIP3    H129759   6.620   4.192   8.003 -0.4462  0.3066  0.0767
 2708TIP3    H229760   6.696   4.273   8.105  2.1821 -1.6510 -0.2236
 2709TIP3   OH229761   4.381   0.572   0.960 -0.0895 -0.3967  0.1281
 2709TIP3    H129762   4.327   0.552   1.037  0.2989  1.4584  0.9638
 2709TIP3    H229763   4.318   0.578   0.888 -1.5345  3.5492  1.3878
 2710TIP3   OH229764   2.230   6.732   1.532 -0.1639 -0.1922 -0.4041
 2710TIP3    H129765   2.135   6.724   1.531 -0.2687  0.8420 -0.4082
 2710TIP3    H229766   2.251   6.762   1.620 -0.1858  2.6621 -1.2504
 2711TIP3   OH229767   2.509   6.689   0.160  0.2588 -0.1714  0.0153
 2711TIP3    H129768   2.595   6.657   0.185 -0.3712 -1.1425  1.0483
 2711TIP3    H229769   2.487   6.755   0.225 -0.7862 -1.6976  1.3021
 2712TIP3   OH229770   5.691   0.392   4.169  0.1280 -0.2895 -0.3505
 2712TIP3    H129771   5.629   0.455   4.206  0.9208 -0.1472  0.7917
 2712TIP3    H229772   5.665   0.308   4.205 -0.3423 -0.4779 -1.1127
 2713TIP3   OH229773   3.579   4.972   1.210 -0.5619 -0.6708 -0.6482
 2713TIP3    H129774   3.511   4.936   1.266  0.7138 -0.8997  0.8276
 2713TIP3    H229775   3.661   4.939   1.247  0.6688  2.8911  0.2571
 2714TIP3   OH229776   0.892   4.627   1.759  0.4021 -0.2209 -0.1150
 2714TIP3    H129777   0.822   4.565   1.781 -0.5537  0.9006  0.0994
 2714TIP3    H229778   0.918   4.665   1.843  0.9557 -0.3037 -0.2461
 2715TIP3   OH229779   2.348   0.395   2.485 -0.5550  0.6260 -0.0043
 2715TIP3    H129780   2.291   0.452   2.434  0.1187  0.3939 -1.0485
 2715TIP3    H229781   2.392   0.341   2.420  2.4296  2.2007  0.5291
 2716TIP3   OH229782   3.701   2.514   7.923  0.0553 -0.1469  0.2730
 2716TIP3    H129783   3.722   2.431   7.880  2.3777  1.5660 -2.1940
 2716TIP3    H229784   3.785   2.559   7.931 -1.3266  2.7842 -0.3159
 2717TIP3   OH229785   3.234   4.671   0.312  0.4118 -0.1307  0.1605
 2717TIP3    H129786   3.267   4.750   0.268  1.2535 -1.1220 -1.0582
 2717TIP3    H229787   3.142   4.666   0.288  0.2196  0.7537  0.6764
 2718TIP3   OH229788   5.522   5.305   2.755 -0.4161 -0.8006  0.2780
 2718TIP3    H129789   5.542   5.393   2.789  1.9318 -1.4521  0.7557
 2718TIP3    H229790   5.555   5.245   2.822 -2.9683 -2.1172  0.4922
 2719TIP3   OH229791   1.259   5.583   1.507  0.1679 -0.0789  0.3131
 2719TIP3    H129792   1.179   5.624   1.475 -0.0009 -0.5649  0.0944
 2719TIP3    H229793   1.306   5.653   1.552 -0.0394  0.3839 -0.1809
 2720TIP3   OH229794   4.910   6.017   3.636 -0.1432  0.2722 -0.0494
 2720TIP3    H129795   4.898   6.050   3.725  0.3002  0.7709 -0.1736
 2720TIP3    H229796   4.895   5.923   3.644 -0.3614  0.3469  0.5042
 2721TIP3   OH229797   2.263   3.306   1.599  0.7722  0.2371  0.7575
 2721TIP3    H129798   2.206   3.352   1.536  1.6875 -1.3205 -1.3385
 2721TIP3    H229799   2.332   3.369   1.620  0.1970  0.9410  0.5864
 2722TIP3   OH229800   3.295   6.106   0.613 -0.0989 -0.5782 -0.5174
 2722TIP3    H129801   3.228   6.054   0.659 -1.3024 -0.8218 -2.4423
 2722TIP3    H229802   3.327   6.048   0.545 -1.9322  1.2664 -3.1549
 2723TIP3   OH229803   1.858   1.044   8.233 -0.0883 -0.1205  0.4663
 2723TIP3    H129804   1.832   1.134   8.214 -0.3374 -0.3147 -0.1670
 2723TIP3    H229805   1.918   1.021   8.162 -2.4499 -1.4721 -1.2519
 2724TIP3   OH229806   2.617   0.779   1.274  0.3450 -0.5710  0.6464
 2724TIP3    H129807   2.689   0.816   1.325 -0.0661 -1.3251  1.8134
 2724TIP3    H229808   2.541   0.833   1.296  1.1478  2.9506 -3.6798
 2725TIP3   OH229809   5.548   1.855   2.917  0.4960 -0.4085  0.4097
 2725TIP3    H129810   5.601   1.781   2.947  2.6250  0.6595 -0.4632
 2725TIP3    H229811   5.511   1.826   2.834  1.4450 -0.4759 -0.0039
 2726TIP3   OH229812   3.542   1.280   0.716 -0.2837 -0.3838 -0.8082
 2726TIP3    H129813   3.552   1.209   0.652  1.2016 -1.2518  0.3251
 2726TIP3    H229814   3.493   1.241   0.788 -0.3344  0.0412 -0.6101
 2727TIP3   OH229815   3.253   1.767   3.600  0.1773  0.1522 -0.0312
 2727TIP3    H129816   3.344   1.749   3.575 -0.0073  0.8023 -1.2326
 2727TIP3    H229817   3.240   1.715   3.679  0.8847 -1.7995 -1.1154
 2728TIP3   OH229818   6.400   4.751   3.932  0.5683 -0.3950  0.3839
 2728TIP3    H129819   6.474   4.704   3.971 -0.8930 -2.4049  0.9350
 2728TIP3    H229820   6.325   4.693   3.947 -0.8941  0.9544 -1.3006
 2729TIP3   OH229821   0.976   1.261   8.790 -0.4407  0.4406 -0.1786
 2729TIP3    H129822   1.020   1.299   8.866  0.5549 -0.6020 -0.2040
 2729TIP3    H229823   0.962   1.169   8.813  0.1887  0.0269 -1.3666
 2730TIP3   OH229824   2.979   1.608   0.925  0.2390 -1.1424 -0.2522
 2730TIP3    H129825   2.964   1.622   0.831 -0.7425 -1.3320 -0.1336
 2730TIP3    H229826   3.057   1.551   0.928  0.2030 -1.2460 -0.9563
 2731TIP3   OH229827   2.719   5.759   2.118 -0.2224 -0.3183  0.9873
 2731TIP3    H129828   2.765   5.693   2.067 -1.1780 -0.1139 -0.1867
 2731TIP3    H229829   2.754   5.843   2.088 -1.0014 -0.1837  0.4152
 2732TIP3   OH229830   0.207   2.018   0.523 -0.1246 -0.1449  0.3888
 2732TIP3    H129831   0.302   2.023   0.518  0.1901 -2.2041  2.6022
 2732TIP3    H229832   0.182   2.083   0.589  0.0343 -1.1732  1.4960
 2733TIP3   OH229833   4.413   3.444   2.443 -0.0005 -0.1429 -0.5440
 2733TIP3    H129834   4.410   3.383   2.517  0.3348 -0.5455 -0.8567
 2733TIP3    H229835   4.401   3.530   2.482 -1.0927 -0.4482 -0.1522
 2734TIP3   OH229836   2.608   0.741   3.465  0.6081 -0.3495 -0.4463
 2734TIP3    H129837   2.564   0.703   3.541  0.0166  1.2720  0.0565
 2734TIP3    H229838   2.554   0.716   3.390  0.6805 -1.1615 -0.2342
 2735TIP3   OH229839   2.378   2.640   8.444 -0.1999  0.6020  0.8648
 2735TIP3    H129840   2.445   2.592   8.395 -0.1508  0.0116  1.4950
 2735TIP3    H229841   2.340   2.575   8.503  0.1271  1.4139  2.0090
 2736TIP3   OH229842   6.594   5.504   1.422  0.2902  0.0060 -0.0973
 2736TIP3    H129843   6.578   5.410   1.414 -1.5711  0.3594 -0.9899
 2736TIP3    H229844   6.536   5.533   1.493 -0.4305  0.7306 -0.9522
 2737TIP3   OH229845   3.395   6.246   2.815  0.3365  0.0163 -0.0788
 2737TIP3    H129846   3.315   6.296   2.797  0.9445  0.8880 -0.4501
 2737TIP3    H229847   3.387   6.168   2.761 -0.9621 -0.6705  1.0488
 2738TIP3   OH229848   4.571   4.119   1.834  0.1675  0.4498  0.2793
 2738TIP3    H129849   4.610   4.155   1.913 -0.7812 -0.5674  1.2388
 2738TIP3    H229850   4.585   4.024   1.840  1.4867  0.4609 -1.5705
 2739TIP3   OH229851   0.837   4.293   0.075  0.1174  0.1818 -0.0224
 2739TIP3    H129852   0.744   4.296   0.051  0.1518  2.1085 -0.0767
 2739TIP3    H229853   0.883   4.291  -0.009  0.1448 -0.5395  0.0028
 2740TIP3   OH229854   6.156   5.023   8.503  0.0165  0.1379  0.2650
 2740TIP3    H129855   6.113   5.107   8.518  2.0385  0.8963  2.3751
 2740TIP3    H229856   6.216   5.040   8.431 -1.1185 -0.1656 -0.7962
 2741TIP3   OH229857   3.757   0.767   1.512  0.2609  0.2676 -0.1748
 2741TIP3    H129858   3.808   0.740   1.589 -0.0419  0.1963  0.0051
 2741TIP3    H229859   3.667   0.739   1.532  0.6882 -2.9835 -2.0181
 2742TIP3   OH229860   4.716   5.141   2.373  0.5670 -0.3860 -0.3933
 2742TIP3    H129861   4.646   5.206   2.375 -0.5198 -1.5202  1.0012
 2742TIP3    H229862   4.724   5.111   2.464  2.4997 -0.6985 -0.6128
 2743TIP3   OH229863   4.906   0.004   1.735 -0.4261 -0.0380 -0.2001
 2743TIP3    H129864   4.948   0.065   1.674  0.3491 -0.8940 -0.5399
 2743TIP3    H229865   4.950   0.019   1.818  0.2934 -0.6510 -0.4614
 2744TIP3   OH229866   2.608   0.058   1.826  0.1640 -0.0147 -0.2048
 2744TIP3    H129867   2.541   0.049   1.893  0.4821 -1.2067 -0.0109
 2744TIP3    H229868   2.685   0.091   1.872  0.4938 -1.1774  0.1250
 2745TIP3   OH229869   1.048   1.693   2.247  0.0571 -0.1017  0.1750
 2745TIP3    H129870   0.998   1.773   2.232  0.7148  0.4600  0.9366
 2745TIP3    H229871   1.138   1.723   2.262  0.7106 -1.1109 -1.4653
 2746TIP3   OH229872   6.501   3.925   7.595 -0.1652 -0.0575 -0.2183
 2746TIP3    H129873   6.425   3.913   7.652 -1.0835  0.1874 -1.3473
 2746TIP3    H229874   6.503   3.846   7.541  1.2547 -0.7183  0.7532
 2747TIP3   OH229875   3.415   6.304   3.594 -0.3940 -0.5583  0.2676
 2747TIP3    H129876   3.428   6.376   3.533  1.6605  0.6516  1.9938
 2747TIP3    H229877   3.375   6.345   3.671  1.5368 -1.0033  1.5947
 2748TIP3   OH229878   3.050   4.527   8.520  0.5696 -0.4895  0.8444
 2748TIP3    H129879   3.141   4.554   8.512  0.4819 -0.2343  0.7193
 2748TIP3    H229880   3.046   4.442   8.476  0.7081 -0.4192  0.6956
 2749TIP3   OH229881   1.883   1.333   8.223 -0.2612 -0.2430  0.3325
 2749TIP3    H129882   1.942   1.335   8.147 -2.1370 -0.3208 -1.1956
 2749TIP3    H229883   1.940   1.311   8.297  1.3909 -1.7440 -1.2876
 2750TIP3   OH229884   1.924   6.837   3.921 -0.4113 -0.4336 -0.1691
 2750TIP3    H129885   2.016   6.833   3.947 -0.0912 -0.8241 -1.2968
 2750TIP3    H229886   1.927   6.840   3.825 -1.5655 -0.0809 -0.2061
 2751TIP3   OH229887   4.054   1.307   1.923  0.0945 -0.4824  0.5811
 2751TIP3    H129888   3.967   1.267   1.918  0.5392 -1.3436 -0.6840
 2751TIP3    H229889   4.112   1.244   1.880  1.1229  0.6890  0.2021
 2752TIP3   OH229890   6.527   1.347   1.991  0.0743  0.3766 -0.3959
 2752TIP3    H129891   6.511   1.254   1.976 -0.1514  0.1697  0.9977
 2752TIP3    H229892   6.601   1.369   1.934  2.0959 -1.3909  1.3625
 2753TIP3   OH229893   2.017   1.070   2.726  0.0768  0.0406  0.0495
 2753TIP3    H129894   2.101   1.039   2.760  0.4524  0.1966 -0.7003
 2753TIP3    H229895   1.951   1.017   2.771  0.6401 -0.9083 -0.2166
 2754TIP3   OH229896   4.098   2.375   0.938  0.0091  0.5249  0.2074
 2754TIP3    H129897   4.157   2.424   0.995  0.8971  0.2934 -0.4905
 2754TIP3    H229898   4.133   2.388   0.850 -1.0362  0.4512 -0.2312
 2755TIP3   OH229899   4.011   5.844   0.960 -0.3068  0.2948  0.0061
 2755TIP3    H129900   3.932   5.793   0.942 -0.1549 -0.5555  1.5627
 2755TIP3    H229901   4.080   5.779   0.973  0.3976  0.9809 -0.1753
 2756TIP3   OH229902   3.332   5.589   2.832 -0.1314 -0.5885  0.1481
 2756TIP3    H129903   3.396   5.658   2.815 -0.4285 -0.5756 -0.9715
 2756TIP3    H229904   3.297   5.610   2.919  1.4709 -0.6791  0.8528
 2757TIP3   OH229905   4.215   0.229   0.969  0.0611 -0.3489  0.5314
 2757TIP3    H129906   4.282   0.289   0.936 -0.5245 -0.2210 -0.4533
 2757TIP3    H229907   4.230   0.148   0.920  0.6657 -0.9439  1.6481
 2758TIP3   OH229908   6.675   5.869   1.331  0.4421 -0.6557  0.2869
 2758TIP3    H129909   6.733   5.941   1.356  1.5562 -0.8293 -1.6464
 2758TIP3    H229910   6.618   5.858   1.407  0.7607  1.7159  0.9729
 2759TIP3   OH229911   2.389   6.263   1.681 -0.6366 -0.2504 -0.0481
 2759TIP3    H129912   2.381   6.319   1.759  2.5264  0.1541  0.1076
 2759TIP3    H229913   2.300   6.234   1.664 -1.6388  0.6351  2.9925
 2760TIP3   OH229914   2.296   5.962   3.310  0.1117 -0.1777  0.0134
 2760TIP3    H129915   2.316   5.890   3.250  1.3322 -0.3837  0.6321
 2760TIP3    H229916   2.258   6.030   3.255  1.3586 -0.2881 -1.0319
 2761TIP3   OH229917   5.607   2.225   1.534 -0.1488  0.1071 -0.0560
 2761TIP3    H129918   5.644   2.306   1.499 -2.1294  0.7843 -0.6786
 2761TIP3    H229919   5.544   2.196   1.468  0.7171 -2.1347  0.0158
 2762TIP3   OH229920   1.882   4.142   2.988  0.5852  0.0586  0.7118
 2762TIP3    H129921   1.835   4.221   3.014  0.2326 -0.1098  0.5870
 2762TIP3    H229922   1.872   4.083   3.062 -0.1392 -0.2986  0.3366
 2763TIP3   OH229923   1.699   6.826   2.453  0.0746  0.8113  0.6857
 2763TIP3    H129924   1.746   6.897   2.498  2.2201  0.2193 -0.5088
 2763TIP3    H229925   1.621   6.869   2.417  1.5810  2.7552 -0.4828
 2764TIP3   OH229926   3.991   0.873   2.562  0.2601  0.1960  0.1108
 2764TIP3    H129927   3.907   0.846   2.600  0.9142 -0.3122  1.2238
 2764TIP3    H229928   3.979   0.966   2.543 -0.6209  0.0875  0.0576
 2765TIP3   OH229929   5.117   4.978   7.996  0.1824 -0.1008  0.1983
 2765TIP3    H129930   5.115   5.022   8.081  2.2347  1.5559 -0.5144
 2765TIP3    H229931   5.042   4.919   7.997  0.3051 -0.3579  3.2660
 2766TIP3   OH229932   6.360   5.598   1.139  0.2741  0.1258 -0.0948
 2766TIP3    H129933   6.447   5.630   1.114 -0.0759  1.2187  0.0163
 2766TIP3    H229934   6.305   5.618   1.063  0.2445 -1.1903 -0.4395
 2767TIP3   OH229935   0.664   1.900   8.435 -0.3805  0.5306 -0.0633
 2767TIP3    H129936   0.712   1.974   8.397  0.6564  0.4087  0.9503
 2767TIP3    H229937   0.681   1.827   8.374 -1.9188  1.2326 -1.4017
 2768TIP3   OH229938   1.868   6.268   0.002  0.6850  0.5546  0.2704
 2768TIP3    H129939   1.931   6.200  -0.020 -2.1373 -0.8047 -5.4651
 2768TIP3    H229940   1.918   6.350  -0.002  2.4774 -0.5227 -3.1489
 2769TIP3   OH229941   0.900   6.815   0.396 -0.3401  0.2931  0.0512
 2769TIP3    H129942   0.943   6.871   0.330 -1.9259  0.8704 -0.5454
 2769TIP3    H229943   0.815   6.857   0.410 -0.8070 -0.9432  1.0129
 2770TIP3   OH229944   2.524   1.032   0.022 -0.0527  0.5801  0.2041
 2770TIP3    H129945   2.584   1.071  -0.042  0.0545 -0.5825 -0.4303
 2770TIP3    H229946   2.453   0.996  -0.031 -0.1285 -0.1135  0.7647
 2771TIP3   OH229947   0.762   6.456   0.805  0.6182 -0.3727  0.2329
 2771TIP3    H129948   0.762   6.511   0.727  1.9131  0.3400  0.7102
 2771TIP3    H229949   0.671   6.459   0.836 -0.1053 -1.2786 -1.6340
 2772TIP3   OH229950   2.572   4.699   3.551  0.3665  0.2621  0.1042
 2772TIP3    H129951   2.485   4.660   3.539  0.5927  0.2192 -1.7379
 2772TIP3    H229952   2.616   4.642   3.613 -0.0711 -1.2068 -0.8851
 2773TIP3   OH229953   5.477   1.250   2.682  0.8695 -0.1075 -0.2643
 2773TIP3    H129954   5.456   1.158   2.666  0.1102 -0.3867  2.0812
 2773TIP3    H229955   5.543   1.249   2.751  0.9995  1.1333 -0.3383
 2774TIP3   OH229956   6.390   1.286   0.240 -0.0198  0.0782 -0.0821
 2774TIP3    H129957   6.423   1.311   0.326  0.2612  0.3584 -0.2685
 2774TIP3    H229958   6.440   1.340   0.178  1.4212 -1.6979 -0.5787
 2775TIP3   OH229959   1.272   5.631   3.773  0.0564 -0.0798 -0.8473
 2775TIP3    H129960   1.216   5.559   3.800  1.4186 -0.0605  2.4540
 2775TIP3    H229961   1.226   5.710   3.804  0.0037  0.2725 -1.7825
 2776TIP3   OH229962   5.979   5.363   0.782  0.1044 -0.0876 -0.7055
 2776TIP3    H129963   6.055   5.305   0.783  0.0057 -0.2118 -0.2529
 2776TIP3    H229964   5.978   5.399   0.693  1.3690  0.8230 -0.3786
 2777TIP3   OH229965   1.133   3.621   1.855 -0.0810  0.7029  0.2683
 2777TIP3    H129966   1.074   3.695   1.841  0.4395  0.9784 -0.5227
 2777TIP3    H229967   1.077   3.552   1.888 -0.6292  1.3554  0.7403
 2778TIP3   OH229968   1.393   4.642   8.402  0.3955 -0.2276 -1.0182
 2778TIP3    H129969   1.482   4.628   8.372  0.8470  2.0711 -0.9576
 2778TIP3    H229970   1.398   4.723   8.453 -1.6655 -0.2592 -0.6915
 2779TIP3   OH229971   0.099   4.034   0.017 -0.3891 -0.4530 -0.0169
 2779TIP3    H129972   0.027   4.097   0.005 -1.5934 -2.0191 -1.4788
 2779TIP3    H229973   0.164   4.060  -0.048 -0.4971 -0.1973 -0.0236
 2780TIP3   OH229974   2.342   5.942   0.541  0.0415 -0.1412 -0.5635
 2780TIP3    H129975   2.415   6.004   0.543 -1.1759  1.4971 -2.4770
 2780TIP3    H229976   2.359   5.888   0.464 -1.0383  0.7020 -1.4319
 2781TIP3   OH229977   5.966   5.934   0.911 -0.6762 -0.0840 -0.4860
 2781TIP3    H129978   5.877   5.964   0.931 -0.9571  0.3679 -2.2497
 2781TIP3    H229979   5.955   5.842   0.885 -0.4118 -0.4580  0.6707
 2782TIP3   OH229980   3.790   3.904   3.752 -0.1519  0.0381  0.1721
 2782TIP3    H129981   3.785   3.858   3.836 -1.4114 -0.2279 -0.0167
 2782TIP3    H229982   3.711   3.876   3.705  0.5364  0.1594 -1.1160
 2783TIP3   OH229983   5.982   2.132   2.036  0.7346  0.0545  0.2971
 2783TIP3    H129984   6.033   2.189   2.092  0.7334  0.6103 -0.2610
 2783TIP3    H229985   6.034   2.122   1.956  1.0221 -1.2186  0.6191
 2784TIP3   OH229986   5.133   5.974   1.000  0.5686 -0.6701 -0.3907
 2784TIP3    H129987   5.063   5.912   0.981 -0.2738 -0.4363  1.7418
 2784TIP3    H229988   5.182   5.981   0.917 -0.6866 -2.3792 -1.3339
 2785TIP3   OH229989   1.662   3.794   3.391  0.1648 -0.2265  0.2642
 2785TIP3    H129990   1.701   3.776   3.476  1.4161  0.9573 -0.0153
 2785TIP3    H229991   1.697   3.879   3.366  0.1386 -0.7085 -1.5997
 2786TIP3   OH229992   5.020   4.276   1.597  0.0680  0.0572 -0.0149
 2786TIP3    H129993   4.938   4.242   1.562 -0.2698 -1.7619  2.2589
 2786TIP3    H229994   5.003   4.368   1.616 -0.8442  0.1489 -1.1872
 2787TIP3   OH229995   1.451   2.524   8.018 -0.2026  0.6274  0.0054
 2787TIP3    H129996   1.524   2.467   8.042 -0.9644  0.7414  3.0834
 2787TIP3    H229997   1.401   2.474   7.953  0.1352 -1.5057  1.2867
 2788TIP3   OH229998   0.622   3.502   8.517 -0.2558  0.1760 -0.1888
 2788TIP3    H129999   0.579   3.480   8.600 -0.0441  1.4508  0.2878
 2788TIP3    H230000   0.638   3.596   8.523 -0.9356  0.4501 -2.0148
 2789TIP3   OH230001   4.149   2.138   0.682  0.2051  0.4585  0.4751
 2789TIP3    H130002   4.055   2.154   0.680  0.0878 -0.1193 -1.9344
 2789TIP3    H230003   4.170   2.107   0.594  2.0648 -2.9646  1.9445
 2790TIP3   OH230004   1.953   2.790   3.938  0.3328  0.2790 -0.4217
 2790TIP3    H130005   2.032   2.803   3.886 -1.0208 -3.2874 -3.8309
 2790TIP3    H230006   1.888   2.847   3.898  0.3410  0.8294  0.3234
 2791TIP3   OH230007   4.714   5.497   2.769 -0.2154  0.5527 -0.0410
 2791TIP3    H130008   4.793   5.542   2.799  1.5352  0.8843 -4.5171
 2791TIP3    H230009   4.738   5.404   2.771  0.4473  0.6670 -1.6090
 2792TIP3   OH230010   4.197   3.355   2.885  0.0977 -0.3008  0.7204
 2792TIP3    H130011   4.269   3.318   2.938  0.9236  0.5961  0.2476
 2792TIP3    H230012   4.119   3.340   2.938  0.4691 -2.1812  0.8168
 2793TIP3   OH230013   3.855   5.050   8.445 -0.4123 -0.1578 -0.1273
 2793TIP3    H130014   3.933   5.087   8.487  0.2320 -0.4464 -1.0275
 2793TIP3    H230015   3.812   5.124   8.403 -0.0778 -0.1482 -0.4578
 2794TIP3   OH230016   0.411   3.683   2.406 -0.3201  0.1409 -0.0748
 2794TIP3    H130017   0.433   3.745   2.337  0.4010  0.2752  0.2692
 2794TIP3    H230018   0.422   3.732   2.487 -1.0714 -0.0451  0.1412
 2795TIP3   OH230019   3.023   2.984   0.668  0.4308 -0.2646  0.1066
 2795TIP3    H130020   2.937   2.956   0.698  0.9733 -2.7379 -0.4313
 2795TIP3    H230021   3.036   3.070   0.710 -1.7306 -0.4030  1.2093
 2796TIP3   OH230022   2.280   6.852   1.764  0.1066 -0.8765  0.3940
 2796TIP3    H130023   2.327   6.926   1.801  0.6617 -1.4623  0.8820
 2796TIP3    H230024   2.277   6.787   1.834  1.6989 -2.2478 -0.7242
 2797TIP3   OH230025   6.257   2.518   3.002  0.0389  0.2405  0.5784
 2797TIP3    H130026   6.188   2.456   3.027  0.1199 -0.3653 -0.6333
 2797TIP3    H230027   6.335   2.487   3.048 -0.0496 -0.2284  0.4159
 2798TIP3   OH230028   3.250   6.384   8.671  0.2165 -0.2210 -0.1944
 2798TIP3    H130029   3.282   6.353   8.586 -0.5288 -1.1288 -0.1671
 2798TIP3    H230030   3.225   6.303   8.717 -1.9937  0.4171 -0.1828
 2799TIP3   OH230031   6.686   0.380   3.741 -0.2638  0.9246  0.3554
 2799TIP3    H130032   6.668   0.388   3.647  0.2653 -0.7970  0.0713
 2799TIP3    H230033   6.751   0.448   3.758  0.1915  0.7805 -0.6981
 2800TIP3   OH230034   2.086   6.796   2.630  0.7472 -0.0447  0.5581
 2800TIP3    H130035   1.996   6.787   2.660  0.5324  0.8729  0.2185
 2800TIP3    H230036   2.132   6.838   2.703  0.8115 -0.1443  0.5753
 2801TIP3   OH230037   5.267   5.312   2.165 -0.2439 -0.0837 -1.1556
 2801TIP3    H130038   5.238   5.238   2.218 -2.5011  1.9142  0.6380
 2801TIP3    H230039   5.363   5.311   2.174 -0.3092 -1.8846  0.0334
 2802TIP3   OH230040   5.814   5.408   1.796 -0.3814 -0.4839  0.8903
 2802TIP3    H130041   5.804   5.432   1.704  2.4015  0.5647  0.7884
 2802TIP3    H230042   5.729   5.430   1.835 -1.0211  0.7902 -1.0421
 2803TIP3   OH230043   6.431   6.513   1.850  0.0635  0.0602  0.0219
 2803TIP3    H130044   6.465   6.452   1.785 -0.4274 -0.9581  0.6778
 2803TIP3    H230045   6.368   6.567   1.802 -2.4650 -2.5246  0.0911
 2804TIP3   OH230046   3.973   3.233   0.986 -0.4719 -0.4442 -0.0299
 2804TIP3    H130047   4.026   3.274   0.917 -0.5964 -0.4501 -0.1308
 2804TIP3    H230048   3.889   3.279   0.982 -0.6970 -0.8749 -0.3123
 2805TIP3   OH230049   5.029   3.350   3.613  0.0414 -0.1301 -0.0126
 2805TIP3    H130050   4.961   3.315   3.671 -0.5032  2.5164  1.1036
 2805TIP3    H230051   5.110   3.312   3.645  0.0810  2.8431  4.1492
 2806TIP3   OH230052   0.559   4.315   2.801  0.1973  0.0751 -0.5031
 2806TIP3    H130053   0.514   4.376   2.743  0.7458  0.9639 -0.0211
 2806TIP3    H230054   0.571   4.364   2.882  1.9294 -0.1624 -0.5798
 2807TIP3   OH230055   4.692   2.532   8.604 -0.1730 -0.6664  0.5421
 2807TIP3    H130056   4.616   2.587   8.621 -0.2910 -0.1189 -1.4993
 2807TIP3    H230057   4.674   2.491   8.519  0.0073 -3.7324  1.8444
 2808TIP3   OH230058   1.486   0.023   2.263 -0.4814 -0.8178 -0.0276
 2808TIP3    H130059   1.392   0.003   2.263 -0.7395  0.3178  0.2544
 2808TIP3    H230060   1.519  -0.020   2.184 -1.3479 -0.7547 -0.4402
 2809TIP3   OH230061   0.906   2.448   1.576 -0.1523 -0.3003  0.1112
 2809TIP3    H130062   0.972   2.409   1.519  0.3258 -0.5038  0.7971
 2809TIP3    H230063   0.859   2.510   1.519 -0.9456 -1.8672 -0.9940
 2810TIP3   OH230064   5.789   4.880   0.756 -0.2992  0.2428  0.1987
 2810TIP3    H130065   5.813   4.794   0.721 -0.1335  0.2279  0.3476
 2810TIP3    H230066   5.842   4.942   0.705  0.0801  0.2083  0.5417
 2811TIP3   OH230067   2.392   2.902   1.277  0.0954 -0.1295 -0.1776
 2811TIP3    H130068   2.377   2.934   1.188  0.6469 -0.7793 -0.5098
 2811TIP3    H230069   2.465   2.842   1.269 -0.3799 -0.8259  0.5793
 2812TIP3   OH230070   0.254   3.489   2.281 -0.5098  0.4820 -0.2200
 2812TIP3    H130071   0.295   3.567   2.319 -1.3208  1.0396 -0.4633
 2812TIP3    H230072   0.259   3.503   2.186  0.5247 -0.3916 -0.3110
 2813TIP3   OH230073   5.993   6.433   1.941 -0.1600 -0.0196  0.0842
 2813TIP3    H130074   5.970   6.514   1.895  0.3932  0.0895 -0.0071
 2813TIP3    H230075   6.005   6.460   2.032 -1.1476 -0.2161  0.2796
 2814TIP3   OH230076   2.266   6.108   2.823 -0.3738 -0.0279  0.3353
 2814TIP3    H130077   2.337   6.156   2.866 -0.2997  1.3332 -1.2163
 2814TIP3    H230078   2.293   6.016   2.829 -0.3777  0.0523  3.1057
 2815TIP3   OH230079   3.717   0.508   0.251 -0.7152  0.5664 -0.1783
 2815TIP3    H130080   3.634   0.498   0.298  0.2829 -0.1216  1.5353
 2815TIP3    H230081   3.735   0.421   0.215  0.5863 -0.0938  1.8738
 2816TIP3   OH230082   0.792   5.287   1.928 -0.0780  0.7868  0.4889
 2816TIP3    H130083   0.745   5.311   1.849  1.1699  0.6356 -0.3360
 2816TIP3    H230084   0.773   5.357   1.991 -0.3360  1.3952 -0.2583
 2817TIP3   OH230085   6.520   6.362   1.002  0.3087  0.0404  0.4973
 2817TIP3    H130086   6.457   6.318   0.944  1.5438  0.6605 -1.4199
 2817TIP3    H230087   6.482   6.448   1.019  0.2422  0.1068  0.0263
 2818TIP3   OH230088   4.400   2.062   8.073  0.3816  0.0780  0.1165
 2818TIP3    H130089   4.461   2.135   8.063  0.4846 -0.2027 -1.5300
 2818TIP3    H230090   4.445   1.988   8.034 -0.4055 -0.4936  0.2740
 2819TIP3   OH230091   5.986   1.818   0.109 -0.5285 -0.3568  0.0936
 2819TIP3    H130092   6.079   1.796   0.123 -0.3251  0.7180  0.5188
 2819TIP3    H230093   5.958   1.856   0.192 -1.4001 -0.7730  0.0049
 2820TIP3   OH230094   4.650   5.407   1.350  0.1625  0.0015  0.0425
 2820TIP3    H130095   4.640   5.419   1.256 -0.5259 -0.4813  0.0501
 2820TIP3    H230096   4.735   5.446   1.370 -0.9549  2.8333 -0.2844
 2821TIP3   OH230097   6.749   4.216   2.021 -0.0491 -0.1584 -1.1809
 2821TIP3    H130098   6.810   4.259   1.960  0.1804  0.7592 -0.3312
 2821TIP3    H230099   6.664   4.256   2.001 -0.2764 -0.9895 -1.9431
 2822TIP3   OH230100   3.527   2.276   1.977 -0.0953 -0.1763  0.4426
 2822TIP3    H130101   3.617   2.286   1.947  0.4549 -0.7267  1.8631
 2822TIP3    H230102   3.482   2.234   1.903  1.0833 -1.0218  0.1717
 2823TIP3   OH230103   5.461   1.189   0.486  0.4489  0.6113 -0.1935
 2823TIP3    H130104   5.400   1.209   0.415 -0.4830 -1.5987 -0.0871
 2823TIP3    H230105   5.406   1.154   0.556  1.7380 -0.8413  0.1472
 2824TIP3   OH230106   6.154   2.909   1.760  0.4630  0.2925  0.0778
 2824TIP3    H130107   6.146   3.001   1.736  0.0229  0.1846 -0.1925
 2824TIP3    H230108   6.064   2.878   1.771  0.6060  0.4996  2.5570
 2825TIP3   OH230109   3.851   2.023   1.041 -0.5779  0.1446  0.2438
 2825TIP3    H130110   3.802   1.943   1.023  1.5934 -1.0105 -0.8198
 2825TIP3    H230111   3.860   2.065   0.956  0.2168  0.3733  0.4372
 2826TIP3   OH230112   0.085   0.440   3.521 -0.4169  0.1570  0.1617
 2826TIP3    H130113   0.065   0.532   3.506 -0.9484  0.2041  1.0729
 2826TIP3    H230114   0.000   0.396   3.516 -0.2086 -0.2314  0.0459
 2827TIP3   OH230115   2.891   2.501   2.484 -0.0502 -0.2951 -0.4328
 2827TIP3    H130116   2.825   2.452   2.533  0.0270  0.4784  0.4486
 2827TIP3    H230117   2.970   2.447   2.489  0.3693  0.4495  1.5488
 2828TIP3   OH230118   5.483   4.630   2.593  0.1514 -0.2288  0.8180
 2828TIP3    H130119   5.489   4.571   2.517  0.3061 -0.2198  0.8235
 2828TIP3    H230120   5.569   4.624   2.635 -0.0878 -0.6067  1.2677
 2829TIP3   OH230121   2.074   0.924   3.903 -0.0722  0.3647 -0.2066
 2829TIP3    H130122   2.070   0.903   3.996  0.4712 -2.0331 -0.6396
 2829TIP3    H230123   2.168   0.928   3.884 -0.1715  0.3212 -0.7210
 2830TIP3   OH230124   1.019   5.175   3.983  0.0781 -0.0957  0.2156
 2830TIP3    H130125   1.102   5.146   3.946  0.3592  0.3928  0.4461
 2830TIP3    H230126   1.041   5.204   4.072 -0.2061  0.6688  0.0465
 2831TIP3   OH230127   0.149   4.937   3.081  0.6275  0.2417 -0.1345
 2831TIP3    H130128   0.123   5.025   3.109  0.9582  0.4593 -0.5017
 2831TIP3    H230129   0.116   4.930   2.991  2.7211  0.9283 -1.0187
 2832TIP3   OH230130   0.138   0.301   1.364 -0.8213 -0.1446 -0.2189
 2832TIP3    H130131   0.211   0.239   1.370 -1.9213 -1.7726 -2.1631
 2832TIP3    H230132   0.145   0.336   1.275 -1.3507  1.1043  0.2119
 2833TIP3   OH230133   4.152   3.787   2.501  0.1359 -0.0973 -0.1778
 2833TIP3    H130134   4.201   3.867   2.523 -0.0195  0.0311 -0.3030
 2833TIP3    H230135   4.174   3.726   2.572  0.0502  0.1421  0.0567
 2834TIP3   OH230136   0.560   1.147   2.148 -0.3144  0.4317 -0.0832
 2834TIP3    H130137   0.511   1.077   2.106 -2.0751  1.8096 -0.4283
 2834TIP3    H230138   0.651   1.130   2.126 -0.6783 -1.7977 -0.0421
 2835TIP3   OH230139   2.041   5.961   3.985  0.8967  0.3599 -0.7303
 2835TIP3    H130140   1.969   5.900   3.999  0.4734  0.9957 -0.1077
 2835TIP3    H230141   2.000   6.040   3.950  1.2768  0.7667 -0.2609
 2836TIP3   OH230142   1.123   1.918   0.519 -0.1988 -0.2887  0.2729
 2836TIP3    H130143   1.206   1.923   0.471 -0.6832  2.2710 -0.4629
 2836TIP3    H230144   1.060   1.963   0.463 -1.2932  0.8987  2.3214
 2837TIP3   OH230145   0.062   4.729   1.679  0.9248  0.0962  0.0116
 2837TIP3    H130146   0.102   4.643   1.670  1.8012  0.4869  0.0468
 2837TIP3    H230147   0.073   4.752   1.771 -0.2761 -0.2057  0.2447
 2838TIP3   OH230148   1.707   0.984   3.032  0.3647  0.0390  0.4356
 2838TIP3    H130149   1.628   1.035   3.049  1.2342  1.5762  0.0244
 2838TIP3    H230150   1.697   0.953   2.942 -0.0438 -0.2937  0.5945
 2839TIP3   OH230151   5.101   4.612   2.112  0.4544 -0.0474  0.3618
 2839TIP3    H130152   5.060   4.567   2.186  3.9507 -1.9168  1.3912
 2839TIP3    H230153   5.093   4.705   2.134 -2.7933 -0.2320  0.5459
 2840TIP3   OH230154   2.403   4.972   1.287 -0.3987  0.3370  0.7213
 2840TIP3    H130155   2.384   4.938   1.375 -1.3616  1.7567  1.0972
 2840TIP3    H230156   2.325   4.951   1.236 -0.2937  0.4931  0.4981
 2841TIP3   OH230157   2.777   3.087   2.511 -0.6494  0.0819  0.3402
 2841TIP3    H130158   2.823   3.004   2.528  0.8944  0.8245 -0.0568
 2841TIP3    H230159   2.688   3.060   2.489  0.0010 -1.5437 -0.5134
 2842TIP3   OH230160   1.010   6.697   1.913  0.0220 -0.0550  0.2739
 2842TIP3    H130161   0.950   6.730   1.846 -1.9211 -0.3290  1.7848
 2842TIP3    H230162   1.060   6.629   1.870  0.4849  1.3529 -1.5152
 2843TIP3   OH230163   2.828   2.717   0.491  0.0590  0.7785 -0.2351
 2843TIP3    H130164   2.841   2.625   0.472 -2.3632  0.0769  1.0345
 2843TIP3    H230165   2.876   2.732   0.573 -1.2437  0.0475  0.6992
 2844TIP3   OH230166   5.535   4.229   0.498  0.1901 -0.2379  0.1277
 2844TIP3    H130167   5.616   4.280   0.496 -1.6833  3.0190 -0.8937
 2844TIP3    H230168   5.514   4.214   0.405  0.5094 -2.7819  0.3871
 2845TIP3   OH230169   3.353   5.374   0.355 -0.0265 -0.0819 -0.3415
 2845TIP3    H130170   3.292   5.441   0.323  1.5028  1.4637 -0.1496
 2845TIP3    H230171   3.297   5.314   0.404 -1.4614  1.0702 -0.4631
 2846TIP3   OH230172   5.990   5.525   1.061  0.5178  0.2172  0.1081
 2846TIP3    H130173   6.039   5.475   0.996 -0.7510  0.5442 -1.1525
 2846TIP3    H230174   5.957   5.601   1.013  1.3814  1.6454  1.6918
 2847TIP3   OH230175   0.268   6.050   8.173 -0.9224  0.4145  0.1422
 2847TIP3    H130176   0.230   6.115   8.114 -0.8619 -0.7149 -1.2076
 2847TIP3    H230177   0.213   5.972   8.161  0.2968 -0.4610  0.0589
 2848TIP3   OH230178   5.921   1.110   1.941  0.4953 -0.2699  0.3897
 2848TIP3    H130179   5.879   1.195   1.956  1.6278  0.1343  1.3946
 2848TIP3    H230180   5.992   1.107   2.004  1.2796 -1.4263 -0.5152
 2849TIP3   OH230181   5.761   0.267   2.718 -0.0591 -0.6970 -0.1683
 2849TIP3    H130182   5.676   0.227   2.738  0.7131 -2.8379 -0.7972
 2849TIP3    H230183   5.818   0.238   2.790  0.6340 -1.1717 -0.8811
 2850TIP3   OH230184   5.186   6.337   0.088 -0.1195  0.1241  0.1001
 2850TIP3    H130185   5.105   6.384   0.108 -0.1985 -0.2235  0.5954
 2850TIP3    H230186   5.213   6.372   0.003 -1.4731 -0.6860 -0.6958
 2851TIP3   OH230187   3.463   1.054   0.560 -0.2564 -0.1677  0.0650
 2851TIP3    H130188   3.518   0.980   0.585 -2.2524 -1.5086  0.6762
 2851TIP3    H230189   3.399   1.017   0.499  1.1395  1.9222 -2.9822
 2852TIP3   OH230190   4.066   1.758   8.749  0.3276  0.4709 -0.1754
 2852TIP3    H130191   4.041   1.699   8.678  2.1280  1.9594 -2.2098
 2852TIP3    H230192   4.065   1.845   8.709 -3.2571  2.1443  2.9418
 2853TIP3   OH230193   4.401   3.245   3.014  0.8229  0.2150 -0.0603
 2853TIP3    H130194   4.427   3.221   3.103  3.0580 -2.3023 -1.2598
 2853TIP3    H230195   4.466   3.203   2.958 -1.5756  0.1059 -3.0047
 2854TIP3   OH230196   1.964   4.554   1.951 -0.1071 -0.0222 -0.0331
 2854TIP3    H130197   1.871   4.571   1.960 -0.2610 -1.3110  1.1364
 2854TIP3    H230198   1.976   4.538   1.857 -0.9309  0.8222 -0.2897
 2855TIP3   OH230199   5.343   0.527   1.163 -0.8728 -0.3820  0.2684
 2855TIP3    H130200   5.326   0.498   1.073 -1.8522 -1.4078  0.7572
 2855TIP3    H230201   5.261   0.567   1.191 -0.0573  1.4578  0.1770
 2856TIP3   OH230202   4.065   3.010   3.103 -0.1942 -0.2809  0.0234
 2856TIP3    H130203   4.009   3.000   3.179  0.5688 -0.2964  0.5967
 2856TIP3    H230204   4.104   2.924   3.089  0.3413 -0.0676  0.1607
 2857TIP3   OH230205   4.377   2.522   8.249 -0.6073 -0.3587 -0.2770
 2857TIP3    H130206   4.469   2.522   8.275 -0.9432 -2.9540  1.1321
 2857TIP3    H230207   4.345   2.609   8.275  1.2952  0.4413 -0.4294
 2858TIP3   OH230208   3.243   3.768   8.514 -0.0243 -0.5099 -0.1030
 2858TIP3    H130209   3.227   3.715   8.592 -1.7461  0.5512  0.3237
 2858TIP3    H230210   3.326   3.735   8.478  1.4406 -0.3281  2.7950
 2859TIP3   OH230211   5.123   4.538   0.587 -0.0341  0.3763  0.0074
 2859TIP3    H130212   5.136   4.627   0.555  0.7364 -0.0091 -0.8186
 2859TIP3    H230213   5.210   4.509   0.614 -0.1488 -0.3586 -0.3819
 2860TIP3   OH230214   3.591   3.114   2.208  0.4229  0.7307 -0.2170
 2860TIP3    H130215   3.670   3.080   2.249  0.5368  0.1445 -0.8991
 2860TIP3    H230216   3.520   3.061   2.244  0.5582  0.0069 -1.0000
 2861TIP3   OH230217   4.917   5.691   1.182 -0.2540  0.3617  0.0230
 2861TIP3    H130218   5.010   5.693   1.163  0.0572 -0.9757  1.2684
 2861TIP3    H230219   4.876   5.670   1.098  0.5974  0.3656 -0.4051
 2862TIP3   OH230220   2.422   0.040   3.961 -0.2819 -0.1058  0.0119
 2862TIP3    H130221   2.490   0.093   4.002 -1.9226  0.8891  1.6047
 2862TIP3    H230222   2.468  -0.010   3.894  2.4196 -0.9782  2.2882
 2863TIP3   OH230223   4.119   1.812   2.113 -0.8254  0.0072  0.2628
 2863TIP3    H130224   4.053   1.790   2.179  0.1864 -1.0648  0.9586
 2863TIP3    H230225   4.144   1.902   2.134 -0.3421 -0.3925  1.5357
 2864TIP3   OH230226   0.225   5.533   1.599  0.0633  0.0343 -0.0395
 2864TIP3    H130227   0.169   5.583   1.541  0.4543  0.6781  0.1256
 2864TIP3    H230228   0.220   5.443   1.567  0.5840  0.4413 -1.3259
 2865TIP3   OH230229   0.256   2.845   2.056  0.6671  0.3649 -0.3775
 2865TIP3    H130230   0.188   2.788   2.021  0.5266  0.6183 -0.5172
 2865TIP3    H230231   0.280   2.902   1.983 -0.3379  1.5838  0.2139
 2866TIP3   OH230232   2.617   3.757   2.759 -0.5978 -0.1159 -0.0202
 2866TIP3    H130233   2.601   3.712   2.842 -1.8076 -2.3106 -1.3417
 2866TIP3    H230234   2.539   3.810   2.744 -0.3065  0.4132  0.2903
 2867TIP3   OH230235   1.661   6.461   3.408 -0.0439  0.4256 -0.3307
 2867TIP3    H130236   1.637   6.524   3.476  2.8676 -0.7046  1.9574
 2867TIP3    H230237   1.713   6.513   3.346  0.2818  0.7994  0.2394
 2868TIP3   OH230238   3.266   5.814   1.581 -0.4916 -0.1259  0.1463
 2868TIP3    H130239   3.348   5.764   1.579 -0.7657 -0.7053  1.7919
 2868TIP3    H230240   3.293   5.905   1.583  0.1078 -0.2976  0.1000
 2869TIP3   OH230241   0.143   2.497   8.757 -0.3339  0.1613  0.0109
 2869TIP3    H130242   0.169   2.455   8.675  0.2477  0.7568 -0.1164
 2869TIP3    H230243   0.218   2.550   8.782 -0.8635  0.7214  0.4471
 2870TIP3   OH230244   2.966   2.533   1.315 -0.3865 -0.0917  0.2021
 2870TIP3    H130245   3.049   2.576   1.335  0.0321 -0.3880 -0.8321
 2870TIP3    H230246   2.944   2.564   1.227 -1.3039 -0.1302  0.4139
 2871TIP3   OH230247   1.032   0.579   0.526  0.3947 -0.0987 -0.4702
 2871TIP3    H130248   1.100   0.622   0.475  1.9632 -1.0308  0.7582
 2871TIP3    H230249   1.060   0.488   0.531 -1.1682 -0.5995 -0.2587
 2872TIP3   OH230250   6.505   2.924   2.510 -0.2899  0.1708 -0.4943
 2872TIP3    H130251   6.467   2.847   2.552  0.5060  0.3137  0.5077
 2872TIP3    H230252   6.431   2.984   2.499 -0.5764 -0.0025  0.4049
 2873TIP3   OH230253   1.806   3.342   8.232 -0.2059 -0.0293 -0.1996
 2873TIP3    H130254   1.749   3.287   8.179 -0.6334 -0.7706  0.9796
 2873TIP3    H230255   1.885   3.290   8.245  0.6090  0.8269 -1.4747
 2874TIP3   OH230256   2.101   2.152   0.914 -0.4891  0.1176  0.4422
 2874TIP3    H130257   2.135   2.145   1.003 -0.3427 -0.5369  0.3360
 2874TIP3    H230258   2.012   2.117   0.918 -0.8765  1.0781  0.5480
 2875TIP3   OH230259   0.022   4.485   2.935 -0.6320 -0.0120 -0.2783
 2875TIP3    H130260   0.060   4.470   2.848  0.2854 -3.1375  0.5110
 2875TIP3    H230261  -0.056   4.430   2.936 -0.9079  0.3775  0.7168
 2876TIP3   OH230262   6.082   3.553   3.078 -0.0738 -0.1378 -0.0070
 2876TIP3    H130263   6.066   3.572   2.986 -0.8006  0.4787  0.2392
 2876TIP3    H230264   6.010   3.596   3.125  0.1627 -0.6272  0.8303
 2877TIP3   OH230265   1.789   6.091   1.664  0.2647 -0.0409  0.5034
 2877TIP3    H130266   1.875   6.050   1.655  0.2205  0.2397 -1.5617
 2877TIP3    H230267   1.732   6.021   1.696  1.0916 -0.4009  1.2324
 2878TIP3   OH230268   2.420   0.810   0.968  0.5221 -0.5174  0.1367
 2878TIP3    H130269   2.357   0.768   0.909 -1.1084  0.8202  0.8527
 2878TIP3    H230270   2.408   0.904   0.954  2.3600 -0.2145  0.3331
 2879TIP3   OH230271   3.198   1.110   1.888 -0.0424  0.2845  0.4524
 2879TIP3    H130272   3.287   1.133   1.862  0.1824 -0.5683  0.4209
 2879TIP3    H230273   3.151   1.193   1.892  0.4620  0.6355 -0.6248
 2880TIP3   OH230274   4.396   3.642   1.591 -0.0047  0.0138  0.2364
 2880TIP3    H130275   4.409   3.634   1.497  1.9476 -3.2069  0.6227
 2880TIP3    H230276   4.302   3.630   1.604 -0.0377 -1.5288 -1.1903
 2881TIP3   OH230277   5.599   6.129   1.757  0.2373  0.6006  0.2274
 2881TIP3    H130278   5.682   6.169   1.784 -0.2380  0.6168  1.7928
 2881TIP3    H230279   5.590   6.052   1.813 -0.5521  0.2940 -0.2960
 2882TIP3   OH230280   1.935   0.946   1.938 -0.5225 -0.2359  0.1087
 2882TIP3    H130281   1.916   0.931   2.030 -0.3798 -1.8993 -0.1068
 2882TIP3    H230282   1.850   0.964   1.898 -0.5191  1.0530  0.6325
 2883TIP3   OH230283   0.762   5.168   2.724  0.4226  0.0124 -0.3942
 2883TIP3    H130284   0.799   5.146   2.810  0.4821 -1.1740 -0.7045
 2883TIP3    H230285   0.695   5.234   2.744  1.5453  0.9603  0.3571
 2884TIP3   OH230286   3.329   1.675   1.143  0.6472 -0.7740  0.3539
 2884TIP3    H130287   3.313   1.583   1.122  1.4957 -1.4926  2.5610
 2884TIP3    H230288   3.363   1.712   1.062 -0.7882 -2.0928 -0.9284
 2885TIP3   OH230289   2.866   1.214   1.192 -0.8871  0.4894 -0.3483
 2885TIP3    H130290   2.852   1.148   1.124 -0.9215 -1.7471  1.6897
 2885TIP3    H230291   2.819   1.180   1.268  2.1463  0.8908  1.9149
 2886TIP3   OH230292   5.755   1.467   8.725  0.2329 -0.5423 -0.1146
 2886TIP3    H130293   5.734   1.485   8.633 -0.5881 -0.1932  0.1298
 2886TIP3    H230294   5.669   1.453   8.766  0.3843  1.5476  1.0530
 2887TIP3   OH230295   5.184   4.878   2.161  0.3670 -0.1849 -0.2835
 2887TIP3    H130296   5.129   4.945   2.121  1.3942  1.3117  0.7082
 2887TIP3    H230297   5.254   4.863   2.097 -0.1946 -0.7902 -0.7709
 2888TIP3   OH230298   0.873   4.778   8.058  0.4424  0.7104 -0.0958
 2888TIP3    H130299   0.780   4.757   8.059  0.6185 -0.0682  0.5462
 2888TIP3    H230300   0.886   4.825   7.975 -0.4050  0.3404 -0.4505
 2889TIP3   OH230301   5.594   2.745   0.249  0.1242 -0.2118  0.3376
 2889TIP3    H130302   5.567   2.759   0.340  0.8418  0.5242  0.4494
 2889TIP3    H230303   5.632   2.657   0.248  3.6194  1.1000  1.6554
 2890TIP3   OH230304   2.591   5.883   8.532  0.8496 -0.5196 -0.0320
 2890TIP3    H130305   2.592   5.834   8.450 -0.3188  0.2334 -0.5150
 2890TIP3    H230306   2.517   5.943   8.524  1.1695  0.0933  1.2703
 2891TIP3   OH230307   1.520   4.000   0.575  0.6216 -0.1804  0.1164
 2891TIP3    H130308   1.598   4.035   0.619 -0.8048  1.1977  1.7290
 2891TIP3    H230309   1.470   4.078   0.549 -0.6237 -1.0079 -0.0742
 2892TIP3   OH230310   4.378   3.763   2.771 -0.1806 -0.4198  0.0700
 2892TIP3    H130311   4.389   3.672   2.797 -0.6399 -1.0912 -1.8817
 2892TIP3    H230312   4.451   3.780   2.711  0.1950  0.6789  0.8119
 2893TIP3   OH230313   2.808   0.211   0.369  0.7075  0.2727  0.4664
 2893TIP3    H130314   2.896   0.246   0.379  0.2613  1.2372  1.2308
 2893TIP3    H230315   2.773   0.255   0.291  1.1872 -0.7877 -0.3846
 2894TIP3   OH230316   6.627   6.297   2.359  1.4199  0.0407 -0.0700
 2894TIP3    H130317   6.571   6.312   2.283  1.3290  0.4229  0.0707
 2894TIP3    H230318   6.711   6.269   2.323  0.6943 -2.1054 -0.2594
 2895TIP3   OH230319   4.421   0.791   2.779 -0.1675 -0.3005 -0.2702
 2895TIP3    H130320   4.451   0.793   2.688  0.4302 -1.9038 -0.1348
 2895TIP3    H230321   4.328   0.771   2.773 -0.1526 -0.3008 -0.5233
 2896TIP3   OH230322   2.958   1.418   2.773 -0.1730  0.4151  0.3731
 2896TIP3    H130323   2.976   1.511   2.790  1.8811  0.1732 -0.2454
 2896TIP3    H230324   2.989   1.403   2.684 -1.0127 -0.7492  0.2529
 2897TIP3   OH230325   2.271   1.159   0.469 -0.2286 -0.2743  0.0817
 2897TIP3    H130326   2.287   1.249   0.496  1.2862 -0.8155  1.1569
 2897TIP3    H230327   2.293   1.157   0.376 -0.1971  0.4514  0.0696
 2898TIP3   OH230328   5.334   0.834   7.860  0.1768  0.1058 -0.2555
 2898TIP3    H130329   5.367   0.754   7.819 -0.2270 -0.7397  0.9984
 2898TIP3    H230330   5.366   0.905   7.804  0.9231 -0.9006 -1.1480
 2899TIP3   OH230331   1.185   4.374   0.417  0.0278  0.2264  0.0282
 2899TIP3    H130332   1.161   4.418   0.336 -0.0967  2.4646  1.1825
 2899TIP3    H230333   1.204   4.446   0.478 -1.5813 -1.2847  2.4989
 2900TIP3   OH230334   5.090   0.986   2.590  0.1377 -0.0376 -0.2182
 2900TIP3    H130335   5.175   0.942   2.588 -0.6968 -1.7921  0.7330
 2900TIP3    H230336   5.066   0.997   2.498  1.6251  1.0096 -0.5159
 2901TIP3   OH230337   4.886   3.313   0.169 -0.3291 -0.1114  0.2587
 2901TIP3    H130338   4.834   3.238   0.141 -0.6946  0.6594 -1.2057
 2901TIP3    H230339   4.975   3.292   0.141 -0.1724 -0.5916  1.0827
 2902TIP3   OH230340   1.908   2.362   0.345 -0.0769  0.1777  0.3238
 2902TIP3    H130341   1.917   2.266   0.341  1.8422  0.2894  1.0154
 2902TIP3    H230342   1.944   2.392   0.262  0.3826  0.3480  0.5822
 2903TIP3   OH230343   0.782   6.228   0.670 -0.5981 -0.3910  0.1474
 2903TIP3    H130344   0.716   6.173   0.712 -1.0446  1.0119  1.3520
 2903TIP3    H230345   0.783   6.309   0.721  0.7318  0.3598 -0.9801
 2904TIP3   OH230346   0.146   5.782   0.490 -0.5757  0.0845 -0.0693
 2904TIP3    H130347   0.226   5.826   0.521  1.8554 -2.5076 -2.0914
 2904TIP3    H230348   0.102   5.847   0.436 -0.1635  1.7703  1.5474
 2905TIP3   OH230349   1.012   1.821   1.144 -0.0887  0.3558 -0.1361
 2905TIP3    H130350   1.045   1.736   1.114 -2.0234 -0.5147  0.0351
 2905TIP3    H230351   1.023   1.879   1.069  1.1574 -0.0439 -0.2966
 2906TIP3   OH230352   4.097   4.605   4.004 -0.3123  0.4341 -0.4225
 2906TIP3    H130353   4.086   4.590   3.910  0.6027 -1.7639 -0.2292
 2906TIP3    H230354   4.139   4.691   4.010 -1.9079  1.3750 -1.9054
 2907TIP3   OH230355   0.073   6.250   0.839 -0.1246  0.2338  0.3126
 2907TIP3    H130356   0.031   6.165   0.831 -0.6456 -0.0422  4.0959
 2907TIP3    H230357   0.001   6.313   0.840  0.1548  0.6005 -0.8796
 2908TIP3   OH230358   0.568   5.997   2.404 -0.1073 -0.3429  0.8506
 2908TIP3    H130359   0.625   5.946   2.462 -0.4450  0.5166  1.9763
 2908TIP3    H230360   0.537   5.934   2.339  0.8156 -1.1837  1.2045
 2909TIP3   OH230361   0.728   0.189   3.245  0.6691 -0.0290 -0.6110
 2909TIP3    H130362   0.666   0.137   3.297  0.4775 -0.9114 -1.6701
 2909TIP3    H230363   0.768   0.249   3.308 -0.9409  0.2659  0.1855
 2910TIP3   OH230364   6.780   1.433   1.839  0.8977 -0.4571 -0.0685
 2910TIP3    H130365   6.806   1.484   1.915 -0.2091 -0.0474  0.0525
 2910TIP3    H230366   6.860   1.425   1.786  1.0188  1.7667 -0.3118
 2911TIP3   OH230367   3.018   3.757   2.468  0.0031  0.3196  0.1243
 2911TIP3    H130368   2.933   3.715   2.461  0.0378  0.1322  0.7425
 2911TIP3    H230369   3.019   3.822   2.399 -0.8326  0.6574  0.4242
 2912TIP3   OH230370   4.483   6.271   0.950  0.4137 -0.0960  0.0473
 2912TIP3    H130371   4.440   6.201   0.901  0.1944  0.3670 -0.4183
 2912TIP3    H230372   4.463   6.251   1.042 -1.5628  0.6142 -0.1932
 2913TIP3   OH230373   0.149   0.284   1.992 -0.0622 -0.6224 -0.2412
 2913TIP3    H130374   0.099   0.206   1.968  1.3341 -1.2600 -1.2541
 2913TIP3    H230375   0.124   0.350   1.927 -0.5585 -0.5209  0.0525
 2914TIP3   OH230376   2.757   5.353   2.372 -0.0465 -0.3647 -0.7763
 2914TIP3    H130377   2.704   5.378   2.297  2.0146  0.7921 -1.9392
 2914TIP3    H230378   2.843   5.333   2.334  1.2836  1.0088  1.3364
 2915TIP3   OH230379   5.196   0.069   0.417  0.0433 -0.4002  0.5782
 2915TIP3    H130380   5.101   0.065   0.430  0.0146  1.0962  0.9961
 2915TIP3    H230381   5.229  -0.009   0.461 -1.1562 -2.3621 -1.7465
 2916TIP3   OH230382   6.653   3.500   3.415  0.2366  0.2679  0.2812
 2916TIP3    H130383   6.577   3.494   3.472  0.4409  1.8609  0.7900
 2916TIP3    H230384   6.728   3.499   3.475  0.4401  2.4103  0.1473
 2917TIP3   OH230385   2.740   1.497   2.276 -1.1976  0.5449 -0.1734
 2917TIP3    H130386   2.676   1.428   2.289 -1.3781  0.6044 -0.7189
 2917TIP3    H230387   2.691   1.568   2.234 -1.2160  1.3455  1.1336
 2918TIP3   OH230388   0.540   5.281   0.810 -0.3683 -0.1982 -0.5870
 2918TIP3    H130389   0.626   5.272   0.849 -1.4927  0.2009  2.2254
 2918TIP3    H230390   0.487   5.212   0.851 -2.2083  1.7553  0.5509
 2919TIP3   OH230391   4.507   4.404   3.819  0.0699 -1.3136  0.0535
 2919TIP3    H130392   4.465   4.356   3.890 -0.2809  0.7868  1.3816
 2919TIP3    H230393   4.599   4.411   3.845 -0.2975  0.5396  1.0190
 2920TIP3   OH230394   0.338   5.034   0.461  0.0089  0.0272  0.4574
 2920TIP3    H130395   0.381   5.119   0.462  0.8330 -0.2587 -2.3314
 2920TIP3    H230396   0.396   4.976   0.510  1.4739  0.2712 -0.9135
 2921TIP3   OH230397   3.862   2.828   0.275 -0.8492  0.1364 -0.3579
 2921TIP3    H130398   3.773   2.844   0.305 -0.5612 -1.8402  1.9647
 2921TIP3    H230399   3.897   2.767   0.340  2.1055  0.6230 -1.3675
 2922TIP3   OH230400   2.856   3.048   3.853  0.7255 -0.6336 -0.4197
 2922TIP3    H130401   2.944   3.071   3.884  0.0380  0.6819  0.6577
 2922TIP3    H230402   2.798   3.072   3.925 -0.5784 -1.0793 -1.2824
 2923TIP3   OH230403   5.703   4.259   0.732  0.3346  0.2100 -0.0854
 2923TIP3    H130404   5.722   4.196   0.663  0.8070  1.3497 -1.0241
 2923TIP3    H230405   5.731   4.215   0.812  0.7376 -0.7318 -0.7202
 2924TIP3   OH230406   1.531   0.789   2.185  0.2214 -0.9976  0.5891
 2924TIP3    H130407   1.549   0.875   2.145  2.0340 -1.3241  0.6173
 2924TIP3    H230408   1.550   0.801   2.278 -2.2814 -0.7183  1.1314
 2925TIP3   OH230409   4.408   4.881   8.174  0.1333 -0.1309 -0.3180
 2925TIP3    H130410   4.356   4.880   8.094 -0.8608 -0.3163  0.3197
 2925TIP3    H230411   4.446   4.969   8.177 -0.0189 -0.0442 -0.8612
 2926TIP3   OH230412   4.935   3.573   0.021 -0.1100 -0.2110  0.0098
 2926TIP3    H130413   4.985   3.493   0.039 -1.2519 -0.7929  0.7413
 2926TIP3    H230414   4.920   3.571  -0.073  0.2111 -0.6529 -0.0338
 2927TIP3   OH230415   0.556   3.350   2.644  0.0419 -0.0372 -0.1096
 2927TIP3    H130416   0.563   3.439   2.607  2.2733 -0.2703 -0.4001
 2927TIP3    H230417   0.550   3.364   2.738  0.4715  0.4312 -0.1438
 2928TIP3   OH230418   1.381   3.189   3.465 -0.2969  0.5885  0.2714
 2928TIP3    H130419   1.418   3.129   3.401 -0.5835  0.0525  0.6014
 2928TIP3    H230420   1.301   3.223   3.424 -0.5173  0.1918  0.3705
 2929TIP3   OH230421   0.419   2.617   0.160  0.4116 -0.0622 -0.5319
 2929TIP3    H130422   0.363   2.666   0.221  0.2959  0.4152 -1.0201
 2929TIP3    H230423   0.420   2.528   0.196  0.5171  0.2567  0.2878
 2930TIP3   OH230424   5.157   5.482   8.445  0.1889  0.6139  0.0081
 2930TIP3    H130425   5.214   5.550   8.410 -1.2990  1.8172 -0.2261
 2930TIP3    H230426   5.116   5.443   8.367 -1.8383  2.1276  0.2210
 2931TIP3   OH230427   0.849   3.492   3.181  0.6604 -0.0715 -0.3785
 2931TIP3    H130428   0.888   3.474   3.095 -1.0554  3.5955 -2.1709
 2931TIP3    H230429   0.787   3.420   3.195  0.8238 -0.6615 -2.3703
 2932TIP3   OH230430   1.426   2.764   2.820 -0.0116 -0.2191 -0.0962
 2932TIP3    H130431   1.429   2.806   2.734 -0.0772 -0.2200 -0.0991
 2932TIP3    H230432   1.517   2.744   2.840  0.0260 -0.0272 -0.0719
 2933TIP3   OH230433   3.679   3.256   2.007  0.1281  0.0591 -0.2626
 2933TIP3    H130434   3.643   3.211   2.083 -0.5764 -1.5998 -1.4940
 2933TIP3    H230435   3.636   3.214   1.932 -0.4772  2.7679 -1.5379
 2934TIP3   OH230436   1.596   5.289   8.663  0.3780 -0.7328  0.3934
 2934TIP3    H130437   1.685   5.258   8.682 -0.1087 -1.3180  1.8579
 2934TIP3    H230438   1.601   5.321   8.573  2.1154 -0.5952  0.4971
 2935TIP3   OH230439   0.399   6.383   2.356  0.1803 -0.1763 -0.2832
 2935TIP3    H130440   0.421   6.348   2.442 -0.4366 -0.6844 -0.3322
 2935TIP3    H230441   0.471   6.444   2.336  1.1665 -1.2662 -0.1234
 2936TIP3   OH230442   3.012   4.849   2.789 -0.4111 -0.0616 -0.0422
 2936TIP3    H130443   2.948   4.896   2.734 -0.7246 -0.3424  0.0804
 2936TIP3    H230444   2.973   4.850   2.876  0.5283  1.2223  0.3981
 2937TIP3   OH230445   6.094   5.767   3.886  0.1852 -0.0438 -0.7251
 2937TIP3    H130446   6.068   5.731   3.971  0.0482 -1.7860 -1.4633
 2937TIP3    H230447   6.190   5.760   3.886  0.2258  0.4761 -0.5045
 2938TIP3   OH230448   6.414   3.481   8.298 -0.5564  0.1907 -0.4200
 2938TIP3    H130449   6.423   3.500   8.204 -0.8545  1.1479 -0.2600
 2938TIP3    H230450   6.454   3.556   8.342 -3.5538  1.5608  0.2379
 2939TIP3   OH230451   0.088   4.639   0.540 -0.0661 -0.1108 -0.0405
 2939TIP3    H130452   0.108   4.713   0.597  1.4913 -0.1785 -0.4597
 2939TIP3    H230453   0.003   4.607   0.570 -1.0462  2.1714 -0.1959
 2940TIP3   OH230454   6.003   1.467   2.866 -0.4583 -0.4480  0.2435
 2940TIP3    H130455   5.937   1.409   2.828 -1.5162  0.2494  0.9627
 2940TIP3    H230456   6.087   1.425   2.846 -1.0294 -0.6468 -1.8937
 2941TIP3   OH230457   0.669   4.097   3.054 -0.2068  0.8164  0.9419
 2941TIP3    H130458   0.696   4.185   3.081 -1.4043  2.1420 -1.7798
 2941TIP3    H230459   0.574   4.101   3.055 -0.3474  0.7979 -2.4986
 2942TIP3   OH230460   3.643   5.262   0.080  0.0029  0.3988 -0.4377
 2942TIP3    H130461   3.736   5.278   0.062 -0.0555  0.4011 -0.7502
 2942TIP3    H230462   3.599   5.286  -0.002 -0.6047  3.1003  0.5868
 2943TIP3   OH230463   1.889   0.419   8.531  0.4800  0.5396  0.2405
 2943TIP3    H130464   1.843   0.347   8.575  1.0529  0.2809  0.4267
 2943TIP3    H230465   1.844   0.428   8.447 -0.3823  0.7860  0.7196
 2944TIP3   OH230466   1.500   2.006   2.630 -0.0771 -0.0351 -0.0699
 2944TIP3    H130467   1.419   1.991   2.677  0.1795  1.3032  0.8486
 2944TIP3    H230468   1.498   2.099   2.608  1.5215  0.1895  0.6108
 2945TIP3   OH230469   2.870   6.750   8.548 -0.0583 -1.1713  0.3046
 2945TIP3    H130470   2.806   6.749   8.619 -1.2301 -1.7760 -0.7183
 2945TIP3    H230471   2.923   6.672   8.561  1.3939 -0.0014  1.9103
 2946TIP3   OH230472   4.257   1.125   1.814 -0.1544 -0.5583 -0.6628
 2946TIP3    H130473   4.237   1.042   1.859 -1.8425 -0.9799 -2.0688
 2946TIP3    H230474   4.209   1.119   1.732  1.5376  0.8887 -1.8071
 2947TIP3   OH230475   2.350   3.149   3.269  0.3961  0.2329 -0.1517
 2947TIP3    H130476   2.401   3.190   3.199  0.6634  2.7351  1.3726
 2947TIP3    H230477   2.269   3.199   3.272  0.0909 -0.2951  0.8670
 2948TIP3   OH230478   5.231   3.609   2.013  0.2698  0.4749  0.5011
 2948TIP3    H130479   5.326   3.619   2.020  0.4155 -0.6941  0.4568
 2948TIP3    H230480   5.196   3.692   2.043  1.3162  0.9707  0.3925
 2949TIP3   OH230481   4.040   5.730   2.014 -0.4452  0.3494 -1.0125
 2949TIP3    H130482   4.036   5.822   2.037  1.4224 -0.0371  1.2006
 2949TIP3    H230483   4.131   5.715   1.989  0.1465 -1.4250  1.6954
 2950TIP3   OH230484   2.022   4.920   1.445  0.3250  0.1586  0.5491
 2950TIP3    H130485   1.986   4.941   1.531 -1.4727 -0.1634 -0.0889
 2950TIP3    H230486   2.050   4.829   1.452 -2.5328 -0.8649  0.0220
 2951TIP3   OH230487   2.537   3.870   3.066 -0.0527  0.3833  0.0841
 2951TIP3    H130488   2.523   3.777   3.050  0.4249  0.0799  1.2980
 2951TIP3    H230489   2.470   3.894   3.131  0.1084  0.7735  0.1095
 2952TIP3   OH230490   4.407   1.561   1.006  0.4921 -0.3753 -0.5051
 2952TIP3    H130491   4.353   1.618   1.062  1.2782 -0.4767  0.3818
 2952TIP3    H230492   4.389   1.473   1.037 -0.0872 -0.5574 -1.3247
 2953TIP3   OH230493   1.988   4.319   1.265 -0.0730 -0.1263  0.1697
 2953TIP3    H130494   1.942   4.265   1.329  0.1781  0.4430  0.8600
 2953TIP3    H230495   2.001   4.402   1.311  1.7471 -0.3152  0.0438
 2954TIP3   OH230496   5.603   0.569   1.219  0.0919 -0.4694  0.0200
 2954TIP3    H130497   5.511   0.560   1.193 -0.4945 -1.0354  2.1070
 2954TIP3    H230498   5.610   0.518   1.300  2.2851 -0.5159 -0.1440
 2955TIP3   OH230499   0.714   2.116   1.945 -0.1643  0.7749  0.2084
 2955TIP3    H130500   0.669   2.111   1.861  2.6192 -0.2403 -1.3562
 2955TIP3    H230501   0.731   2.024   1.969 -0.5945  1.0645  1.7040
 2956TIP3   OH230502   6.762   5.768   1.614  0.2551  0.2819  0.1806
 2956TIP3    H130503   6.805   5.771   1.528  0.0062  0.2773  0.0543
 2956TIP3    H230504   6.778   5.855   1.651 -2.0047  1.3249 -1.0485
 2957TIP3   OH230505   5.641   6.695   0.422  0.0879 -0.1889 -0.2061
 2957TIP3    H130506   5.694   6.729   0.350 -0.0437 -0.4412 -0.4232
 2957TIP3    H230507   5.598   6.772   0.458  0.2243 -0.0488 -0.3419
 2958TIP3   OH230508   6.229   2.791   2.405 -0.2871 -0.3479 -0.1022
 2958TIP3    H130509   6.283   2.740   2.346 -1.5488 -1.6457 -0.1963
 2958TIP3    H230510   6.181   2.852   2.348 -1.4255 -1.5277 -0.4518
 2959TIP3   OH230511   2.567   2.664   2.573  0.6828  0.6203 -0.2109
 2959TIP3    H130512   2.630   2.716   2.621  0.5182  0.4764  0.1678
 2959TIP3    H230513   2.608   2.647   2.488  1.9897 -1.1021  0.7208
 2960TIP3   OH230514   5.900   2.640   3.755  0.0119  0.2936 -0.3633
 2960TIP3    H130515   5.943   2.582   3.692 -2.8280 -0.4966 -1.7561
 2960TIP3    H230516   5.816   2.660   3.715 -1.4168  0.8443  2.6290
 2961TIP3   OH230517   1.333   3.605   3.285 -0.3690 -0.3439 -0.1931
 2961TIP3    H130518   1.256   3.613   3.228 -0.0494  0.3221 -0.5421
 2961TIP3    H230519   1.297   3.602   3.374 -0.7849  0.2747 -0.3335
 2962TIP3   OH230520   3.896   3.791   0.225  0.5866 -0.3321 -0.0604
 2962TIP3    H130521   3.872   3.865   0.169 -0.2631 -0.0006  0.7082
 2962TIP3    H230522   3.827   3.726   0.209  0.5912 -0.4177  0.2603
 2963TIP3   OH230523   4.498   0.310   0.968  0.1624 -0.0395 -0.1450
 2963TIP3    H130524   4.489   0.404   0.957 -0.1180 -0.0775 -0.2473
 2963TIP3    H230525   4.550   0.282   0.892 -1.2982 -0.2229 -1.1125
 2964TIP3   OH230526   6.433   2.327   7.532 -0.1388 -0.0075 -0.2084
 2964TIP3    H130527   6.522   2.338   7.501 -0.4530  0.2470 -1.0391
 2964TIP3    H230528   6.442   2.276   7.613  0.9570  2.0393  1.0620
 2965TIP3   OH230529   3.638   1.354   0.435  0.1158  0.4629  0.0814
 2965TIP3    H130530   3.656   1.442   0.403 -0.3585  0.5153 -0.0560
 2965TIP3    H230531   3.721   1.323   0.470  0.2218  1.0748  0.3816
 2966TIP3   OH230532   1.241   3.635   2.819 -0.0994 -0.3645  0.0530
 2966TIP3    H130533   1.213   3.690   2.745 -0.6819 -0.2058  0.3903
 2966TIP3    H230534   1.164   3.630   2.876  0.1538 -1.0055  0.3412
 2967TIP3   OH230535   5.459   2.604   0.902  0.4248 -0.8135 -0.5399
 2967TIP3    H130536   5.508   2.622   0.821 -0.5256  1.6594 -0.6613
 2967TIP3    H230537   5.367   2.616   0.877  0.1768  2.5438  1.3094
 2968TIP3   OH230538   1.966   4.658   0.971 -0.3993  0.1270  0.1360
 2968TIP3    H130539   2.004   4.642   1.057 -0.6067  2.6996  0.7833
 2968TIP3    H230540   2.032   4.710   0.925 -1.7316  1.8757  0.0956
 2969TIP3   OH230541   2.697   0.360   1.826 -0.1475  0.2599  0.0370
 2969TIP3    H130542   2.724   0.269   1.837 -0.2944  0.2234  0.1063
 2969TIP3    H230543   2.719   0.382   1.736 -1.1784 -0.2118 -0.3528
 2970TIP3   OH230544   1.742   3.685   8.347  0.2391 -0.0805  0.3907
 2970TIP3    H130545   1.649   3.698   8.329 -0.1401 -1.2284  1.3749
 2970TIP3    H230546   1.756   3.725   8.432  0.5821 -0.1794  0.3829
 2971TIP3   OH230547   4.948   3.059   1.915 -0.7050  0.2570 -0.0966
 2971TIP3    H130548   4.914   3.143   1.946 -1.2523  0.2441 -0.6525
 2971TIP3    H230549   4.883   2.994   1.944 -0.1258 -0.0208  0.6100
 2972TIP3   OH230550   1.247   6.135   8.782 -0.0960 -0.3855  0.0886
 2972TIP3    H130551   1.280   6.165   8.698  2.0375  1.8331  1.5746
 2972TIP3    H230552   1.271   6.042   8.786  2.3272  0.1388 -0.6763
 2973TIP3   OH230553   3.125   4.911   2.239 -0.4046  0.1336  0.1916
 2973TIP3    H130554   3.146   4.925   2.331 -2.4058 -0.3564  0.7778
 2973TIP3    H230555   3.130   4.816   2.228  1.5138  0.2964 -0.6924
 2974TIP3   OH230556   2.433   0.853   3.278  0.1771 -0.2700 -0.3197
 2974TIP3    H130557   2.382   0.895   3.209 -1.7753  2.3308  2.4491
 2974TIP3    H230558   2.524   0.872   3.256 -0.3073 -0.4589 -2.6750
 2975TIP3   OH230559   3.257   0.392   0.686 -0.2049  0.2769 -0.2413
 2975TIP3    H130560   3.186   0.328   0.680  1.1269 -1.3172  0.1739
 2975TIP3    H230561   3.217   0.475   0.659 -2.5263 -0.2880  1.2026
 2976TIP3   OH230562   0.697   0.503   1.218 -0.3166  0.4770  0.3411
 2976TIP3    H130563   0.775   0.546   1.184 -0.4290 -0.6321 -1.4774
 2976TIP3    H230564   0.728   0.454   1.295  0.2589  1.8934  1.0430
 2977TIP3   OH230565   2.610   1.499   1.318 -0.3598 -0.5849 -0.1875
 2977TIP3    H130566   2.590   1.575   1.264 -3.1461 -0.1659  1.2792
 2977TIP3    H230567   2.696   1.518   1.356 -0.8681  1.7051 -0.0823
 2978TIP3   OH230568   1.833   0.878   3.258 -0.0279  0.2443 -0.1296
 2978TIP3    H130569   1.761   0.836   3.304 -0.3001  0.7059 -0.1220
 2978TIP3    H230570   1.791   0.948   3.207  0.3517  0.1803 -0.5318
 2979TIP3   OH230571   6.342   3.835   0.972 -0.7368  0.5182  0.7849
 2979TIP3    H130572   6.421   3.785   0.950 -0.1361  2.0807 -0.8128
 2979TIP3    H230573   6.287   3.772   1.018  0.2430 -1.4389 -0.5510
 2980TIP3   OH230574   0.626   0.722   7.913 -0.3439 -0.3422 -0.7588
 2980TIP3    H130575   0.712   0.727   7.954 -0.3362  1.4574 -0.9336
 2980TIP3    H230576   0.618   0.803   7.862 -2.5577  0.0739  0.1157
 2981TIP3   OH230577   4.179   4.638   0.781  0.1902  0.5156  0.1247
 2981TIP3    H130578   4.157   4.676   0.696  1.6473 -1.6459 -1.3091
 2981TIP3    H230579   4.118   4.565   0.792  0.5468  0.2742  0.5563
 2982TIP3   OH230580   2.603   0.343   8.338 -0.1216  0.2209  0.0294
 2982TIP3    H130581   2.579   0.290   8.261  0.3693 -0.7167  0.5051
 2982TIP3    H230582   2.684   0.386   8.312  0.2508 -0.3950  0.1449
 2983TIP3   OH230583   4.925   6.506   8.519  0.0616 -0.6051  0.1504
 2983TIP3    H130584   5.017   6.517   8.492  0.3284 -0.7518  0.9745
 2983TIP3    H230585   4.894   6.595   8.534  0.4022 -0.6169  0.9410
 2984TIP3   OH230586   3.743   5.560   2.611  0.1625 -0.0759 -0.0814
 2984TIP3    H130587   3.802   5.502   2.563  1.3998  1.0991 -0.0282
 2984TIP3    H230588   3.684   5.596   2.544  1.8765  1.5495 -0.8012
 2985TIP3   OH230589   3.338   0.219   1.882  0.0921  1.1761  0.0699
 2985TIP3    H130590   3.406   0.175   1.933  0.0846  2.4443  1.2284
 2985TIP3    H230591   3.368   0.212   1.792  0.7840  0.0392  0.3666
 2986TIP3   OH230592   6.842   6.690   0.953 -0.0061 -0.0866  0.0162
 2986TIP3    H130593   6.872   6.744   0.880  0.5103  0.1131  0.3742
 2986TIP3    H230594   6.808   6.611   0.911  2.4497 -1.0365 -0.3552
 2987TIP3   OH230595   5.515   4.914   2.566  0.5966 -0.3335  0.4334
 2987TIP3    H130596   5.499   4.931   2.473  1.0240 -1.0874  0.2099
 2987TIP3    H230597   5.482   4.825   2.580  0.0134 -0.0121  1.1438
 2988TIP3   OH230598   5.966   3.992   0.757 -0.0657 -0.4717 -0.1698
 2988TIP3    H130599   5.899   4.012   0.691 -0.4727  0.5387  0.5272
 2988TIP3    H230600   6.036   4.055   0.739  1.0557 -1.9711 -1.3376
 2989TIP3   OH230601   3.576   2.588   1.150  0.3093  0.2466  0.4397
 2989TIP3    H130602   3.658   2.588   1.200  0.1548 -0.0065  0.6934
 2989TIP3    H230603   3.600   2.551   1.065  0.0914 -1.5221  1.1271
 2990TIP3   OH230604   1.174   1.587   8.278  0.8438 -0.1689  0.1289
 2990TIP3    H130605   1.089   1.630   8.282  0.9388  0.2363 -1.4008
 2990TIP3    H230606   1.166   1.509   8.333 -0.4250  0.0021  0.1952
 2991TIP3   OH230607   5.284   3.523   8.266 -0.2483  0.0055 -0.1646
 2991TIP3    H130608   5.279   3.538   8.171 -0.2367  2.0280  0.1124
 2991TIP3    H230609   5.226   3.589   8.303 -0.3885 -0.8837  1.2463
 2992TIP3   OH230610   0.451   2.142   8.012 -0.2267  0.5157 -0.2078
 2992TIP3    H130611   0.462   2.236   8.031 -0.4980  0.2689  1.3316
 2992TIP3    H230612   0.361   2.134   7.981 -0.3567  0.7196  0.1022
 2993TIP3   OH230613   2.710   2.817   8.270 -0.6041 -0.7138  0.1168
 2993TIP3    H130614   2.766   2.782   8.340 -0.0412 -1.5331 -0.7152
 2993TIP3    H230615   2.721   2.755   8.198 -2.5028 -0.8127 -0.1259
 2994TIP3   OH230616   3.143   1.177   3.169 -0.6052 -0.1207  0.2931
 2994TIP3    H130617   3.184   1.090   3.169 -0.8238 -0.2237  0.4002
 2994TIP3    H230618   3.072   1.170   3.234 -1.1018 -0.0919 -0.2386
 2995TIP3   OH230619   4.800   1.691   2.202 -0.1639  0.2465  0.1027
 2995TIP3    H130620   4.714   1.724   2.177 -0.9148 -0.9440  1.0409
 2995TIP3    H230621   4.789   1.596   2.209  1.4130 -0.0092 -0.4827
 2996TIP3   OH230622   5.834   1.948   2.179 -0.0461  0.3262  0.3048
 2996TIP3    H130623   5.890   2.013   2.136 -0.6163  0.8532  0.3559
 2996TIP3    H230624   5.765   1.999   2.220 -0.3521 -0.2972  0.5725
 2997TIP3   OH230625   6.327   0.594   0.238 -0.8443  0.3465  0.0749
 2997TIP3    H130626   6.389   0.528   0.270  0.2051  0.5936 -1.3355
 2997TIP3    H230627   6.259   0.598   0.305  0.0038 -0.8685  1.0521
 2998TIP3   OH230628   5.240   0.517   0.897  0.1190 -0.1034  0.1741
 2998TIP3    H130629   5.166   0.457   0.892  0.9487 -1.1446 -0.0422
 2998TIP3    H230630   5.201   0.604   0.898 -1.0734 -0.6000 -0.7199
 2999TIP3   OH230631   3.762   5.358   2.125  0.2358 -0.4644 -0.0039
 2999TIP3    H130632   3.671   5.373   2.150 -0.0667 -1.4650 -0.4900
 2999TIP3    H230633   3.761   5.356   2.029  1.2523  2.4738 -0.1823
 3000TIP3   OH230634   0.402   0.794   2.776 -0.0659  0.0370 -0.6840
 3000TIP3    H130635   0.340   0.739   2.825 -0.6140  0.3203 -1.0506
 3000TIP3    H230636   0.347   0.844   2.716  0.6401 -0.7134 -1.9993
 3001TIP3   OH230637   1.044   3.439   1.238  0.1762 -0.7499 -0.2092
 3001TIP3    H130638   1.094   3.515   1.207  0.6430 -1.2368 -0.6763
 3001TIP3    H230639   0.969   3.435   1.180 -0.5083  0.0665  0.5797
 3002TIP3   OH230640   4.609   4.827   0.778  0.0806  0.0498 -0.0371
 3002TIP3    H130641   4.690   4.878   0.776  0.0808  0.0390 -1.3244
 3002TIP3    H230642   4.547   4.880   0.828  0.9211 -0.0220  1.1212
 3003TIP3   OH230643   2.955   0.212   1.267  0.3123  0.0373  0.2797
 3003TIP3    H130644   2.934   0.135   1.215 -0.9757  1.4605 -1.4364
 3003TIP3    H230645   2.886   0.215   1.334 -0.0237  0.0403 -0.0610
 3004TIP3   OH230646   6.409   1.512   3.462  0.6822 -0.2706 -0.0945
 3004TIP3    H130647   6.360   1.504   3.380  0.4328 -2.9058  0.2343
 3004TIP3    H230648   6.446   1.425   3.476  1.5653  0.4023  2.0833
 3005TIP3   OH230649   1.466   5.400   2.666  0.3646  0.0762 -0.2480
 3005TIP3    H130650   1.380   5.358   2.662  0.8424 -0.8974 -0.4726
 3005TIP3    H230651   1.462   5.454   2.746 -1.4579  2.3753 -1.7460
 3006TIP3   OH230652   4.267   1.366   1.115  0.2449  0.2877 -0.7828
 3006TIP3    H130653   4.203   1.333   1.178  1.2090  0.9872  0.6131
 3006TIP3    H230654   4.255   1.310   1.038 -1.1682 -0.4060 -0.1049
 3007TIP3   OH230655   2.203   2.494   1.807 -0.0079 -0.4446 -0.0049
 3007TIP3    H130656   2.292   2.493   1.842 -0.6275 -0.1668  1.7302
 3007TIP3    H230657   2.192   2.583   1.772 -0.1553  0.1711  1.4829
 3008TIP3   OH230658   0.586   1.611   1.008 -0.1748 -0.6898 -0.1784
 3008TIP3    H130659   0.652   1.631   1.075 -0.4389  1.0614 -0.3774
 3008TIP3    H230660   0.628   1.549   0.949  0.5558 -1.1837  0.8352
 3009TIP3   OH230661   1.044   3.684   0.702 -0.0109  0.1443 -0.2090
 3009TIP3    H130662   0.962   3.691   0.653 -0.5526 -0.6988  0.5412
 3009TIP3    H230663   1.106   3.646   0.640 -0.4100  0.0193 -0.5366
 3010TIP3   OH230664   4.211   2.807   2.236  0.9549  0.2304  0.1788
 3010TIP3    H130665   4.220   2.756   2.316  1.4373 -1.5105 -0.9317
 3010TIP3    H230666   4.179   2.892   2.265  1.6160 -0.1828  2.2601
 3011TIP3   OH230667   1.971   0.529   1.343 -0.2852  0.1851 -0.0551
 3011TIP3    H130668   1.885   0.497   1.369 -0.4501  1.4992  1.1624
 3011TIP3    H230669   2.032   0.483   1.401 -0.4107  1.0964  0.8225
 3012TIP3   OH230670   0.349   3.674   0.253 -0.1256  0.0162 -0.2333
 3012TIP3    H130671   0.271   3.727   0.236 -0.2225 -0.4990 -1.4886
 3012TIP3    H230672   0.403   3.729   0.309 -1.5426  0.2400  0.9917
 3013TIP3   OH230673   5.834   3.880   1.841  0.1517  1.0710 -0.4266
 3013TIP3    H130674   5.787   3.871   1.923  2.2242  0.4435  0.7769
 3013TIP3    H230675   5.803   3.962   1.804 -0.8293  1.3709  0.9948
 3014TIP3   OH230676   2.749   2.144   8.174 -0.0419 -0.4558  0.2517
 3014TIP3    H130677   2.779   2.234   8.185 -0.3639 -0.5244  2.0077
 3014TIP3    H230678   2.811   2.091   8.225 -1.4542 -0.8851  1.6101
 3015TIP3   OH230679   2.401   3.552   7.889  0.0152  0.5730  0.0722
 3015TIP3    H130680   2.344   3.476   7.872  0.3070 -0.2434  2.3800
 3015TIP3    H230681   2.353   3.604   7.952 -0.6985  3.0520 -2.3302
 3016TIP3   OH230682   3.959   5.533   2.228  0.9030 -0.4771  0.1198
 3016TIP3    H130683   3.943   5.627   2.222  2.4081 -0.1178  1.0826
 3016TIP3    H230684   3.880   5.493   2.193  0.7393  1.1398 -1.5068
 3017TIP3   OH230685   2.416   6.514   3.071 -0.2332 -0.0561  0.1596
 3017TIP3    H130686   2.343   6.539   3.015  0.6945  0.5818 -0.8192
 3017TIP3    H230687   2.441   6.427   3.041 -0.8473 -0.4660  0.7945
 3018TIP3   OH230688   3.457   0.182   0.578 -0.7471  0.1739  0.6222
 3018TIP3    H130689   3.426   0.097   0.548  1.9716 -0.6719 -0.0197
 3018TIP3    H230690   3.391   0.210   0.642 -2.0622 -2.0754  0.3499
 3019TIP3   OH230691   2.079   2.533   1.409 -0.0346 -0.3143  0.5904
 3019TIP3    H130692   2.152   2.477   1.436  0.3720  0.1682  0.5043
 3019TIP3    H230693   2.121   2.611   1.373 -0.5939  0.0739  0.7675
 3020TIP3   OH230694   2.713   6.043   3.522  0.4027 -0.6142 -0.0300
 3020TIP3    H130695   2.723   5.963   3.575 -1.0847 -0.7740  0.0523
 3020TIP3    H230696   2.688   6.011   3.435  0.2463 -0.2569 -0.1162
 3021TIP3   OH230697   1.017   0.303   1.584 -0.4384 -0.1957 -0.1017
 3021TIP3    H130698   1.042   0.256   1.663 -1.3523  0.1025  0.3818
 3021TIP3    H230699   1.096   0.303   1.530 -0.3559 -2.1383 -0.0481
 3022TIP3   OH230700   5.565   0.111   0.509 -0.0004 -0.3372  0.2469
 3022TIP3    H130701   5.537   0.198   0.539 -2.3568 -1.2988  1.0949
 3022TIP3    H230702   5.638   0.089   0.567  1.8409  1.7071 -1.1134
 3023TIP3   OH230703   0.354   2.719   7.925  0.1580 -0.1802  0.0060
 3023TIP3    H130704   0.340   2.808   7.894  0.7214 -0.5581 -1.3925
 3023TIP3    H230705   0.396   2.729   8.011  1.8869  0.9202 -0.9215
 3024TIP3   OH230706   4.327   5.568   1.961  0.8709 -0.2978 -0.6133
 3024TIP3    H130707   4.378   5.583   2.040  2.6114 -1.0597 -1.5327
 3024TIP3    H230708   4.330   5.652   1.914 -1.2263  0.5480  0.6429
 3025TIP3   OH230709   5.688   0.937   8.665 -0.1615 -0.4146  0.1719
 3025TIP3    H130710   5.775   0.917   8.701  0.0594 -0.6260 -0.4759
 3025TIP3    H230711   5.701   1.017   8.614 -0.3937 -0.3303  0.2426
 3026TIP3   OH230712   5.703   2.305   3.260 -0.2861  0.0963  0.3762
 3026TIP3    H130713   5.724   2.343   3.345 -0.4047  1.8231 -0.3219
 3026TIP3    H230714   5.628   2.357   3.229 -2.3234 -2.5039  0.5441
 3027TIP3   OH230715   2.133   5.752   8.154 -0.1449 -0.0968  0.2232
 3027TIP3    H130716   2.068   5.732   8.086  0.0831  0.9584 -0.3334
 3027TIP3    H230717   2.151   5.668   8.196 -0.5524 -0.7140 -0.7914
 3028TIP3   OH230718   1.644   0.911   1.189  0.3461  0.0973 -0.2320
 3028TIP3    H130719   1.700   0.834   1.181  0.3379 -0.0240  0.7648
 3028TIP3    H230720   1.559   0.877   1.215 -0.1267  0.3120 -1.4355
 3029TIP3   OH230721   6.561   4.400   7.747  0.4494 -0.1301 -0.1861
 3029TIP3    H130722   6.617   4.384   7.823 -0.3950  0.0638  0.5011
 3029TIP3    H230723   6.572   4.322   7.692  0.5432 -0.5911  0.4753
 3030TIP3   OH230724   6.253   2.847   0.546  0.2276 -0.1661 -0.0165
 3030TIP3    H130725   6.215   2.775   0.497  0.3676  0.9576 -1.8857
 3030TIP3    H230726   6.233   2.925   0.494  2.0648  0.8744  0.7206
 3031TIP3   OH230727   3.440   1.052   1.539  0.0423  0.3888 -0.3104
 3031TIP3    H130728   3.359   1.065   1.490  0.3916 -0.2898 -1.0851
 3031TIP3    H230729   3.454   0.957   1.536  1.0793  0.5463 -0.5222
 3032TIP3   OH230730   5.788   0.987   2.222  0.1098  0.3372 -0.1581
 3032TIP3    H130731   5.723   0.935   2.174 -0.5995  1.4966 -0.4876
 3032TIP3    H230732   5.862   0.994   2.161 -0.0510  0.2577 -0.3650
 3033TIP3   OH230733   2.083   3.547   8.625 -0.3868 -0.3182 -0.5223
 3033TIP3    H130734   2.123   3.603   8.558 -1.9833  1.3471 -0.1740
 3033TIP3    H230735   2.045   3.475   8.575  1.8003 -1.2122 -0.9764
 3034TIP3   OH230736   1.946   3.957   3.313 -0.0447  0.2535  0.0292
 3034TIP3    H130737   1.868   4.012   3.305  0.2727  1.0057  1.7362
 3034TIP3    H230738   2.006   4.008   3.366  0.6819 -1.3155  0.7759
 3035TIP3   OH230739   2.595   3.381   3.272  0.2614  0.2011  0.1955
 3035TIP3    H130740   2.598   3.445   3.201  2.0873  0.2488  0.2700
 3035TIP3    H230741   2.681   3.388   3.314  0.6511 -2.5151  0.0259
 3036TIP3   OH230742   0.427   2.762   1.535  0.2378  0.1309 -0.5110
 3036TIP3    H130743   0.447   2.844   1.491  2.9858 -1.1988 -1.9386
 3036TIP3    H230744   0.467   2.771   1.622  0.1741  0.4239 -0.5110
 3037TIP3   OH230745   6.406   5.868   1.451  0.0314  0.0523  0.5185
 3037TIP3    H130746   6.328   5.843   1.402  0.1506  1.1567 -0.2799
 3037TIP3    H230747   6.441   5.944   1.404  1.6139 -0.4300  0.8449
 3038TIP3   OH230748   2.539   5.543   2.435  0.0313  0.4065  0.1921
 3038TIP3    H130749   2.621   5.498   2.457 -0.9437 -0.8647  1.4473
 3038TIP3    H230750   2.473   5.500   2.491 -1.6131  0.8939 -1.3006
 3039TIP3   OH230751   3.260   4.990   0.985 -0.5273 -0.0297 -0.2439
 3039TIP3    H130752   3.263   4.901   1.020 -1.6289  0.3431  0.8603
 3039TIP3    H230753   3.352   5.014   0.975 -0.1964 -0.8468  0.6441
 3040TIP3   OH230754   1.229   2.049   2.714  0.5110  0.7223 -0.0493
 3040TIP3    H130755   1.141   2.088   2.715  1.2699  2.4915 -0.2450
 3040TIP3    H230756   1.267   2.072   2.798  1.1612  0.8172 -0.3642
 3041TIP3   OH230757   0.389   0.147   1.994  0.0344  0.7500 -0.6909
 3041TIP3    H130758   0.315   0.207   1.985 -1.3084 -0.8460 -0.5839
 3041TIP3    H230759   0.412   0.151   2.087 -0.6159  0.4381 -0.5183
 3042TIP3   OH230760   3.868   1.571   8.633  0.9305 -0.3115  0.2146
 3042TIP3    H130761   3.950   1.546   8.590  0.0129 -0.3291 -1.6060
 3042TIP3    H230762   3.814   1.606   8.563 -1.0505 -1.3214  1.1686
 3043TIP3   OH230763   2.284   3.170   0.675  0.3831 -0.5437  0.3400
 3043TIP3    H130764   2.275   3.201   0.584  2.0436 -2.0782 -0.4197
 3043TIP3    H230765   2.216   3.217   0.723 -0.0300  0.9352 -1.5359
 3044TIP3   OH230766   1.317   2.656   3.316  0.7767 -0.6420  0.5384
 3044TIP3    H130767   1.387   2.719   3.297 -0.8909  1.7645  1.9379
 3044TIP3    H230768   1.270   2.646   3.233 -0.0230  1.4483  0.6865
 3045TIP3   OH230769   6.703   4.283   2.963  0.0505  0.4396  0.3016
 3045TIP3    H130770   6.787   4.241   2.945 -0.6081 -0.2321 -1.4735
 3045TIP3    H230771   6.655   4.219   3.015 -1.0264 -1.2829 -2.5582
 3046TIP3   OH230772   0.195   3.055   3.325  0.2836 -0.5865  0.2025
 3046TIP3    H130773   0.108   3.021   3.348  0.1954 -1.5955 -1.4410
 3046TIP3    H230774   0.248   2.977   3.312  1.1050 -0.0034 -0.0069
 3047TIP3   OH230775   0.640   3.929   3.381  0.3002 -0.0163  0.3124
 3047TIP3    H130776   0.687   3.892   3.307  2.0494 -0.6232  1.6651
 3047TIP3    H230777   0.631   4.022   3.360  0.8313 -0.1652 -0.6075
 3048TIP3   OH230778   1.966   4.142   0.312 -0.0008  0.5927  0.7499
 3048TIP3    H130779   1.939   4.126   0.403 -1.2640 -2.4867 -0.0500
 3048TIP3    H230780   2.030   4.073   0.294 -0.3428  0.6834 -0.9408
 3049TIP3   OH230781   1.633   0.555   0.483 -0.0129  0.1392 -0.1211
 3049TIP3    H130782   1.719   0.588   0.511  0.8383 -0.7403 -1.5963
 3049TIP3    H230783   1.590   0.529   0.564  0.6843  1.5598  0.7454
 3050TIP3   OH230784   4.110   1.475   1.703  0.0863 -0.3895 -0.6061
 3050TIP3    H130785   4.096   1.430   1.787  0.3209 -1.7878 -1.2842
 3050TIP3    H230786   4.089   1.566   1.721 -0.7176 -0.8088  0.7636
 3051TIP3   OH230787   3.101   1.210   0.946 -0.0310 -0.4778  0.1239
 3051TIP3    H130788   3.013   1.173   0.953 -0.0334 -0.5685 -0.3448
 3051TIP3    H230789   3.143   1.160   0.876  0.3992 -0.4432  0.3552
 3052TIP3   OH230790   2.453   6.383   0.206  0.4872 -0.6148 -0.2582
 3052TIP3    H130791   2.440   6.321   0.134 -0.8796  0.9340 -1.4370
 3052TIP3    H230792   2.416   6.465   0.174  0.5828  0.3633  1.9330
 3053TIP3   OH230793   0.816   6.792   0.995  0.3308  0.1808 -0.3874
 3053TIP3    H130794   0.900   6.836   1.009 -0.1139  1.2103 -0.8717
 3053TIP3    H230795   0.751   6.857   1.019 -0.3541 -0.0347 -1.6319
 3054TIP3   OH230796   6.709   5.321   2.931 -0.3385  0.1126  0.9816
 3054TIP3    H130797   6.681   5.231   2.945 -1.8964  0.5131  0.6930
 3054TIP3    H230798   6.706   5.361   3.018  0.0743 -0.0300  1.0646
 3055TIP3   OH230799   4.275   4.352   0.965 -0.9241 -0.4081  0.3577
 3055TIP3    H130800   4.284   4.447   0.957 -0.3134 -0.4695  0.2803
 3055TIP3    H230801   4.340   4.316   0.906 -0.5399 -0.8715  1.0501
 3056TIP3   OH230802   4.990   5.582   2.762  0.2096 -0.3153 -0.1593
 3056TIP3    H130803   5.046   5.543   2.830  0.3734 -1.0833 -0.7167
 3056TIP3    H230804   5.012   5.675   2.764  0.6132 -0.4137  0.4656
 3057TIP3   OH230805   4.120   6.128   8.095 -0.3774 -0.4518 -0.3326
 3057TIP3    H130806   4.060   6.179   8.040 -0.2343  1.4229  1.1786
 3057TIP3    H230807   4.062   6.078   8.153 -0.5321  0.7640  0.5990
 3058TIP3   OH230808   6.140   1.648   3.253  0.3708 -0.2286 -0.0607
 3058TIP3    H130809   6.184   1.573   3.213  0.7403  0.2126 -0.4980
 3058TIP3    H230810   6.116   1.704   3.179  2.0408  1.1372  0.3570
 3059TIP3   OH230811   3.733   5.457   1.566  0.1750 -0.2902  0.3433
 3059TIP3    H130812   3.645   5.464   1.530  0.2515 -1.3883 -0.0962
 3059TIP3    H230813   3.783   5.410   1.499  0.6409 -1.2325  1.3185
 3060TIP3   OH230814   0.467   1.790   2.608 -0.0130 -0.0496  0.1410
 3060TIP3    H130815   0.492   1.802   2.516  0.2455 -0.9125  0.0836
 3060TIP3    H230816   0.534   1.731   2.642 -0.8901 -0.8434  0.5102
 3061TIP3   OH230817   0.336   5.256   1.638  0.0432  0.3931  0.3221
 3061TIP3    H130818   0.243   5.238   1.620  0.1328 -1.8705  1.8520
 3061TIP3    H230819   0.382   5.220   1.562 -0.2575  0.6441  0.0168
 3062TIP3   OH230820   6.252   2.924   1.410  0.1661  0.5150  0.1194
 3062TIP3    H130821   6.284   3.008   1.443  1.4748  0.5135 -1.0515
 3062TIP3    H230822   6.157   2.930   1.419  0.2410  2.0396  0.2766
 3063TIP3   OH230823   1.456   4.420   0.730 -0.1265  0.1397 -0.4066
 3063TIP3    H130824   1.478   4.499   0.682  0.7055  0.4847  0.5177
 3063TIP3    H230825   1.495   4.432   0.816 -1.2153 -0.6547  0.2289
 3064TIP3   OH230826   3.869   5.971   1.167 -0.3594 -0.4596 -0.1581
 3064TIP3    H130827   3.811   6.007   1.100  1.3004  1.0919 -0.8414
 3064TIP3    H230828   3.930   5.915   1.119  0.4660  0.1912  0.0980
 3065TIP3   OH230829   5.814   2.018   3.883  0.6477 -0.3534 -0.4251
 3065TIP3    H130830   5.862   1.943   3.847  2.1916  1.0551 -1.4758
 3065TIP3    H230831   5.882   2.081   3.905 -0.6799  1.6796 -1.8052
 3066TIP3   OH230832   4.926   2.894   3.060  0.0085  0.1002 -0.2021
 3066TIP3    H130833   4.989   2.942   3.007 -1.0875 -1.0668 -2.6977
 3066TIP3    H230834   4.935   2.803   3.032 -0.5966 -0.5918  1.6846
 3067TIP3   OH230835   0.940   4.455   2.763 -0.0056 -0.3795  0.3911
 3067TIP3    H130836   0.866   4.404   2.796 -0.7243  0.1377 -0.4033
 3067TIP3    H230837   0.937   4.443   2.668  1.2701 -0.7959  0.3817
 3068TIP3   OH230838   3.735   4.033   1.696  0.4384 -0.0505  0.4977
 3068TIP3    H130839   3.830   4.029   1.687  0.4934 -2.4066  1.4722
 3068TIP3    H230840   3.720   4.022   1.790 -0.8195 -0.0652  0.3097
 3069TIP3   OH230841   2.284   5.505   8.213  0.2264 -0.0485  0.0739
 3069TIP3    H130842   2.337   5.544   8.144 -0.8454  0.6427 -0.3909
 3069TIP3    H230843   2.232   5.438   8.168  0.9322 -0.9646  0.5852
 3070TIP3   OH230844   4.416   3.342   3.570  0.5529  0.3348  0.0335
 3070TIP3    H130845   4.368   3.270   3.610 -1.4297  1.2325 -0.5900
 3070TIP3    H230846   4.407   3.414   3.632  0.5017  0.7158 -0.4098
 3071TIP3   OH230847   5.695   1.425   1.231  0.0386 -0.1417 -0.1975
 3071TIP3    H130848   5.645   1.412   1.311 -0.8422 -1.5576 -0.9399
 3071TIP3    H230849   5.629   1.432   1.162  0.7684  1.4000 -0.7780
 3072TIP3   OH230850   4.210   6.498   8.023 -0.0775 -0.2866 -0.0696
 3072TIP3    H130851   4.136   6.554   8.045 -0.8409  0.3103 -3.5206
 3072TIP3    H230852   4.174   6.410   8.018 -0.2129 -0.2226 -0.2308
 3073TIP3   OH230853   5.480   3.434   2.557 -0.1030  0.3913  0.2151
 3073TIP3    H130854   5.393   3.426   2.519 -0.2247 -0.9215  0.7188
 3073TIP3    H230855   5.466   3.427   2.652  0.6083 -0.6616  0.2621
 3074TIP3   OH230856   3.433   3.357   2.225 -0.1400 -0.3576  0.0223
 3074TIP3    H130857   3.372   3.299   2.181  1.2254 -2.3002  0.5865
 3074TIP3    H230858   3.512   3.304   2.240  0.4408  1.0018  2.3681
 3075TIP3   OH230859   3.570   5.672   2.421 -1.1361 -0.5150  0.1486
 3075TIP3    H130860   3.584   5.651   2.329  0.3785 -0.9573  0.4499
 3075TIP3    H230861   3.480   5.705   2.425 -0.7100  1.0600 -1.7490
 3076TIP3   OH230862   3.825   1.836   0.522 -0.3112  0.3683 -0.5893
 3076TIP3    H130863   3.892   1.846   0.590 -1.1342 -1.5958  0.5807
 3076TIP3    H230864   3.811   1.925   0.490  0.6704  1.2618  1.2757
 3077TIP3   OH230865   5.424   2.200   0.723  0.3012  0.3573  0.0386
 3077TIP3    H130866   5.511   2.171   0.694  0.4540  1.0630 -0.2394
 3077TIP3    H230867   5.366   2.129   0.698  0.4238  0.9147 -2.0516
 3078TIP3   OH230868   6.477   5.618   8.076 -0.2204 -0.5241  0.1540
 3078TIP3    H130869   6.386   5.619   8.106 -0.1146  1.2196  0.5628
 3078TIP3    H230870   6.474   5.572   7.992 -1.5961 -0.0106 -0.1111
 3079TIP3   OH230871   1.568   4.108   3.071 -0.4349  0.2750 -0.4268
 3079TIP3    H130872   1.488   4.125   3.121  0.9454  2.7508  1.1446
 3079TIP3    H230873   1.553   4.023   3.030 -2.9691 -0.3898  1.6057
 3080TIP3   OH230874   2.246   0.746   1.199  0.6902  0.3884  0.3617
 3080TIP3    H130875   2.246   0.834   1.234 -0.4440  0.7553 -0.4923
 3080TIP3    H230876   2.319   0.745   1.136  2.8020 -0.3068  2.6517
 3081TIP3   OH230877   5.429   6.050   2.614 -0.2474  0.8311  0.0817
 3081TIP3    H130878   5.481   6.119   2.655  0.6678  0.4655 -0.4471
 3081TIP3    H230879   5.440   5.975   2.673  0.1983  0.6188 -0.2722
 3082TIP3   OH230880   5.838   6.322   0.504 -0.3431  0.4252  0.4112
 3082TIP3    H130881   5.750   6.357   0.508 -0.7817 -0.3449 -1.4085
 3082TIP3    H230882   5.895   6.399   0.496 -0.8250  0.9173  1.5408
 3083TIP3   OH230883   2.373   5.257   4.068 -0.1476  0.1138  0.8119
 3083TIP3    H130884   2.326   5.183   4.030 -1.3803  1.5872 -0.7233
 3083TIP3    H230885   2.310   5.295   4.130 -0.1181  0.7365  0.4723
 3084TIP3   OH230886   0.198   3.258   1.861 -0.5302 -0.6725 -0.7805
 3084TIP3    H130887   0.250   3.179   1.873 -0.0974 -0.2461  0.2897
 3084TIP3    H230888   0.172   3.256   1.768 -0.5077 -2.0350 -0.7768
 3085TIP3   OH230889   2.680   0.909   3.179  0.0607  0.6224  0.4483
 3085TIP3    H130890   2.745   0.902   3.109 -1.7944  1.0778 -1.3997
 3085TIP3    H230891   2.651   1.000   3.176 -1.9903  0.0072 -0.0701
 3086TIP3   OH230892   5.347   2.366   8.500  0.3882 -0.1327  0.5446
 3086TIP3    H130893   5.268   2.400   8.458  0.3901 -1.6900 -0.8602
 3086TIP3    H230894   5.370   2.289   8.447  0.9631 -1.6549  2.8544
 3087TIP3   OH230895   2.674   5.690   0.241  0.0091 -0.5725  0.0778
 3087TIP3    H130896   2.751   5.635   0.248  0.7528  0.5908  1.6265
 3087TIP3    H230897   2.648   5.684   0.148  1.8292 -1.1294 -0.4326
 3088TIP3   OH230898   0.916   1.695   0.058  0.1323 -0.0414  0.4097
 3088TIP3    H130899   0.923   1.790   0.065 -2.5566  0.2324  0.3258
 3088TIP3    H230900   0.825   1.679   0.034  1.0318 -2.5526 -1.8338
 3089TIP3   OH230901   4.488   1.403   0.251  0.6976  0.3207 -0.2320
 3089TIP3    H130902   4.574   1.439   0.273  0.2993  0.4504  1.1962
 3089TIP3    H230903   4.502   1.308   0.249  0.7268  0.2997  0.7148
 3090TIP3   OH230904   6.044   6.816   1.884 -0.4567 -0.2865 -0.5626
 3090TIP3    H130905   5.993   6.819   1.803 -0.8823  2.4821 -0.3019
 3090TIP3    H230906   5.979   6.801   1.952 -0.2932 -1.1733 -0.5944
 3091TIP3   OH230907   6.491   1.569   1.414 -0.2663 -0.2419 -0.2365
 3091TIP3    H130908   6.555   1.525   1.357  0.2598  0.5307 -0.2679
 3091TIP3    H230909   6.543   1.600   1.488 -0.5795  0.5132 -0.3249
 3092TIP3   OH230910   5.052   6.193   1.962 -0.2787  0.0849  0.5335
 3092TIP3    H130911   4.964   6.190   1.925 -0.3740  0.1189  0.7564
 3092TIP3    H230912   5.039   6.180   2.056  0.0909 -1.7541  0.3706
 3093TIP3   OH230913   5.403   2.977   0.283  0.0345  0.0285 -0.2890
 3093TIP3    H130914   5.442   3.064   0.286 -0.1069  0.1039 -0.6310
 3093TIP3    H230915   5.478   2.918   0.274  0.0904  0.1544 -0.6531
 3094TIP3   OH230916   6.831   6.270   1.578  0.1670  0.4366 -0.3726
 3094TIP3    H130917   6.825   6.276   1.483  0.7660  0.2887 -0.4197
 3094TIP3    H230918   6.846   6.360   1.607  2.3004  0.1860 -0.5906
 3095TIP3   OH230919   6.697   1.168   2.567 -0.0516 -0.0920 -0.1963
 3095TIP3    H130920   6.718   1.202   2.654 -3.9715 -2.2013  1.8200
 3095TIP3    H230921   6.712   1.074   2.573  0.3056 -0.1923 -2.0830
 3096TIP3   OH230922   6.572   6.753   1.204 -0.1889 -0.1815  0.2005
 3096TIP3    H130923   6.649   6.772   1.151 -0.5719 -0.7885 -0.5767
 3096TIP3    H230924   6.548   6.838   1.241 -0.4111  0.4074 -1.2500
 3097TIP3   OH230925   3.561   4.571   8.427  0.6700  0.1964  0.4007
 3097TIP3    H130926   3.611   4.556   8.347 -1.2976  1.6568 -1.2292
 3097TIP3    H230927   3.588   4.658   8.457 -0.7841  1.0064 -0.5049
 3098TIP3   OH230928   0.300   3.100   0.390 -0.0338  0.8954  0.3339
 3098TIP3    H130929   0.217   3.071   0.427  0.0978 -1.2360 -0.8285
 3098TIP3    H230930   0.280   3.182   0.346 -1.4067  0.7123  0.5712
 3099TIP3   OH230931   5.375   6.718   1.412 -0.5374 -0.0390 -0.3410
 3099TIP3    H130932   5.291   6.718   1.366 -0.4963 -1.3843 -0.4574
 3099TIP3    H230933   5.385   6.628   1.443  0.0403  0.5237  1.2000
 3100TIP3   OH230934   3.973   0.262   1.067 -0.0805  0.3214 -0.0811
 3100TIP3    H130935   3.940   0.174   1.054 -1.6275  1.2158 -3.4910
 3100TIP3    H230936   4.066   0.257   1.047 -0.2500 -0.4832 -0.6916
 3101TIP3   OH230937   3.329   3.753   2.051  0.2033  0.3069  0.0602
 3101TIP3    H130938   3.246   3.707   2.036  0.1953  0.8262 -1.8554
 3101TIP3    H230939   3.321   3.789   2.139 -1.3571 -0.1717  0.1466
 3102TIP3   OH230940   3.442   6.301   2.288 -0.6878 -0.2674 -0.3710
 3102TIP3    H130941   3.526   6.306   2.333 -0.9880  1.1203  0.0625
 3102TIP3    H230942   3.465   6.276   2.198  0.1782 -0.0259 -0.2258
 3103TIP3   OH230943   3.170   2.455   0.655  0.1255  0.1219 -0.0805
 3103TIP3    H130944   3.180   2.546   0.681  0.1388  0.0988 -0.0044
 3103TIP3    H230945   3.253   2.433   0.613  1.2458 -0.6828  2.3859
 3104TIP3   OH230946   5.255   3.808   3.218 -0.3049 -0.0996  0.7094
 3104TIP3    H130947   5.230   3.899   3.198 -0.6014 -0.2300  0.4719
 3104TIP3    H230948   5.177   3.757   3.195 -0.0414 -0.4448  0.5849
 3105TIP3   OH230949   1.605   0.482   0.212  0.0072  0.4656  0.1158
 3105TIP3    H130950   1.581   0.522   0.296  1.1011  1.4163  0.0014
 3105TIP3    H230951   1.696   0.454   0.224  0.0011  0.1247 -0.5827
 3106TIP3   OH230952   1.933   2.414   2.900  0.6750  0.1180 -0.2456
 3106TIP3    H130953   1.949   2.409   2.995  0.6356  2.6421 -0.0423
 3106TIP3    H230954   2.016   2.443   2.863  1.1423 -2.2436 -1.2446
 3107TIP3   OH230955   5.279   2.057   0.076  0.0889  0.3456 -0.1249
 3107TIP3    H130956   5.197   2.088   0.114 -0.6617 -0.0577 -1.3738
 3107TIP3    H230957   5.304   1.981   0.129 -0.5692  0.2125 -0.0048
 3108TIP3   OH230958   3.637   4.364   1.185  0.0080 -0.0967 -0.3860
 3108TIP3    H130959   3.634   4.398   1.274 -1.1735 -0.4572 -0.2727
 3108TIP3    H230960   3.613   4.272   1.194 -0.4791 -0.0455 -1.1202
 3109TIP3   OH230961   0.833   0.328   1.383 -0.4787  0.2491 -0.3906
 3109TIP3    H130962   0.876   0.282   1.310 -1.2590 -0.3808 -0.4573
 3109TIP3    H230963   0.891   0.314   1.458 -0.4403 -0.3874 -0.5379
 3110TIP3   OH230964   1.780   1.037   2.479 -0.3729  0.4724  0.1547
 3110TIP3    H130965   1.860   1.003   2.520 -1.3423 -2.1195  0.0651
 3110TIP3    H230966   1.801   1.042   2.386 -0.7873 -2.0189 -0.1508
 3111TIP3   OH230967   1.679   3.085   1.961  0.1754  0.5095 -0.0462
 3111TIP3    H130968   1.710   3.161   2.009 -0.3594 -0.6023  2.2128
 3111TIP3    H230969   1.633   3.032   2.026  0.8344 -1.9369 -1.4168
 3112TIP3   OH230970   0.130   2.038   2.664  0.5240 -0.2086 -0.3385
 3112TIP3    H130971   0.089   1.958   2.631  1.3345 -0.1443 -1.5631
 3112TIP3    H230972   0.164   2.013   2.750  0.7201 -1.1633 -0.6766
 3113TIP3   OH230973   2.277   2.713   1.427  0.0235  0.1464  0.2535
 3113TIP3    H130974   2.328   2.632   1.419  1.1518  0.7809  0.7348
 3113TIP3    H230975   2.334   2.781   1.390 -0.9814  0.6982 -0.3125
 3114TIP3   OH230976   0.710   2.765   3.279 -0.4606  0.6439 -0.4636
 3114TIP3    H130977   0.670   2.733   3.360  1.0227 -0.2178 -0.0418
 3114TIP3    H230978   0.683   2.857   3.273 -0.6152  0.7119  0.9910
 3115TIP3   OH230979   0.969   1.447   2.250 -0.3519  0.1178 -0.1651
 3115TIP3    H130980   0.997   1.538   2.258 -1.1282  0.4695 -1.1316
 3115TIP3    H230981   0.958   1.417   2.340  2.2297  0.2151  0.2424
 3116TIP3   OH230982   0.886   3.097   1.360 -0.0178 -0.0117 -0.0720
 3116TIP3    H130983   0.875   3.033   1.290  1.6883 -0.0885 -0.3198
 3116TIP3    H230984   0.962   3.149   1.334 -0.4077  1.0911  0.8928
 3117TIP3   OH230985   3.364   0.506   2.371  0.0381  0.3910 -0.3228
 3117TIP3    H130986   3.318   0.590   2.375 -2.1090 -0.7600  0.5191
 3117TIP3    H230987   3.366   0.485   2.277 -0.1660  0.9942 -0.4691
 3118TIP3   OH230988   0.006   0.087   3.509 -0.0440 -0.2488  0.1426
 3118TIP3    H130989  -0.006   0.143   3.585 -2.4225 -0.7959  0.2503
 3118TIP3    H230990   0.058   0.014   3.542  0.4186  0.3662  0.7986
 3119TIP3   OH230991   6.828   4.553   4.130  0.0960 -0.1245  0.1570
 3119TIP3    H130992   6.870   4.470   4.109 -1.9500 -1.1883  0.0420
 3119TIP3    H230993   6.864   4.615   4.066 -0.0849 -1.4899 -1.3497
 3120TIP3   OH230994   1.154   0.482   8.498 -0.6031 -0.3110  0.0769
 3120TIP3    H130995   1.190   0.394   8.510 -0.7418 -0.7053 -1.9810
 3120TIP3    H230996   1.060   0.468   8.489 -0.5842  0.0012 -0.6293
 3121TIP3   OH230997   6.244   4.583   2.854 -0.2901 -0.2883 -0.2053
 3121TIP3    H130998   6.151   4.593   2.873 -0.5126 -0.2036 -1.2808
 3121TIP3    H230999   6.252   4.494   2.822 -0.3992  0.3641 -2.1830
 3122TIP3   OH231000   5.448   0.887   0.232 -0.3015  0.0161 -0.4182
 3122TIP3    H131001   5.499   0.962   0.200 -0.4871  0.6069  0.6410
 3122TIP3    H231002   5.359   0.920   0.240 -0.1357  0.1138  1.3920
 3123TIP3   OH231003   4.993   1.510   2.593 -0.1907 -0.6709 -0.5936
 3123TIP3    H131004   4.904   1.535   2.568 -0.2179 -0.5207 -0.3550
 3123TIP3    H231005   5.040   1.594   2.596 -0.6388 -0.4350  1.6643
 3124TIP3   OH231006   6.301   1.300   3.679  0.3088  0.2288  0.4204
 3124TIP3    H131007   6.263   1.387   3.670  1.4693  0.8388  1.1366
 3124TIP3    H231008   6.226   1.241   3.674 -0.6193  1.3206  0.8265
 3125TIP3   OH231009   1.567   2.247   0.095 -0.1692  0.4021 -0.3717
 3125TIP3    H131010   1.481   2.259   0.056  0.4752  1.3685 -1.6009
 3125TIP3    H231011   1.617   2.324   0.067  0.5762  0.7896  1.8244
 3126TIP3   OH231012   4.642   3.117   0.982 -0.2910  0.2581  0.3491
 3126TIP3    H131013   4.555   3.101   1.017 -1.1871  1.4653 -1.2095
 3126TIP3    H231014   4.633   3.104   0.888  2.2677 -3.9854  0.4153
 3127TIP3   OH231015   1.015   1.466   0.176  0.2336  0.6010  0.3408
 3127TIP3    H131016   1.005   1.542   0.118  0.1497 -1.2843 -2.2826
 3127TIP3    H231017   0.933   1.463   0.225 -1.8825 -0.2934 -2.8734
 3128TIP3   OH231018   0.604   3.085   0.512 -0.5890 -0.6448  0.5492
 3128TIP3    H131019   0.516   3.097   0.476 -1.5967 -1.3649  2.6554
 3128TIP3    H231020   0.629   3.171   0.545 -1.4533 -0.9162  1.9502
 3129TIP3   OH231021   4.243   2.226   2.938  0.0381  0.0762  0.5048
 3129TIP3    H131022   4.160   2.224   2.890  0.9402 -0.6936 -1.1289
 3129TIP3    H231023   4.219   2.252   3.027 -2.2318 -2.2377  0.6875
 3130TIP3   OH231024   0.956   0.795   0.342 -0.4776 -0.1756 -0.2731
 3130TIP3    H131025   1.000   0.864   0.392 -0.7219  0.4179 -0.8678
 3130TIP3    H231026   1.009   0.787   0.262 -0.9033 -0.1213 -0.5610
 3131TIP3   OH231027   6.162   0.690   0.446 -0.2659 -0.1803  0.0243
 3131TIP3    H131028   6.229   0.758   0.453  1.2593 -1.5718 -0.3348
 3131TIP3    H231029   6.085   0.735   0.411  0.3070  1.5676  0.9017
 3132TIP3   OH231030   2.737   0.135   0.897  0.0318  0.1766 -0.4175
 3132TIP3    H131031   2.718   0.228   0.900  1.3292  0.4735 -0.6509
 3132TIP3    H231032   2.771   0.120   0.808  2.1581  0.0058  0.3529
 3133TIP3   OH231033   2.034   0.514   2.421 -0.0755 -0.7883 -0.4098
 3133TIP3    H131034   2.065   0.424   2.414 -0.2899 -0.7877 -1.6625
 3133TIP3    H231035   2.104   0.567   2.383  1.0528 -0.1502  2.2968
 3134TIP3   OH231036   5.994   2.288   0.102  0.1220 -0.1995 -0.0090
 3134TIP3    H131037   6.078   2.244   0.091 -0.1156 -0.5668 -0.4116
 3134TIP3    H231038   5.929   2.220   0.084 -0.3150 -0.4379  2.1785
 3135TIP3   OH231039   3.816   4.381   3.006  0.0045  0.0409  0.1816
 3135TIP3    H131040   3.782   4.469   2.990 -0.4119  0.5022  2.9986
 3135TIP3    H231041   3.742   4.323   2.989 -0.3653  0.4547  0.3515
 3136TIP3   OH231042   5.851   4.235   1.312  0.5480  0.2443  0.2937
 3136TIP3    H131043   5.779   4.276   1.262 -0.1952 -0.5604  0.6799
 3136TIP3    H231044   5.885   4.305   1.366 -1.0024  0.2872  1.2727
 3137TIP3   OH231045   3.251   0.844   3.253 -0.2108  0.6931 -0.1831
 3137TIP3    H131046   3.221   0.873   3.339 -0.5416  1.3795 -0.5220
 3137TIP3    H231047   3.325   0.787   3.272 -1.3134 -0.5376  0.6462
 3138TIP3   OH231048   0.682   2.511   2.365  0.0543  0.3419  0.2861
 3138TIP3    H131049   0.687   2.506   2.270 -0.1271  0.2343  0.2833
 3138TIP3    H231050   0.626   2.586   2.383 -2.2228 -1.2767  0.2801
 3139TIP3   OH231051   3.980   4.904   0.018  0.1556 -0.0884  0.3579
 3139TIP3    H131052   3.910   4.957   0.057  0.0095  1.3393 -1.6906
 3139TIP3    H231053   4.025   4.865   0.093 -0.7222  1.6905  1.9063
 3140TIP3   OH231054   5.735   3.721   0.659  0.0294  0.0532  0.0045
 3140TIP3    H131055   5.691   3.693   0.579 -2.4526 -1.7844  1.8543
 3140TIP3    H231056   5.688   3.801   0.685  0.7569  0.5845 -0.2759
 3141TIP3   OH231057   6.031   0.034   3.104  0.1367 -0.0896  0.1111
 3141TIP3    H131058   6.126   0.044   3.104  0.4012 -1.7997  2.1357
 3141TIP3    H231059   6.016  -0.053   3.140 -2.2203  0.0297 -0.3859
 3142TIP3   OH231060   2.727   3.113   3.230  0.0253  0.6123  0.0657
 3142TIP3    H131061   2.819   3.132   3.248  0.2804  0.3120 -0.8639
 3142TIP3    H231062   2.687   3.199   3.217 -0.0508  0.8096  1.3933
 3143TIP3   OH231063   1.877   2.652   2.746 -0.6693 -0.2941 -0.3269
 3143TIP3    H131064   1.870   2.651   2.651 -0.9343 -0.4162 -0.3075
 3143TIP3    H231065   1.855   2.563   2.773  2.1217 -1.0597 -0.3181
 3144TIP3   OH231066   6.420   0.349   8.631 -0.1255  0.0704  0.0332
 3144TIP3    H131067   6.388   0.280   8.572 -0.0909  0.6728 -0.6991
 3144TIP3    H231068   6.410   0.430   8.582  0.7897  0.4841  0.5051
 3145TIP3   OH231069   4.764   5.950   0.350 -0.2151  0.0068 -0.0143
 3145TIP3    H131070   4.802   6.023   0.301  0.3717  0.4515  1.0742
 3145TIP3    H231071   4.804   5.871   0.312  0.2844  0.3509 -0.2104
 3146TIP3   OH231072   3.641   2.605   3.045 -0.5879  0.3350 -0.0538
 3146TIP3    H131073   3.595   2.548   3.107 -0.3636 -1.3062 -1.3205
 3146TIP3    H231074   3.571   2.647   2.995 -0.7953 -1.2894 -1.2137
 3147TIP3   OH231075   2.655   1.791   2.604 -0.2934  0.3792 -0.5056
 3147TIP3    H131076   2.572   1.821   2.642 -0.2092  0.9575 -0.7622
 3147TIP3    H231077   2.630   1.722   2.542 -0.3893 -0.9382  0.9502
 3148TIP3   OH231078   2.371   2.399   0.060 -0.5689  0.4585 -0.2862
 3148TIP3    H131079   2.352   2.433  -0.027  1.1846  0.4332 -0.6981
 3148TIP3    H231080   2.389   2.478   0.113 -1.8212  0.4914  0.1485
 3149TIP3   OH231081   4.496   1.102   2.693 -0.1327  0.9119  0.1753
 3149TIP3    H131082   4.558   1.131   2.760  0.0391 -0.5565  0.6778
 3149TIP3    H231083   4.492   1.007   2.703  0.8711  0.4596 -2.7282
 3150TIP3   OH231084   3.443   1.502   1.702  0.5759  0.0118 -0.0227
 3150TIP3    H131085   3.353   1.510   1.733  1.5432 -1.2978  3.5955
 3150TIP3    H231086   3.445   1.418   1.656  0.1078 -0.3512  0.5987
 3151TIP3   OH231087   4.344   5.407   3.175 -0.1334 -0.2558  0.1588
 3151TIP3    H131088   4.315   5.486   3.129 -0.3577  0.2502  1.1448
 3151TIP3    H231089   4.440   5.410   3.168 -0.1442  0.0454  0.0926
 3152TIP3   OH231090   4.454   6.323   2.079 -0.5815 -0.1619  0.1332
 3152TIP3    H131091   4.396   6.381   2.129  0.1424  0.6945  0.0081
 3152TIP3    H231092   4.485   6.378   2.007 -0.1374 -0.8160 -0.1780
 3153TIP3   OH231093   6.760   4.429   7.945  0.3287 -0.2767  0.1504
 3153TIP3    H131094   6.782   4.337   7.931 -0.3949 -1.2188  3.9161
 3153TIP3    H231095   6.844   4.473   7.952  0.7058 -0.2174 -3.1142
 3154TIP3   OH231096   4.782   1.341   0.278  0.0526  0.5220 -0.1053
 3154TIP3    H131097   4.787   1.281   0.353 -1.0179 -0.2364 -0.6197
 3154TIP3    H231098   4.831   1.297   0.209 -1.1176  0.0082 -0.6241
 3155TIP3   OH231099   0.418   0.406   3.587  0.3591 -0.5241 -0.6761
 3155TIP3    H131100   0.379   0.492   3.570  0.0318 -0.7074 -0.8576
 3155TIP3    H231101   0.505   0.426   3.622  0.6937 -0.1349 -1.7067
 3156TIP3   OH231102   0.567   6.189   2.194  0.0028 -0.4157  0.5883
 3156TIP3    H131103   0.552   6.159   2.284  0.3663  2.3188  1.6640
 3156TIP3    H231104   0.485   6.232   2.169  1.1468  2.3401  1.2193
 3157TIP3   OH231105   5.032   0.252   0.083 -0.2578 -0.9387 -0.5038
 3157TIP3    H131106   5.097   0.181   0.078  1.0183  0.0924  0.6727
 3157TIP3    H231107   5.083   0.330   0.106 -1.8679  0.0202 -0.0085
 3158TIP3   OH231108   5.530   6.651   1.743 -0.5285 -0.1421 -0.1707
 3158TIP3    H131109   5.444   6.609   1.746 -0.1662 -0.8376  1.2476
 3158TIP3    H231110   5.580   6.600   1.679 -1.3796  0.7731 -1.6463
 3159TIP3   OH231111   5.656   2.928   0.826  0.0405  0.4659  0.2524
 3159TIP3    H131112   5.690   2.931   0.736 -0.1598  2.3780  0.1862
 3159TIP3    H231113   5.563   2.909   0.817 -0.0599  1.0565  0.0148
 3160TIP3   OH231114   5.586   3.484   3.402  0.1491 -0.1902 -0.1186
 3160TIP3    H131115   5.640   3.449   3.473  1.0923  1.5377  0.0780
 3160TIP3    H231116   5.606   3.578   3.401 -1.0128  0.0791 -1.6687
 3161TIP3   OH231117   0.320   6.540   0.284 -0.2054  0.1500  0.3023
 3161TIP3    H131118   0.409   6.503   0.287 -0.0487  0.5625  2.6021
 3161TIP3    H231119   0.263   6.467   0.310 -0.2586  0.5526  1.3511
 3162TIP3   OH231120   5.337   0.862   0.676 -0.0551 -0.2499 -0.5058
 3162TIP3    H131121   5.422   0.872   0.718 -0.4802 -0.3336  0.3950
 3162TIP3    H231122   5.348   0.789   0.615  0.4359 -0.4511 -0.1754
 3163TIP3   OH231123   6.304   6.823   3.038 -0.4523 -0.5013 -0.1947
 3163TIP3    H131124   6.289   6.761   2.966 -0.4133 -0.3535 -0.3309
 3163TIP3    H231125   6.377   6.785   3.087 -0.4212 -0.5592 -0.2841
 3164TIP3   OH231126   3.662   1.215   1.010  0.2383  0.2575  0.9105
 3164TIP3    H131127   3.591   1.257   1.059 -0.7397 -0.2458 -0.0152
 3164TIP3    H231128   3.619   1.143   0.964  1.3270  0.0606  0.1725
 3165TIP3   OH231129   6.276   5.626   1.986 -0.2781 -0.5283 -0.0255
 3165TIP3    H131130   6.217   5.572   1.933  1.1674 -0.9023 -1.3315
 3165TIP3    H231131   6.322   5.563   2.042 -0.9085 -0.2651  0.8075
 3166TIP3   OH231132   2.601   6.239   3.683  0.1710 -0.7373 -0.1002
 3166TIP3    H131133   2.652   6.195   3.615  1.2458 -0.2077  0.3352
 3166TIP3    H231134   2.541   6.172   3.715  0.7972 -1.4766 -0.4378
 3167TIP3   OH231135   1.983   0.104   2.139  0.3135 -0.1427  0.3136
 3167TIP3    H131136   1.896   0.142   2.142 -0.1252 -0.9498 -1.0943
 3167TIP3    H231137   2.021   0.136   2.058  0.9012 -0.6708  0.3676
 3168TIP3   OH231138   6.474   1.404   7.781  0.5112  0.0528  0.0854
 3168TIP3    H131139   6.467   1.500   7.786 -3.3605  0.0236 -1.1916
 3168TIP3    H231140   6.504   1.378   7.868 -0.1857  2.3552  1.1049
 3169TIP3   OH231141   0.776   0.448   0.734  0.4467  0.2097 -0.2211
 3169TIP3    H131142   0.760   0.354   0.743 -0.6884  0.5264  1.2365
 3169TIP3    H231143   0.690   0.486   0.718  0.5325  1.2666  1.6460
 3170TIP3   OH231144   3.033   0.401   0.370  0.1909  0.1681  0.2651
 3170TIP3    H131145   3.076   0.316   0.369 -0.6732 -0.3111 -1.8172
 3170TIP3    H231146   3.062   0.444   0.289 -2.0398  0.3962 -0.4996
 3171TIP3   OH231147   4.449   5.193   1.420 -0.6337  0.1639 -0.7362
 3171TIP3    H131148   4.488   5.279   1.404 -1.2220  0.8229  1.0142
 3171TIP3    H231149   4.430   5.194   1.514  0.0397 -2.1915 -0.5255
 3172TIP3   OH231150   2.725   4.365   8.733  0.1319  0.6301 -0.4551
 3172TIP3    H131151   2.752   4.295   8.674  2.0038  1.6523 -0.9061
 3172TIP3    H231152   2.680   4.321   8.804 -1.1280 -0.7582 -2.0314
 3173TIP3   OH231153   2.992   1.768   0.247 -0.2746 -0.3666 -0.0806
 3173TIP3    H131154   3.004   1.682   0.286 -1.0299 -0.6608 -0.4554
 3173TIP3    H231155   2.948   1.820   0.314  2.8317  0.7194  1.2987
 3174TIP3   OH231156   1.949   4.094   1.499 -0.0541 -0.0394  0.4800
 3174TIP3    H131157   1.895   4.025   1.539  0.2954 -0.1640  0.7330
 3174TIP3    H231158   1.990   4.051   1.424  1.2747 -0.5052  1.4503
 3175TIP3   OH231159   4.985   4.194   0.146 -0.3606 -0.4560  0.5387
 3175TIP3    H131160   4.921   4.245   0.195 -0.3067 -0.4282  0.5797
 3175TIP3    H231161   4.979   4.227   0.056 -1.5744 -1.5654  0.1767
 3176TIP3   OH231162   0.007   3.906   0.952 -0.1215 -1.0651 -0.0574
 3176TIP3    H131163  -0.088   3.889   0.957 -0.4152 -0.5250 -2.5590
 3176TIP3    H231164   0.014   4.002   0.959  0.5363 -1.2363  2.7178
 3177TIP3   OH231165   3.926   3.103   0.238 -0.3123 -0.3309 -0.0264
 3177TIP3    H131166   3.879   3.117   0.320  0.0155  0.2871  0.0545
 3177TIP3    H231167   3.948   3.009   0.239  0.6017 -0.1179  1.0784
 3178TIP3   OH231168   5.385   0.581   8.313 -0.3177 -0.0494  0.1070
 3178TIP3    H131169   5.381   0.508   8.252 -1.0566 -0.5504  0.7359
 3178TIP3    H231170   5.461   0.563   8.368  0.4648  0.5005 -0.7603
 3179TIP3   OH231171   0.374   2.819   3.602 -0.7525  0.1553  0.0750
 3179TIP3    H131172   0.444   2.884   3.593 -0.2186 -0.4935 -0.6844
 3179TIP3    H231173   0.303   2.865   3.646  0.1637  0.8334  0.8987
 3180TIP3   OH231174   6.849   6.610   0.495 -0.0665 -1.2776  0.9524
 3180TIP3    H131175   6.924   6.667   0.510  0.1695 -0.8781 -1.3935
 3180TIP3    H231176   6.798   6.655   0.426 -1.7439 -2.1952  1.5299
 3181TIP3   OH231177   1.290   6.751   0.269 -0.3253 -0.0155 -0.3824
 3181TIP3    H131178   1.267   6.797   0.350  0.9300  0.1146 -0.0742
 3181TIP3    H231179   1.374   6.789   0.244  1.6965 -3.2899  0.8440
 3182TIP3   OH231180   4.092   4.352   3.093  0.3640 -0.0262 -0.4882
 3182TIP3    H131181   4.093   4.257   3.105  0.3687  0.1590  1.2597
 3182TIP3    H231182   4.001   4.372   3.074 -0.0258 -0.2168  1.0241
 3183TIP3   OH231183   6.027   0.053   8.259  0.1290 -0.3322  0.2234
 3183TIP3    H131184   6.092   0.049   8.188 -1.3236 -2.2096 -1.1004
 3183TIP3    H231185   5.977   0.133   8.242 -0.3957 -0.9204 -1.0763
 3184TIP3   OH231186   3.330   6.762   8.544 -0.2343  0.3515 -0.9241
 3184TIP3    H131187   3.400   6.795   8.488  0.3464  1.4456  0.3637
 3184TIP3    H231188   3.251   6.804   8.512  0.0634  0.8264 -1.0429
 3185TIP3   OH231189   1.643   0.526   2.161  0.3482  0.4539 -0.9201
 3185TIP3    H131190   1.715   0.568   2.114  1.3553  2.4420  2.0973
 3185TIP3    H231191   1.576   0.594   2.168 -0.0869 -0.0297 -0.2073
 3186TIP3   OH231192   6.180   3.747   3.595 -0.0401 -0.0100  0.2686
 3186TIP3    H131193   6.226   3.830   3.606 -1.1416  0.4533  1.8713
 3186TIP3    H231194   6.170   3.713   3.684  1.2960 -2.4343 -0.4117
 3187TIP3   OH231195   3.456   4.739   7.990 -0.3045 -0.1265 -0.1565
 3187TIP3    H131196   3.434   4.653   8.028 -1.5557  0.0832 -0.3465
 3187TIP3    H231197   3.516   4.719   7.918 -0.9531 -0.9017 -0.5036
 3188TIP3   OH231198   5.963   0.383   2.303  0.6379 -0.6026  0.2947
 3188TIP3    H131199   5.971   0.477   2.320 -0.1430 -0.8549  2.4764
 3188TIP3    H231200   5.914   0.377   2.221  1.8311  0.8669 -0.5624
 3189TIP3   OH231201   2.537   0.563   2.280  0.3081  0.7227 -0.3271
 3189TIP3    H131202   2.596   0.529   2.347 -1.7544 -1.5152  0.5129
 3189TIP3    H231203   2.555   0.508   2.203 -0.8521 -0.2297  0.0489
 3190TIP3   OH231204   0.978   4.865   3.581 -0.3170 -0.3048 -0.0774
 3190TIP3    H131205   1.022   4.926   3.522 -0.7607  2.0011  1.8362
 3190TIP3    H231206   1.033   4.862   3.659 -2.0933  0.4788  1.2628
 3191TIP3   OH231207   1.842   2.743   0.720  0.9216  0.2729  0.0616
 3191TIP3    H131208   1.874   2.764   0.807  0.2242  2.5469 -0.1848
 3191TIP3    H231209   1.872   2.815   0.665 -0.8970  0.2540 -1.0224
 3192TIP3   OH231210   4.227   3.003   3.319 -0.1112  0.1361 -0.1310
 3192TIP3    H131211   4.197   3.011   3.228 -1.1540  0.2145  0.2059
 3192TIP3    H231212   4.283   2.925   3.318  2.1336  1.6589 -1.3845
 3193TIP3   OH231213   0.848   1.703   0.328 -0.2215 -0.3927  0.2482
 3193TIP3    H131214   0.774   1.658   0.288  1.2883 -1.1577 -1.8824
 3193TIP3    H231215   0.886   1.755   0.257  1.9077 -0.8896  0.9369
 3194TIP3   OH231216   1.200   4.282   2.137 -0.3561 -0.4144  0.5879
 3194TIP3    H131217   1.212   4.191   2.164  0.5787 -0.3501  0.4422
 3194TIP3    H231218   1.278   4.302   2.086  0.3404  1.0175  2.1014
 3195TIP3   OH231219   2.949   5.288   0.360 -0.5304 -0.2614 -0.2810
 3195TIP3    H131220   2.897   5.210   0.343  0.1229 -1.0479  1.0794
 3195TIP3    H231221   3.021   5.257   0.416 -0.7500  1.4605  1.0578
 3196TIP3   OH231222   3.691   2.061   2.124 -0.2763  0.1085  0.3746
 3196TIP3    H131223   3.733   2.089   2.042 -1.1871 -0.2653 -0.2290
 3196TIP3    H231224   3.677   2.142   2.172 -1.8425  0.6200 -0.8563
 3197TIP3   OH231225   1.545   0.676   2.581 -0.2026  0.2142  0.1552
 3197TIP3    H131226   1.533   0.742   2.513  0.6892  1.5070  1.1846
 3197TIP3    H231227   1.475   0.693   2.644  1.1552  1.5091  1.3921
 3198TIP3   OH231228   6.603   3.725   2.184  0.3984 -0.4302  0.0062
 3198TIP3    H131229   6.576   3.767   2.102  1.2386  0.5678  0.2156
 3198TIP3    H231230   6.679   3.672   2.159  0.5450 -0.2671  0.1024
 3199TIP3   OH231231   5.886   3.617   3.269 -0.0105  0.3169  0.7860
 3199TIP3    H131232   5.809   3.665   3.298  0.9588  2.4081  0.0560
 3199TIP3    H231233   5.855   3.527   3.257 -2.1288  0.9415  1.2313
 3200TIP3   OH231234   5.702   0.614   2.257  0.4867 -0.4588 -0.1834
 3200TIP3    H131235   5.788   0.657   2.257  0.5375 -0.4903  1.3727
 3200TIP3    H231236   5.684   0.596   2.165  3.0368 -2.2039 -0.4486
 3201TIP3   OH231237   2.318   3.918   2.617  0.1096 -0.4859 -0.7147
 3201TIP3    H131238   2.336   4.010   2.635 -2.3060 -0.3247  1.4438
 3201TIP3    H231239   2.310   3.877   2.703  2.0578 -2.9916 -1.6127
 3202TIP3   OH231240   3.410   4.001   2.659 -0.0859  0.0057  0.1102
 3202TIP3    H131241   3.339   4.028   2.601 -1.0659  0.5884  1.5041
 3202TIP3    H231242   3.368   3.991   2.745  1.0304 -2.1777  0.4743
 3203TIP3   OH231243   1.712   1.220   0.714 -0.1008  0.5056 -0.4785
 3203TIP3    H131244   1.628   1.176   0.727 -0.9580  2.3656  0.7024
 3203TIP3    H231245   1.692   1.288   0.650  0.6480  0.6211 -0.5884
 3204TIP3   OH231246   2.247   6.080   3.533  0.1994 -0.0273 -0.4806
 3204TIP3    H131247   2.154   6.062   3.518  0.5103 -0.0183 -2.7380
 3204TIP3    H231248   2.293   6.013   3.483  1.5196 -1.6527  2.6457
 3205TIP3   OH231249   5.384   4.795   8.620 -0.4354 -0.4698 -0.1868
 3205TIP3    H131250   5.463   4.763   8.575 -0.2526  1.7181 -1.5425
 3205TIP3    H231251   5.322   4.813   8.549 -1.4815 -0.3813  0.7291
 3206TIP3   OH231252   1.548   6.773   1.711  0.2387  0.2438  0.0166
 3206TIP3    H131253   1.484   6.806   1.648 -0.4769  0.3981  0.7946
 3206TIP3    H231254   1.557   6.680   1.691 -0.6381  0.1002  0.2161
 3207TIP3   OH231255   0.514   0.645   0.465 -0.1599  0.0190 -0.4141
 3207TIP3    H131256   0.458   0.676   0.394 -0.2242 -0.5218 -0.6011
 3207TIP3    H231257   0.509   0.550   0.460 -0.0310 -0.0279  0.2079
 3208TIP3   OH231258   0.736   1.759   1.187  0.1459 -0.4101  0.0319
 3208TIP3    H131259   0.717   1.780   1.279 -0.6973 -0.1686 -0.1865
 3208TIP3    H231260   0.823   1.795   1.171 -1.1921  2.9932 -0.3208
 3209TIP3   OH231261   0.982   0.320   2.552 -0.5839  0.0477 -0.3116
 3209TIP3    H131262   1.042   0.329   2.477  0.9197  0.5209  0.9060
 3209TIP3    H231263   1.000   0.233   2.587  0.0496  0.5228  0.5827
 3210TIP3   OH231264   1.135   0.505   2.949 -0.2569 -0.4369 -0.3795
 3210TIP3    H131265   1.218   0.552   2.958 -1.5244  1.7401  0.8547
 3210TIP3    H231266   1.143   0.430   3.009  1.1420 -0.8443 -1.0320
 3211TIP3   OH231267   5.880   1.208   7.905 -0.2999  0.2523 -0.2695
 3211TIP3    H131268   5.911   1.203   7.995 -1.6084 -2.1031  0.1399
 3211TIP3    H231269   5.948   1.164   7.853  0.5909  1.8596 -0.5303
 3212TIP3   OH231270   0.086   2.416   0.434 -0.6045 -0.1613 -0.0506
 3212TIP3    H131271   0.158   2.478   0.425 -0.6989  0.0646  0.6771
 3212TIP3    H231272   0.076   2.377   0.347 -1.9957  2.4382 -1.1685
 3213TIP3   OH231273   6.310   3.708   0.099  0.0131 -0.1689 -0.1443
 3213TIP3    H131274   6.244   3.778   0.098 -0.2428 -0.4093 -0.2237
 3213TIP3    H231275   6.297   3.663   0.016 -0.4998 -0.9423  0.3446
 3214TIP3   OH231276   0.164   0.702   2.875 -0.4881  0.2444 -0.4496
 3214TIP3    H131277   0.099   0.741   2.934  0.7064 -0.7022  1.6136
 3214TIP3    H231278   0.113   0.674   2.799 -2.4661 -0.0977  0.9091
 3215TIP3   OH231279   4.918   6.679   3.035  0.1027 -0.5391  0.2393
 3215TIP3    H131280   4.848   6.743   3.025 -0.2173 -0.5803  1.9155
 3215TIP3    H231281   4.875   6.602   3.071  0.6379 -1.3843 -0.8875
 3216TIP3   OH231282   2.180   2.757   3.319 -0.2545 -0.2602 -0.2353
 3216TIP3    H131283   2.131   2.823   3.369 -1.0762  0.1228 -1.5056
 3216TIP3    H231284   2.180   2.790   3.229  0.2481 -1.4682 -0.6972
 3217TIP3   OH231285   5.766   1.409   7.793  0.3236  0.0930  0.3660
 3217TIP3    H131286   5.803   1.327   7.825  0.7547  0.2003  0.1489
 3217TIP3    H231287   5.671   1.396   7.797  0.3692  0.0373  1.5106
 3218TIP3   OH231288   3.602   6.265   7.994  0.1845  0.2190  0.6063
 3218TIP3    H131289   3.606   6.170   7.981 -2.1402  0.0351  0.8126
 3218TIP3    H231290   3.511   6.288   7.975  0.5634  2.3389  1.1144
 3219TIP3   OH231291   4.510   3.417   0.263 -0.3136 -0.1443  0.1096
 3219TIP3    H131292   4.476   3.478   0.329 -2.7312  0.1708 -1.3059
 3219TIP3    H231293   4.521   3.470   0.184  1.8952 -0.6522  0.0159
 3220TIP3   OH231294   6.649   5.126   2.525  0.0068 -0.0087 -0.2873
 3220TIP3    H131295   6.592   5.155   2.596 -0.6106 -1.2100 -0.2634
 3220TIP3    H231296   6.592   5.125   2.448 -0.2482 -1.9012 -0.1255
 3221TIP3   OH231297   5.361   4.714   7.700 -0.2172 -0.0863  0.4456
 3221TIP3    H131298   5.433   4.662   7.664  0.6947  0.0814  1.9464
 3221TIP3    H231299   5.305   4.650   7.744  0.5180  0.0852  1.6669
 3222TIP3   OH231300   1.685   5.992   8.420  0.0124 -0.1354  0.4087
 3222TIP3    H131301   1.700   6.072   8.369  0.4095 -0.9158 -0.7361
 3222TIP3    H231302   1.769   5.946   8.418 -0.7787 -1.5970 -0.7878
 3223TIP3   OH231303   4.094   1.342   0.201 -0.2009 -0.0045 -0.0238
 3223TIP3    H131304   4.154   1.293   0.144  0.2403  1.0019 -0.4548
 3223TIP3    H231305   4.085   1.427   0.158 -0.6717  0.4206  0.8922
 3224TIP3   OH231306   4.241   0.037   8.613  0.8438 -0.4573 -0.1401
 3224TIP3    H131307   4.163   0.012   8.563  0.6882  1.0873 -0.7277
 3224TIP3    H231308   4.225   0.002   8.701  1.0052 -3.0009 -1.0417
 3225TIP3   OH231309   5.790   0.315   0.198  0.3343 -0.1327  0.0634
 3225TIP3    H131310   5.817   0.356   0.279  1.4916  0.9520 -0.8322
 3225TIP3    H231311   5.869   0.274   0.164 -0.5182 -2.1030  0.3145
 3226TIP3   OH231312   2.717   2.054   2.672  0.5503  0.1871 -0.1552
 3226TIP3    H131313   2.657   1.987   2.641 -0.7533  1.6790 -1.0020
 3226TIP3    H231314   2.692   2.069   2.763 -0.8095  1.2204 -0.6739
 3227TIP3   OH231315   0.806   1.370   1.368  0.2769  0.2173  0.4039
 3227TIP3    H131316   0.866   1.440   1.394  0.9705  0.9552 -2.7279
 3227TIP3    H231317   0.799   1.378   1.272 -0.5677 -3.2633  0.0226
 3228TIP3   OH231318   0.440   3.919   0.661  0.3753  0.2860 -0.1523
 3228TIP3    H131319   0.378   3.979   0.701  0.1171 -0.2695  0.2952
 3228TIP3    H231320   0.522   3.968   0.658 -0.1045  1.0625 -0.8534
 3229TIP3   OH231321   6.840   6.016   1.682 -0.0662 -0.8647 -0.2892
 3229TIP3    H131322   6.831   6.029   1.776 -1.5243 -0.9449 -0.3896
 3229TIP3    H231323   6.839   6.104   1.644 -0.9191 -0.8657 -0.3083
 3230TIP3   OH231324   1.714   1.791   3.569  0.3297  0.3675 -0.8162
 3230TIP3    H131325   1.668   1.873   3.554 -0.9844 -0.0067  0.8354
 3230TIP3    H231326   1.645   1.729   3.593  1.5432 -0.5747  0.3997
 3231TIP3   OH231327   3.082   2.794   0.019  0.3787  0.1321 -0.1094
 3231TIP3    H131328   3.133   2.872  -0.003  0.4401  0.1632  0.1440
 3231TIP3    H231329   3.113   2.728  -0.044  3.2933 -0.8980  2.1719
 3232TIP3   OH231330   3.794   6.821   0.770 -0.2757  0.1556 -0.1696
 3232TIP3    H131331   3.839   6.791   0.691 -0.8264 -3.5395  0.7251
 3232TIP3    H231332   3.710   6.776   0.768 -1.2072  1.7271  1.4454
 3233TIP3   OH231333   6.456   3.469   0.183  0.3028  0.1404  0.2366
 3233TIP3    H131334   6.489   3.538   0.125  0.8516 -0.8775 -0.6874
 3233TIP3    H231335   6.366   3.454   0.154  0.2947  0.2372  0.2113
 3234TIP3   OH231336   0.169   4.993   2.460 -0.3022  0.4983  0.0565
 3234TIP3    H131337   0.100   4.974   2.397  0.1237 -1.7313  0.1591
 3234TIP3    H231338   0.124   4.999   2.544 -0.4350 -0.9114  0.1181
 3235TIP3   OH231339   6.010   5.720   8.404  1.0200  0.2705  0.1685
 3235TIP3    H131340   6.008   5.795   8.345  0.2079 -0.1939 -0.4084
 3235TIP3    H231341   5.999   5.644   8.348  0.9089 -0.2279  0.8479
 3236TIP3   OH231342   4.946   3.254   1.384  0.2252  0.4351  0.3994
 3236TIP3    H131343   5.041   3.240   1.382  0.3055  1.0746 -0.8746
 3236TIP3    H231344   4.935   3.336   1.432  0.1488 -0.6556  2.3633
 3237TIP3   OH231345   3.481   3.287   0.819 -0.1049 -0.2098  0.3340
 3237TIP3    H131346   3.557   3.235   0.845 -0.8665 -1.4124  0.2276
 3237TIP3    H231347   3.424   3.225   0.773 -1.5723  0.4311  1.2086
 3238TIP3   OH231348   4.539   0.789   1.121 -0.3739  0.0905  0.0627
 3238TIP3    H131349   4.539   0.882   1.099 -1.6214  0.1440  0.2154
 3238TIP3    H231350   4.476   0.750   1.060 -1.0741 -0.3719  1.0510
 3239TIP3   OH231351   2.945   2.352   8.523  0.2007  0.0717  0.1251
 3239TIP3    H131352   2.883   2.421   8.544 -0.6736 -0.7558  0.3583
 3239TIP3    H231353   2.890   2.279   8.494  1.0313 -0.8478  0.8075
 3240TIP3   OH231354   4.274   5.384   0.210 -0.0784 -0.0685  0.6625
 3240TIP3    H131355   4.328   5.388   0.130 -0.9948  2.2719  0.0497
 3240TIP3    H231356   4.196   5.336   0.184  0.4330 -0.9373  0.7079
 3241TIP3   OH231357   5.458   4.344   1.857 -0.5278  0.1707 -0.0502
 3241TIP3    H131358   5.527   4.316   1.917 -1.6619 -1.5967  0.4898
 3241TIP3    H231359   5.407   4.407   1.907 -1.5240 -1.3648  0.9204
 3242TIP3   OH231360   2.790   3.252   2.735  0.6915  0.4029  0.2139
 3242TIP3    H131361   2.799   3.162   2.703  0.0759 -0.2695  1.8432
 3242TIP3    H231362   2.823   3.306   2.663  0.5987 -1.0874 -0.9993
 3243TIP3   OH231363   3.519   1.553   1.986  0.1582 -0.1879 -0.0009
 3243TIP3    H131364   3.508   1.459   2.000  0.4329 -0.1576  0.4370
 3243TIP3    H231365   3.498   1.566   1.893  0.1730 -0.6865 -0.0776
 3244TIP3   OH231366   5.963   3.268   0.416 -0.4413 -0.0964  0.2155
 3244TIP3    H131367   5.896   3.201   0.401  0.2956 -0.4411 -1.7706
 3244TIP3    H231368   5.966   3.318   0.335  2.3206 -0.6854 -0.1516
 3245TIP3   OH231369   1.402   4.350   1.948  1.0911 -0.3067 -0.1605
 3245TIP3    H131370   1.365   4.433   1.916 -0.3757 -1.2713 -1.0784
 3245TIP3    H231371   1.408   4.295   1.870  2.4591 -0.9480  0.3622
 3246TIP3   OH231372   1.016   6.138   8.051  0.0365  0.0720 -0.4470
 3246TIP3    H131373   1.071   6.118   7.976  2.7837  2.5510  0.7056
 3246TIP3    H231374   0.965   6.215   8.023 -0.3378 -0.1491 -0.3802
 3247TIP3   OH231375   4.506   4.301   0.804  0.1148  0.2196 -0.0916
 3247TIP3    H131376   4.554   4.353   0.740 -0.6188 -0.7833 -1.5141
 3247TIP3    H231377   4.526   4.210   0.781  1.0243 -0.1922  2.0649
 3248TIP3   OH231378   0.861   6.326   1.417 -0.4008 -0.2382  0.6977
 3248TIP3    H131379   0.882   6.354   1.328 -1.0372  0.5473  0.7786
 3248TIP3    H231380   0.941   6.286   1.450 -0.3660 -1.1821 -0.4699
 3249TIP3   OH231381   2.809   6.063   0.683 -0.4662  0.0973  0.5078
 3249TIP3    H131382   2.810   5.968   0.692 -2.3455 -0.0466 -0.3053
 3249TIP3    H231383   2.765   6.078   0.599  3.6769  1.6137 -1.6696
 3250TIP3   OH231384   2.418   1.583   3.240 -0.0099  0.0087 -0.1699
 3250TIP3    H131385   2.445   1.517   3.304  0.5962  0.3761 -0.0412
 3250TIP3    H231386   2.396   1.533   3.161  2.8885 -0.2289 -0.9349
 3251TIP3   OH231387   2.365   6.051   8.540 -0.4062 -0.7567 -0.2143
 3251TIP3    H131388   2.307   6.046   8.464 -1.3879 -0.0052  0.4530
 3251TIP3    H231389   2.312   6.016   8.612  0.6777 -1.9158  0.0516
 3252TIP3   OH231390   2.202   4.938   1.095  0.3562  0.2304 -0.1140
 3252TIP3    H131391   2.259   4.932   1.019  0.2380  1.8882 -0.3784
 3252TIP3    H231392   2.146   5.014   1.077 -0.8688 -0.4098  0.8432
 3253TIP3   OH231393   5.656   1.433   2.511 -0.3491  0.1257 -0.2241
 3253TIP3    H131394   5.654   1.338   2.497  0.0776  0.0791  0.0385
 3253TIP3    H231395   5.564   1.460   2.502 -0.3261 -0.1403 -1.4235
 3254TIP3   OH231396   5.064   4.668   2.917 -0.4315  0.8047 -0.2738
 3254TIP3    H131397   5.131   4.644   2.852  0.6257  2.1767  0.2591
 3254TIP3    H231398   5.033   4.754   2.890 -0.5040  1.0719  0.6309
 3255TIP3   OH231399   0.662   4.780   0.222 -0.2957  0.2999  0.1840
 3255TIP3    H131400   0.663   4.772   0.127 -0.2426 -1.3528  0.2834
 3255TIP3    H231401   0.711   4.703   0.253 -2.2913 -0.5113  1.5579
 3256TIP3   OH231402   6.836   3.093   8.770  0.7331 -0.1350  0.5510
 3256TIP3    H131403   6.782   3.156   8.818  0.4586  1.6679 -1.9404
 3256TIP3    H231404   6.861   3.028   8.836 -0.3020  1.6927  2.8930
 3257TIP3   OH231405   4.815   4.940   0.227  0.6505 -0.4866  0.4702
 3257TIP3    H131406   4.889   4.959   0.169  0.6834  1.2568  1.0241
 3257TIP3    H231407   4.747   4.906   0.168  0.3571  2.0963 -0.8474
 3258TIP3   OH231408   6.485   4.281   1.989 -0.4191 -0.0856 -0.1617
 3258TIP3    H131409   6.443   4.240   1.913 -0.9656 -0.3435  0.2765
 3258TIP3    H231410   6.452   4.371   1.988 -2.2215 -0.6767  1.0494
 3259TIP3   OH231411   5.409   5.406   0.317  0.1770 -0.4711 -0.0175
 3259TIP3    H131412   5.475   5.442   0.376  0.0511 -2.2499  1.2674
 3259TIP3    H231413   5.359   5.483   0.288  0.5670  0.5309  1.8111
 3260TIP3   OH231414   0.170   3.295   3.415  0.5441 -0.7397 -0.4061
 3260TIP3    H131415   0.178   3.211   3.370  3.3896  0.3184 -2.1071
 3260TIP3    H231416   0.236   3.351   3.375 -1.1923  2.3632  0.6826
 3261TIP3   OH231417   2.410   0.518   3.209 -0.2561  0.5591  0.8433
 3261TIP3    H131418   2.488   0.463   3.210  0.7095  1.8835  1.9854
 3261TIP3    H231419   2.360   0.490   3.285 -1.1289 -0.5568 -0.1065
 3262TIP3   OH231420   6.322   3.039   1.133  0.8643  0.0833  0.4527
 3262TIP3    H131421   6.280   3.125   1.125  1.6053  0.4907  0.9065
 3262TIP3    H231422   6.378   3.046   1.210 -0.6957 -1.5051  1.8135
 3263TIP3   OH231423   5.065   3.999   3.293 -0.1140  0.7660  0.3144
 3263TIP3    H131424   4.983   3.959   3.267  0.2693 -0.1521  0.4858
 3263TIP3    H231425   5.095   4.046   3.215  0.6386 -1.3162 -0.7243
 3264TIP3   OH231426   3.782   2.163   1.881  0.7555 -0.2160 -0.0887
 3264TIP3    H131427   3.849   2.111   1.837  0.3243 -0.3375 -0.6095
 3264TIP3    H231428   3.773   2.242   1.827  0.4139 -0.2442 -0.0782
 3265TIP3   OH231429   0.597   4.700   8.132 -0.0984 -0.4015 -0.6047
 3265TIP3    H131430   0.524   4.641   8.113 -0.1946  0.0541 -1.7720
 3265TIP3    H231431   0.556   4.784   8.150  0.0999 -0.3394 -0.4469
 3266TIP3   OH231432   1.724   1.816   0.371  0.0877  0.3263  0.0757
 3266TIP3    H131433   1.774   1.744   0.333 -0.5022  0.0684 -0.2261
 3266TIP3    H231434   1.633   1.787   0.367 -0.2764  1.4898 -0.9828
 3267TIP3   OH231435   6.129   0.696   8.350  0.3716 -0.1366 -0.0926
 3267TIP3    H131436   6.135   0.619   8.293  2.1586  0.0202 -0.1820
 3267TIP3    H231437   6.080   0.760   8.299 -0.1771 -0.8372 -0.4602
 3268TIP3   OH231438   2.812   2.729   1.740  0.1556 -0.2094 -0.9610
 3268TIP3    H131439   2.837   2.746   1.650  0.0346  0.0572 -0.9466
 3268TIP3    H231440   2.717   2.717   1.737  0.1847 -0.4654 -0.9071
 3269TIP3   OH231441   0.035   1.006   1.648  0.2822 -0.0045 -0.0673
 3269TIP3    H131442   0.051   1.059   1.726  0.3921  1.1621 -0.8611
 3269TIP3    H231443  -0.059   0.989   1.650  0.4650 -1.0377  0.9567
 3270TIP3   OH231444   4.413   1.915   1.272 -0.1690 -0.8086  0.8897
 3270TIP3    H131445   4.410   1.947   1.362  1.9352 -1.2937  1.1712
 3270TIP3    H231446   4.358   1.837   1.273 -0.4669 -0.6009  1.6477
 3271TIP3   OH231447   5.917   1.570   0.990 -1.3228 -0.0418 -0.3776
 3271TIP3    H131448   5.948   1.552   1.079 -0.9174  0.1966 -0.4690
 3271TIP3    H231449   5.893   1.484   0.956  1.1396 -0.5663 -1.0172
 3272TIP3   OH231450   5.791   4.967   0.374 -0.8881 -0.2772 -0.1523
 3272TIP3    H131451   5.820   4.876   0.380 -0.4995 -0.3224 -2.0597
 3272TIP3    H231452   5.831   5.000   0.293 -1.1910  1.5376  0.3818
 3273TIP3   OH231453   3.469   1.107   1.832 -0.3117 -0.0686 -0.3764
 3273TIP3    H131454   3.461   1.094   1.738 -0.5573  1.4041 -0.5712
 3273TIP3    H231455   3.545   1.053   1.857  0.1451  0.0218 -1.5164
 3274TIP3   OH231456   5.761   2.534   2.202 -0.1531 -0.0699 -0.1719
 3274TIP3    H131457   5.740   2.442   2.185 -1.8271  0.2640 -0.1475
 3274TIP3    H231458   5.846   2.532   2.246 -0.7078 -1.7098  0.9310
 3275TIP3   OH231459   4.591   0.444   1.883  0.0423 -0.4908 -0.5547
 3275TIP3    H131460   4.501   0.451   1.851  0.3065  0.1225 -1.1809
 3275TIP3    H231461   4.586   0.379   1.953 -1.4460  1.5572  1.3920
 3276TIP3   OH231462   0.078   0.032   2.800 -0.4576 -0.1770  0.2147
 3276TIP3    H131463   0.114   0.121   2.797 -0.6842 -0.1014 -0.4185
 3276TIP3    H231464   0.025   0.025   2.720  0.9153 -1.4593 -0.6141
 3277TIP3   OH231465   2.874   4.370   1.371 -0.0656 -0.2599  0.4383
 3277TIP3    H131466   2.887   4.306   1.441  2.2819 -0.8005 -0.4128
 3277TIP3    H231467   2.810   4.328   1.312 -2.1247  0.2352  2.1924
 3278TIP3   OH231468   0.804   3.884   3.709  0.1534  0.4951 -0.1228
 3278TIP3    H131469   0.885   3.862   3.663  0.4202  0.0207  0.5474
 3278TIP3    H231470   0.815   3.976   3.735  0.2227  0.6075 -0.5520
 3279TIP3   OH231471   3.394   2.196   1.238 -0.3256 -0.5457 -0.0128
 3279TIP3    H131472   3.350   2.115   1.266  1.7382 -1.0836  2.0301
 3279TIP3    H231473   3.456   2.215   1.309 -0.4276  2.6209 -0.6283
 3280TIP3   OH231474   1.096   2.409   0.726  0.1514  0.6869  0.0662
 3280TIP3    H131475   1.001   2.412   0.722  0.1187 -0.4352 -0.1801
 3280TIP3    H231476   1.117   2.317   0.742  1.2266  0.7573 -0.8092
 3281TIP3   OH231477   0.435   0.571   8.711  0.1587 -0.3330 -0.4365
 3281TIP3    H131478   0.477   0.564   8.797 -1.5789 -1.4876  0.3801
 3281TIP3    H231479   0.451   0.487   8.669  0.6498  0.0799 -1.1061
 3282TIP3   OH231480   2.678   0.622   2.533  0.8425  0.3670  0.4010
 3282TIP3    H131481   2.718   0.707   2.516  2.3011 -0.4346 -0.2532
 3282TIP3    H231482   2.751   0.565   2.556 -0.0680 -0.8171  0.4294
 3283TIP3   OH231483   0.713   0.001   2.740 -0.2301 -0.2282 -0.2314
 3283TIP3    H131484   0.685  -0.089   2.754 -2.1586  0.4387  0.6166
 3283TIP3    H231485   0.801   0.005   2.777 -1.0306 -1.2167  1.9930
 3284TIP3   OH231486   4.384   1.943   3.458  0.3809 -0.3865  0.1659
 3284TIP3    H131487   4.304   1.988   3.430  0.0350 -2.0278 -1.7445
 3284TIP3    H231488   4.359   1.895   3.536 -0.5394 -0.8930 -0.4160
 3285TIP3   OH231489   2.310   2.115   2.898 -0.1113  0.1598 -0.7835
 3285TIP3    H131490   2.403   2.098   2.881  0.1146 -1.0604  1.3535
 3285TIP3    H231491   2.304   2.210   2.906  1.4892  0.1519  1.4621
 3286TIP3   OH231492   6.772   6.807   2.563  0.0093 -0.3262  0.0287
 3286TIP3    H131493   6.691   6.827   2.610  0.1026  1.3232 -0.4453
 3286TIP3    H231494   6.756   6.835   2.473  0.3025 -2.2093 -0.6616
 3287TIP3   OH231495   5.922   1.273   1.156 -0.4529  0.1959 -0.2180
 3287TIP3    H131496   5.888   1.277   1.067  0.8888  0.9629 -0.7132
 3287TIP3    H231497   5.854   1.314   1.209 -0.6942  0.9217 -1.0625
 3288TIP3   OH231498   6.461   2.552   1.453  0.3821 -0.4352 -0.4476
 3288TIP3    H131499   6.550   2.587   1.443  0.1286  0.8518  1.3546
 3288TIP3    H231500   6.405   2.630   1.449 -0.5414 -1.0709 -0.1413
 3289TIP3   OH231501   2.426   4.699   0.659 -0.0193  0.1697 -0.2342
 3289TIP3    H131502   2.365   4.649   0.605  1.1697 -1.7388  0.0813
 3289TIP3    H231503   2.377   4.718   0.739 -1.0926  1.1527 -1.1016
 3290TIP3   OH231504   2.068   4.784   8.213 -0.2220 -0.5158 -0.3221
 3290TIP3    H131505   2.008   4.750   8.280  2.7371 -3.6597  1.0553
 3290TIP3    H231506   2.054   4.727   8.138  1.5297 -1.8817  0.3306
 3291TIP3   OH231507   3.950   0.684   0.240  0.2673  0.6669 -0.0655
 3291TIP3    H131508   4.002   0.623   0.292 -0.6828  1.5553  2.0627
 3291TIP3    H231509   3.869   0.636   0.221  0.8782  0.1064 -1.3667
 3292TIP3   OH231510   2.205   0.227   2.673 -0.0221 -0.2916 -0.2329
 3292TIP3    H131511   2.231   0.295   2.611  0.9187 -0.7143 -0.3331
 3292TIP3    H231512   2.143   0.270   2.732  1.3820  1.0032  0.3975
 3293TIP3   OH231513   3.329   4.737   1.082  0.2585  0.3688  0.3370
 3293TIP3    H131514   3.345   4.744   0.988  0.1158  1.5529  0.3871
 3293TIP3    H231515   3.328   4.643   1.099  0.1997  0.1368 -0.8594
 3294TIP3   OH231516   6.541   4.192   8.643  0.2891  0.1143 -0.3115
 3294TIP3    H131517   6.581   4.208   8.729 -2.3683  0.3268  0.9805
 3294TIP3    H231518   6.602   4.233   8.581  2.3924 -0.2225  1.4022
 3295TIP3   OH231519   6.535   4.815   1.181  0.1014 -0.3250  0.3708
 3295TIP3    H131520   6.481   4.793   1.105 -0.9734  0.3664  0.9099
 3295TIP3    H231521   6.475   4.858   1.242  1.0985 -0.2254  1.3195
 3296TIP3   OH231522   1.923   6.651   2.091  0.1790  0.1535 -0.0741
 3296TIP3    H131523   1.851   6.659   2.154 -0.7285  0.3836 -1.1065
 3296TIP3    H231524   1.997   6.694   2.134 -0.5471  0.7158  0.6489
 3297TIP3   OH231525   1.026   6.475   8.557 -0.2731 -0.1208 -0.1796
 3297TIP3    H131526   1.109   6.516   8.583  0.0537 -1.5058  1.1573
 3297TIP3    H231527   1.005   6.513   8.472  1.2467  0.9603 -0.1040
 3298TIP3   OH231528   3.710   0.785   2.450 -0.6612 -0.5871  0.1406
 3298TIP3    H131529   3.708   0.809   2.358  1.3154 -0.4771  0.0856
 3298TIP3    H231530   3.749   0.698   2.452 -0.2761 -0.4044  0.8947
 3299TIP3   OH231531   3.793   1.467   1.810  0.0339  0.4216 -0.3686
 3299TIP3    H131532   3.871   1.473   1.866  0.9072  0.9529 -1.6011
 3299TIP3    H231533   3.746   1.548   1.827  0.2206  0.5168 -0.2974
 3300TIP3   OH231534   4.909   3.497   0.364  0.3689  0.1528  0.8056
 3300TIP3    H131535   4.997   3.458   0.366 -0.4846 -1.9297  0.5734
 3300TIP3    H231536   4.864   3.451   0.294 -1.0163  0.9517  1.1388
 3301TIP3   OH231537   1.861   6.654   3.266 -0.3522  0.5341 -0.2639
 3301TIP3    H131538   1.826   6.742   3.281 -0.5230  0.1880  1.6672
 3301TIP3    H231539   1.922   6.640   3.339 -1.0902 -1.3104  0.0543
 3302TIP3   OH231540   4.556   0.743   2.558 -0.3325  0.5381  0.1465
 3302TIP3    H131541   4.540   0.787   2.475  3.9265  0.1944 -1.0834
 3302TIP3    H231542   4.551   0.650   2.538  0.7511  0.4542  0.2323
 3303TIP3   OH231543   4.988   6.708   0.403  0.4499  0.4855  0.2392
 3303TIP3    H131544   4.998   6.658   0.484  0.8676 -0.9649 -0.6727
 3303TIP3    H231545   5.023   6.651   0.335  0.5451  1.8620 -0.9157
 3304TIP3   OH231546   5.295   3.655   2.664  0.5908  0.5412  0.2129
 3304TIP3    H131547   5.322   3.583   2.721 -0.0507 -1.2408 -1.6186
 3304TIP3    H231548   5.200   3.657   2.671  0.6453  1.6609  0.7408
 3305TIP3   OH231549   3.693   0.217   0.785  0.5215  0.6585 -0.1809
 3305TIP3    H131550   3.697   0.192   0.877 -1.9466  0.6860 -0.0055
 3305TIP3    H231551   3.712   0.135   0.738 -0.5822  0.0474  0.3877
 3306TIP3   OH231552   2.339   3.761   8.203  0.1242 -0.7947 -0.0304
 3306TIP3    H131553   2.280   3.770   8.128 -0.0646  0.0516  0.2108
 3306TIP3    H231554   2.347   3.666   8.216 -1.7823 -0.9312  0.4021
 3307TIP3   OH231555   2.650   4.035   3.718  0.2778 -0.0343  0.2729
 3307TIP3    H131556   2.585   4.086   3.765  1.4712  1.7115  0.1382
 3307TIP3    H231557   2.725   4.094   3.709  0.6443 -0.7921 -2.5379
 3308TIP3   OH231558   4.795   2.249   2.233 -0.1518  0.2792  0.0304
 3308TIP3    H131559   4.883   2.276   2.260  0.1673 -0.3063 -0.4098
 3308TIP3    H231560   4.740   2.270   2.309  0.6119 -0.6883  0.8854
 3309TIP3   OH231561   4.303   2.035   0.887 -0.2620 -0.6995 -0.7142
 3309TIP3    H131562   4.386   2.061   0.847 -0.2253 -2.3696 -1.8075
 3309TIP3    H231563   4.236   2.064   0.826 -0.5818  1.1673  0.4416
 3310TIP3   OH231564   1.013   4.217   0.542 -0.1139  0.3134 -0.3839
 3310TIP3    H131565   0.948   4.249   0.480  0.5783  3.4746  0.3281
 3310TIP3    H231566   1.092   4.267   0.522  1.1265 -1.0283  0.8969
 3311TIP3   OH231567   4.001   3.653   3.143  0.3159 -0.1632 -0.2186
 3311TIP3    H131568   4.057   3.676   3.069  0.5937  0.0385  0.0488
 3311TIP3    H231569   3.965   3.567   3.121  1.6597 -0.8418  0.1239
 3312TIP3   OH231570   0.388   2.827   8.430 -0.3047 -0.6830  0.3614
 3312TIP3    H131571   0.448   2.902   8.424 -0.3412 -0.6204  0.7781
 3312TIP3    H231572   0.355   2.830   8.519 -1.9081  0.0429 -0.2112
 3313TIP3   OH231573   1.218   1.281   2.272 -0.6245 -0.3986 -0.3678
 3313TIP3    H131574   1.138   1.331   2.259 -0.1644  1.0400  1.9031
 3313TIP3    H231575   1.283   1.345   2.301  1.3236 -1.5545 -1.8460
 3314TIP3   OH231576   5.236   2.023   2.188 -0.0043  0.6717 -0.1765
 3314TIP3    H131577   5.322   2.042   2.151 -0.0591  0.5233 -0.3820
 3314TIP3    H231578   5.177   2.018   2.112 -0.2365  0.9970 -0.0210
 3315TIP3   OH231579   2.054   2.647   8.178  0.8919  0.5068 -0.3639
 3315TIP3    H131580   2.050   2.566   8.127  0.5383  0.1642  0.1952
 3315TIP3    H231581   1.993   2.706   8.134 -0.8259 -0.4056  0.6969
 3316TIP3   OH231582   4.731   5.743   8.746  0.3385  0.3004 -0.4048
 3316TIP3    H131583   4.768   5.732   8.834 -1.7026 -1.4045  0.3163
 3316TIP3    H231584   4.787   5.689   8.689  1.3387  0.9756 -0.0882
 3317TIP3   OH231585   0.404   4.498   2.631  0.4742  0.4982 -0.0476
 3317TIP3    H131586   0.361   4.582   2.616 -0.5529 -0.1834 -1.1276
 3317TIP3    H231587   0.456   4.483   2.552 -0.1216 -0.3099 -0.3040
 3318TIP3   OH231588   4.427   1.139   1.436 -0.2292 -0.2153  0.7980
 3318TIP3    H131589   4.480   1.143   1.516 -2.7615  2.2381  2.5618
 3318TIP3    H231590   4.462   1.209   1.381 -1.1100  0.9381  1.6590
 3319TIP3   OH231591   6.497   4.519   1.684  0.3185 -0.3204 -0.2216
 3319TIP3    H131592   6.495   4.435   1.638  0.5805 -1.1170  1.1803
 3319TIP3    H231593   6.406   4.539   1.701  0.2547 -0.3276 -0.5440
 3320TIP3   OH231594   2.922   0.262   8.016  0.2424  0.2963  0.0682
 3320TIP3    H131595   2.934   0.354   8.038  2.0212 -0.0735  0.7516
 3320TIP3    H231596   2.832   0.243   8.042  0.0147  1.7054  0.3857
 3321TIP3   OH231597   1.149   4.880   1.493  0.0134 -0.5078  1.1030
 3321TIP3    H131598   1.210   4.953   1.482 -1.3104  0.8148  2.1843
 3321TIP3    H231599   1.184   4.829   1.565  0.6125 -0.6008  0.7510
 3322TIP3   OH231600   5.108   6.228   2.234 -0.1746  0.0202  0.2789
 3322TIP3    H131601   5.191   6.204   2.276 -0.7500  0.2088  1.5890
 3322TIP3    H231602   5.086   6.313   2.272  0.7681  1.7302 -2.6917
 3323TIP3   OH231603   4.080   3.322   2.469 -0.6359  0.3055 -0.0468
 3323TIP3    H131604   4.129   3.270   2.533 -0.7140  0.8119  0.4210
 3323TIP3    H231605   4.076   3.410   2.506 -2.7379  0.0689  0.3834
 3324TIP3   OH231606   5.746   0.454   0.711  0.2809  0.1833 -0.6374
 3324TIP3    H131607   5.693   0.376   0.729 -0.3753  0.4981 -1.1355
 3324TIP3    H231608   5.681   0.523   0.697  0.8587  0.9552  0.3663
 3325TIP3   OH231609   6.178   3.070   3.593 -1.0201  0.0749  0.2370
 3325TIP3    H131610   6.165   3.091   3.685 -1.3619  1.2656 -0.0683
 3325TIP3    H231611   6.250   3.127   3.565 -0.3731 -0.8512 -0.0444
 3326TIP3   OH231612   0.906   5.593   3.593  0.3572  0.0545 -0.3378
 3326TIP3    H131613   0.903   5.636   3.678  4.4335 -0.6433  0.3319
 3326TIP3    H231614   0.865   5.508   3.608 -1.6426  1.0308  0.0664
 3327TIP3   OH231615   4.552   0.475   2.430 -0.2371  0.0031  0.0901
 3327TIP3    H131616   4.610   0.462   2.355  1.8001  0.4777  1.5127
 3327TIP3    H231617   4.550   0.391   2.475  0.7366  0.4298  0.9649
 3328TIP3   OH231618   0.316   6.684   2.669 -0.6881 -0.1715  0.2596
 3328TIP3    H131619   0.312   6.778   2.683  1.5253  0.1209 -0.6117
 3328TIP3    H231620   0.323   6.646   2.757 -2.6121  0.3652  0.6688
 3329TIP3   OH231621   4.471   2.692   8.682 -0.1704  0.1470 -0.3072
 3329TIP3    H131622   4.512   2.654   8.760  2.3543  0.1073 -1.5615
 3329TIP3    H231623   4.518   2.774   8.667  0.3339 -0.4862 -2.5027
 3330TIP3   OH231624   3.084   0.686   1.343 -0.4777  0.4947  0.0815
 3330TIP3    H131625   3.082   0.776   1.312  0.4359 -0.0866 -1.7741
 3330TIP3    H231626   3.051   0.634   1.270 -0.4169 -0.7480  0.8966
 3331TIP3   OH231627   6.592   5.632   2.856  0.5044  0.3142 -0.2860
 3331TIP3    H131628   6.511   5.584   2.844  1.9482 -1.6950 -3.1345
 3331TIP3    H231629   6.571   5.722   2.832 -0.8814 -0.1833 -1.0406
 3332TIP3   OH231630   5.683   3.410   0.242 -1.7893  0.6102  0.4791
 3332TIP3    H131631   5.755   3.468   0.266  0.8742 -1.5548 -1.5482
 3332TIP3    H231632   5.649   3.446   0.160  0.0011 -0.6197 -0.8908
 3333TIP3   OH231633   0.152   0.392   1.046  0.4254 -0.4177 -0.0092
 3333TIP3    H131634   0.085   0.324   1.051 -0.3947  0.2560 -1.1077
 3333TIP3    H231635   0.180   0.390   0.954  1.3889 -0.2004  0.2762
 3334TIP3   OH231636   0.398   5.923   0.559 -0.0082 -0.6093  0.5536
 3334TIP3    H131637   0.471   5.892   0.506  0.1403 -0.3610  0.6143
 3334TIP3    H231638   0.376   6.009   0.523 -0.7511 -0.9910  0.0564
 3335TIP3   OH231639   6.322   5.693   8.472 -0.9178  0.2064 -0.3406
 3335TIP3    H131640   6.267   5.770   8.458  0.5373  1.1854 -1.0513
 3335TIP3    H231641   6.288   5.627   8.411 -1.8097  0.4926 -0.1603
 3336TIP3   OH231642   3.788   6.751   0.498  0.0466  1.2847  0.4271
 3336TIP3    H131643   3.830   6.665   0.490 -0.1760  1.1628  0.5618
 3336TIP3    H231644   3.805   6.794   0.414 -1.8097  0.2380 -0.5346
 3337TIP3   OH231645   4.580   4.017   0.805 -0.2200 -0.3528 -0.3433
 3337TIP3    H131646   4.510   3.994   0.865 -1.8981 -0.7310 -2.3112
 3337TIP3    H231647   4.560   3.967   0.725  0.8822  1.3957 -1.8035
 3338TIP3   OH231648   6.286   4.986   2.761  0.0321  0.1220  0.0325
 3338TIP3    H131649   6.227   4.943   2.822 -0.5724 -0.6702 -1.0692
 3338TIP3    H231650   6.229   5.039   2.705  0.6622  1.5382  0.6836
 3339TIP3   OH231651   0.212   2.238   0.716 -0.0808 -0.1295  0.1641
 3339TIP3    H131652   0.229   2.332   0.722  1.9011 -0.3308 -1.1088
 3339TIP3    H231653   0.272   2.198   0.779  1.0821 -0.6374 -1.1945
 3340TIP3   OH231654   3.850   3.631   8.768  0.0155 -0.0927  0.0230
 3340TIP3    H131655   3.805   3.716   8.762  1.2823  0.5846 -0.2122
 3340TIP3    H231656   3.939   3.649   8.739  0.1007 -1.6888 -0.8146
 3341TIP3   OH231657   4.372   2.392   2.295 -0.5497  0.1025  0.5203
 3341TIP3    H131658   4.411   2.475   2.322 -0.7552  0.5467 -0.4793
 3341TIP3    H231659   4.296   2.418   2.242 -0.4332 -0.7196 -0.0733
 3342TIP3   OH231660   6.276   0.023   2.016  0.7806  0.7793  0.2055
 3342TIP3    H131661   6.213  -0.010   1.953  1.8451 -0.4013 -0.2884
 3342TIP3    H231662   6.224   0.043   2.094 -0.2231  0.0258 -0.2493
 3343TIP3   OH231663   6.081   4.729   0.688 -0.4338  0.1775 -0.0374
 3343TIP3    H131664   6.070   4.724   0.783 -4.5806  2.1685 -0.1937
 3343TIP3    H231665   6.145   4.799   0.675 -0.9792  0.9873  1.3587
 3344TIP3   OH231666   2.427   0.075   2.563  0.6080  0.0179  0.2538
 3344TIP3    H131667   2.340   0.114   2.557  0.6681 -0.0222 -1.4679
 3344TIP3    H231668   2.486   0.151   2.566  0.5250  0.0454  1.5095
 3345TIP3   OH231669   6.271   2.013   1.366 -0.8280  0.3421  0.2338
 3345TIP3    H131670   6.224   1.952   1.310 -1.1821  2.4268 -1.9305
 3345TIP3    H231671   6.362   2.008   1.337 -0.8583  0.8092  0.0400
 3346TIP3   OH231672   5.197   5.090   7.759 -0.1594 -0.1941  0.0312
 3346TIP3    H131673   5.136   5.159   7.733  0.0231 -0.4831 -1.2164
 3346TIP3    H231674   5.156   5.050   7.835  0.4370  2.2219  1.7292
 3347TIP3   OH231675   1.393   1.891   3.342  0.1251 -0.5252 -0.0740
 3347TIP3    H131676   1.434   1.816   3.298 -0.7280 -0.3143 -1.2852
 3347TIP3    H231677   1.465   1.936   3.385  0.6329 -2.1822  0.9357
 3348TIP3   OH231678   5.189   6.419   2.909 -0.0406 -0.1412 -0.1212
 3348TIP3    H131679   5.126   6.439   2.978  2.0287  1.3349  1.5040
 3348TIP3    H231680   5.182   6.325   2.895 -1.6203 -0.2106  0.9691
 3349TIP3   OH231681   5.242   5.405   1.249 -0.0533  0.2127 -0.7205
 3349TIP3    H131682   5.230   5.466   1.322 -0.3792  0.3860 -0.9159
 3349TIP3    H231683   5.324   5.432   1.209 -0.6245  1.0864 -1.3360
 3350TIP3   OH231684   5.766   3.406   3.741  0.4010  0.5433  0.0601
 3350TIP3    H131685   5.697   3.345   3.770  0.8913  0.4728  1.1067
 3350TIP3    H231686   5.812   3.430   3.821  1.0171  1.3187 -0.5143
 3351TIP3   OH231687   2.344   5.821   0.814 -0.1874 -0.0586  0.9501
 3351TIP3    H131688   2.300   5.876   0.749 -0.8198 -1.4263  0.1966
 3351TIP3    H231689   2.302   5.736   0.807  1.2783 -0.8727  1.5704
 3352TIP3   OH231690   6.311   6.333   0.841  0.1295  0.0913 -0.5469
 3352TIP3    H131691   6.264   6.251   0.826 -2.0594  0.8509  1.5146
 3352TIP3    H231692   6.272   6.394   0.779 -1.1817  0.5281  0.6496
 3353TIP3   OH231693   1.117   1.318   1.133  0.0383  0.4244  0.3350
 3353TIP3    H131694   1.036   1.274   1.158 -0.7711  2.1708  0.9676
 3353TIP3    H231695   1.139   1.282   1.047  0.1939 -2.1635  1.3614
 3354TIP3   OH231696   4.208   2.679   2.006 -0.4039 -0.1918 -0.4785
 3354TIP3    H131697   4.226   2.744   2.074 -0.9369  1.3700 -1.7735
 3354TIP3    H231698   4.294   2.650   1.977 -0.1675 -0.4491  0.4555
 3355TIP3   OH231699   1.985   5.356   0.965 -0.3625  0.2774  0.3463
 3355TIP3    H131700   2.064   5.331   0.917 -1.6956 -1.4823 -1.0956
 3355TIP3    H231701   1.957   5.276   1.010 -2.2633  0.3243 -0.6483
 3356TIP3   OH231702   3.411   2.277   0.944 -0.5721  0.5506 -0.5949
 3356TIP3    H131703   3.446   2.230   1.019  0.6810  0.8417 -0.9782
 3356TIP3    H231704   3.332   2.319   0.977 -0.6316 -0.2012  0.2644
 3357TIP3   OH231705   2.044   4.848   1.895 -0.0051 -0.1369 -0.5574
 3357TIP3    H131706   2.127   4.847   1.848 -0.3200  0.2961 -1.1400
 3357TIP3    H231707   2.055   4.783   1.964  1.4313  1.1467  0.4818
 3358TIP3   OH231708   1.969   6.251   0.681  0.3871  0.5969  0.7872
 3358TIP3    H131709   2.016   6.201   0.748  1.4150 -1.8573 -1.5460
 3358TIP3    H231710   2.035   6.268   0.614 -0.6011  2.9236  0.3161
 3359TIP3   OH231711   6.058   1.231   0.714 -0.0539  0.1803 -0.6377
 3359TIP3    H131712   6.122   1.202   0.649 -2.4208 -1.6819 -2.3319
 3359TIP3    H231713   6.011   1.303   0.671 -1.4606 -0.8850 -0.9514
 3360TIP3   OH231714   1.297   6.600   2.875 -0.1353 -0.0140 -0.1083
 3360TIP3    H131715   1.238   6.525   2.879  0.7306 -0.6701  1.7136
 3360TIP3    H231716   1.253   6.668   2.926  0.2470 -0.1904  0.4663
 3361TIP3   OH231717   2.053   3.751   1.612 -0.6749  0.6628  0.5347
 3361TIP3    H131718   2.135   3.797   1.595  0.5386 -1.5637  0.0577
 3361TIP3    H231719   2.074   3.689   1.682 -2.0031  0.1697  0.5288
 3362TIP3   OH231720   6.460   6.736   3.250 -0.4784  0.0553 -0.0260
 3362TIP3    H131721   6.397   6.770   3.314  1.9082 -0.4003  2.7380
 3362TIP3    H231722   6.451   6.641   3.256  0.2248 -0.0023  0.1066
 3363TIP3   OH231723   2.631   6.012   0.196  1.0391 -0.6077  0.1500
 3363TIP3    H131724   2.611   6.042   0.285  0.9636 -0.8066  0.1997
 3363TIP3    H231725   2.550   5.972   0.165  1.5688 -2.1254  0.6415
 3364TIP3   OH231726   5.402   2.936   7.917 -0.7196  0.1810 -0.2368
 3364TIP3    H131727   5.360   3.011   7.876 -0.7165 -0.4292 -1.4080
 3364TIP3    H231728   5.361   2.929   8.004 -0.2977  1.8612  0.1306
 3365TIP3   OH231729   2.821   2.602   0.030  0.0018 -0.4179  0.0512
 3365TIP3    H131730   2.784   2.569   0.112 -3.2984  1.6509 -0.4430
 3365TIP3    H231731   2.886   2.667   0.057 -0.2878 -0.5126  0.9976
 3366TIP3   OH231732   6.782   3.085   8.347  0.0433 -0.3136 -0.2979
 3366TIP3    H131733   6.763   3.170   8.388 -0.9554 -0.5754 -0.1923
 3366TIP3    H231734   6.696   3.044   8.337  0.5804 -1.7025  0.4979
 3367TIP3   OH231735   6.752   3.854   0.354 -0.9150  0.0388 -0.5887
 3367TIP3    H131736   6.693   3.889   0.287 -0.9361 -1.3637 -1.3545
 3367TIP3    H231737   6.724   3.763   0.365  0.5392 -0.4071 -0.3388
 3368TIP3   OH231738   3.033   5.171   8.641 -0.3309 -0.2070  0.0631
 3368TIP3    H131739   2.984   5.217   8.709  0.8986  1.5116 -0.1478
 3368TIP3    H231740   3.124   5.194   8.658  0.2584 -1.9031 -0.6011
 3369TIP3   OH231741   2.559   6.776   0.983  0.0949  0.1943 -0.2845
 3369TIP3    H131742   2.582   6.781   1.076  0.0595 -0.1203 -0.2573
 3369TIP3    H231743   2.633   6.817   0.938  1.1270 -1.5436 -0.2496
 3370TIP3   OH231744   2.738   3.107   4.090 -0.0383  0.4817 -0.5908
 3370TIP3    H131745   2.645   3.126   4.080 -0.3674 -1.1784 -0.8834
 3370TIP3    H231746   2.745   3.062   4.175  0.0086 -2.0300 -1.8315
 3371TIP3   OH231747   2.463   5.507   3.411 -0.0493 -0.3158 -0.0951
 3371TIP3    H131748   2.433   5.562   3.339  0.4465  1.0871  0.7201
 3371TIP3    H231749   2.498   5.429   3.368 -0.7038  0.0246 -1.2994
 3372TIP3   OH231750   1.796   1.686   2.690 -0.4870 -0.2149  0.1574
 3372TIP3    H131751   1.740   1.761   2.709 -1.7232 -1.1294  0.2252
 3372TIP3    H231752   1.883   1.713   2.719 -0.9139  1.1713  0.2119
 3373TIP3   OH231753   1.226   4.565   1.073 -0.0086 -0.4481  0.0028
 3373TIP3    H131754   1.231   4.492   1.135 -1.8048  0.7085  1.6290
 3373TIP3    H231755   1.260   4.641   1.122 -0.7700  0.3440 -0.6633
 3374TIP3   OH231756   4.050   4.674   1.658 -0.4633  1.1964  0.2339
 3374TIP3    H131757   3.994   4.680   1.581  1.1930  0.5681 -1.0814
 3374TIP3    H231758   4.132   4.716   1.632  1.7666 -2.7849 -0.0130
 3375TIP3   OH231759   5.977   5.909   1.661  0.0517 -0.1343  0.3315
 3375TIP3    H131760   5.997   6.002   1.668  2.1672 -0.6061  1.5064
 3375TIP3    H231761   5.924   5.890   1.739  1.2788 -0.2697  1.1512
 3376TIP3   OH231762   0.467   3.745   2.717  0.0124  0.1829  0.1404
 3376TIP3    H131763   0.522   3.784   2.785  0.1305 -0.6284  0.5156
 3376TIP3    H231764   0.405   3.690   2.765 -0.8892  0.7780 -0.3012
 3377TIP3   OH231765   4.221   2.765   3.066 -0.5749 -0.2892 -0.0156
 3377TIP3    H131766   4.256   2.749   3.154  0.8790 -0.1986 -0.5359
 3377TIP3    H231767   4.263   2.698   3.012 -1.5319 -0.4082 -0.6358
 3378TIP3   OH231768   5.351   0.856   8.405 -0.7758  0.1439 -0.5175
 3378TIP3    H131769   5.284   0.883   8.342 -0.4752 -0.2184 -1.0013
 3378TIP3    H231770   5.345   0.761   8.408 -2.0238  0.2429  1.3994
 3379TIP3   OH231771   5.418   2.847   1.240 -0.4003 -0.2749 -0.1100
 3379TIP3    H131772   5.438   2.933   1.204  1.5664 -0.4136  0.5134
 3379TIP3    H231773   5.334   2.858   1.285 -0.6802  1.0340 -0.9206
 3380TIP3   OH231774   6.413   4.955   8.721 -0.1277 -0.4578  0.5994
 3380TIP3    H131775   6.405   5.021   8.651 -1.3700 -0.1265  1.0375
 3380TIP3    H231776   6.506   4.957   8.744 -0.1598  1.3548  0.7668
 3381TIP3   OH231777   2.846   3.207   2.253  0.6883  0.6575 -0.0738
 3381TIP3    H131778   2.801   3.265   2.314 -0.3943 -1.6125  1.4356
 3381TIP3    H231779   2.856   3.125   2.301  2.1994 -0.4156 -2.0659
 3382TIP3   OH231780   2.848   6.405   3.560  0.0345 -0.1606  0.5305
 3382TIP3    H131781   2.806   6.447   3.485  0.6850  1.8357  1.2287
 3382TIP3    H231782   2.873   6.318   3.527  0.0946  0.5634 -1.5000
 3383TIP3   OH231783   3.026   0.039   0.847  0.1385 -0.6986 -0.0917
 3383TIP3    H131784   3.120   0.025   0.849  0.2194 -0.8624 -2.2815
 3383TIP3    H231785   2.992  -0.033   0.795 -0.7535  1.0864 -2.1506
 3384TIP3   OH231786   3.521   0.727   0.097 -0.0350  0.4937 -0.0940
 3384TIP3    H131787   3.429   0.742   0.074  0.2182  0.3882 -1.1912
 3384TIP3    H231788   3.537   0.636   0.073 -0.0431  0.0409  1.4985
 3385TIP3   OH231789   2.378   5.745   3.174  0.0819 -0.1652 -0.4486
 3385TIP3    H131790   2.449   5.759   3.111  0.6399 -0.4561  0.0994
 3385TIP3    H231791   2.314   5.692   3.127  0.5056 -0.3946 -0.7732
 3386TIP3   OH231792   2.214   2.822   8.306  0.6317 -0.2348 -0.1380
 3386TIP3    H131793   2.285   2.780   8.354  0.2355 -1.2372 -0.4050
 3386TIP3    H231794   2.163   2.749   8.270 -0.2546  0.4730 -0.3518
 3387TIP3   OH231795   6.847   6.142   2.475  0.2426 -0.4662  0.0441
 3387TIP3    H131796   6.885   6.179   2.395 -0.4402  0.3450  0.0731
 3387TIP3    H231797   6.879   6.199   2.545  1.1395 -1.3954  0.4087
 3388TIP3   OH231798   4.086   3.291   0.124 -0.0083 -0.4500 -0.1752
 3388TIP3    H131799   4.034   3.330   0.052 -0.8779 -0.3250  0.4993
 3388TIP3    H231800   4.036   3.213   0.149  0.2393 -0.4363  0.3576
 3389TIP3   OH231801   3.771   3.931   0.987 -0.2402 -0.4721 -0.0324
 3389TIP3    H131802   3.794   3.999   1.050 -0.7502 -1.2324  1.0003
 3389TIP3    H231803   3.766   3.977   0.903  2.7941  0.1369  0.0112
 3390TIP3   OH231804   1.503   0.909   2.473  0.0257 -0.5080  0.3251
 3390TIP3    H131805   1.435   0.975   2.486  0.1077 -0.5450  0.9967
 3390TIP3    H231806   1.584   0.953   2.497  0.0545 -0.9072  0.9917
 3391TIP3   OH231807   1.888   0.370   0.777  0.2426 -0.4529 -0.4487
 3391TIP3    H131808   1.816   0.319   0.740 -0.1064 -0.7120  0.5351
 3391TIP3    H231809   1.943   0.393   0.703 -0.2666 -1.2066 -1.0715
 3392TIP3   OH231810   6.468   3.270   7.249  0.6788  0.0194 -0.3870
 3392TIP3    H131811   6.444   3.230   7.332  2.5165 -2.1109 -0.7803
 3392TIP3    H231812   6.560   3.296   7.261  1.0078 -0.4303 -1.7643
 3393TIP3   OH231813   2.761   1.037   2.304 -0.1767 -0.1294  0.1414
 3393TIP3    H131814   2.709   0.971   2.257  0.4265  0.9083 -2.1255
 3393TIP3    H231815   2.740   1.119   2.260  0.8141  0.8370  1.4253
 3394TIP3   OH231816   5.219   0.665   2.125 -0.1487 -0.0278 -0.2167
 3394TIP3    H131817   5.236   0.656   2.031  0.0286  1.2904 -0.3226
 3394TIP3    H231818   5.237   0.757   2.145  1.2871 -0.6154  1.4241
 3395TIP3   OH231819   1.678   3.952   2.142 -0.3567 -0.0611 -0.0664
 3395TIP3    H131820   1.737   4.014   2.186 -1.3985  0.2884  0.8870
 3395TIP3    H231821   1.724   3.868   2.147 -1.1544 -0.4372  3.4046
 3396TIP3   OH231822   5.411   4.029   1.051 -0.5138 -0.4449 -0.7272
 3396TIP3    H131823   5.458   4.021   0.968 -0.5271 -1.3955 -0.6597
 3396TIP3    H231824   5.319   4.011   1.028 -0.9155  1.6580 -0.9051
 3397TIP3   OH231825   1.754   3.693   3.627  0.3243 -0.6171  0.3079
 3397TIP3    H131826   1.823   3.696   3.694  0.2605  0.2445  0.3412
 3397TIP3    H231827   1.697   3.622   3.655  0.3451 -0.3179  1.1362
 3398TIP3   OH231828   0.111   1.082   3.611 -0.3448  0.0323  0.2481
 3398TIP3    H131829   0.105   1.091   3.706 -0.7105  1.7638  0.0948
 3398TIP3    H231830   0.057   1.005   3.591 -1.5526  0.5603  1.3066
 3399TIP3   OH231831   5.876   2.045   8.742  0.9655  0.0469 -0.1433
 3399TIP3    H131832   5.954   1.988   8.741 -1.1598 -3.1474  0.3600
 3399TIP3    H231833   5.847   2.042   8.833 -0.5651 -0.1023 -0.6138
 3400TIP3   OH231834   5.195   1.164   3.215  0.3260 -0.6336  0.3839
 3400TIP3    H131835   5.160   1.130   3.297 -1.9981 -1.2935 -0.7760
 3400TIP3    H231836   5.182   1.259   3.221  0.0564 -0.6906  0.7347
 3401TIP3   OH231837   0.065   0.062   3.246  0.2932  0.1409 -0.1879
 3401TIP3    H131838   0.026   0.055   3.333 -3.0852 -0.7614 -1.6092
 3401TIP3    H231839   0.122  -0.014   3.239  1.4262  0.7694  1.5197
 3402TIP3   OH231840   6.216   2.157   7.959 -0.3843 -0.2437 -0.1182
 3402TIP3    H131841   6.177   2.189   8.040  0.6582 -2.2751  1.3021
 3402TIP3    H231842   6.201   2.062   7.962  1.2636 -0.5840 -1.3765
 3403TIP3   OH231843   4.416   1.100   3.736  0.3985 -0.2113 -0.4821
 3403TIP3    H131844   4.497   1.054   3.713  0.0922 -0.8824 -0.2475
 3403TIP3    H231845   4.351   1.030   3.746 -0.3263  0.3530 -1.1294
 3404TIP3   OH231846   3.757   1.727   1.964  0.2609 -0.3516  0.8235
 3404TIP3    H131847   3.792   1.816   1.962  0.2687 -0.3413 -1.9152
 3404TIP3    H231848   3.709   1.718   1.882 -1.3409 -2.2934  1.8696
 3405TIP3   OH231849   1.852   3.730   0.436  0.4123  0.2366 -0.2315
 3405TIP3    H131850   1.759   3.743   0.421  0.2840  0.7450  0.9195
 3405TIP3    H231851   1.893   3.747   0.351 -0.5095  0.2883 -0.6728
 3406TIP3   OH231852   2.296   2.887   2.350  0.6996 -0.0074 -0.2005
 3406TIP3    H131853   2.372   2.928   2.392  0.3250  0.3660  0.1149
 3406TIP3    H231854   2.302   2.914   2.258  1.7509 -1.1595 -0.5123
 3407TIP3   OH231855   0.815   6.724   1.470 -0.6775  0.1846  0.2410
 3407TIP3    H131856   0.845   6.662   1.536  0.0485  0.8633  0.5654
 3407TIP3    H231857   0.820   6.676   1.387 -0.3596 -0.2626  0.5204
 3408TIP3   OH231858   0.316   1.115   1.733  0.1100 -0.2108  0.0120
 3408TIP3    H131859   0.311   1.019   1.728 -1.0450 -0.1284 -1.0245
 3408TIP3    H231860   0.238   1.140   1.783  0.4915  0.1881  0.4164
 3409TIP3   OH231861   1.630   2.476   8.712  0.1039  0.1389 -0.1824
 3409TIP3    H131862   1.696   2.521   8.764  0.0250 -0.4662  0.4648
 3409TIP3    H231863   1.680   2.429   8.645  0.2088  0.8829 -0.6402
 3410TIP3   OH231864   5.578   3.775   2.266 -0.0706  0.0672  0.5594
 3410TIP3    H131865   5.600   3.765   2.358 -2.0477 -0.3992  1.0246
 3410TIP3    H231866   5.498   3.724   2.254 -0.1197  0.4823 -1.3146
 3411TIP3   OH231867   3.135   0.601   0.576  0.1003 -0.5864  0.0444
 3411TIP3    H131868   3.148   0.555   0.493 -0.5296 -0.2597 -0.2464
 3411TIP3    H231869   3.053   0.649   0.563 -0.8170 -1.7343  1.3914
 3412TIP3   OH231870   1.436   2.586   0.273 -0.2380 -0.6417 -0.6836
 3412TIP3    H131871   1.402   2.497   0.260  1.4268 -1.3489 -0.3429
 3412TIP3    H231872   1.530   2.576   0.282 -0.1765  0.9520  1.2924
 3413TIP3   OH231873   4.150   0.646   1.453  0.2696  0.2294 -0.0625
 3413TIP3    H131874   4.222   0.703   1.426 -0.3759  1.2340  0.2954
 3413TIP3    H231875   4.134   0.669   1.545  0.4047 -0.9709  0.2758
 3414TIP3   OH231876   4.176   3.872   1.745  0.2863 -0.0838  0.3503
 3414TIP3    H131877   4.093   3.824   1.743  1.1605 -1.7404  1.3506
 3414TIP3    H231878   4.155   3.955   1.788 -0.7873 -0.6358  0.9283
 3415TIP3   OH231879   3.218   2.632   8.620 -0.4054 -0.0255 -0.3944
 3415TIP3    H131880   3.168   2.556   8.587  1.9253 -2.1076  0.5143
 3415TIP3    H231881   3.269   2.660   8.544  1.5271 -1.8815  0.1131
 3416TIP3   OH231882   2.615   3.423   1.005  0.1327 -0.5788  0.3697
 3416TIP3    H131883   2.545   3.362   1.027 -1.4581  0.9821 -0.1695
 3416TIP3    H231884   2.627   3.412   0.911 -0.1607 -0.0720  0.2707
 3417TIP3   OH231885   6.063   2.613   0.511 -0.1857  0.0432  0.2989
 3417TIP3    H131886   6.075   2.534   0.562 -2.0512 -0.4185  0.0974
 3417TIP3    H231887   6.034   2.582   0.425 -0.5404  0.9205  0.0870
 3418TIP3   OH231888   5.638   0.540   0.331  0.4405  0.0537  0.2147
 3418TIP3    H131889   5.725   0.514   0.362  0.7624 -0.1146 -0.7936
 3418TIP3    H231890   5.630   0.499   0.245 -1.0804 -0.8201  0.7259
 3419TIP3   OH231891   2.037   3.954   1.279  0.4100  0.1284  0.4018
 3419TIP3    H131892   2.038   3.858   1.276  0.2638  0.0733  1.7834
 3419TIP3    H231893   1.953   3.978   1.240  1.1034 -0.2020 -1.4406
 3420TIP3   OH231894   2.387   2.293   0.533  0.2708 -0.0716  0.2969
 3420TIP3    H131895   2.324   2.223   0.549 -0.5018  0.6775  0.6251
 3420TIP3    H231896   2.408   2.287   0.440  1.0135 -1.3745  0.5251
 3421TIP3   OH231897   3.810   3.568   2.276  0.2663 -0.3897 -0.5541
 3421TIP3    H131898   3.799   3.550   2.183  0.5206 -0.4947 -0.5655
 3421TIP3    H231899   3.843   3.658   2.280 -1.7532  0.4018 -0.4595
 3422TIP3   OH231900   3.995   0.585   3.180  0.4068 -0.0420 -0.2482
 3422TIP3    H131901   3.938   0.528   3.232 -1.2579  0.7438 -1.1314
 3422TIP3    H231902   4.001   0.665   3.231  0.6605 -0.0966 -0.1929
 3423TIP3   OH231903   3.126   4.158   3.335  0.2153  0.5953  0.3533
 3423TIP3    H131904   3.176   4.099   3.279  0.6029 -1.1496  2.4388
 3423TIP3    H231905   3.149   4.134   3.424 -0.8788  2.8352  1.3442
 3424TIP3   OH231906   6.656   6.686   8.555  0.2282 -0.0245  0.2271
 3424TIP3    H131907   6.636   6.774   8.587 -1.6895 -0.2104 -0.3697
 3424TIP3    H231908   6.752   6.681   8.559  0.2974  1.5597  1.6150
 3425TIP3   OH231909   0.914   0.235   1.116 -0.2938  0.6276 -0.2482
 3425TIP3    H131910   0.937   0.313   1.065  0.1538  0.6918  0.0430
 3425TIP3    H231911   0.973   0.167   1.083 -2.3236 -0.3004 -2.2606
 3426TIP3   OH231912   3.793   1.801   3.239 -0.2879 -0.2290  0.1882
 3426TIP3    H131913   3.870   1.791   3.295 -0.1425  1.5022  0.3762
 3426TIP3    H231914   3.725   1.835   3.297 -0.8718 -0.6981 -0.2038
 3427TIP3   OH231915   5.979   0.286   1.981 -0.5111 -0.2563  0.1318
 3427TIP3    H131916   5.902   0.231   1.995 -1.2287  0.9487  1.2003
 3427TIP3    H231917   5.961   0.333   1.900  0.8165 -2.6332 -1.7011
 3428TIP3   OH231918   4.593   3.989   8.055 -0.4696  0.1715 -0.0549
 3428TIP3    H131919   4.663   4.041   8.016 -0.0929  0.6571  1.2192
 3428TIP3    H231920   4.541   3.958   7.981  1.6351 -0.9921 -1.1249
 3429TIP3   OH231921   4.057   1.561   3.082 -0.4014 -0.5768  0.1247
 3429TIP3    H131922   4.024   1.642   3.042  1.4037  0.8026  1.2940
 3429TIP3    H231923   4.020   1.562   3.171  0.6747 -0.3516  0.5758
 3430TIP3   OH231924   0.318   0.788   1.234  0.1129  0.0419  0.5359
 3430TIP3    H131925   0.270   0.764   1.313 -0.8982 -3.7860 -1.0276
 3430TIP3    H231926   0.285   0.874   1.210 -2.0635 -0.1946  2.4171
 3431TIP3   OH231927   3.633   5.187   2.569  0.1540 -0.2301 -0.0070
 3431TIP3    H131928   3.618   5.132   2.645 -0.8169 -1.1416 -0.8296
 3431TIP3    H231929   3.724   5.217   2.579  0.5841 -1.6675  0.6701
 3432TIP3   OH231930   6.053   3.471   1.659  0.2355 -0.2927 -0.2684
 3432TIP3    H131931   5.963   3.443   1.642  0.0481  0.1441 -0.0402
 3432TIP3    H231932   6.084   3.507   1.576  0.6437 -1.5947 -0.6895
 3433TIP3   OH231933   0.718   1.542   3.009 -0.2804 -0.0711 -0.1615
 3433TIP3    H131934   0.625   1.529   3.028 -0.3345 -0.1319 -0.4637
 3433TIP3    H231935   0.732   1.636   3.023 -0.8937  0.3686 -2.2196
 3434TIP3   OH231936   5.208   6.713   3.004 -0.0817  0.4542  0.5075
 3434TIP3    H131937   5.262   6.664   2.942 -0.6557  0.1148  0.2632
 3434TIP3    H231938   5.119   6.680   2.989 -0.8211  2.9097 -1.0073
 3435TIP3   OH231939   2.521   5.559   8.101 -0.8235  0.9491  0.2155
 3435TIP3    H131940   2.494   5.626   8.038  0.7565  1.1430 -0.2979
 3435TIP3    H231941   2.616   5.556   8.093 -0.8662 -1.8020 -0.2304
 3436TIP3   OH231942   6.790   2.220   1.574  0.4192  0.3055 -0.7645
 3436TIP3    H131943   6.710   2.215   1.523 -1.4424 -0.2144  1.9636
 3436TIP3    H231944   6.853   2.166   1.526 -0.6748  1.0950 -3.2063
 3437TIP3   OH231945   4.420   2.069   8.337  0.0622 -0.2349 -0.7432
 3437TIP3    H131946   4.514   2.051   8.336 -0.0177 -1.0998  1.5728
 3437TIP3    H231947   4.395   2.071   8.245  2.1035 -1.4028 -1.3853
 3438TIP3   OH231948   2.347   5.247   8.516 -0.4828  0.3957 -0.2406
 3438TIP3    H131949   2.411   5.219   8.450 -0.6695 -2.0155  0.5027
 3438TIP3    H231950   2.279   5.180   8.513 -0.0255 -0.3956  3.0441
 3439TIP3   OH231951   2.636   1.703   2.125  0.3006  0.0315 -0.5238
 3439TIP3    H131952   2.691   1.781   2.122  0.6734 -0.2064 -0.0498
 3439TIP3    H231953   2.588   1.711   2.208  1.0629 -0.7083  0.0165
 3440TIP3   OH231954   2.047   5.343   0.137  0.0586  0.2666  0.6239
 3440TIP3    H131955   2.106   5.414   0.110  1.5633 -0.5904  1.4775
 3440TIP3    H231956   1.982   5.385   0.193  1.1128  0.9621  1.3662
 3441TIP3   OH231957   5.000   5.477   0.291  0.5423 -0.4902 -0.2165
 3441TIP3    H131958   4.952   5.395   0.302 -2.5658  0.9662 -1.6180
 3441TIP3    H231959   5.025   5.479   0.199 -1.5669  1.0683 -0.8472
 3442TIP3   OH231960   5.741   1.192   8.509 -0.4329 -0.1915 -0.1478
 3442TIP3    H131961   5.723   1.224   8.421 -0.0140  3.1190  0.8521
 3442TIP3    H231962   5.664   1.219   8.560  0.0811 -0.5686  0.8497
 3443TIP3   OH231963   3.384   4.823   1.579 -0.5293  0.0143  0.8318
 3443TIP3    H131964   3.317   4.827   1.647 -1.8823  1.0335 -0.5217
 3443TIP3    H231965   3.337   4.832   1.497  1.1259 -0.6340 -0.2523
 3444TIP3   OH231966   4.882   3.314   0.611  0.5860 -0.5324 -0.2378
 3444TIP3    H131967   4.916   3.235   0.653 -1.2087 -1.8191 -1.1044
 3444TIP3    H231968   4.948   3.337   0.546  1.8936 -0.3154  1.0925
 3445TIP3   OH231969   3.221   2.621   1.610 -0.1305 -0.4277  0.2577
 3445TIP3    H131970   3.262   2.577   1.536 -0.8742 -0.8432  0.0874
 3445TIP3    H231971   3.279   2.603   1.684  0.9527  0.5096 -0.3213
 3446TIP3   OH231972   1.099   1.984   7.815  0.0693 -0.3548  0.2937
 3446TIP3    H131973   1.029   1.970   7.751  3.0846 -1.1250 -3.1469
 3446TIP3    H231974   1.120   1.896   7.847  1.1684 -0.5016 -0.7590
 3447TIP3   OH231975   5.843   0.791   1.345  0.2519  0.5324  0.1044
 3447TIP3    H131976   5.876   0.863   1.290 -0.7488  1.3312  0.5171
 3447TIP3    H231977   5.840   0.716   1.286  0.0035  1.1627 -0.7203
 3448TIP3   OH231978   4.127   0.517   0.361  1.1954  0.6710 -0.0191
 3448TIP3    H131979   4.146   0.476   0.277  2.2141  0.2127  0.4096
 3448TIP3    H231980   4.169   0.460   0.425  1.1965  1.4861  0.7251
 3449TIP3   OH231981   4.189   1.826   3.132 -0.1121 -0.0789  0.0712
 3449TIP3    H131982   4.186   1.734   3.104  1.1351  0.3327 -1.5085
 3449TIP3    H231983   4.130   1.829   3.208  1.2344 -2.5863  1.3463
 3450TIP3   OH231984   2.216   2.709   1.070 -0.5196 -0.1958  0.3001
 3450TIP3    H131985   2.266   2.787   1.046 -0.0460 -0.2104  1.2028
 3450TIP3    H231986   2.274   2.660   1.129 -1.4191 -0.4445  1.0017
 3451TIP3   OH231987   1.861   4.804   2.872 -0.2803  0.1937 -0.1782
 3451TIP3    H131988   1.857   4.756   2.955  1.9580 -0.7120 -0.5265
 3451TIP3    H231989   1.872   4.736   2.806 -1.5900  0.9349 -1.2086
 3452TIP3   OH231990   5.744   1.519   3.287  0.4565 -0.1042 -0.0084
 3452TIP3    H131991   5.678   1.546   3.351  0.8728  1.1019 -0.0484
 3452TIP3    H231992   5.779   1.602   3.254  2.4783 -0.6942  0.5196
 3453TIP3   OH231993   0.114   0.117   0.730  0.1256  0.0505 -0.2765
 3453TIP3    H131994   0.154   0.054   0.669  0.9295  0.2642  0.0151
 3453TIP3    H231995   0.157   0.200   0.710  0.9068 -0.0193  1.0462
 3454TIP3   OH231996   1.859   0.746   1.186  0.2437  0.4730  0.5557
 3454TIP3    H131997   1.859   0.718   1.277  0.3254 -0.0780  0.3916
 3454TIP3    H231998   1.942   0.714   1.151  1.2915  2.6759  0.8749
 3455TIP3   OH231999   5.526   2.099   0.227  0.3556 -0.0989  0.4432
 3455TIP3    H132000   5.471   2.164   0.270  1.2345  1.0102 -0.0688
 3455TIP3    H232001   5.498   2.015   0.265 -2.2054  0.3227 -0.3633
 3456TIP3   OH232002   5.973   5.851   1.204 -0.0992  0.3157 -0.1060
 3456TIP3    H132003   6.058   5.811   1.224 -0.5082 -0.7505 -0.3756
 3456TIP3    H232004   5.983   5.884   1.115 -0.2244 -0.6357 -0.4932
 3457TIP3   OH232005   5.284   5.455   2.658 -0.0247 -0.3152  0.4941
 3457TIP3    H132006   5.347   5.385   2.672 -0.9205 -1.3499 -0.4636
 3457TIP3    H232007   5.237   5.463   2.741  0.2045 -0.7343  0.6649
 3458TIP3   OH232008   3.720   0.261   0.149 -0.2990 -0.3458  0.1920
 3458TIP3    H132009   3.783   0.286   0.081 -0.6981 -0.8886 -0.3875
 3458TIP3    H232010   3.759   0.183   0.190 -0.1395 -0.1183  0.4759
 3459TIP3   OH232011   3.334   2.717   8.377 -0.0344  0.2839 -0.1017
 3459TIP3    H132012   3.269   2.731   8.308  0.4787 -1.5113 -1.0119
 3459TIP3    H232013   3.396   2.789   8.367  0.0966 -0.0057 -1.6221
 3460TIP3   OH232014   4.184   0.834   8.378 -0.3210 -0.1403  0.4239
 3460TIP3    H132015   4.220   0.787   8.453  0.7839  0.9292  0.5914
 3460TIP3    H232016   4.239   0.807   8.304  0.4458  0.9934  0.5569
 3461TIP3   OH232017   4.900   3.076   1.058  0.1675 -0.4912 -0.3725
 3461TIP3    H132018   4.908   2.996   1.110  0.6650 -0.3552 -0.2427
 3461TIP3    H232019   4.807   3.099   1.065 -0.2661 -1.7529 -1.4328
 3462TIP3   OH232020   3.107   5.759   1.800 -0.0921 -0.0270 -0.2687
 3462TIP3    H132021   3.113   5.838   1.854  1.9835  0.0367 -0.4843
 3462TIP3    H232022   3.154   5.782   1.720 -1.6573 -0.6859 -1.4212
 3463TIP3   OH232023   5.014   2.401   0.450 -0.0632 -0.0581 -0.3056
 3463TIP3    H132024   4.943   2.458   0.479 -0.3609 -0.0746 -0.9616
 3463TIP3    H232025   5.056   2.450   0.379  0.1726 -0.3257 -0.3537
 3464TIP3   OH232026   6.047   1.066   1.663  0.0885 -0.6047  0.1423
 3464TIP3    H132027   5.991   1.108   1.729 -0.3456 -1.1800  0.1490
 3464TIP3    H232028   6.130   1.112   1.669  0.2634 -1.0462  1.5358
 3465TIP3   OH232029   4.994   4.244   8.687  0.4080 -0.2994 -0.1579
 3465TIP3    H132030   5.042   4.322   8.716  1.3802  0.1270 -2.6407
 3465TIP3    H232031   4.995   4.250   8.591 -2.9173 -1.3583 -0.3761
 3466TIP3   OH232032   4.994   4.479   2.316  0.1831 -0.1904 -1.0844
 3466TIP3    H132033   5.078   4.449   2.350 -0.1583 -0.7098 -0.6849
 3466TIP3    H232034   4.928   4.433   2.369 -0.3602  0.8171 -0.8388
 3467TIP3   OH232035   1.697   1.466   2.938  0.2743  0.1074 -0.4227
 3467TIP3    H132036   1.669   1.535   2.878  1.9240  0.9975 -0.2399
 3467TIP3    H232037   1.684   1.385   2.888 -1.0131  0.5863 -0.9119
 3468TIP3   OH232038   1.235   2.138   0.666 -0.1329 -0.6944 -0.3330
 3468TIP3    H132039   1.169   2.079   0.631 -0.2896 -0.2074 -0.8644
 3468TIP3    H232040   1.251   2.106   0.755  0.8242 -2.4107 -1.0797
 3469TIP3   OH232041   6.610   3.893   3.114 -0.2318 -0.1106 -0.5994
 3469TIP3    H132042   6.554   3.917   3.188  1.1305  2.9640 -0.4265
 3469TIP3    H232043   6.566   3.929   3.037  1.0626  1.7293 -0.5418
 3470TIP3   OH232044   6.349   1.887   3.053 -0.3938  0.7382  0.0183
 3470TIP3    H132045   6.327   1.980   3.046  0.0051  0.8285 -0.0536
 3470TIP3    H232046   6.398   1.868   2.973 -0.2377  0.5331  0.1626
 3471TIP3   OH232047   3.146   5.631   0.473  0.0677  0.1151 -0.2504
 3471TIP3    H132048   3.058   5.610   0.502  0.8077 -2.7539  0.2100
 3471TIP3    H232049   3.135   5.667   0.385 -1.6234  1.2337  0.3810
 3472TIP3   OH232050   6.090   2.064   1.005 -0.0408  0.1171 -0.2346
 3472TIP3    H132051   6.105   2.146   1.052  2.9644 -1.1876  1.3713
 3472TIP3    H232052   6.075   1.999   1.074  0.4080 -1.1625 -1.3027
 3473TIP3   OH232053   5.567   1.117   0.163 -0.2838  0.8861 -0.1062
 3473TIP3    H132054   5.659   1.113   0.189 -0.3833  1.1768  0.3000
 3473TIP3    H232055   5.535   1.199   0.200 -1.0170  0.2089  0.8078
 3474TIP3   OH232056   3.613   5.371   0.729  0.0336  0.4239 -0.1124
 3474TIP3    H132057   3.541   5.418   0.772 -0.7979  0.4030 -1.4364
 3474TIP3    H232058   3.605   5.393   0.636  1.3333 -0.1223 -0.3816
 3475TIP3   OH232059   0.678   2.741   8.581 -0.6191 -0.1361  0.9194
 3475TIP3    H132060   0.600   2.751   8.636 -0.6506 -0.7983  1.0016
 3475TIP3    H232061   0.729   2.820   8.599 -1.0496  0.0846  1.2187
 3476TIP3   OH232062   0.350   4.100   8.643 -0.4116  0.1218 -0.5633
 3476TIP3    H132063   0.429   4.048   8.656 -0.2890  0.4078 -0.1503
 3476TIP3    H232064   0.381   4.180   8.599 -0.3889  0.4678  0.0725
 3477TIP3   OH232065   4.092   6.029   3.684  0.3901 -0.1888  0.1328
 3477TIP3    H132066   4.170   6.034   3.740  0.8508  0.7605 -0.5653
 3477TIP3    H232067   4.096   6.108   3.630 -0.6306 -0.5357 -0.4798
 3478TIP3   OH232068   2.806   0.349   8.578 -0.0573 -0.5739  0.2857
 3478TIP3    H132069   2.825   0.304   8.495  0.9919 -1.8185  1.1773
 3478TIP3    H232070   2.856   0.430   8.573 -0.2996 -0.4577 -0.4478
 3479TIP3   OH232071   5.067   5.076   8.225 -0.1337  0.2161 -0.3012
 3479TIP3    H132072   5.058   5.170   8.239 -0.3310  0.1528  0.0301
 3479TIP3    H232073   5.133   5.048   8.288 -0.0977  0.1278 -0.3774
 3480TIP3   OH232074   5.824   2.993   2.495  0.1691  0.0293  0.6292
 3480TIP3    H132075   5.826   2.903   2.527 -0.7703  0.6776  2.6621
 3480TIP3    H232076   5.756   2.993   2.428 -0.8556 -0.5165  1.6195
 3481TIP3   OH232077   3.415   1.755   1.589 -0.1459  0.0339 -0.1665
 3481TIP3    H132078   3.355   1.733   1.659  0.5960 -1.5115  0.0240
 3481TIP3    H232079   3.391   1.696   1.517  0.6244 -0.0682 -0.3537
 3482TIP3   OH232080   0.788   0.578   3.390 -0.1156  0.1666  0.0076
 3482TIP3    H132081   0.704   0.612   3.360 -0.2949 -0.3550 -0.1004
 3482TIP3    H232082   0.820   0.524   3.318 -0.4569 -0.9297  0.6333
 3483TIP3   OH232083   3.084   1.481   0.099  0.4547 -0.4456  0.0420
 3483TIP3    H132084   3.018   1.414   0.079  1.2815 -1.6316  1.0795
 3483TIP3    H232085   3.159   1.457   0.045  1.0357 -0.8619  1.0045
 3484TIP3   OH232086   6.600   6.220   2.643 -0.7195 -0.1383 -0.2597
 3484TIP3    H132087   6.633   6.208   2.732 -3.0078 -0.2990  0.6486
 3484TIP3    H232088   6.606   6.314   2.627  2.0358 -0.3638 -0.9841
 3485TIP3   OH232089   6.563   3.879   0.156  0.2366  0.4223  0.1065
 3485TIP3    H132090   6.561   3.794   0.111 -1.9027  1.1255 -1.2951
 3485TIP3    H232091   6.521   3.861   0.240 -1.2765  0.2712 -0.6459
 3486TIP3   OH232092   3.381   1.379   3.211 -0.6362  0.2222  0.6399
 3486TIP3    H132093   3.323   1.303   3.200 -0.8754  0.4808  0.0339
 3486TIP3    H232094   3.321   1.454   3.213 -0.3458  0.4668  0.3347
 3487TIP3   OH232095   0.895   2.854   3.102  0.2092 -0.0768  0.2721
 3487TIP3    H132096   0.884   2.795   3.027  0.2391 -0.9456  0.9308
 3487TIP3    H232097   0.838   2.818   3.170 -0.4138  1.1503  0.4283
 3488TIP3   OH232098   6.240   3.283   7.929  0.8581 -0.4544  0.4506
 3488TIP3    H132099   6.225   3.284   7.834  0.1086  2.4427  0.4769
 3488TIP3    H232100   6.167   3.334   7.965  1.7065 -0.5583  2.4737
 3489TIP3   OH232101   5.326   2.056   2.902  0.0111  0.4168  0.4546
 3489TIP3    H132102   5.257   2.007   2.857 -0.5506 -0.2393  1.9557
 3489TIP3    H232103   5.398   1.994   2.911 -0.4598  0.0190  1.7859
 3490TIP3   OH232104   3.127   2.464   8.363  0.0157 -0.1500  0.5454
 3490TIP3    H132105   3.062   2.423   8.420 -1.8183 -0.2105 -1.4595
 3490TIP3    H232106   3.076   2.521   8.306  1.7914  0.1190 -0.8533
 3491TIP3   OH232107   3.152   5.766   1.324 -0.9755 -0.3866  0.6133
 3491TIP3    H132108   3.129   5.856   1.302 -0.5001 -0.1912  0.9055
 3491TIP3    H232109   3.191   5.772   1.411 -1.1244 -0.9025  0.7175
 3492TIP3   OH232110   1.261   4.802   2.134  0.0479  0.2927  0.4232
 3492TIP3    H132111   1.221   4.776   2.051  0.5102  0.8859  0.0054
 3492TIP3    H232112   1.315   4.727   2.159 -2.2964 -1.1221  1.7054
 3493TIP3   OH232113   0.640   4.220   3.384 -0.1228  0.0407 -0.0590
 3493TIP3    H132114   0.563   4.272   3.362 -0.5856  0.3429  2.0682
 3493TIP3    H232115   0.676   4.262   3.463  0.4551 -1.8434  0.7413
 3494TIP3   OH232116   0.044   1.972   1.499  0.5773  0.0483 -0.4746
 3494TIP3    H132117   0.029   2.013   1.414 -0.7950 -1.1726 -0.8629
 3494TIP3    H232118   0.005   1.885   1.491 -0.2337  0.1658  1.6406
 3495TIP3   OH232119   3.348   5.267   2.718 -0.6380  0.7459 -0.0229
 3495TIP3    H132120   3.353   5.321   2.639 -3.3061  0.3185 -0.5709
 3495TIP3    H232121   3.287   5.197   2.695  2.1006 -2.1595  0.8929
 3496TIP3   OH232122   4.766   0.152   2.225  0.1812  0.0436 -0.0436
 3496TIP3    H132123   4.722   0.119   2.303 -1.1677 -1.4813 -1.3517
 3496TIP3    H232124   4.696   0.163   2.161  1.2062  1.5168 -0.9714
 3497TIP3   OH232125   6.608   4.685   1.494 -0.1720  0.0664 -0.2382
 3497TIP3    H132126   6.594   4.622   1.566  0.0527  0.1298 -0.1385
 3497TIP3    H232127   6.627   4.768   1.538 -2.3817  0.6846 -0.3401
 3498TIP3   OH232128   3.789   5.803   1.911  0.4413 -0.4159  0.3661
 3498TIP3    H132129   3.853   5.746   1.954  0.0003 -0.4323  1.0214
 3498TIP3    H232130   3.709   5.751   1.908  0.0150  0.1835  1.0378
 3499TIP3   OH232131   4.828   6.494   1.657 -0.4345 -0.0931 -0.3253
 3499TIP3    H132132   4.745   6.528   1.624 -0.3832 -0.6648 -1.0627
 3499TIP3    H232133   4.833   6.405   1.623  0.7147  0.1021 -0.7068
 3500TIP3   OH232134   5.635   4.970   8.565  0.0922 -0.2494 -0.1476
 3500TIP3    H132135   5.638   4.875   8.574 -1.2285 -0.2968 -0.0013
 3500TIP3    H232136   5.580   4.999   8.637 -0.0879  0.5634 -0.6005
 3501TIP3   OH232137   4.663   3.653   8.529 -0.0974 -0.1586  0.1631
 3501TIP3    H132138   4.607   3.582   8.498 -1.3485  0.3184  1.2202
 3501TIP3    H232139   4.712   3.680   8.452  0.6121 -2.3262 -0.2004
 3502TIP3   OH232140   0.868   3.980   8.584 -0.3358 -0.5474  0.4983
 3502TIP3    H132141   0.912   3.976   8.669 -1.8043  1.6477  1.4284
 3502TIP3    H232142   0.783   4.019   8.602 -1.3360 -1.4845 -1.7822
 3503TIP3   OH232143   3.946   1.029   1.817  0.5954 -0.3003  0.0519
 3503TIP3    H132144   4.025   0.992   1.855  2.2109  1.4413 -1.3794
 3503TIP3    H232145   3.953   1.009   1.723  0.6781  1.9739 -0.4931
 3504TIP3   OH232146   1.555   4.876   0.439 -0.7078 -0.7580  0.4270
 3504TIP3    H132147   1.589   4.962   0.414 -1.2185 -0.0446  2.0701
 3504TIP3    H232148   1.624   4.815   0.414  0.4077  0.3211  0.7844
 3505TIP3   OH232149   6.651   6.477   3.666  0.0472 -0.1261 -0.4493
 3505TIP3    H132150   6.695   6.407   3.713 -0.6122  0.7305  1.5323
 3505TIP3    H232151   6.721   6.532   3.632  0.5296 -0.6541 -0.3148
 3506TIP3   OH232152   3.025   2.657   8.204  0.3924 -0.0716 -0.1110
 3506TIP3    H132153   3.068   2.686   8.123 -0.1046  0.8696 -0.0406
 3506TIP3    H232154   2.940   2.623   8.175  1.1956 -2.0949 -0.2695
 3507TIP3   OH232155   5.795   6.442   1.077  0.6437  0.0249 -0.0528
 3507TIP3    H132156   5.849   6.499   1.023  0.7050  0.5171  0.5217
 3507TIP3    H232157   5.768   6.496   1.150 -1.8709  0.2827 -1.0533
 3508TIP3   OH232158   2.169   1.572   2.623  0.1977 -0.1174 -0.0904
 3508TIP3    H132159   2.187   1.594   2.714 -0.5189  1.4345 -0.2880
 3508TIP3    H232160   2.255   1.572   2.580  0.3335  1.3547  0.1504
 3509TIP3   OH232161   0.739   0.524   8.698  1.0497 -1.2578  0.2515
 3509TIP3    H132162   0.659   0.481   8.669  1.8956 -1.8638 -1.3472
 3509TIP3    H232163   0.807   0.490   8.639  2.6060 -1.2189  1.9042
 3510TIP3   OH232164   0.237   0.702   0.645 -0.0606 -0.5928  0.8788
 3510TIP3    H132165   0.218   0.612   0.671 -1.6013 -1.2445 -2.0576
 3510TIP3    H232166   0.332   0.707   0.642  0.0727 -1.7483  2.1161
 3511TIP3   OH232167   5.018   4.177   3.076  0.4374 -0.4448 -0.7124
 3511TIP3    H132168   4.973   4.222   3.147 -0.5870 -1.4292 -0.7246
 3511TIP3    H232169   4.982   4.215   2.996  1.0103  0.0943 -0.7235
 3512TIP3   OH232170   0.137   6.386   0.568  0.4272 -0.3955 -0.1116
 3512TIP3    H132171   0.113   6.357   0.656  0.8366 -1.0644 -0.2092
 3512TIP3    H232172   0.061   6.435   0.537 -0.2029 -1.1814  0.1589
 3513TIP3   OH232173   3.874   6.571   3.222 -0.1256  0.3343 -0.5634
 3513TIP3    H132174   3.925   6.495   3.250  0.4647  1.0186  0.2680
 3513TIP3    H232175   3.809   6.584   3.291 -0.3548  0.4595 -0.8013
 3514TIP3   OH232176   5.975   1.471   7.963 -0.0725  0.3439  0.5123
 3514TIP3    H132177   6.021   1.513   7.890 -0.9882  2.2202  0.9640
 3514TIP3    H232178   5.920   1.404   7.922  1.6457 -0.6860 -0.1954
 3515TIP3   OH232179   5.249   6.391   2.505  0.1382 -0.3343  0.1963
 3515TIP3    H132180   5.172   6.335   2.513 -0.0990 -0.1773 -0.8373
 3515TIP3    H232181   5.233   6.463   2.567 -1.2346  0.4381 -0.9965
 3516TIP3   OH232182   6.316   2.697   2.156 -0.3331  0.3694 -0.2781
 3516TIP3    H132183   6.262   2.662   2.085 -1.1194 -3.4174  1.9150
 3516TIP3    H232184   6.397   2.646   2.151  0.0191  0.8122  0.8718
 3517TIP3   OH232185   3.187   3.073   0.965 -0.0785 -0.1883  0.6951
 3517TIP3    H132186   3.274   3.036   0.981  1.0988  1.9499 -0.2921
 3517TIP3    H232187   3.183   3.149   1.023 -1.1454 -0.0324  0.4365
 3518TIP3   OH232188   3.033   3.232   2.052  0.1059 -0.2905  0.1521
 3518TIP3    H132189   3.010   3.230   2.145 -0.1745 -1.3313  0.0725
 3518TIP3    H232190   2.953   3.205   2.007  0.2609  0.1397 -0.3929
 3519TIP3   OH232191   3.216   1.490   2.435  0.2255  0.2926 -0.5786
 3519TIP3    H132192   3.261   1.546   2.499  0.7557  0.2015 -0.8674
 3519TIP3    H232193   3.263   1.406   2.440  0.4155  0.3582 -1.2560
 3520TIP3   OH232194   1.001   5.664   0.291  0.5181 -0.0964 -0.1762
 3520TIP3    H132195   0.935   5.711   0.241  0.4036  2.0456  1.7820
 3520TIP3    H232196   1.083   5.708   0.270  0.3833  1.2581  1.8416
 3521TIP3   OH232197   2.130   1.464   1.318  0.2307  0.0065 -0.2683
 3521TIP3    H132198   2.194   1.532   1.298  0.1335  0.4421  0.8218
 3521TIP3    H232199   2.159   1.427   1.402 -1.4195  0.8562  0.7384
 3522TIP3   OH232200   1.393   6.112   2.024 -0.3373  0.3625  0.4478
 3522TIP3    H132201   1.415   6.194   1.979 -1.9033  1.1503  1.0524
 3522TIP3    H232202   1.312   6.131   2.071 -0.4754 -1.4043  1.0026
 3523TIP3   OH232203   6.121   1.339   0.226  0.2238 -0.2086 -0.9592
 3523TIP3    H132204   6.203   1.289   0.229  1.2635  1.2311 -2.6192
 3523TIP3    H232205   6.125   1.396   0.302 -0.7446 -2.2166  0.6792
 3524TIP3   OH232206   5.109   3.860   1.940  0.2582 -0.2984  0.4142
 3524TIP3    H132207   5.091   3.860   2.034 -1.2517 -1.0412  0.1607
 3524TIP3    H232208   5.026   3.886   1.900  0.8067 -0.2516 -0.7218
 3525TIP3   OH232209   0.407   3.940   7.690  0.0057  0.0489 -0.1107
 3525TIP3    H132210   0.445   4.025   7.714 -1.3687  0.6506  0.0666
 3525TIP3    H232211   0.443   3.921   7.604  1.2927  0.2075  0.3783
 3526TIP3   OH232212   4.427   1.683   8.509 -0.4176 -0.4388 -0.5261
 3526TIP3    H132213   4.500   1.717   8.458 -2.0287  0.5319 -2.3006
 3526TIP3    H232214   4.424   1.589   8.488  0.3322 -0.5004 -0.3835
 3527TIP3   OH232215   0.015   1.113   0.059  0.1667  0.3932  0.1544
 3527TIP3    H132216  -0.042   1.105   0.136 -1.7470  0.0099 -1.2172
 3527TIP3    H232217  -0.046   1.124  -0.014  1.9205  0.6512 -1.3293
 3528TIP3   OH232218   2.110   5.183   1.393 -0.2652 -0.0432  0.1438
 3528TIP3    H132219   2.134   5.091   1.404 -2.7249 -1.2365 -2.9327
 3528TIP3    H232220   2.017   5.186   1.415 -1.0156  0.9235 -2.7579
 3529TIP3   OH232221   6.639   3.815   1.214  0.3686  0.9281 -0.7668
 3529TIP3    H132222   6.692   3.870   1.272 -0.0034 -0.5547  1.1118
 3529TIP3    H232223   6.551   3.818   1.253  0.7755 -2.6742  0.8374
 3530TIP3   OH232224   1.091   0.526   0.166  0.2944 -0.1553 -0.5475
 3530TIP3    H132225   1.109   0.480   0.084  2.8371  0.8843 -0.6528
 3530TIP3    H232226   1.064   0.613   0.140  0.6512  0.0317 -0.2998
 3531TIP3   OH232227   5.948   0.780   0.323 -0.0586  0.6102 -0.1962
 3531TIP3    H132228   5.854   0.799   0.325 -0.1835  0.2724 -1.6252
 3531TIP3    H232229   5.960   0.729   0.243  1.1268 -0.5771  0.7008
 3532TIP3   OH232230   5.400   2.911   8.713 -0.3903 -0.8661  0.0910
 3532TIP3    H132231   5.392   2.997   8.671 -3.6391 -0.6024  0.9760
 3532TIP3    H232232   5.494   2.894   8.716  0.7956  4.2847  3.1380
 3533TIP3   OH232233   6.310   5.915   1.805 -0.0184 -0.5072 -0.4134
 3533TIP3    H132234   6.292   5.994   1.755  1.4405  0.2354  0.1670
 3533TIP3    H232235   6.367   5.863   1.749  1.5955  0.3136  0.4147
 3534TIP3   OH232236   6.258   1.915   8.669  0.2543  0.1004  0.1301
 3534TIP3    H132237   6.306   1.835   8.647  2.4284  0.7391  2.1291
 3534TIP3    H232238   6.244   1.909   8.764 -0.0864  1.8192  0.2125
 3535TIP3   OH232239   3.030   0.951   2.036  0.2302  0.2398  0.1158
 3535TIP3    H132240   3.074   0.867   2.024 -0.9277 -0.3144 -0.5229
 3535TIP3    H232241   3.069   1.008   1.970 -0.5820 -0.5041 -1.0536
 3536TIP3   OH232242   4.696   0.924   0.303 -0.7307 -0.5861 -0.2137
 3536TIP3    H132243   4.669   0.853   0.360  1.7208 -1.6714 -0.2622
 3536TIP3    H232244   4.776   0.958   0.343 -1.2151  1.4368 -0.8084
 3537TIP3   OH232245   6.335   4.308   7.891 -0.1410 -0.4368 -0.3097
 3537TIP3    H132246   6.245   4.299   7.858 -0.4460  1.3360 -0.0700
 3537TIP3    H232247   6.383   4.346   7.817  0.2144 -0.5962 -0.1615
 3538TIP3   OH232248   2.552   6.785   8.248 -0.2654  0.7509 -0.2509
 3538TIP3    H132249   2.486   6.717   8.237 -0.2223  0.4956  0.9297
 3538TIP3    H232250   2.552   6.832   8.165 -1.6379  0.4947 -0.4225
 3539TIP3   OH232251   1.819   1.398   3.458 -0.1201  0.5935 -0.1497
 3539TIP3    H132252   1.850   1.343   3.530 -0.1439  0.1687 -0.4563
 3539TIP3    H232253   1.725   1.402   3.470 -0.2339 -0.2456 -0.6757
 3540TIP3   OH232254   1.130   1.381   8.430 -0.1203  0.3864 -0.4522
 3540TIP3    H132255   1.116   1.433   8.510 -0.8292 -2.0446  1.1028
 3540TIP3    H232256   1.051   1.327   8.423  1.4922 -2.0656 -0.7130
 3541TIP3   OH232257   0.414   1.602   1.221 -0.6929  0.1319  0.0478
 3541TIP3    H132258   0.391   1.513   1.194  1.3267 -0.8311  1.2284
 3541TIP3    H232259   0.488   1.626   1.165 -0.0141  0.2886  0.9893
 3542TIP3   OH232260   5.437   4.840   8.279  0.4333 -0.0974 -0.3453
 3542TIP3    H132261   5.424   4.858   8.186  1.0690 -1.1344 -0.6534
 3542TIP3    H232262   5.530   4.858   8.294  0.1984  0.6788  0.2513
 3543TIP3   OH232263   0.820   2.977   8.588  0.5430  0.2840  0.0150
 3543TIP3    H132264   0.805   3.034   8.513 -0.9094 -1.1303 -0.8218
 3543TIP3    H232265   0.911   2.950   8.580  1.2776  2.4114  0.4305
 3544TIP3   OH232266   1.695   3.309   2.132  0.0434 -0.0565 -0.4776
 3544TIP3    H132267   1.651   3.336   2.051  1.0891 -1.0725 -1.4164
 3544TIP3    H232268   1.635   3.334   2.201 -0.7050  1.2230 -1.5335
 3545TIP3   OH232269   1.932   1.330   0.968 -0.2170 -0.4061 -0.1513
 3545TIP3    H132270   1.985   1.397   1.011 -0.2111 -0.8497  0.5588
 3545TIP3    H232271   1.863   1.379   0.923  1.0543  0.2123 -1.4948
 3546TIP3   OH232272   0.699   1.470   3.733 -0.1195  0.0052  0.1661
 3546TIP3    H132273   0.721   1.395   3.677  0.8014  0.4304 -0.0623
 3546TIP3    H232274   0.701   1.545   3.674  1.2889  0.5177  0.8216
 3547TIP3   OH232275   1.857   0.634   2.022  0.0868 -0.1816 -0.1723
 3547TIP3    H132276   1.884   0.556   1.973 -1.2618  0.1814 -1.5755
 3547TIP3    H232277   1.870   0.706   1.960 -0.3274  0.4758  0.5008
 3548TIP3   OH232278   3.026   6.180   3.139 -0.2292  0.5411 -0.0793
 3548TIP3    H132279   3.028   6.234   3.218 -0.3638  1.2542 -0.5600
 3548TIP3    H232280   3.040   6.241   3.067  2.1075 -0.3785 -0.4913
 3549TIP3   OH232281   5.006   2.472   3.869  0.4503  0.1158  0.3936
 3549TIP3    H132282   5.056   2.553   3.870 -1.2234  1.2063  1.4187
 3549TIP3    H232283   4.917   2.499   3.844  0.0318 -1.5321 -0.0445
 3550TIP3   OH232284   0.265   1.995   3.707 -0.1955 -0.2201  0.4677
 3550TIP3    H132285   0.193   1.933   3.713  0.2216 -1.0862 -2.0412
 3550TIP3    H232286   0.343   1.940   3.700  0.2533  0.5441 -1.0488
 3551TIP3   OH232287   6.097   1.936   2.460  0.0010  0.2822  0.0606
 3551TIP3    H132288   6.050   1.951   2.542  1.7950  1.1883  0.9948
 3551TIP3    H232289   6.095   2.021   2.416  0.3805  0.2093 -0.0971
 3552TIP3   OH232290   2.767   5.104   0.510  0.3343 -0.2179 -0.3663
 3552TIP3    H132291   2.714   5.155   0.448 -0.3709  1.0675  1.2517
 3552TIP3    H232292   2.724   5.018   0.512 -1.1194  0.4950  0.1489
 3553TIP3   OH232293   3.635   1.528   1.312 -1.0023 -0.5363 -0.0326
 3553TIP3    H132294   3.565   1.493   1.367 -1.8987 -0.6772 -1.2103
 3553TIP3    H232295   3.618   1.491   1.225  0.1331 -0.0118 -0.5002
 3554TIP3   OH232296   3.278   0.682   8.583 -0.1691 -0.3181  0.1818
 3554TIP3    H132297   3.323   0.664   8.500  0.5346 -0.0183  0.4887
 3554TIP3    H232298   3.275   0.778   8.588  2.7634 -0.2220  2.0287
 3555TIP3   OH232299   2.357   0.941   2.808  0.1505 -0.2212  0.4845
 3555TIP3    H132300   2.402   0.866   2.769  0.3620  0.1586 -0.0088
 3555TIP3    H232301   2.404   1.017   2.775 -0.1643  0.1379  0.8532
 3556TIP3   OH232302   1.431   6.026   8.254 -0.2276 -0.4424  0.1452
 3556TIP3    H132303   1.403   5.951   8.202 -2.9146  0.2887  0.3439
 3556TIP3    H232304   1.519   6.004   8.284 -0.2080 -2.6646 -1.3238
 3557TIP3   OH232305   1.072   5.437   3.869 -0.2567  0.6946 -0.3703
 3557TIP3    H132306   0.997   5.496   3.872 -0.1696  0.7757  1.7649
 3557TIP3    H232307   1.040   5.355   3.908  1.0680  1.1811  1.9081
 3558TIP3   OH232308   6.376   6.073   2.453  0.3255 -0.4912 -0.2120
 3558TIP3    H132309   6.344   6.163   2.451  4.1943  1.0956  0.1974
 3558TIP3    H232310   6.319   6.028   2.516 -1.7856  1.6019 -0.5083
 3559TIP3   OH232311   4.799   3.912   2.451  0.6184 -0.4698 -0.2578
 3559TIP3    H132312   4.838   3.900   2.538  0.1001 -1.6612 -0.1621
 3559TIP3    H232313   4.816   3.829   2.406 -0.0880 -0.2843 -0.8930
 3560TIP3   OH232314   3.810   4.485   0.964  0.0160 -0.7246  0.2666
 3560TIP3    H132315   3.820   4.414   1.028  0.2939  0.1352  1.2108
 3560TIP3    H232316   3.891   4.483   0.914  1.4087  0.7980  2.2826
 3561TIP3   OH232317   5.879   5.145   1.847  0.3005  0.0649  0.1487
 3561TIP3    H132318   5.843   5.095   1.774 -0.5108 -0.0191  0.6024
 3561TIP3    H232319   5.853   5.236   1.830 -0.6333 -0.0765  0.7706
 3562TIP3   OH232320   0.055   1.495   8.650 -0.0675  0.0568  0.4676
 3562TIP3    H132321  -0.013   1.459   8.593  0.6665 -0.6762  0.0488
 3562TIP3    H232322   0.024   1.477   8.739  0.3006 -1.6785  0.2756
 3563TIP3   OH232323   4.207   5.124   1.316 -0.5259  0.1469 -0.0029
 3563TIP3    H132324   4.300   5.111   1.333 -0.3088  1.1109 -0.3662
 3563TIP3    H232325   4.196   5.219   1.315 -1.6843  0.0501  0.8995
 3564TIP3   OH232326   4.567   6.784   0.573  0.0546  0.4025 -0.0662
 3564TIP3    H132327   4.625   6.721   0.531  2.1292  0.1428  2.8463
 3564TIP3    H232328   4.514   6.732   0.633 -1.1793  0.9989 -0.5954
 3565TIP3   OH232329   2.015   3.954   3.634  0.0160  0.0498 -0.8563
 3565TIP3    H132330   2.055   3.870   3.657 -0.5733  0.2064  0.8423
 3565TIP3    H232331   2.090   4.012   3.617  0.4994 -0.1025  0.6505
 3566TIP3   OH232332   6.651   1.811   3.830 -0.2492  0.2106  0.1986
 3566TIP3    H132333   6.608   1.727   3.813  1.0692 -0.6014  0.6866
 3566TIP3    H232334   6.597   1.852   3.898 -0.1895 -0.8705  0.9389
 3567TIP3   OH232335   6.527   0.746   3.246 -0.8143  0.0470  0.2068
 3567TIP3    H132336   6.567   0.730   3.332 -1.4559  0.0541  0.5104
 3567TIP3    H232337   6.525   0.660   3.204  0.9170  0.2734 -0.4436
 3568TIP3   OH232338   3.542   3.395   8.488  0.3396  0.5761  0.4577
 3568TIP3    H132339   3.622   3.360   8.451 -1.2866 -1.8851 -0.9838
 3568TIP3    H232340   3.525   3.474   8.437  1.0740  0.3029 -0.2352
 3569TIP3   OH232341   3.590   3.747   2.408 -0.5795 -0.5788 -0.2203
 3569TIP3    H132342   3.633   3.666   2.383 -1.5225 -0.6452 -1.7082
 3569TIP3    H232343   3.660   3.813   2.407 -0.0538 -1.1365 -0.2267
 3570TIP3   OH232344   5.483   5.231   0.881 -0.2741 -0.8649  0.6539
 3570TIP3    H132345   5.474   5.142   0.847  0.9768 -0.6794 -0.2599
 3570TIP3    H232346   5.567   5.261   0.846 -1.5319  1.3568 -0.6655
 3571TIP3   OH232347   4.971   0.311   2.176 -0.5176  0.0669  0.0702
 3571TIP3    H132348   4.899   0.249   2.177  0.8845 -1.8349 -2.8029
 3571TIP3    H232349   5.031   0.279   2.244 -1.1186  0.0231  0.5846
 3572TIP3   OH232350   3.851   0.032   8.136 -0.6457 -0.6520  0.0834
 3572TIP3    H132351   3.887   0.086   8.066 -0.6050 -1.1216 -0.2635
 3572TIP3    H232352   3.839   0.093   8.210  2.8057 -0.8237  0.9683
 3573TIP3   OH232353   0.738   3.693   2.517 -0.1832 -0.3851 -0.8377
 3573TIP3    H132354   0.707   3.739   2.596  0.4160  0.6818 -1.2054
 3573TIP3    H232355   0.798   3.755   2.476 -1.2898 -0.4878 -2.7090
 3574TIP3   OH232356   6.579   1.046   2.099 -0.1976  0.1813 -0.0395
 3574TIP3    H132357   6.589   0.954   2.123  0.3934  0.4046  0.6132
 3574TIP3    H232358   6.540   1.044   2.012  1.5257 -0.7033 -0.8251
 3575TIP3   OH232359   5.696   3.353   8.737 -0.5102 -0.0838  0.1767
 3575TIP3    H132360   5.652   3.438   8.749  0.2684  0.4506 -0.6413
 3575TIP3    H232361   5.708   3.345   8.643  0.0165 -0.8034  0.2945
 3576TIP3   OH232362   4.683   2.493   2.857  0.5733 -0.1395  0.2864
 3576TIP3    H132363   4.765   2.452   2.883 -0.1678 -0.6101  2.0277
 3576TIP3    H232364   4.710   2.567   2.802  2.3293  0.8538  2.2909
 3577TIP3   OH232365   4.854   3.940   0.125 -0.2774  0.1196 -0.0707
 3577TIP3    H132366   4.852   3.891   0.043  0.3524 -0.7937  0.4482
 3577TIP3    H232367   4.899   4.022   0.103  0.6891 -0.4984 -0.4438
 3578TIP3   OH232368   6.038   6.137   2.294  0.5433 -0.5908 -0.0662
 3578TIP3    H132369   5.972   6.154   2.361  0.5206  0.4850 -0.3489
 3578TIP3    H232370   6.118   6.175   2.328  0.1796  1.4528 -1.3166
 3579TIP3   OH232371   2.233   1.593   0.280  0.0764  0.0803 -0.2585
 3579TIP3    H132372   2.318   1.561   0.309 -1.1172 -2.3024  0.9495
 3579TIP3    H232373   2.190   1.624   0.360 -0.9604 -0.7718 -0.4540
 3580TIP3   OH232374   2.009   4.538   2.930  0.0078 -0.2261 -0.0778
 3580TIP3    H132375   2.063   4.480   2.983 -0.1481 -1.3876 -1.1251
 3580TIP3    H232376   1.937   4.564   2.987 -0.4601 -1.8884  0.1175
 3581TIP3   OH232377   5.748   1.906   8.519 -0.3367  0.0436 -0.2630
 3581TIP3    H132378   5.779   1.854   8.593  0.2859 -0.0479 -0.5823
 3581TIP3    H232379   5.702   1.980   8.559 -1.8982 -1.1361  0.1950
 3582TIP3   OH232380   3.622   3.827   3.541  0.3774 -0.2204 -0.4523
 3582TIP3    H132381   3.544   3.880   3.559  0.6329  0.4444 -1.2413
 3582TIP3    H232382   3.610   3.796   3.452  0.5729 -0.9156 -0.2434
 3583TIP3   OH232383   3.034   4.301   0.290  0.1919  0.1067 -0.4961
 3583TIP3    H132384   3.063   4.278   0.378  0.7091  2.5852  0.0460
 3583TIP3    H232385   3.110   4.341   0.248 -0.4474  0.2587 -1.5688
 3584TIP3   OH232386   5.862   2.865   1.831  0.3122  0.4078  0.1539
 3584TIP3    H132387   5.830   2.836   1.917 -0.0895  0.1493 -0.0743
 3584TIP3    H232388   5.814   2.810   1.769  0.2188  0.9438 -0.2576
 3585TIP3   OH232389   3.173   1.681   2.864  0.5389  0.7817  0.4126
 3585TIP3    H132390   3.254   1.678   2.813 -0.1487  0.3479 -0.6974
 3585TIP3    H232391   3.138   1.769   2.848 -0.4720  0.1288 -1.1960
 3586TIP3   OH232392   0.934   0.067   2.048 -0.3094  0.2766 -0.2997
 3586TIP3    H132393   0.945  -0.016   2.002 -0.7309  0.9640 -1.6875
 3586TIP3    H232394   0.856   0.105   2.010 -1.1460  0.5482  1.5471
 3587TIP3   OH232395   0.956   5.568   2.919 -0.2750  0.5473  0.0963
 3587TIP3    H132396   0.995   5.485   2.892 -1.5170 -0.3071  0.8577
 3587TIP3    H232397   1.012   5.634   2.879  1.1699 -0.6369  0.0702
 3588TIP3   OH232398   4.369   0.487   1.724  0.4869 -0.0525 -0.3957
 3588TIP3    H132399   4.337   0.437   1.649  1.9193 -1.2362 -0.2427
 3588TIP3    H232400   4.324   0.449   1.800 -2.0760  2.0681 -0.6743
 3589TIP3   OH232401   3.804   5.403   1.294  0.0376 -0.4403  0.1056
 3589TIP3    H132402   3.745   5.334   1.262  0.5228 -0.8977  0.1724
 3589TIP3    H232403   3.767   5.484   1.259  0.0660 -0.8426 -0.8926
 3590TIP3   OH232404   3.080   1.767   2.197 -0.0184 -0.0357 -0.3871
 3590TIP3    H132405   3.051   1.835   2.258 -2.6905 -1.4241  0.0423
 3590TIP3    H232406   3.108   1.815   2.119  1.6124  1.6824  1.1505
 3591TIP3   OH232407   2.910   1.689   8.794 -0.1926  0.1360 -0.3262
 3591TIP3    H132408   2.976   1.698   8.862  1.2920  0.6648 -1.7633
 3591TIP3    H232409   2.889   1.596   8.793 -1.1726  0.2911  1.6439
 3592TIP3   OH232410   4.845   4.021   0.794  0.0248 -0.1956 -0.5024
 3592TIP3    H132411   4.753   4.028   0.820 -0.4774  0.0880 -2.2631
 3592TIP3    H232412   4.873   3.936   0.828 -1.1754 -0.7285 -0.8156
 3593TIP3   OH232413   4.396   5.556   1.585 -0.2698 -0.3946  0.1357
 3593TIP3    H132414   4.304   5.585   1.582 -0.2129 -0.2606 -1.2174
 3593TIP3    H232415   4.417   5.535   1.493  0.9801 -0.6659  0.4650
 3594TIP3   OH232416   3.654   2.282   2.309 -0.5402 -0.1007  0.3101
 3594TIP3    H132417   3.604   2.359   2.285 -1.1018 -0.3574  0.6459
 3594TIP3    H232418   3.642   2.273   2.404 -0.0022 -0.2640  0.3670
 3595TIP3   OH232419   4.366   2.105   1.523 -0.1686  0.5011  0.3078
 3595TIP3    H132420   4.400   2.052   1.595  0.3095  0.2446 -0.0981
 3595TIP3    H232421   4.271   2.096   1.530 -0.1106 -1.9250 -0.8173
 3596TIP3   OH232422   5.045   1.375   1.298 -0.3895 -0.3420 -0.2684
 3596TIP3    H132423   5.077   1.419   1.377 -1.1198 -1.4746  0.6916
 3596TIP3    H232424   4.950   1.371   1.310 -0.3767 -1.8602 -0.4769
 3597TIP3   OH232425   5.035   5.339   1.000 -0.0899  0.3016 -0.0284
 3597TIP3    H132426   5.106   5.388   1.041 -0.7937  1.1700  0.1851
 3597TIP3    H232427   5.066   5.248   0.999  0.2506  0.3587  1.8049
 3598TIP3   OH232428   0.583   6.811   1.396 -0.2312 -0.1057 -0.4391
 3598TIP3    H132429   0.661   6.783   1.444 -1.3285 -0.4286  1.2479
 3598TIP3    H232430   0.519   6.742   1.414 -1.4576  1.0430 -0.2913
 3599TIP3   OH232431   0.140   3.703   1.059  0.2260  0.1004  0.9130
 3599TIP3    H132432   0.107   3.789   1.033 -1.1009 -0.0468  1.9746
 3599TIP3    H232433   0.140   3.705   1.154 -1.1375 -1.5117  0.9995
 3600TIP3   OH232434   6.729   3.151   3.051  0.1000  0.1585 -0.3464
 3600TIP3    H132435   6.718   3.206   3.129  0.1114  0.5207 -0.5928
 3600TIP3    H232436   6.822   3.160   3.029  0.2736 -0.5756  0.0533
 3601TIP3   OH232437   4.204   2.325   8.147  0.3485  0.3828 -0.1127
 3601TIP3    H132438   4.146   2.367   8.084  0.6356 -1.3208 -1.6268
 3601TIP3    H232439   4.258   2.396   8.182 -0.8020  1.5845 -0.6954
 3602TIP3   OH232440   6.432   4.109   0.628 -0.0393  0.3922  0.4314
 3602TIP3    H132441   6.358   4.053   0.647  1.3346 -1.4978  0.4757
 3602TIP3    H232442   6.418   4.138   0.538  0.5485 -2.2959 -0.5968
 3603TIP3   OH232443   1.286   5.658   1.205 -0.3004 -0.2633  0.3903
 3603TIP3    H132444   1.343   5.705   1.267 -1.1273 -1.4000  2.1058
 3603TIP3    H232445   1.204   5.646   1.253 -1.2273 -0.5917 -1.2127
 3604TIP3   OH232446   3.325   1.777   0.402 -0.2690 -0.6662  0.3402
 3604TIP3    H132447   3.352   1.696   0.358  0.3400 -0.6665  0.7053
 3604TIP3    H232448   3.246   1.752   0.451 -0.1289 -1.0176  0.3890
 3605TIP3   OH232449   1.026   2.398   8.091  0.2719  0.1633  0.2347
 3605TIP3    H132450   1.086   2.324   8.102  2.0615  1.3373 -1.0332
 3605TIP3    H232451   0.957   2.365   8.034  0.1967 -0.9443  0.9351
 3606TIP3   OH232452   2.510   0.868   1.970 -0.0102 -0.0970 -0.1582
 3606TIP3    H132453   2.567   0.842   1.897  0.4844 -1.0974  0.5684
 3606TIP3    H232454   2.510   0.964   1.967  1.7589 -0.0690 -0.1382
 3607TIP3   OH232455   0.241   2.644   0.392  0.4223  0.0506  0.0666
 3607TIP3    H132456   0.316   2.704   0.395  0.4533 -0.0006  0.3090
 3607TIP3    H232457   0.174   2.686   0.446  0.6264 -0.3855  0.6566
 3608TIP3   OH232458   6.034   6.229   3.427  0.1434 -0.7512 -0.4410
 3608TIP3    H132459   5.980   6.157   3.393 -0.3769  1.1253 -4.1154
 3608TIP3    H232460   5.978   6.306   3.418  1.7193  0.5547  0.5077
 3609TIP3   OH232461   2.533   1.284   2.903  0.0262  0.0136  0.3347
 3609TIP3    H132462   2.556   1.204   2.858  1.5565  0.5052  0.1944
 3609TIP3    H232463   2.582   1.353   2.858  0.0434  0.7944  1.4851
 3610TIP3   OH232464   3.815   5.934   2.197  0.2911 -0.0281  0.4181
 3610TIP3    H132465   3.869   5.965   2.269  0.8482 -0.0215  0.0043
 3610TIP3    H232466   3.860   5.964   2.118 -0.8663  0.8995  0.0751
 3611TIP3   OH232467   5.726   1.693   2.243 -0.0713 -0.4883 -0.3047
 3611TIP3    H132468   5.750   1.781   2.214  1.9183 -1.0148 -0.4168
 3611TIP3    H232469   5.633   1.699   2.265 -0.2108  1.3814 -1.2324
 3612TIP3   OH232470   5.084   0.739   1.488 -1.0448 -0.0702 -0.3018
 3612TIP3    H132471   5.023   0.747   1.561 -0.2981 -1.4718  0.5065
 3612TIP3    H232472   5.141   0.815   1.496  0.3117 -1.2279  1.8358
 3613TIP3   OH232473   2.475   2.765   1.942 -0.0648  0.0924  0.3197
 3613TIP3    H132474   2.472   2.785   1.848  0.0209 -0.9681  0.0759
 3613TIP3    H232475   2.434   2.678   1.949  0.1623  0.0492  1.2317
 3614TIP3   OH232476   4.230   6.802   3.563  0.0361  0.0047 -0.0736
 3614TIP3    H132477   4.162   6.747   3.601  0.5367 -0.9751 -0.5707
 3614TIP3    H232478   4.252   6.864   3.633 -2.3910  1.3592 -0.3799
 3615TIP3   OH232479   3.379   4.505   8.110 -0.0864 -0.3996 -0.4040
 3615TIP3    H132480   3.311   4.467   8.165 -0.8900 -0.4520 -1.4138
 3615TIP3    H232481   3.461   4.482   8.154 -0.7342  1.2100  1.8450
 3616TIP3   OH232482   2.041   2.052   3.511  0.1090  0.1894  0.3063
 3616TIP3    H132483   2.082   1.979   3.557  0.1146  0.1681  0.2682
 3616TIP3    H232484   2.084   2.130   3.546 -0.7524  0.2627  1.2359
 3617TIP3   OH232485   4.618   3.216   8.244  0.2808 -0.3544 -0.5873
 3617TIP3    H132486   4.623   3.187   8.153 -1.0924 -1.5138 -0.3222
 3617TIP3    H232487   4.705   3.196   8.280  0.4871 -0.8709 -1.3466
 3618TIP3   OH232488   4.641   3.613   1.751  0.1371  0.1228  0.1032
 3618TIP3    H132489   4.578   3.614   1.679 -1.2347  0.6683  1.2492
 3618TIP3    H232490   4.606   3.548   1.813  0.3870  0.8172  0.9995
 3619TIP3   OH232491   4.714   0.978   0.961 -0.0719 -0.2837 -0.3049
 3619TIP3    H132492   4.710   1.069   0.932 -1.2265 -0.2244 -0.0035
 3619TIP3    H232493   4.633   0.939   0.929 -1.0647 -0.4160  2.1405
 3620TIP3   OH232494   4.067   5.193   8.525 -0.1919  0.0126  0.0164
 3620TIP3    H132495   4.137   5.241   8.569 -0.0531 -0.8342  0.7388
 3620TIP3    H232496   4.079   5.212   8.432  0.0806  1.0709  0.2554
 3621TIP3   OH232497   5.008   5.874   3.286 -0.2637  0.0947 -0.0959
 3621TIP3    H132498   5.039   5.943   3.345 -0.6153 -0.8569  1.2773
 3621TIP3    H232499   4.940   5.829   3.337  0.1884 -1.4613 -0.8039
 3622TIP3   OH232500   2.055   5.605   1.148  0.1034  0.2376 -0.4025
 3622TIP3    H132501   2.012   5.673   1.097 -0.1158 -1.5402 -2.7105
 3622TIP3    H232502   2.021   5.522   1.114  1.3269 -1.1159  1.3986
 3623TIP3   OH232503   5.222   2.021   0.655 -0.0885 -0.1438  0.2077
 3623TIP3    H132504   5.164   2.054   0.586  0.0212 -0.6858 -0.1493
 3623TIP3    H232505   5.203   1.928   0.661  1.0595 -0.4280 -0.2450
 3624TIP3   OH232506   5.626   0.472   2.587 -0.1822 -0.0310 -0.2259
 3624TIP3    H132507   5.676   0.394   2.613 -1.3154  0.0652  2.5481
 3624TIP3    H232508   5.535   0.442   2.581 -0.5431  0.9284  0.2311
 3625TIP3   OH232509   2.595   6.531   2.636  0.5220  0.4299 -0.0150
 3625TIP3    H132510   2.618   6.499   2.549  2.9617  2.4493 -0.2477
 3625TIP3    H232511   2.509   6.570   2.626  0.2441 -0.4358 -1.1922
 3626TIP3   OH232512   5.934   0.747   2.213 -0.1285  0.9163 -0.1953
 3626TIP3    H132513   5.916   0.797   2.133 -1.2384  0.4529 -0.2567
 3626TIP3    H232514   6.012   0.695   2.192 -1.7022 -0.9400 -1.8275
 3627TIP3   OH232515   6.482   2.461   8.015  0.1492 -0.9896 -0.1984
 3627TIP3    H132516   6.461   2.548   7.981 -2.8137 -0.6261  2.1682
 3627TIP3    H232517   6.563   2.437   7.970  0.4134  2.4225 -1.8767
 3628TIP3   OH232518   3.928   0.052   8.697  0.4086  0.2087  0.2535
 3628TIP3    H132519   3.960   0.059   8.607 -0.0901  0.1899  0.0755
 3628TIP3    H232520   3.915   0.143   8.725  0.7035  0.2207  0.3620
 3629TIP3   OH232521   6.774   2.827   8.550  0.4962  0.0966 -0.3187
 3629TIP3    H132522   6.694   2.821   8.603  0.0583 -1.6922 -1.1151
 3629TIP3    H232523   6.766   2.911   8.504  0.7660  1.5966  2.1682
 3630TIP3   OH232524   4.736   1.581   3.173 -0.2348 -0.6741 -0.3124
 3630TIP3    H132525   4.745   1.624   3.258  0.6453 -1.7139  0.1446
 3630TIP3    H232526   4.824   1.551   3.152 -0.2862  0.2062 -1.9646
 3631TIP3   OH232527   2.120   2.954   8.504  0.1670  0.2847 -0.2883
 3631TIP3    H132528   2.138   2.912   8.420 -0.0399 -0.1879 -0.0947
 3631TIP3    H232529   2.027   2.973   8.501  0.5733  2.4864 -1.1761
 3632TIP3   OH232530   2.817   2.983   0.321  0.0348  0.6537 -0.2479
 3632TIP3    H132531   2.736   3.019   0.356  0.2959  1.2865 -0.2635
 3632TIP3    H232532   2.822   2.895   0.356  0.1943  1.1997  1.1802
 3633TIP3   OH232533   3.488   5.779   2.707  0.0038 -0.2854  0.3751
 3633TIP3    H132534   3.550   5.814   2.642 -0.8093 -1.8885 -1.3583
 3633TIP3    H232535   3.405   5.823   2.688  0.1250  0.4386  1.4359
 3634TIP3   OH232536   1.789   1.631   8.728  0.3917  0.3659 -0.0955
 3634TIP3    H132537   1.848   1.608   8.656  1.0067  0.8634  0.2505
 3634TIP3    H232538   1.705   1.591   8.703  0.6972  0.2131 -0.9053
 3635TIP3   OH232539   2.628   6.105   0.989 -0.2843 -0.4541 -0.2788
 3635TIP3    H132540   2.563   6.074   0.925 -1.0884  0.9699 -0.2108
 3635TIP3    H232541   2.707   6.055   0.970 -1.3708 -2.2023 -0.4129
 3636TIP3   OH232542   1.776   1.221   2.730 -0.3663  0.1155 -0.3245
 3636TIP3    H132543   1.857   1.173   2.743  0.4635  0.7531 -2.7176
 3636TIP3    H232544   1.707   1.154   2.735  0.5526 -0.9196 -1.1416
 3637TIP3   OH232545   6.033   1.697   8.652  0.4808 -0.2749 -0.2356
 3637TIP3    H132546   6.027   1.753   8.729 -2.2819 -0.7615 -0.0005
 3637TIP3    H232547   6.031   1.608   8.687 -1.7368 -0.5094 -0.8308
 3638TIP3   OH232548   4.701   0.003   3.039  0.2392  0.4914 -0.0543
 3638TIP3    H132549   4.657  -0.073   3.077  1.2826 -0.1650 -0.1248
 3638TIP3    H232550   4.758   0.036   3.109  2.7951 -1.2153 -1.1792
 3639TIP3   OH232551   5.922   0.078   8.689  0.0834  0.0158 -0.3409
 3639TIP3    H132552   5.888   0.007   8.743 -0.4615 -0.1439 -0.8764
 3639TIP3    H232553   5.986   0.036   8.632 -1.0784 -0.2997 -1.4672
 3640TIP3   OH232554   6.146   3.594   0.397  0.4124 -0.1998 -0.1127
 3640TIP3    H132555   6.100   3.569   0.478  1.3399  1.7316  1.0728
 3640TIP3    H232556   6.221   3.534   0.394 -0.0663 -0.8258 -0.0180
 3641TIP3   OH232557   3.368   5.607   1.286  0.4414  0.3712  0.6628
 3641TIP3    H132558   3.281   5.644   1.304 -0.7269 -1.8763 -0.0417
 3641TIP3    H232559   3.396   5.649   1.205 -1.4025 -1.0528 -0.8033
 3642TIP3   OH232560   4.201   6.151   2.623 -0.1106 -0.1921  0.4610
 3642TIP3    H132561   4.255   6.197   2.558 -1.3413  0.3137 -0.2459
 3642TIP3    H232562   4.264   6.102   2.676  0.9161 -1.1013 -1.4858
 3643TIP3   OH232563   1.118   5.938   2.314  0.1262  0.1452 -0.4703
 3643TIP3    H132564   1.092   5.846   2.321  0.3281  0.0398 -1.0166
 3643TIP3    H232565   1.083   5.980   2.392  2.0041 -0.8678  0.9761
 3644TIP3   OH232566   2.955   0.525   0.889  0.0960  0.0125  0.3749
 3644TIP3    H132567   2.898   0.571   0.828  2.2452  1.0193 -0.9983
 3644TIP3    H232568   2.987   0.450   0.840  0.4814 -0.1539  0.8715
 3645TIP3   OH232569   2.752   0.583   2.945 -0.0723  0.3015 -0.2841
 3645TIP3    H132570   2.764   0.515   2.879  0.3104 -1.6930  1.7007
 3645TIP3    H232571   2.662   0.613   2.933 -0.3488 -0.7765 -1.0455
 3646TIP3   OH232572   3.270   1.982   0.837  0.2733  0.3818 -0.0358
 3646TIP3    H132573   3.357   1.968   0.873  0.8182  1.0166 -1.0485
 3646TIP3    H232574   3.210   1.949   0.904  1.3239 -1.8385 -0.1039
 3647TIP3   OH232575   4.792   5.136   7.839 -0.2804  0.0119  0.9964
 3647TIP3    H132576   4.715   5.194   7.832 -0.2253  0.1167  1.2405
 3647TIP3    H232577   4.864   5.189   7.804 -0.2834 -0.0144  0.9504
 3648TIP3   OH232578   3.232   3.523   8.065 -0.2832 -0.2253  1.1070
 3648TIP3    H132579   3.204   3.545   7.976 -0.4986  2.8742  1.8258
 3648TIP3    H232580   3.154   3.532   8.119  0.3861  0.6476  1.9754
 3649TIP3   OH232581   2.193   5.461   4.121  0.3490 -0.3591 -0.3607
 3649TIP3    H132582   2.218   5.495   4.035  1.8945  0.1258  0.2559
 3649TIP3    H232583   2.154   5.535   4.166  1.1510 -0.1410 -0.0196
 3650TIP3   OH232584   6.186   4.409   1.714 -0.1954 -0.2551  0.1776
 3650TIP3    H132585   6.169   4.427   1.806  1.7568 -0.5228  0.6512
 3650TIP3    H232586   6.190   4.495   1.672  1.1517  0.0392  0.8373
 3651TIP3   OH232587   0.392   4.773   0.846  0.4250  0.0433 -0.5272
 3651TIP3    H132588   0.403   4.776   0.751 -1.4196 -1.0849 -0.8172
 3651TIP3    H232589   0.457   4.709   0.876  1.6548  1.0865 -0.8787
 3652TIP3   OH232590   0.817   2.889   7.773 -0.0106 -0.7257 -0.0772
 3652TIP3    H132591   0.827   2.859   7.863  0.3790 -1.3511 -0.3176
 3652TIP3    H232592   0.737   2.941   7.774  2.9918  4.6315  1.9621
 3653TIP3   OH232593   0.584   4.506   1.661  0.4075  0.1892 -0.3372
 3653TIP3    H132594   0.520   4.557   1.611 -0.1156  0.5281  0.6451
 3653TIP3    H232595   0.572   4.535   1.752  0.0294 -1.7252  0.2671
 3654TIP3   OH232596   6.513   2.675   3.064  0.0808  0.1580  0.3339
 3654TIP3    H132597   6.552   2.656   3.149  0.7643 -1.8646 -0.3527
 3654TIP3    H232598   6.435   2.726   3.083 -1.5161 -2.8264  2.4693
 3655TIP3   OH232599   5.369   2.524   2.228 -0.6424  0.2645 -0.2362
 3655TIP3    H132600   5.292   2.561   2.272 -0.1760  1.2218 -0.1831
 3655TIP3    H232601   5.423   2.489   2.300 -0.3686  0.8915 -0.1237
 3656TIP3   OH232602   2.953   0.503   1.177  0.0211  0.4782  0.0296
 3656TIP3    H132603   2.945   0.516   1.083  0.8301  1.8175  0.1223
 3656TIP3    H232604   2.949   0.408   1.189 -1.9210  0.3665 -1.1534
 3657TIP3   OH232605   6.361   5.590   0.072  0.1700  0.0669  0.2296
 3657TIP3    H132606   6.287   5.648   0.091  0.2383  1.1728 -2.5001
 3657TIP3    H232607   6.339   5.549  -0.012  1.4573 -1.7005  0.6866
 3658TIP3   OH232608   3.384   3.992   8.516 -0.4408 -0.0362 -0.8717
 3658TIP3    H132609   3.325   3.916   8.517  1.1767 -1.3405  0.1829
 3658TIP3    H232610   3.454   3.967   8.456 -0.3147  0.9757 -1.1548
 3659TIP3   OH232611   3.780   3.507   2.011 -0.2935  0.1297  0.1225
 3659TIP3    H132612   3.768   3.416   1.983 -0.9222  0.0309  0.6819
 3659TIP3    H232613   3.691   3.538   2.031  0.0568  0.3906  1.3871
 3660TIP3   OH232614   1.901   0.732   2.543  0.4793 -0.1476 -0.0129
 3660TIP3    H132615   1.972   0.670   2.528 -1.1955 -1.8719 -1.3049
 3660TIP3    H232616   1.863   0.747   2.457 -0.0485  1.6392  0.4847
 3661TIP3   OH232617   4.043   5.913   8.455  0.4429  0.4275  0.2261
 3661TIP3    H132618   4.028   5.994   8.406  0.9514 -0.4981 -1.5565
 3661TIP3    H232619   3.990   5.848   8.410  0.7791 -0.4305  1.0422
 3662TIP3   OH232620   0.037   4.830   4.142 -0.1755 -0.4190 -0.1147
 3662TIP3    H132621   0.133   4.826   4.140 -0.0318  1.1688  1.1792
 3662TIP3    H232622   0.011   4.754   4.194  0.5317  0.1693  1.1531
 3663TIP3   OH232623   2.196   1.611   2.156  0.9122 -0.1685 -0.4125
 3663TIP3    H132624   2.220   1.616   2.249  1.1505  1.1504 -0.5221
 3663TIP3    H232625   2.157   1.696   2.137 -2.4718 -1.6273 -0.6744
 3664TIP3   OH232626   6.596   5.371   8.444 -0.0117  0.2017 -0.0496
 3664TIP3    H132627   6.583   5.350   8.352  2.7856 -1.2692 -0.2328
 3664TIP3    H232628   6.633   5.460   8.443 -2.0941  1.1124 -0.1069
 3665TIP3   OH232629   4.398   1.508   2.057  0.2534  0.7408  0.4760
 3665TIP3    H132630   4.310   1.485   2.027  0.7864  1.0088 -1.4720
 3665TIP3    H232631   4.451   1.430   2.039  0.5086  0.7365  1.2169
 3666TIP3   OH232632   3.558   5.267   2.900 -0.2243 -0.2449  0.1071
 3666TIP3    H132633   3.574   5.173   2.890 -1.9677 -0.8766  2.3651
 3666TIP3    H232634   3.506   5.291   2.824  0.9251 -0.8862 -0.9166
 3667TIP3   OH232635   0.132   0.865   0.194 -0.7232 -0.4535  0.3363
 3667TIP3    H132636   0.063   0.799   0.201 -1.7527  0.7311  2.0808
 3667TIP3    H232637   0.105   0.934   0.253 -0.1822  2.0284 -2.0995
 3668TIP3   OH232638   0.177   4.145   1.061  0.1289  0.0815  0.2888
 3668TIP3    H132639   0.179   4.240   1.045 -1.3601  0.2912  1.2311
 3668TIP3    H232640   0.117   4.134   1.134  0.0031 -1.6333 -0.0372
 3669TIP3   OH232641   4.499   0.117   8.614 -0.1364 -0.6571  0.4232
 3669TIP3    H132642   4.408   0.086   8.607 -0.0270 -0.6670 -1.4874
 3669TIP3    H232643   4.551   0.043   8.582  0.3231  0.3652 -1.3212
 3670TIP3   OH232644   3.367   4.801   8.244 -0.0870  0.1984 -0.1007
 3670TIP3    H132645   3.351   4.893   8.226  0.1627  0.0449 -1.1982
 3670TIP3    H232646   3.380   4.762   8.158 -0.2288 -0.8725  0.3437
 3671TIP3   OH232647   5.539   1.413   2.089 -0.1843  0.4657 -0.5560
 3671TIP3    H132648   5.630   1.434   2.112 -0.1405  0.5290 -0.7745
 3671TIP3    H232649   5.520   1.332   2.135 -0.7849  1.6219  1.3523
 3672TIP3   OH232650   5.748   6.798   2.695 -0.5346 -0.0258  0.4320
 3672TIP3    H132651   5.812   6.803   2.766 -0.1952  0.7755  0.0716
 3672TIP3    H232652   5.781   6.857   2.628  0.2680 -2.3065 -1.3152
 3673TIP3   OH232653   0.698   1.638   7.419  0.4198  0.1849 -0.2481
 3673TIP3    H132654   0.655   1.668   7.500  0.7424  1.6911 -0.6050
 3673TIP3    H232655   0.791   1.648   7.437  0.4728  2.1034 -1.3308
 3674TIP3   OH232656   2.151   5.854   2.204  0.5168  0.9069 -0.1618
 3674TIP3    H132657   2.097   5.916   2.253 -0.7958 -0.8694  0.7626
 3674TIP3    H232658   2.206   5.813   2.270  0.7055  0.4218 -0.6179
 3675TIP3   OH232659   2.059   4.541   3.282 -0.1367 -0.4769  0.2547
 3675TIP3    H132660   2.088   4.632   3.283 -1.7806  0.1326 -1.1161
 3675TIP3    H232661   1.963   4.546   3.287 -0.2030 -2.2541  2.4050
 3676TIP3   OH232662   5.428   2.854   3.382 -0.2740  0.3847 -0.4175
 3676TIP3    H132663   5.498   2.910   3.349 -0.7097  0.6422 -0.9349
 3676TIP3    H232664   5.468   2.767   3.390  0.0418  0.4783 -0.9406
 3677TIP3   OH232665   1.228   0.944   1.766 -0.2141  0.1625  0.8033
 3677TIP3    H132666   1.233   0.930   1.861  1.4094  0.5197  0.7844
 3677TIP3    H232667   1.145   0.990   1.754  0.0009  0.9805  2.1690
 3678TIP3   OH232668   5.267   2.066   1.337 -0.1214 -0.0437  0.7146
 3678TIP3    H132669   5.250   2.037   1.248 -0.8518  0.0560  0.8130
 3678TIP3    H232670   5.340   2.127   1.329 -1.4830  1.5465 -0.1100
 3679TIP3   OH232671   1.972   0.107   1.593 -0.6596  0.8167  0.0167
 3679TIP3    H132672   2.006   0.018   1.590 -2.2909  0.1170  0.9142
 3679TIP3    H232673   1.894   0.105   1.537 -0.1894  1.9352 -0.7106
 3680TIP3   OH232674   2.311   0.161   3.348  0.0299 -0.7587  0.2734
 3680TIP3    H132675   2.371   0.134   3.418  1.6846 -0.4523 -0.9590
 3680TIP3    H232676   2.320   0.093   3.282 -2.4143 -1.6753  0.7806
 3681TIP3   OH232677   1.185   3.556   1.536 -0.2377 -0.5005  0.5812
 3681TIP3    H132678   1.168   3.631   1.479  0.6002 -1.2249 -0.6693
 3681TIP3    H232679   1.104   3.545   1.586 -0.7926  0.5089 -0.0620
 3682TIP3   OH232680   2.818   0.928   8.766  0.3383 -0.3431 -0.2491
 3682TIP3    H132681   2.825   0.981   8.687  0.6690 -0.6705 -0.4407
 3682TIP3    H232682   2.803   0.992   8.836  0.1328 -0.0459 -0.5602
 3683TIP3   OH232683   6.626   5.658   1.159  0.4510  0.5250 -0.6250
 3683TIP3    H132684   6.710   5.663   1.113  2.3611 -0.1171  2.5312
 3683TIP3    H232685   6.628   5.730   1.221 -1.7852  1.0247 -1.0453
 3684TIP3   OH232686   6.490   1.614   3.692 -0.1694  0.1972 -0.1639
 3684TIP3    H132687   6.455   1.582   3.609 -0.3759 -1.8092  0.6528
 3684TIP3    H232688   6.462   1.550   3.756  1.1660  0.9723  1.2522
 3685TIP3   OH232689   2.140   2.767   0.288  0.0904  0.2925  0.2797
 3685TIP3    H132690   2.052   2.732   0.273 -0.6939  3.3991 -5.1619
 3685TIP3    H232691   2.127   2.862   0.295  2.9587  0.8871 -0.8726
 3686TIP3   OH232692   4.748   2.664   0.467 -0.0771 -0.1432  0.4140
 3686TIP3    H132693   4.746   2.716   0.548  2.1730 -0.0625  0.4659
 3686TIP3    H232694   4.801   2.715   0.407 -1.0001 -0.6332 -0.8621
 3687TIP3   OH232695   3.757   6.730   2.621 -0.0938 -0.5574  0.0088
 3687TIP3    H132696   3.677   6.725   2.674  0.5483  0.0412  1.0859
 3687TIP3    H232697   3.824   6.758   2.683  0.8666 -0.6345 -0.9724
 3688TIP3   OH232698   2.734   6.388   3.065  0.1185 -0.0267  0.3351
 3688TIP3    H132699   2.710   6.356   2.978  0.9279 -1.2599  0.5471
 3688TIP3    H232700   2.760   6.310   3.114  1.7646  0.8785  1.0059
 3689TIP3   OH232701   5.936   0.562   3.345 -0.1918 -0.6059  0.3574
 3689TIP3    H132702   5.850   0.521   3.354  0.4416 -1.4682  4.1440
 3689TIP3    H232703   5.940   0.626   3.417  1.6327  0.8158 -0.9083
 3690TIP3   OH232704   4.408   2.002   2.506  0.5260  0.4554  0.1620
 3690TIP3    H132705   4.359   2.078   2.538  1.0706  1.8752 -2.1251
 3690TIP3    H232706   4.342   1.935   2.490  0.0137  0.4722  2.0100
 3691TIP3   OH232707   2.416   5.577   1.507  0.0958 -0.4194  0.3185
 3691TIP3    H132708   2.433   5.484   1.491 -0.5806 -0.3687 -0.7098
 3691TIP3    H232709   2.331   5.594   1.467  0.4785  0.7815 -0.0134
 3692TIP3   OH232710   2.577   1.167   3.167 -0.1695  0.5926 -0.2485
 3692TIP3    H132711   2.583   1.224   3.244 -1.7674  0.5109 -0.0257
 3692TIP3    H232712   2.506   1.205   3.115 -2.7450 -2.2237  0.8831
 3693TIP3   OH232713   2.383   5.789   8.669  0.1772  0.3345 -0.0571
 3693TIP3    H132714   2.437   5.735   8.727  0.1888  0.5955  0.1747
 3693TIP3    H232715   2.446   5.834   8.613  0.2099  0.7374  0.2987
 3694TIP3   OH232716   0.035   5.015   0.970 -0.1301 -0.3197 -0.1287
 3694TIP3    H132717  -0.046   5.061   0.947  0.0341 -0.6150 -1.3698
 3694TIP3    H232718   0.022   4.989   1.061 -1.9863 -1.4601 -0.6546
 3695TIP3   OH232719   0.825   5.431   8.233  0.4161  0.0948 -0.0171
 3695TIP3    H132720   0.911   5.450   8.196  0.3261 -0.1358 -0.3567
 3695TIP3    H232721   0.795   5.514   8.270  0.7606  0.1877  0.0555
 3696TIP3   OH232722   3.329   6.751   2.047 -0.3915 -0.2487 -0.0953
 3696TIP3    H132723   3.308   6.810   2.120 -1.4807  0.3986 -0.9232
 3696TIP3    H232724   3.275   6.674   2.062  0.7945 -0.9491  0.8067
 3697TIP3   OH232725   4.044   5.416   1.716 -0.5157 -0.3397 -0.1795
 3697TIP3    H132726   4.139   5.400   1.710 -0.1752  1.8266 -2.0958
 3697TIP3    H232727   4.025   5.471   1.640 -3.0917  0.3716  0.8984
 3698TIP3   OH232728   2.368   5.478   2.651  0.3338 -0.2979  0.0257
 3698TIP3    H132729   2.331   5.419   2.716 -0.3212  0.7368  0.6169
 3698TIP3    H232730   2.298   5.541   2.634  0.6119 -0.3507 -1.4423
 3699TIP3   OH232731   1.261   5.411   1.733  0.0280 -0.5559 -0.2845
 3699TIP3    H132732   1.327   5.354   1.694  0.2026 -0.5044 -0.0705
 3699TIP3    H232733   1.238   5.473   1.664 -0.1427 -0.8693 -0.5085
 3700TIP3   OH232734   4.538   2.602   2.404  0.1612  0.1831 -0.5866
 3700TIP3    H132735   4.590   2.534   2.447 -0.1709  1.1372  1.4466
 3700TIP3    H232736   4.568   2.684   2.444 -1.3847  0.9473 -0.9337
 3701TIP3   OH232737   2.673   0.502   1.298  0.3306 -0.2997 -0.0933
 3701TIP3    H132738   2.644   0.592   1.313  0.0397 -0.3210 -0.5181
 3701TIP3    H232739   2.750   0.510   1.243  0.8626 -0.2688  0.6362
 3702TIP3   OH232740   1.326   4.300   1.511 -0.2086 -0.4318  0.1810
 3702TIP3    H132741   1.268   4.354   1.565 -0.8019 -0.7009 -0.1809
 3702TIP3    H232742   1.313   4.211   1.542 -0.0380 -0.5012  0.0571
 3703TIP3   OH232743   1.048   1.587   8.615 -0.0897  0.3062  0.5170
 3703TIP3    H132744   0.998   1.613   8.692  0.4915  0.2766  0.9066
 3703TIP3    H232745   1.139   1.608   8.636  0.2622 -0.9916  0.4072
 3704TIP3   OH232746   2.135   3.464   2.448  0.3439  0.0222 -0.0542
 3704TIP3    H132747   2.170   3.425   2.528  1.6340 -0.6348 -0.9070
 3704TIP3    H232748   2.154   3.557   2.456  0.6176 -0.0642  0.3338
 3705TIP3   OH232749   0.982   3.711   1.060 -0.2504  0.3016 -0.0010
 3705TIP3    H132750   0.999   3.784   1.001  2.1974 -0.6061 -0.5115
 3705TIP3    H232751   1.051   3.716   1.126  0.0967 -1.6175 -0.1449
 3706TIP3   OH232752   2.587   3.084   0.418  0.6181  0.1410 -0.1714
 3706TIP3    H132753   2.594   3.092   0.513  2.6574 -0.9511 -0.1606
 3706TIP3    H232754   2.595   3.173   0.386 -0.5357  0.5730  0.6901
 3707TIP3   OH232755   4.650   3.874   1.540 -0.6435  0.1467 -0.1425
 3707TIP3    H132756   4.559   3.903   1.532 -0.6790 -0.0722 -0.5322
 3707TIP3    H232757   4.661   3.808   1.471  0.6550  2.3401 -2.2243
 3708TIP3   OH232758   1.880   1.303   2.225 -0.4504 -0.3756  0.0036
 3708TIP3    H132759   1.969   1.308   2.189 -0.7377 -0.2862 -0.7202
 3708TIP3    H232760   1.891   1.321   2.318  0.0468  1.8327 -0.4206
 3709TIP3   OH232761   3.327   5.960   0.362  0.0777 -0.0814  0.4534
 3709TIP3    H132762   3.237   5.967   0.392  0.2456  2.1592  0.6280
 3709TIP3    H232763   3.338   6.032   0.300  1.9198  0.1422  0.9556
 3710TIP3   OH232764   1.941   2.631   2.244 -0.2713  0.2808  0.6965
 3710TIP3    H132765   2.031   2.625   2.214 -0.4313 -0.2863  0.3101
 3710TIP3    H232766   1.888   2.617   2.165 -0.7102 -2.3684  1.3853
 3711TIP3   OH232767   3.389   5.254   3.117  0.0701  0.4341  0.2714
 3711TIP3    H132768   3.384   5.347   3.138 -1.8653  0.4445 -0.1154
 3711TIP3    H232769   3.471   5.245   3.067  0.1732  1.9516  0.1385
 3712TIP3   OH232770   1.684   1.222   3.666 -0.1058 -0.2497  0.0874
 3712TIP3    H132771   1.592   1.201   3.649  0.0361 -0.2585 -0.6606
 3712TIP3    H232772   1.733   1.155   3.618  0.3101  0.3358 -0.3130
 3713TIP3   OH232773   2.357   6.844   8.756  0.8261  0.0173  0.9179
 3713TIP3    H132774   2.423   6.806   8.813 -0.2378 -2.0393  0.8489
 3713TIP3    H232775   2.406   6.879   8.681  1.9166 -0.3405  1.4575
 3714TIP3   OH232776   2.240   4.719   2.856  0.0592 -0.1160  0.3340
 3714TIP3    H132777   2.213   4.769   2.779 -0.0762 -0.7996 -0.0758
 3714TIP3    H232778   2.158   4.681   2.889  0.1490 -0.0017  0.6887
 3715TIP3   OH232779   1.534   5.300   3.327 -0.1295 -0.2380 -0.4434
 3715TIP3    H132780   1.583   5.277   3.406  0.0594  1.5453 -0.0068
 3715TIP3    H232781   1.600   5.310   3.259 -0.0911  0.1721 -0.3462
 3716TIP3   OH232782   3.917   4.780   0.589  0.1413  0.3668  0.0384
 3716TIP3    H132783   3.876   4.856   0.547  1.4222  1.3798  0.5579
 3716TIP3    H232784   3.880   4.778   0.677 -2.4805 -1.7089 -0.9309
 3717TIP3   OH232785   2.684   6.291   0.310  0.4058  0.3019 -0.4242
 3717TIP3    H132786   2.616   6.322   0.249  1.2492  0.5291 -1.2744
 3717TIP3    H232787   2.763   6.284   0.256  0.5549 -2.1415  0.0149
 3718TIP3   OH232788   5.080   2.857   0.688  0.3507 -0.3394 -0.1096
 3718TIP3    H132789   5.086   2.782   0.747  1.0180 -0.5070 -0.3826
 3718TIP3    H232790   4.986   2.867   0.671 -0.0203  0.5172  2.0011
 3719TIP3   OH232791   5.120   2.729   1.871 -0.4050 -0.3194  0.0859
 3719TIP3    H132792   5.104   2.800   1.809  0.5097 -2.6939 -3.1643
 3719TIP3    H232793   5.212   2.737   1.895 -0.2982 -0.3905 -0.2949
 3720TIP3   OH232794   2.697   1.216   0.719  0.2575  0.4017 -0.2355
 3720TIP3    H132795   2.789   1.241   0.720 -0.0653  1.7451 -0.7032
 3720TIP3    H232796   2.659   1.267   0.791 -0.4082  1.2019 -1.1227
 3721TIP3   OH232797   1.109   2.680   0.043  0.0751  0.6363 -0.4170
 3721TIP3    H132798   1.063   2.705  -0.037 -2.0092  2.7462  1.3100
 3721TIP3    H232799   1.169   2.611   0.015 -0.1397  1.6397 -3.8872
 3722TIP3   OH232800   4.810   2.320   0.220  0.2556 -0.2219 -0.7889
 3722TIP3    H132801   4.757   2.272   0.284  0.9697  0.0177 -0.0041
 3722TIP3    H232802   4.780   2.288   0.135 -1.2539  0.0279 -0.3690
 3723TIP3   OH232803   6.710   3.036   0.728  0.1480  0.2086  0.3596
 3723TIP3    H132804   6.718   3.091   0.806  2.6922  0.1787  0.2220
 3723TIP3    H232805   6.698   2.947   0.762 -0.7785  0.4405  0.6528
 3724TIP3   OH232806   5.115   6.467   3.187  0.3265  0.6189 -0.2118
 3724TIP3    H132807   5.078   6.547   3.226  0.4403 -0.4337  2.2788
 3724TIP3    H232808   5.136   6.412   3.262 -2.5055 -3.0507 -1.8322
 3725TIP3   OH232809   5.019   1.307   2.181 -0.0367 -0.6484  0.0705
 3725TIP3    H132810   5.103   1.351   2.189  0.9319 -2.6502  2.1400
 3725TIP3    H232811   5.041   1.216   2.159 -1.7968 -0.8077 -1.3172
 3726TIP3   OH232812   3.507   4.404   0.045  0.2411 -0.0324  0.0346
 3726TIP3    H132813   3.556   4.358  -0.022 -0.1294  0.7560 -0.7990
 3726TIP3    H232814   3.432   4.348   0.063  0.1097 -0.0474 -0.5368
 3727TIP3   OH232815   6.435   2.117   2.539  0.2033 -0.5174  0.1575
 3727TIP3    H132816   6.521   2.131   2.579  0.9348 -1.5773 -1.0018
 3727TIP3    H232817   6.376   2.107   2.613  1.0897  0.0950  0.9726
 3728TIP3   OH232818   1.918   2.114   2.634  0.9543  0.2741 -0.6783
 3728TIP3    H132819   1.841   2.167   2.651  0.0776 -1.3811  0.9885
 3728TIP3    H232820   1.982   2.174   2.596 -1.8190  1.2763 -4.2367
 3729TIP3   OH232821   3.060   2.199   1.739 -0.0006  0.5382  0.2976
 3729TIP3    H132822   2.992   2.133   1.732  1.1204 -0.8587  1.7287
 3729TIP3    H232823   3.113   2.189   1.660 -0.5540  0.6047 -0.0871
 3730TIP3   OH232824   4.291   2.456   0.775  0.5909  0.1160  0.0057
 3730TIP3    H132825   4.378   2.420   0.763  0.0908 -0.7204 -1.2367
 3730TIP3    H232826   4.287   2.530   0.714  0.9823  1.2238  1.2587
 3731TIP3   OH232827   1.489   0.981   1.639 -0.4566 -0.4792 -0.3309
 3731TIP3    H132828   1.404   1.016   1.666 -1.2130 -0.4853 -2.5207
 3731TIP3    H232829   1.486   0.889   1.666  0.0208  0.1358  2.0457
 3732TIP3   OH232830   0.766   4.710   2.383 -0.2689 -0.5128 -0.5568
 3732TIP3    H132831   0.755   4.787   2.439 -1.4150 -0.3110 -1.0205
 3732TIP3    H232832   0.852   4.675   2.406 -0.5244 -0.1875  1.0219
 3733TIP3   OH232833   4.634   3.935   8.350 -0.4555 -0.2841 -0.1345
 3733TIP3    H132834   4.700   3.875   8.314 -1.6251 -0.8838 -1.4056
 3733TIP3    H232835   4.636   3.920   8.444  0.0994 -1.4892 -0.3234
 3734TIP3   OH232836   1.654   3.256   2.883 -0.2239  0.3977 -0.0696
 3734TIP3    H132837   1.624   3.307   2.958 -1.6865  0.6243 -0.7769
 3734TIP3    H232838   1.696   3.179   2.922  0.9659  1.5350  0.9898
 3735TIP3   OH232839   4.225   0.529   1.192 -0.0265 -0.2969 -0.1465
 3735TIP3    H132840   4.308   0.538   1.239  0.3765  0.8419 -1.0302
 3735TIP3    H232841   4.163   0.581   1.243  0.1312 -0.0246 -0.2315
 3736TIP3   OH232842   0.077   0.379   8.684  0.0311  0.5585 -0.2446
 3736TIP3    H132843   0.006   0.346   8.628 -2.5158  3.3581  0.9971
 3736TIP3    H232844   0.153   0.383   8.627 -0.5233 -3.1958 -1.5155
 3737TIP3   OH232845   4.548   1.711   1.985  0.3789 -0.1939  0.0094
 3737TIP3    H132846   4.497   1.632   1.968 -0.3255  0.0846  0.7413
 3737TIP3    H232847   4.486   1.771   2.026  1.0567  0.5163  0.0239
 3738TIP3   OH232848   6.525   0.173   2.444  0.1974  0.1524  0.2996
 3738TIP3    H132849   6.564   0.108   2.386  0.5028  2.1552 -1.8894
 3738TIP3    H232850   6.454   0.126   2.488  1.7827 -2.2040  0.5223
 3739TIP3   OH232851   0.037   1.115   2.362 -0.1842 -0.1906  0.5692
 3739TIP3    H132852   0.087   1.182   2.409  0.9013 -0.4905 -0.1242
 3739TIP3    H232853  -0.048   1.114   2.405  0.2925  0.5725  1.5677
 3740TIP3   OH232854   2.612   3.446   2.337 -0.6287  0.5436 -0.3105
 3740TIP3    H132855   2.549   3.499   2.386 -0.5950  0.1941  0.1151
 3740TIP3    H232856   2.559   3.378   2.296 -0.3631 -0.6724  1.2866
 3741TIP3   OH232857   2.912   5.697   1.216 -0.3211 -0.0551  0.3804
 3741TIP3    H132858   3.001   5.705   1.251  0.5215  0.6295 -1.7225
 3741TIP3    H232859   2.886   5.608   1.239  1.4886 -0.7754 -0.1195
 3742TIP3   OH232860   4.565   5.803   1.312 -0.2292  0.4451 -0.0228
 3742TIP3    H132861   4.598   5.878   1.262 -1.1508  0.4612 -0.6200
 3742TIP3    H232862   4.604   5.814   1.399  1.8577  0.1204 -0.8446
 3743TIP3   OH232863   4.102   3.725   8.403  0.1878  0.0255 -0.4297
 3743TIP3    H132864   4.065   3.717   8.315 -0.5335  0.0775 -0.1411
 3743TIP3    H232865   4.166   3.796   8.396 -1.2149  1.3580 -0.5105
 3744TIP3   OH232866   4.026   1.813   3.389  0.4222 -0.6636  0.1998
 3744TIP3    H132867   4.049   1.899   3.422  1.2438 -0.3930 -1.0175
 3744TIP3    H232868   4.075   1.752   3.443 -0.5517 -0.4258  1.4001
 3745TIP3   OH232869   3.032   2.750   2.984  0.1655  0.1627 -0.2821
 3745TIP3    H132870   3.117   2.739   3.026 -0.1052 -2.7521 -0.3331
 3745TIP3    H232871   3.053   2.766   2.891  0.6465  1.3335  0.0064
 3746TIP3   OH232872   2.570   5.721   2.662 -0.3233 -0.2045  0.1494
 3746TIP3    H132873   2.613   5.709   2.577  0.0813 -0.0543  0.3330
 3746TIP3    H232874   2.501   5.655   2.663 -1.5013  0.9309 -1.0532
 3747TIP3   OH232875   5.781   5.011   8.044 -0.1072 -0.3338 -0.3825
 3747TIP3    H132876   5.737   4.988   8.126  0.5646  0.9726  0.3651
 3747TIP3    H232877   5.824   4.929   8.017 -1.2422 -1.0711 -0.0355
 3748TIP3   OH232878   2.971   0.168   2.508  0.4224 -0.2123  0.3703
 3748TIP3    H132879   2.879   0.151   2.491 -0.1206  2.3644  0.2825
 3748TIP3    H232880   3.011   0.174   2.421  0.6040 -0.9425  0.3993
 3749TIP3   OH232881   3.889   4.793   3.773 -0.0215 -0.0690 -0.0614
 3749TIP3    H132882   3.913   4.702   3.755 -0.5033 -0.0758 -0.6830
 3749TIP3    H232883   3.903   4.839   3.691  2.0327  0.8403  0.7202
 3750TIP3   OH232884   3.967   6.139   3.113  0.0620  0.3862  0.2664
 3750TIP3    H132885   4.054   6.121   3.077 -0.6569 -0.3477 -1.1709
 3750TIP3    H232886   3.984   6.167   3.203  2.0846  4.2996 -1.1239
 3751TIP3   OH232887   3.466   1.773   0.919  0.0765  0.2041 -0.1413
 3751TIP3    H132888   3.557   1.770   0.948  0.1268  1.1037 -0.1777
 3751TIP3    H232889   3.471   1.770   0.823  0.0876  0.5529 -0.1530
 3752TIP3   OH232890   1.729   2.446   3.234  0.4442 -0.0550 -0.4235
 3752TIP3    H132891   1.766   2.420   3.319 -2.2871  1.2303  1.3248
 3752TIP3    H232892   1.786   2.516   3.203  0.6099  0.6096  1.2384
 3753TIP3   OH232893   5.394   1.152   0.994  0.2542 -0.2854  0.3904
 3753TIP3    H132894   5.359   1.230   1.037 -0.9762 -0.0395 -0.9756
 3753TIP3    H232895   5.406   1.089   1.065  0.5055  0.8668  1.4065
 3754TIP3   OH232896   5.156   0.641   2.398  0.2868  0.5388 -0.4818
 3754TIP3    H132897   5.081   0.693   2.425 -0.1358 -0.1555 -0.3236
 3754TIP3    H232898   5.138   0.619   2.306  0.3153  0.3852 -0.4495
 3755TIP3   OH232899   0.043   4.473   3.522  0.1516 -0.6059  0.1875
 3755TIP3    H132900   0.128   4.515   3.537 -0.2871  0.0415  0.9825
 3755TIP3    H232901   0.039   4.405   3.589  0.6212 -1.5705 -0.7411
 3756TIP3   OH232902   6.131   2.400   2.747  0.0390  0.3228 -0.5674
 3756TIP3    H132903   6.221   2.425   2.727  0.1199 -0.0510 -0.6716
 3756TIP3    H232904   6.129   2.393   2.842  0.6539 -1.6123 -0.6462
 3757TIP3   OH232905   6.745   3.621   3.008  0.6674 -0.0859 -0.2972
 3757TIP3    H132906   6.662   3.602   3.052  1.1003 -1.5415 -0.0813
 3757TIP3    H232907   6.791   3.679   3.069 -1.2492  3.0465 -1.5897
 3758TIP3   OH232908   3.144   4.431   1.584 -0.0219  0.6170  0.1952
 3758TIP3    H132909   3.181   4.423   1.671 -0.2407  0.9728  0.3228
 3758TIP3    H232910   3.203   4.380   1.528 -1.7645 -2.6729  1.0554
 3759TIP3   OH232911   4.526   5.229   3.947  0.5933  0.3373 -0.2575
 3759TIP3    H132912   4.539   5.298   3.882 -0.7498  1.2807  0.4283
 3759TIP3    H232913   4.470   5.269   4.013 -1.0262 -1.6990 -0.3096
 3760TIP3   OH232914   2.557   4.260   1.631  0.2004  0.6483  0.0353
 3760TIP3    H132915   2.521   4.306   1.708 -2.6521 -0.3530 -0.5556
 3760TIP3    H232916   2.594   4.329   1.577 -1.9374  2.0402  0.2230
 3761TIP3   OH232917   0.872   3.033   8.066  0.2533  0.2152 -0.1943
 3761TIP3    H132918   0.946   3.078   8.108 -0.2476  0.6135  0.2739
 3761TIP3    H232919   0.804   3.100   8.060  0.1242  0.0082 -1.1539
 3762TIP3   OH232920   2.223   2.571   3.980  0.4254 -0.1074 -0.0922
 3762TIP3    H132921   2.254   2.655   4.012 -3.6203  1.6542 -0.2088
 3762TIP3    H232922   2.291   2.508   4.006  2.7505  2.8597  1.5939
 3763TIP3   OH232923   4.799   6.132   2.312  0.1967  0.0359  0.2199
 3763TIP3    H132924   4.859   6.078   2.261 -0.2383 -0.1153 -0.1452
 3763TIP3    H232925   4.716   6.128   2.263  0.2387  1.2794  0.0170
 3764TIP3   OH232926   0.656   0.601   0.145 -0.6537  0.6545  0.3553
 3764TIP3    H132927   0.705   0.566   0.070 -0.5487  2.7489 -0.6357
 3764TIP3    H232928   0.705   0.573   0.222  0.2995  0.0159 -0.4614
 3765TIP3   OH232929   3.049   1.918   1.341  0.4989  0.1162  0.4273
 3765TIP3    H132930   3.037   1.824   1.358  0.6895  0.2988  1.7270
 3765TIP3    H232931   3.139   1.925   1.309 -0.1523 -0.3487 -1.5929
 3766TIP3   OH232932   6.370   4.916   3.068  0.1151 -0.2025 -0.0330
 3766TIP3    H132933   6.391   4.823   3.072  1.4106  0.0781  0.1157
 3766TIP3    H232934   6.290   4.920   3.017 -0.4077 -1.4606  0.6296
 3767TIP3   OH232935   1.444   2.317   1.008 -0.1987  0.3703  0.0180
 3767TIP3    H132936   1.512   2.251   1.000 -1.4048 -1.0284  0.7836
 3767TIP3    H232937   1.367   2.269   1.038 -1.4479  1.9371 -0.5028
 3768TIP3   OH232938   0.203   6.087   3.744  0.0581 -0.0757  0.0182
 3768TIP3    H132939   0.163   6.002   3.761 -0.1015 -0.0895 -0.4081
 3768TIP3    H232940   0.216   6.088   3.649 -1.1866  0.9287 -0.1473
 3769TIP3   OH232941   4.361   1.629   2.610  0.5642 -0.6280  0.0014
 3769TIP3    H132942   4.339   1.536   2.621 -1.4594 -0.1825  0.2577
 3769TIP3    H232943   4.310   1.657   2.534  0.3474  0.4735  0.5220
 3770TIP3   OH232944   3.609   2.874   0.319  0.0986 -0.0973 -0.3768
 3770TIP3    H132945   3.549   2.924   0.264  0.8613 -0.9123 -2.0239
 3770TIP3    H232946   3.554   2.812   0.366 -0.7570  1.6645  1.0501
 3771TIP3   OH232947   4.848   1.164   2.683 -0.2442 -0.0386 -0.4462
 3771TIP3    H132948   4.883   1.075   2.682  0.2584  0.1538 -0.2944
 3771TIP3    H232949   4.802   1.170   2.767  2.9794  1.0548  1.4162
 3772TIP3   OH232950   4.730   4.342   0.131  0.4277 -0.1204  0.3887
 3772TIP3    H132951   4.775   4.426   0.135  0.1998  0.1167 -1.2840
 3772TIP3    H232952   4.700   4.335   0.040 -0.9906 -1.2692  0.9022
 3773TIP3   OH232953   6.529   1.834   2.851 -0.2822 -0.1106  0.1352
 3773TIP3    H132954   6.494   1.793   2.773 -1.0661  0.2012  0.3123
 3773TIP3    H232955   6.620   1.803   2.856  0.4861  1.5193 -2.0783
 3774TIP3   OH232956   2.168   3.875   0.728  0.0912 -0.1044 -0.1786
 3774TIP3    H132957   2.234   3.860   0.661  2.7648  0.0509  2.2612
 3774TIP3    H232958   2.199   3.952   0.776 -0.0898 -1.8827  3.0452
 3775TIP3   OH232959   2.249   0.665   2.344 -0.0832 -0.1717 -0.0706
 3775TIP3    H132960   2.338   0.631   2.338 -0.8306 -2.0145 -1.4653
 3775TIP3    H232961   2.230   0.698   2.256 -1.8413 -2.7165 -0.7248
 3776TIP3   OH232962   6.536   2.521   2.115  0.0808 -0.5638 -0.5041
 3776TIP3    H132963   6.541   2.484   2.203  0.3913  1.9020  0.5985
 3776TIP3    H232964   6.627   2.530   2.088  0.0366  0.0327 -0.4602
 3777TIP3   OH232965   0.812   4.236   0.363  0.3113  0.3919  0.0214
 3777TIP3    H132966   0.718   4.253   0.362  0.4947  1.5904 -2.2294
 3777TIP3    H232967   0.839   4.238   0.271  2.0822 -2.9073  0.3235
 3778TIP3   OH232968   0.147   3.821   3.775  0.5160 -0.4391  0.0240
 3778TIP3    H132969   0.187   3.829   3.861  1.6168 -2.3173 -0.2584
 3778TIP3    H232970   0.063   3.778   3.790 -0.4782  1.5158  0.3791
 3779TIP3   OH232971   4.125   0.179   0.305 -0.5012  0.1851 -0.3864
 3779TIP3    H132972   4.130   0.221   0.219 -0.5018 -0.1783 -0.5691
 3779TIP3    H232973   4.216   0.161   0.328 -0.4176  1.3122  0.2162
 3780TIP3   OH232974   2.557   6.142   0.493  0.3988 -0.1964  0.3942
 3780TIP3    H132975   2.611   6.179   0.423  1.6857  2.1888  2.4552
 3780TIP3    H232976   2.497   6.213   0.516 -0.7499 -1.3325  0.9925
 3781TIP3   OH232977   0.443   2.786   8.725  0.0056 -0.2739 -0.2325
 3781TIP3    H132978   0.451   2.737   8.807 -1.0317 -0.6438 -0.3403
 3781TIP3    H232979   0.366   2.748   8.682 -1.1436  1.7817 -0.0857
 3782TIP3   OH232980   1.640   0.258   0.630 -0.5281 -0.0646  0.4202
 3782TIP3    H132981   1.698   0.221   0.562  1.2484  0.6870  1.4650
 3782TIP3    H232982   1.561   0.282   0.582 -0.7156 -2.6805 -0.7875
 3783TIP3   OH232983   6.355   3.187   1.550 -0.1721  0.2830 -0.2957
 3783TIP3    H132984   6.327   3.253   1.614  0.1462 -0.6397  0.8504
 3783TIP3    H232985   6.443   3.162   1.580  0.7790  1.1628 -2.2174
 3784TIP3   OH232986   6.433   3.392   2.974 -0.1132  0.0813 -0.0044
 3784TIP3    H132987   6.452   3.467   3.031 -1.4017  1.0289 -0.7620
 3784TIP3    H232988   6.497   3.398   2.904 -0.6168  0.8886 -0.4111
 3785TIP3   OH232989   5.780   5.888   2.702 -0.3405  0.4005  0.5240
 3785TIP3    H132990   5.869   5.882   2.738  0.1360  0.5075 -0.6039
 3785TIP3    H232991   5.791   5.929   2.616 -0.7650 -4.0809 -1.9856
 3786TIP3   OH232992   4.319   6.577   8.488  0.1300  0.0675 -0.5809
 3786TIP3    H132993   4.329   6.496   8.438 -0.1174  0.7247 -1.7305
 3786TIP3    H232994   4.321   6.647   8.422  1.1626  1.0706  0.4456
 3787TIP3   OH232995   2.308   1.732   3.682 -0.8125 -0.1272  0.5595
 3787TIP3    H132996   2.243   1.701   3.619 -0.7961  0.6461  0.1567
 3787TIP3    H232997   2.336   1.818   3.649 -1.7053  0.8749  2.2323
 3788TIP3   OH232998   0.906   4.440   8.641 -0.2122 -0.1344 -1.0484
 3788TIP3    H132999   0.916   4.372   8.575  0.8126  0.0105 -1.0546
 3788TIP3    H233000   0.985   4.494   8.633  1.6418 -1.9744  2.3811
 3789TIP3   OH233001   3.985   1.581   0.644 -0.3880 -0.2988 -0.2960
 3789TIP3    H133002   3.961   1.671   0.666 -1.1543 -0.6510  0.3642
 3789TIP3    H233003   4.052   1.590   0.576  2.1301  0.8570  2.1354
 3790TIP3   OH233004   4.870   3.306   2.029  0.1696 -0.5341 -0.0128
 3790TIP3    H133005   4.825   3.290   2.111  0.1873  0.3953  0.1947
 3790TIP3    H233006   4.878   3.402   2.024  0.3540 -0.5842 -0.9888
 3791TIP3   OH233007   3.262   4.962   2.851  0.1133  0.0206  0.2678
 3791TIP3    H133008   3.183   4.912   2.829 -0.6633  0.3773  2.0656
 3791TIP3    H233009   3.262   4.965   2.947  2.4624 -0.1874  0.3352
 3792TIP3   OH233010   4.125   5.365   2.049  0.0791  0.0869 -0.6201
 3792TIP3    H133011   4.125   5.368   1.954  1.0326  1.2851 -0.6096
 3792TIP3    H233012   4.079   5.444   2.076  2.0694  1.1493 -0.1253
 3793TIP3   OH233013   0.535   1.063   1.334  0.5917 -0.2316 -0.7242
 3793TIP3    H133014   0.526   0.990   1.396 -0.5221 -0.3348 -0.9778
 3793TIP3    H233015   0.474   1.129   1.366  0.0385 -0.2657 -1.6568
 3794TIP3   OH233016   3.628   0.357   2.245  0.1006 -0.7099 -0.3306
 3794TIP3    H133017   3.660   0.361   2.335  1.0735 -1.2477 -0.6309
 3794TIP3    H233018   3.549   0.410   2.244  1.5816  1.6508  0.2187
 3795TIP3   OH233019   3.578   0.458   0.685  0.3435  1.0817 -0.1233
 3795TIP3    H133020   3.622   0.388   0.733  0.0110  0.9317 -0.0337
 3795TIP3    H233021   3.487   0.453   0.714  0.8664  3.7327  2.5205
 3796TIP3   OH233022   5.281   1.353   1.161 -0.1843 -0.0075  0.3331
 3796TIP3    H133023   5.342   1.409   1.208  0.4158  0.0720 -0.5162
 3796TIP3    H233024   5.203   1.351   1.215  0.1269  0.8978  0.8238
 3797TIP3   OH233025   4.763   5.757   3.309  0.1733  0.3228 -0.0778
 3797TIP3    H133026   4.800   5.670   3.324  1.2668  0.9473  0.9939
 3797TIP3    H233027   4.712   5.775   3.389 -0.0127  0.6815 -0.2770
 3798TIP3   OH233028   4.633   6.092   0.556  0.0231  0.1461  0.1400
 3798TIP3    H133029   4.549   6.049   0.568  0.4606 -0.7761 -0.0418
 3798TIP3    H233030   4.679   6.038   0.492  1.6437 -0.6513  1.8910
 3799TIP3   OH233031   1.431   6.781   8.641  0.2121 -0.4223 -0.2486
 3799TIP3    H133032   1.437   6.837   8.719  1.6795  0.2221 -0.7720
 3799TIP3    H233033   1.424   6.842   8.568 -0.6841 -1.0098 -0.6627
 3800TIP3   OH233034   2.013   1.200   3.585 -0.4301 -0.1659 -0.3778
 3800TIP3    H133035   1.970   1.165   3.663 -2.4245  0.8499 -0.9462
 3800TIP3    H233036   2.100   1.228   3.615  0.1663 -2.8511  0.6868
 3801TIP3   OH233037   1.871   2.057   0.288  0.0978  0.1818  0.9555
 3801TIP3    H133038   1.792   2.009   0.313  0.5642 -0.3340  1.4707
 3801TIP3    H233039   1.943   1.997   0.309  0.7161  1.2551  1.9904
 3802TIP3   OH233040   5.620   3.576   3.087  0.6448 -0.5038  0.1871
 3802TIP3    H133041   5.552   3.634   3.054 -0.4599 -1.7311  0.2135
 3802TIP3    H233042   5.579   3.532   3.162  2.2610  0.4042  1.6629
 3803TIP3   OH233043   2.575   3.183   0.689 -1.1223  0.0285 -0.3571
 3803TIP3    H133044   2.481   3.167   0.686 -1.3503  1.1245  0.5257
 3803TIP3    H233045   2.614   3.095   0.695 -2.0682 -0.4354 -0.7957
 3804TIP3   OH233046   0.697   5.721   1.633 -0.1510 -0.0468 -0.3856
 3804TIP3    H133047   0.774   5.671   1.606  0.0220 -0.4327  0.7669
 3804TIP3    H233048   0.650   5.662   1.692 -0.3480  0.8631  0.3848
 3805TIP3   OH233049   0.243   2.303   2.909 -0.0296 -0.3401 -0.2322
 3805TIP3    H133050   0.327   2.261   2.892 -0.6252 -1.2947 -0.9192
 3805TIP3    H233051   0.227   2.357   2.831  0.1436  0.1797  0.0895
 3806TIP3   OH233052   3.446   0.760   8.349  0.1868 -1.0594 -0.0981
 3806TIP3    H133053   3.422   0.851   8.366  0.6898 -0.7345 -1.0736
 3806TIP3    H233054   3.513   0.765   8.282  0.2432 -2.1581 -0.1413
 3807TIP3   OH233055   2.524   3.227   1.438 -0.0318  0.5079 -0.1813
 3807TIP3    H133056   2.482   3.231   1.353  0.5842  0.4242 -0.4961
 3807TIP3    H233057   2.458   3.259   1.499  0.0696  2.1072 -0.8832
 3808TIP3   OH233058   0.833   6.057   2.210  0.1304  0.1958  0.1331
 3808TIP3    H133059   0.749   6.093   2.240  0.2343  0.3195  0.2732
 3808TIP3    H233060   0.876   6.028   2.291 -0.3959 -1.2000 -0.0557
 3809TIP3   OH233061   3.888   5.844   3.225  0.0499  0.1150 -0.4735
 3809TIP3    H133062   3.942   5.878   3.153  1.7051 -1.3531 -0.0024
 3809TIP3    H233063   3.878   5.918   3.284 -0.2226  0.9805 -1.5580
 3810TIP3   OH233064   0.057   2.880   8.175 -0.4340 -0.2094  0.4649
 3810TIP3    H133065  -0.023   2.837   8.148  0.2306 -1.3416  0.2484
 3810TIP3    H233066   0.105   2.895   8.094  0.1596 -0.7366  0.7147
 3811TIP3   OH233067   5.124   1.767   0.686 -0.4314 -0.2644  0.0264
 3811TIP3    H133068   5.158   1.678   0.689 -1.0555 -0.5193 -0.2674
 3811TIP3    H233069   5.093   1.784   0.775  0.5116 -0.0032  0.3141
 3812TIP3   OH233070   2.039   3.680   1.195 -0.0360 -0.4034  0.2734
 3812TIP3    H133071   2.126   3.653   1.165 -0.7730 -0.2135 -2.2382
 3812TIP3    H233072   1.981   3.659   1.123 -2.1350 -0.5681  1.9075
 3813TIP3   OH233073   6.239   2.755   0.808 -0.4760  0.0734 -0.0899
 3813TIP3    H133074   6.144   2.765   0.807 -0.5494 -0.5230  0.2185
 3813TIP3    H233075   6.266   2.772   0.717 -0.9988 -0.8204 -0.4227
 3814TIP3   OH233076   5.034   0.324   0.858 -0.7572 -0.2260  0.3630
 3814TIP3    H133077   5.008   0.283   0.775  0.1063 -0.6036  0.2688
 3814TIP3    H233078   4.968   0.295   0.921 -1.2750 -0.1450 -0.1339
 3815TIP3   OH233079   2.208   2.173   7.871  0.1106 -0.0548  0.0647
 3815TIP3    H133080   2.280   2.131   7.823  0.9634  1.1603  0.2496
 3815TIP3    H233081   2.201   2.123   7.952  0.5003 -0.4220 -0.1228
 3816TIP3   OH233082   0.574   5.282   8.509 -0.0072  0.0536  0.2239
 3816TIP3    H133083   0.513   5.281   8.435 -1.0424  0.2829  1.0594
 3816TIP3    H233084   0.524   5.247   8.582  1.6446 -2.2057  0.3615
 3817TIP3   OH233085   0.518   0.725   2.569 -0.0516  0.4991  0.1272
 3817TIP3    H133086   0.529   0.812   2.529 -0.1053  0.2255 -0.4969
 3817TIP3    H233087   0.499   0.743   2.661  2.0050  1.1134  0.5030
 3818TIP3   OH233088   5.518   3.206   1.381 -1.0563 -0.3756  0.2456
 3818TIP3    H133089   5.445   3.183   1.323 -0.4100 -0.2745 -0.6260
 3818TIP3    H233090   5.483   3.276   1.436 -1.0221  1.1139 -1.5305
 3819TIP3   OH233091   1.941   2.057   1.754 -0.5915 -0.1743 -0.4272
 3819TIP3    H133092   1.942   2.117   1.829 -2.4550 -0.2103 -0.3366
 3819TIP3    H233093   1.883   1.986   1.781 -1.5529 -0.0390 -2.0078
 3820TIP3   OH233094   3.401   3.866   1.235  0.9015 -0.3380 -0.2078
 3820TIP3    H133095   3.449   3.873   1.318  0.7158 -0.2740 -0.1051
 3820TIP3    H233096   3.413   3.775   1.208  2.1455 -0.0006 -0.8346
 3821TIP3   OH233097   0.645   6.259   3.934 -0.6134  0.4552  0.6227
 3821TIP3    H133098   0.646   6.166   3.959 -0.1156  0.3917  0.3832
 3821TIP3    H233099   0.622   6.304   4.015 -0.5735  0.1406  0.8134
 3822TIP3   OH233100   4.706   1.033   8.478 -0.1529  0.2107 -0.1280
 3822TIP3    H133101   4.661   1.115   8.460 -1.2440 -0.6525 -1.6261
 3822TIP3    H233102   4.647   0.986   8.537  0.7092  0.6765  1.1463
 3823TIP3   OH233103   2.499   2.754   1.678  0.1251  0.2253  0.6243
 3823TIP3    H133104   2.485   2.704   1.597 -2.2913  1.7489  0.0202
 3823TIP3    H233105   2.557   2.826   1.652 -1.0850  1.0266  0.0777
 3824TIP3   OH233106   3.875   6.095   0.383 -0.3856  0.0837  0.1660
 3824TIP3    H133107   3.853   6.038   0.310  0.9040 -1.1524  0.6840
 3824TIP3    H233108   3.798   6.151   0.395 -1.2923 -0.8716 -1.0058
 3825TIP3   OH233109   3.086   3.331   0.613 -0.3441  0.2498 -0.0037
 3825TIP3    H133110   3.020   3.294   0.553  2.2423 -1.7352 -1.8540
 3825TIP3    H233111   3.131   3.397   0.560 -0.3653  1.1017  1.0180
 3826TIP3   OH233112   0.186   6.079   2.147 -0.6909  0.2183  0.0263
 3826TIP3    H133113   0.200   6.081   2.242  0.1199 -1.6522 -0.0154
 3826TIP3    H233114   0.260   6.127   2.111 -0.6594  0.3918  0.3198
 3827TIP3   OH233115   2.273   5.111   2.580 -0.1725  0.3119  0.4067
 3827TIP3    H133116   2.253   5.161   2.500 -2.3810 -0.7643  0.2029
 3827TIP3    H233117   2.187   5.096   2.621  0.7776 -0.3380  2.2779
 3828TIP3   OH233118   4.963   0.716   0.641 -0.9537 -0.0369 -0.0180
 3828TIP3    H133119   4.896   0.649   0.655 -0.5470 -0.6575 -0.8991
 3828TIP3    H233120   5.038   0.686   0.693 -1.0148  0.1058  0.1505
 3829TIP3   OH233121   0.469   0.194   0.789 -0.2945 -0.2607  0.3047
 3829TIP3    H133122   0.397   0.247   0.756 -0.3501 -0.6623 -0.2289
 3829TIP3    H233123   0.450   0.183   0.883  0.2325  1.4742  0.6568
 3830TIP3   OH233124   0.967   0.993   0.567 -0.4813  0.0707 -0.1801
 3830TIP3    H133125   0.990   1.085   0.556 -0.0823  0.4243  2.7269
 3830TIP3    H233126   0.875   0.987   0.541 -0.8859  1.6006  0.8118
 3831TIP3   OH233127   2.588   4.503   8.524  0.0171  0.8834  0.6116
 3831TIP3    H133128   2.644   4.482   8.600 -2.5328 -2.2588  1.8592
 3831TIP3    H233129   2.509   4.540   8.562 -1.0770 -0.2207 -0.4947
 3832TIP3   OH233130   2.930   4.105   0.851 -0.2919 -0.2033  0.3224
 3832TIP3    H133131   2.965   4.138   0.769  0.4191  1.2805  1.1839
 3832TIP3    H233132   2.995   4.040   0.880 -1.2444 -1.7991 -0.9278
 3833TIP3   OH233133   1.831   2.744   1.195 -0.1073 -0.5548  0.3396
 3833TIP3    H133134   1.889   2.766   1.267 -0.0365 -2.7643  1.0238
 3833TIP3    H233135   1.787   2.827   1.173  1.5756  0.6507  1.3290
 3834TIP3   OH233136   5.484   1.757   1.217 -0.0225  0.0548 -0.3859
 3834TIP3    H133137   5.550   1.825   1.198  0.5763 -0.7404 -1.2378
 3834TIP3    H233138   5.522   1.677   1.180 -1.1566 -0.5557 -0.2423
 3835TIP3   OH233139   5.611   6.003   8.066 -0.2971 -0.6590  0.2179
 3835TIP3    H133140   5.529   5.956   8.083 -2.0154  1.5308 -1.4973
 3835TIP3    H233141   5.605   6.082   8.119  0.1748  0.0397 -0.7394
 3836TIP3   OH233142   6.541   3.106   8.542 -1.2675  0.4733  0.1175
 3836TIP3    H133143   6.456   3.141   8.570 -1.7262 -0.6490  0.1878
 3836TIP3    H233144   6.587   3.085   8.624 -1.6919 -0.6748  0.0771
 3837TIP3   OH233145   3.536   2.880   1.237 -0.7535 -0.3352 -0.2401
 3837TIP3    H133146   3.525   2.896   1.143 -0.3866 -0.8139 -0.3671
 3837TIP3    H233147   3.555   2.787   1.243  0.7641 -0.0212  0.1732
 3838TIP3   OH233148   1.381   5.820   0.562 -0.1057 -0.0504 -0.2036
 3838TIP3    H133149   1.287   5.839   0.561 -0.0803  0.0647 -0.4920
 3838TIP3    H233150   1.420   5.895   0.605  0.0735  0.9606 -2.0090
 3839TIP3   OH233151   6.496   5.238   3.725 -0.5785  1.0583  0.0785
 3839TIP3    H133152   6.468   5.328   3.708 -1.4220  1.0940  1.5308
 3839TIP3    H233153   6.503   5.232   3.820  1.2867  0.1010 -0.0770
 3840TIP3   OH233154   1.041   5.109   0.206  0.2886 -0.0292  0.2638
 3840TIP3    H133155   1.016   5.190   0.251 -1.2612  0.3939 -1.2561
 3840TIP3    H233156   1.014   5.039   0.266 -1.0709  0.5371  0.3531
 3841TIP3   OH233157   3.196   4.577   2.775  0.0527  0.1695  0.0625
 3841TIP3    H133158   3.172   4.604   2.686 -0.1665 -0.5928 -0.1190
 3841TIP3    H233159   3.137   4.626   2.832  0.4427  0.9399 -0.1899
 3842TIP3   OH233160   2.045   4.590   2.428  0.3459 -0.6136  0.2279
 3842TIP3    H133161   1.973   4.550   2.379  0.1630  0.0275 -0.0328
 3842TIP3    H233162   2.066   4.526   2.496 -0.9440 -0.5167  0.7476
 3843TIP3   OH233163   6.116   6.771   0.570 -0.3334  0.7798 -0.0728
 3843TIP3    H133164   6.065   6.837   0.523  0.1288  0.7659 -0.6185
 3843TIP3    H233165   6.110   6.693   0.515 -0.2434  0.6008  0.1734
 3844TIP3   OH233166   1.484   5.746   3.305 -0.3127  0.1645  0.0273
 3844TIP3    H133167   1.525   5.823   3.342  1.0117 -0.1766 -0.6519
 3844TIP3    H233168   1.454   5.695   3.380  1.4934 -0.0727  0.6357
 3845TIP3   OH233169   4.254   1.195   0.003  0.1997  0.2166  0.1283
 3845TIP3    H133170   4.282   1.112   0.041 -1.3698 -0.3917  0.0202
 3845TIP3    H233171   4.302   1.201  -0.080  0.6179 -0.3792  0.3225
 3846TIP3   OH233172   1.418   5.245   1.609 -0.5174  0.6107 -0.2173
 3846TIP3    H133173   1.402   5.177   1.676 -0.3313  0.2435 -0.5418
 3846TIP3    H233174   1.514   5.248   1.601 -0.5597  0.0975 -1.0250
 3847TIP3   OH233175   6.582   4.539   3.672  0.3865  0.0187 -0.2943
 3847TIP3    H133176   6.616   4.625   3.695 -1.1767  0.3332  1.0472
 3847TIP3    H233177   6.622   4.480   3.736  0.4163 -0.0157 -0.3456
 3848TIP3   OH233178   4.247   1.184   0.897 -0.5586  0.6645 -0.1059
 3848TIP3    H133179   4.176   1.122   0.907 -0.2368  0.4218  0.7277
 3848TIP3    H233180   4.258   1.193   0.802 -0.5781 -0.5741 -0.2334
 3849TIP3   OH233181   0.983   2.226   2.294  0.2473  0.1650  0.5716
 3849TIP3    H133182   0.889   2.209   2.307  0.0902  0.0375 -0.6779
 3849TIP3    H233183   0.987   2.279   2.215  1.2842 -0.4816  0.1739
 3850TIP3   OH233184   0.689   0.200   0.394 -0.1605  0.5564  0.1593
 3850TIP3    H133185   0.685   0.222   0.301  1.9091 -0.2452 -0.1720
 3850TIP3    H233186   0.645   0.273   0.438  0.5018  1.9180 -1.3250
 3851TIP3   OH233187   5.113   4.185   0.701 -0.2646 -0.5732 -0.3675
 3851TIP3    H133188   5.066   4.193   0.784  0.9201 -0.5159  0.3252
 3851TIP3    H233189   5.045   4.185   0.634 -1.1953  0.1664  0.5560
 3852TIP3   OH233190   6.102   3.690   8.443  0.0745  0.0206 -0.3052
 3852TIP3    H133191   6.052   3.659   8.368  0.3704  1.9882 -1.3682
 3852TIP3    H233192   6.040   3.686   8.516 -0.5654 -0.8148 -0.8740
 3853TIP3   OH233193   1.189   2.946   2.202 -0.3087  0.1424 -0.0105
 3853TIP3    H133194   1.211   2.891   2.127  0.2913 -0.1045  0.3354
 3853TIP3    H233195   1.163   2.883   2.270  1.2211  0.2146  0.6652
 3854TIP3   OH233196   1.096   1.937   2.462  0.2525  0.4004  0.3481
 3854TIP3    H133197   1.142   1.942   2.378 -0.2690 -0.3353  0.0056
 3854TIP3    H233198   1.154   1.981   2.524  0.0999  2.0568 -0.6210
 3855TIP3   OH233199   5.946   0.506   7.783 -0.0638 -0.1151  0.2270
 3855TIP3    H133200   5.902   0.495   7.867  0.9498 -0.0818  0.7736
 3855TIP3    H233201   6.034   0.471   7.797  0.0711 -0.2573 -0.8675
 3856TIP3   OH233202   1.774   0.951   1.558 -0.4673  1.0209 -0.2172
 3856TIP3    H133203   1.687   0.977   1.589 -0.9867  0.4026 -1.1119
 3856TIP3    H233204   1.781   0.989   1.471  0.2232  1.1795 -0.1012
 3857TIP3   OH233205   2.158   6.137   0.512  0.0902  0.5813  1.1301
 3857TIP3    H133206   2.103   6.095   0.578 -1.0410 -0.8940 -0.6672
 3857TIP3    H233207   2.235   6.081   0.506  0.5413  1.1278  1.6952
 3858TIP3   OH233208   6.685   3.821   1.721  0.7067 -0.0877 -0.3888
 3858TIP3    H133209   6.690   3.866   1.805  0.4752 -1.2181  0.2474
 3858TIP3    H233210   6.595   3.790   1.715  1.0107 -0.9680 -0.5393
 3859TIP3   OH233211   2.168   3.312   4.296  0.0060 -0.0427  0.2607
 3859TIP3    H133212   2.086   3.314   4.345  0.5204  1.1005  1.1297
 3859TIP3    H233213   2.185   3.404   4.274  2.5554  0.2017  2.7528
 3860TIP3   OH233214   4.164   1.648   0.432  0.0840  0.1364 -0.1326
 3860TIP3    H133215   4.242   1.593   0.436  0.1323  0.2444  2.3039
 3860TIP3    H233216   4.196   1.734   0.406  0.7726  0.1033  0.5437
 3861TIP3   OH233217   5.001   5.082   2.046 -0.4732  0.5607 -0.0986
 3861TIP3    H133218   5.006   5.166   2.001 -0.2252  1.5623  1.7131
 3861TIP3    H233219   4.908   5.073   2.069 -0.3611  0.7358  0.4260
 3862TIP3   OH233220   0.351   0.695   0.234 -0.0739  0.5262  0.1258
 3862TIP3    H133221   0.315   0.642   0.164 -2.4928 -0.6061  2.0766
 3862TIP3    H233222   0.308   0.780   0.226  0.0488  0.5712 -0.0564
 3863TIP3   OH233223   6.210   6.377   1.087  0.4606 -0.4360  0.5109
 3863TIP3    H133224   6.208   6.472   1.098  3.1637 -0.3450  1.0044
 3863TIP3    H233225   6.257   6.364   1.004 -0.8920 -1.3474 -0.1368
 3864TIP3   OH233226   1.790   5.747   3.628 -0.5498  0.0163 -0.0438
 3864TIP3    H133227   1.840   5.829   3.634  0.9078 -0.5519 -2.8427
 3864TIP3    H233228   1.775   5.721   3.719  0.1634  2.6367  0.9040
 3865TIP3   OH233229   1.670   3.785   2.553 -0.5389  0.0585 -0.0370
 3865TIP3    H133230   1.617   3.722   2.603  0.2816 -0.6412 -0.0296
 3865TIP3    H233231   1.688   3.855   2.615  0.0589 -0.5710  0.5149
 3866TIP3   OH233232   0.200   5.562   4.213  0.3578 -0.0766 -0.2837
 3866TIP3    H133233   0.150   5.511   4.276  0.5529  0.3720  0.2424
 3866TIP3    H233234   0.291   5.543   4.234  0.4484  0.8470  0.2408
 3867TIP3   OH233235   6.779   2.379   3.208 -0.7616 -0.7159  0.2651
 3867TIP3    H133236   6.735   2.358   3.291  0.0857 -0.2662  0.8510
 3867TIP3    H233237   6.790   2.474   3.211  2.0270 -0.9699  1.1099
 3868TIP3   OH233238   1.263   4.022   2.241  0.0875 -0.1182  0.2069
 3868TIP3    H133239   1.298   3.996   2.326  3.2047 -1.6933 -1.3816
 3868TIP3    H233240   1.215   3.945   2.210  0.8233 -0.3783 -0.3240
 3869TIP3   OH233241   5.432   1.491   8.789 -0.1884  0.0954 -0.3037
 3869TIP3    H133242   5.352   1.506   8.839  0.2423  0.9592  0.1502
 3869TIP3    H233243   5.409   1.514   8.699 -0.2614  1.0917 -0.0484
 3870TIP3   OH233244   2.248   3.830   1.886 -0.0560 -0.1481  0.2508
 3870TIP3    H133245   2.233   3.743   1.849  0.0826  0.1681 -0.5875
 3870TIP3    H233246   2.276   3.814   1.976 -1.7987 -0.8959  0.7030
 3871TIP3   OH233247   6.734   4.368   0.395 -0.1605  0.0738  0.2172
 3871TIP3    H133248   6.750   4.299   0.460 -2.1800 -0.1404  0.5448
 3871TIP3    H233249   6.683   4.434   0.442 -0.8008  0.3861 -0.8941
 3872TIP3   OH233250   0.318   3.194   2.789  0.2435  0.1920 -0.1872
 3872TIP3    H133251   0.260   3.226   2.719  0.4909 -0.2408 -0.5939
 3872TIP3    H233252   0.296   3.249   2.864  0.4419  1.1170 -0.7842
 3873TIP3   OH233253   6.326   2.854   3.118  0.4919 -0.2723 -0.1557
 3873TIP3    H133254   6.290   2.878   3.203  0.8087  0.7455 -0.3008
 3873TIP3    H233255   6.371   2.932   3.087  1.9841 -1.1931 -0.4349
 3874TIP3   OH233256   3.991   5.985   2.677 -0.1348  0.1755  0.0265
 3874TIP3    H133257   4.022   5.902   2.640  1.4425 -0.5454  2.7496
 3874TIP3    H233258   4.058   6.049   2.650  0.4227 -0.1213  0.6910
 3875TIP3   OH233259   0.650   5.995   3.957 -0.1461 -0.1611 -0.2269
 3875TIP3    H133260   0.583   5.932   3.930 -0.5302 -0.1047  0.5753
 3875TIP3    H233261   0.733   5.951   3.941 -0.4061 -0.7663  0.0618
 3876TIP3   OH233262   1.683   2.264   2.952  0.7449 -0.2643  0.2622
 3876TIP3    H133263   1.632   2.340   2.923 -0.2086 -0.7101  0.6991
 3876TIP3    H233264   1.774   2.292   2.945  0.4829  0.3492 -1.1516
 3877TIP3   OH233265   6.300   4.196   8.510  0.1156 -0.0362 -0.2708
 3877TIP3    H133266   6.237   4.225   8.576 -0.5925  0.2462 -1.0525
 3877TIP3    H233267   6.385   4.213   8.550 -0.2937  0.4815  0.4158
 3878TIP3   OH233268   5.330   2.108   3.743 -0.1883 -0.6748 -0.5914
 3878TIP3    H133269   5.265   2.093   3.675 -0.2318  1.2606 -1.0296
 3878TIP3    H233270   5.317   2.199   3.769  3.7326  0.5572 -2.2483
 3879TIP3   OH233271   0.600   0.895   0.243  0.0402 -0.0472 -0.1107
 3879TIP3    H133272   0.652   0.815   0.244  0.4959  0.2136 -1.2221
 3879TIP3    H233273   0.510   0.866   0.226  0.4020 -0.2598 -1.8825
 3880TIP3   OH233274   6.246   1.556   1.316  0.0317 -0.3312  0.3516
 3880TIP3    H133275   6.185   1.542   1.389  0.7982 -1.5185  0.8064
 3880TIP3    H233276   6.327   1.585   1.358  0.2794 -0.3908 -0.0814
 3881TIP3   OH233277   0.086   4.827   1.916  0.0619 -0.3546  0.0747
 3881TIP3    H133278   0.116   4.800   2.002 -0.3438 -0.7483  0.0927
 3881TIP3    H233279   0.125   4.914   1.904 -0.4308 -0.0003  0.9381
 3882TIP3   OH233280   2.602   1.371   0.528  0.5628  0.5851 -0.4648
 3882TIP3    H133281   2.617   1.299   0.589  0.0604 -0.1435 -1.1950
 3882TIP3    H233282   2.585   1.447   0.585 -1.2161 -0.3460  0.3213
 3883TIP3   OH233283   5.941   6.510   1.380 -0.3754  0.0865 -0.1603
 3883TIP3    H133284   5.907   6.508   1.469  1.0948 -0.9954  0.4065
 3883TIP3    H233285   5.944   6.419   1.352  1.2295  0.1990 -0.4809
 3884TIP3   OH233286   4.388   4.426   3.086  0.1734  0.4787 -0.3375
 3884TIP3    H133287   4.293   4.413   3.095  0.0171  0.6835 -1.6121
 3884TIP3    H233288   4.426   4.352   3.133 -0.6547 -0.9697 -1.8432
 3885TIP3   OH233289   1.222   2.232   8.437  0.2509  0.5320 -0.1669
 3885TIP3    H133290   1.281   2.177   8.489  0.3007 -0.3004 -1.0777
 3885TIP3    H233291   1.134   2.205   8.463  0.2129 -1.7936 -2.3379
 3886TIP3   OH233292   6.382   4.159   2.442  0.1771  0.3819  0.1924
 3886TIP3    H133293   6.469   4.157   2.402 -0.3401 -1.8125 -1.0041
 3886TIP3    H233294   6.322   4.144   2.369 -1.2695  2.0535  0.9613
 3887TIP3   OH233295   2.519   0.005   0.362 -0.4420 -0.1301  0.4261
 3887TIP3    H133296   2.581   0.072   0.334 -0.4232 -0.0023  0.7736
 3887TIP3    H233297   2.492   0.031   0.450  0.4136 -1.1691  1.0282
 3888TIP3   OH233298   2.568   3.250   8.142  0.1349  0.0896 -0.2861
 3888TIP3    H133299   2.655   3.278   8.111 -0.2922  1.7306 -0.0584
 3888TIP3    H233300   2.587   3.194   8.217  1.1964 -3.6410 -2.9821
 3889TIP3   OH233301   0.635   5.141   3.052 -0.0823  0.0509  0.6573
 3889TIP3    H133302   0.542   5.127   3.067 -0.0631  1.3820  2.3934
 3889TIP3    H233303   0.639   5.212   2.989 -0.2533  0.3423  0.9721
 3890TIP3   OH233304   5.003   3.691   3.228  0.0190 -0.6263  0.1007
 3890TIP3    H133305   4.973   3.617   3.282 -0.3787  0.6459  1.6876
 3890TIP3    H233306   4.940   3.760   3.245  0.1029 -0.0427 -1.7548
 3891TIP3   OH233307   1.421   4.976   0.751  0.4299 -0.3377 -0.2222
 3891TIP3    H133308   1.434   4.891   0.794  1.7722  0.4085  0.9406
 3891TIP3    H233309   1.503   5.024   0.767 -0.8094  1.7046  0.4290
 3892TIP3   OH233310   6.490   5.713   1.655  0.2795 -0.2707 -0.4249
 3892TIP3    H133311   6.583   5.732   1.645  0.2701 -0.2122 -0.4029
 3892TIP3    H233312   6.447   5.767   1.589  0.2333 -0.0368 -0.2046
 3893TIP3   OH233313   2.129   6.357   3.330  0.2999 -0.2084 -0.6459
 3893TIP3    H133314   2.122   6.352   3.234  1.5114 -1.9307 -0.6928
 3893TIP3    H233315   2.039   6.357   3.360 -0.1152  0.9414 -1.7994
 3894TIP3   OH233316   3.210   1.236   2.167 -0.3842 -0.2328 -0.6427
 3894TIP3    H133317   3.149   1.283   2.110 -0.6789  0.8416  0.5305
 3894TIP3    H233318   3.155   1.183   2.223 -0.1912  0.0515 -0.1822
 3895TIP3   OH233319   4.142   5.658   1.228 -0.1367  0.1698 -0.2199
 3895TIP3    H133320   4.215   5.609   1.267 -0.3284 -0.7008 -0.9472
 3895TIP3    H233321   4.179   5.745   1.212  1.3053 -0.7276 -2.1508
 3896TIP3   OH233322   1.226   6.484   0.166  0.3181  0.0011 -0.4788
 3896TIP3    H133323   1.242   6.519   0.079  2.5840 -0.4000 -0.2733
 3896TIP3    H233324   1.239   6.558   0.225 -0.8920  0.1959 -0.4364
 3897TIP3   OH233325   2.770   0.844   7.663  0.0794  0.0234 -0.2607
 3897TIP3    H133326   2.724   0.762   7.678  0.6616 -0.5492 -1.4478
 3897TIP3    H233327   2.861   0.818   7.649  0.2735  0.8731 -0.6271
 3898TIP3   OH233328   5.607   3.009   8.375  0.6922 -0.1587  0.4673
 3898TIP3    H133329   5.525   3.046   8.343  0.2353  0.3272  2.1128
 3898TIP3    H233330   5.665   3.010   8.299 -1.2867 -2.0499 -1.2302
 3899TIP3   OH233331   0.596   6.449   0.361 -0.5483 -0.0651  0.4370
 3899TIP3    H133332   0.555   6.487   0.438 -0.4538 -0.4590  0.6805
 3899TIP3    H233333   0.632   6.366   0.391  1.7612  0.9254  0.6272
 3900TIP3   OH233334   0.795   2.304   7.961 -0.8129  0.9542  0.2633
 3900TIP3    H133335   0.772   2.225   7.913 -1.1271  0.6908  0.8408
 3900TIP3    H233336   0.763   2.376   7.906 -0.4533  0.6908 -0.2994
 3901TIP3   OH233337   0.775   0.279   3.516  0.1771 -0.2921 -0.0714
 3901TIP3    H133338   0.855   0.227   3.519  0.4726 -0.3047 -3.4941
 3901TIP3    H233339   0.806   0.370   3.522  0.2809 -0.3355  0.0607
 3902TIP3   OH233340   4.891   5.026   0.494 -0.0210 -0.3391 -0.1981
 3902TIP3    H133341   4.843   4.991   0.419  0.2479 -1.0932 -0.0224
 3902TIP3    H233342   4.939   5.101   0.458  0.3857 -0.9095 -0.8645
 3903TIP3   OH233343   3.858   2.445   2.313  0.0109 -0.1719  0.2334
 3903TIP3    H133344   3.805   2.369   2.289  0.1406  0.2786 -1.6470
 3903TIP3    H233345   3.794   2.515   2.330 -0.2155 -1.0538  3.7584
 3904TIP3   OH233346   6.374   6.661   0.559  0.0742 -0.2640  0.1747
 3904TIP3    H133347   6.282   6.676   0.581  0.5749 -0.0340  2.3201
 3904TIP3    H233348   6.376   6.661   0.463 -2.1272 -0.1706  0.0772
 3905TIP3   OH233349   2.537   4.370   3.522 -0.3822  0.2474 -0.8764
 3905TIP3    H133350   2.465   4.431   3.536 -0.2959 -0.3549  3.6161
 3905TIP3    H233351   2.604   4.398   3.584  0.4746 -3.1576 -0.0860
 3906TIP3   OH233352   4.871   0.426   8.057 -0.1309 -0.2511 -0.4774
 3906TIP3    H133353   4.878   0.350   8.116  2.7754  0.0481 -0.3334
 3906TIP3    H233354   4.942   0.483   8.083 -1.4770  1.9891 -1.4538
 3907TIP3   OH233355   4.153   3.655   0.346  0.3912 -0.3067  0.4308
 3907TIP3    H133356   4.071   3.700   0.326 -0.2345 -1.1676  1.0009
 3907TIP3    H233357   4.203   3.718   0.398 -0.3049 -0.1170  0.8834
 3908TIP3   OH233358   2.687   4.824   2.332  0.1103  0.8703  0.6663
 3908TIP3    H133359   2.659   4.733   2.347  1.7222  0.7655  3.9983
 3908TIP3    H233360   2.614   4.877   2.364  0.7905  0.6470  2.7168
 3909TIP3   OH233361   2.365   6.248   0.749  0.3020 -0.0328 -0.0601
 3909TIP3    H133362   2.359   6.259   0.655  2.3525 -1.9432 -0.4781
 3909TIP3    H233363   2.457   6.259   0.770  0.0395 -0.5570  1.5848
 3910TIP3   OH233364   0.796   4.596   0.354 -0.0234  0.0822  0.1925
 3910TIP3    H133365   0.821   4.542   0.279  0.2383 -1.0272  1.0516
 3910TIP3    H233366   0.847   4.561   0.427 -0.7693  0.6987  1.0333
 3911TIP3   OH233367   5.097   1.392   1.845 -0.1166  0.4086 -0.0000
 3911TIP3    H133368   5.123   1.372   1.935 -1.7169 -0.5858  0.2742
 3911TIP3    H233369   5.004   1.416   1.852 -0.2051  0.5047 -1.3656
 3912TIP3   OH233370   6.044   5.206   1.490  0.4193 -0.2525 -0.5321
 3912TIP3    H133371   5.972   5.153   1.525 -0.6829  0.8975 -1.0078
 3912TIP3    H233372   6.012   5.238   1.406 -0.4715  4.0327  1.1605
 3913TIP3   OH233373   0.249   2.244   2.426 -0.1804 -0.5522 -0.0624
 3913TIP3    H133374   0.325   2.192   2.454 -0.6399 -1.3220 -0.2132
 3913TIP3    H233375   0.196   2.183   2.374 -0.9766 -0.0624  0.1596
 3914TIP3   OH233376   1.117   6.404   2.901 -0.1454  0.6698 -0.3470
 3914TIP3    H133377   1.062   6.355   2.962 -0.1533  1.2179  0.0943
 3914TIP3    H233378   1.157   6.337   2.846 -1.0017  0.2366 -0.4657
 3915TIP3   OH233379   3.270   6.474   1.506 -0.2057  0.0594 -0.0657
 3915TIP3    H133380   3.222   6.485   1.424 -0.0474  0.8831 -0.0526
 3915TIP3    H233381   3.223   6.403   1.551  0.5877 -1.4461 -1.5025
 3916TIP3   OH233382   3.645   5.674   2.137 -0.1159 -0.1954 -0.2175
 3916TIP3    H133383   3.551   5.691   2.137 -0.0394  0.2643 -1.3651
 3916TIP3    H233384   3.685   5.758   2.120  0.4357 -0.6538 -1.2822
 3917TIP3   OH233385   1.070   2.356   3.526  0.1253 -0.5411  0.4380
 3917TIP3    H133386   1.016   2.288   3.566 -1.6980  0.3603 -0.3412
 3917TIP3    H233387   1.086   2.325   3.437  1.7466 -1.2371  0.9466
 3918TIP3   OH233388   0.970   0.247   8.059  0.1806 -0.1660  0.4503
 3918TIP3    H133389   0.972   0.336   8.024  2.3459  0.2413  1.4549
 3918TIP3    H233390   0.964   0.259   8.154  1.1127 -1.0723  0.6294
 3919TIP3   OH233391   5.270   1.463   2.407  0.7575 -0.0714 -0.1312
 3919TIP3    H133392   5.216   1.527   2.452  1.2375 -1.1170  2.0558
 3919TIP3    H233393   5.280   1.498   2.318 -3.5350  0.1598 -0.7407
 3920TIP3   OH233394   5.495   0.324   3.017 -0.4855  0.6105  0.9026
 3920TIP3    H133395   5.523   0.413   2.996 -0.2684  0.1586 -0.9357
 3920TIP3    H233396   5.425   0.306   2.954  0.4265 -0.9851  0.2798
 3921TIP3   OH233397   5.674   5.114   2.321 -0.2384  0.1926  0.8737
 3921TIP3    H133398   5.746   5.095   2.261  0.1682  1.3705  0.9625
 3921TIP3    H233399   5.602   5.060   2.289  0.8760 -1.6359  1.2679
 3922TIP3   OH233400   5.031   1.397   3.718 -0.3823 -0.6248 -0.2871
 3922TIP3    H133401   5.071   1.318   3.753 -1.1776 -1.0135 -0.2427
 3922TIP3    H233402   4.936   1.383   3.726 -0.6549  1.8388  3.2722
 3923TIP3   OH233403   3.379   3.024   2.347  0.1740  0.1159 -0.6929
 3923TIP3    H133404   3.303   2.967   2.351  0.4563 -0.2096  0.6647
 3923TIP3    H233405   3.347   3.109   2.376  0.3832 -0.0996  0.1906
 3924TIP3   OH233406   1.867   4.180   1.954 -0.1246 -0.3936  0.0467
 3924TIP3    H133407   1.890   4.094   1.919  1.8436  0.2222 -0.3102
 3924TIP3    H233408   1.905   4.242   1.891 -0.7795  0.7406  0.7333
 3925TIP3   OH233409   3.564   5.670   1.809  0.6290 -0.0767  0.1905
 3925TIP3    H133410   3.543   5.583   1.843 -0.1814 -0.7127 -1.7578
 3925TIP3    H233411   3.575   5.656   1.715 -0.4925  2.1101 -0.3173
 3926TIP3   OH233412   0.728   1.711   0.594  0.8374  0.5592 -0.4978
 3926TIP3    H133413   0.776   1.689   0.514 -0.2689 -1.9532 -0.5846
 3926TIP3    H233414   0.796   1.740   0.655  2.1256 -0.3774 -1.4125
 3927TIP3   OH233415   5.790   1.441   2.253  0.3317 -0.3302  0.4705
 3927TIP3    H133416   5.769   1.534   2.261  0.9087 -0.0452 -1.0063
 3927TIP3    H233417   5.870   1.430   2.304  1.3060  0.4116 -0.8212
 3928TIP3   OH233418   0.918   6.645   8.318  0.2723 -0.3953 -0.1503
 3928TIP3    H133419   0.921   6.610   8.228  2.4240 -2.0445  0.4796
 3928TIP3    H233420   0.830   6.624   8.348 -0.0975 -0.8829 -1.4812
 3929TIP3   OH233421   5.139   6.289   1.519 -0.4977  0.4852 -0.0878
 3929TIP3    H133422   5.046   6.272   1.535 -0.2239 -1.0222  0.0218
 3929TIP3    H233423   5.174   6.313   1.605 -0.9385  1.9166 -0.2869
 3930TIP3   OH233424   1.155   1.605   1.046 -0.0550  0.0531  0.4671
 3930TIP3    H133425   1.191   1.553   1.118  0.6384  0.5592  0.4927
 3930TIP3    H233426   1.231   1.629   0.994 -0.3289  1.2891  0.6126
 3931TIP3   OH233427   5.053   4.276   2.028 -0.2175 -0.2942  0.2363
 3931TIP3    H133428   4.972   4.308   1.987 -1.4431 -2.4111  0.8531
 3931TIP3    H233429   5.112   4.260   1.954 -0.9053 -0.1663 -0.3594
 3932TIP3   OH233430   0.917   0.691   8.361  0.0576  0.0648  0.1627
 3932TIP3    H133431   0.881   0.607   8.387 -0.7093  0.5919  0.8709
 3932TIP3    H233432   1.009   0.688   8.388 -0.5482  0.3588  2.5131
 3933TIP3   OH233433   1.225   1.400   8.038 -0.0520  0.1126 -0.1161
 3933TIP3    H133434   1.248   1.492   8.045  0.9591 -0.2201  1.4638
 3933TIP3    H233435   1.154   1.388   8.101 -1.1794  0.0972 -1.3692
 3934TIP3   OH233436   5.894   5.998   3.045 -1.1134 -0.9790 -0.2117
 3934TIP3    H133437   5.821   6.057   3.066 -0.6312  0.1313 -1.5493
 3934TIP3    H233438   5.947   5.995   3.125 -0.9901  0.6408 -0.2099
 3935TIP3   OH233439   0.617   1.944   1.007 -0.3064 -0.4496 -0.7045
 3935TIP3    H133440   0.681   2.006   1.041 -1.1364  0.5187 -0.8261
 3935TIP3    H233441   0.633   1.863   1.055 -0.6350  0.5034  1.0954
 3936TIP3   OH233442   5.794   3.006   0.399 -0.0084  0.6479  0.3886
 3936TIP3    H133443   5.714   3.056   0.414 -0.6212  0.6474 -2.4903
 3936TIP3    H233444   5.792   2.937   0.465 -1.2047  1.9570  1.7999
 3937TIP3   OH233445   1.750   0.947   3.616  0.3359  0.4949  0.2722
 3937TIP3    H133446   1.686   0.876   3.607  2.9760 -2.2473  1.1852
 3937TIP3    H233447   1.803   0.942   3.537  1.2379  0.6772  0.8470
 3938TIP3   OH233448   4.354   0.304   1.523 -0.1749  0.2445  0.0242
 3938TIP3    H133449   4.390   0.379   1.475 -0.3455  1.0584  1.1282
 3938TIP3    H233450   4.304   0.256   1.457 -0.7138  1.5386 -0.5583
 3939TIP3   OH233451   2.917   6.377   1.462 -0.3608  0.2144  0.4496
 3939TIP3    H133452   2.951   6.414   1.543 -0.8849  0.7244  0.4438
 3939TIP3    H233453   2.906   6.453   1.404  1.1073 -0.2694 -0.5147
 3940TIP3   OH233454   1.415   0.212   8.377  0.5659 -0.3760  0.2589
 3940TIP3    H133455   1.384   0.195   8.288  0.5127  0.8395  0.0316
 3940TIP3    H233456   1.486   0.149   8.389  0.1299 -1.0156 -0.3844
 3941TIP3   OH233457   3.086   6.589   2.075 -0.3991  0.1338 -0.0728
 3941TIP3    H133458   3.133   6.602   2.157  0.5040  2.4193 -0.8717
 3941TIP3    H233459   2.999   6.627   2.091  0.6642  3.2639 -0.8942
 3942TIP3   OH233460   4.640   4.273   3.369 -0.5525 -0.2258  0.5256
 3942TIP3    H133461   4.664   4.184   3.345 -0.5915  0.2341 -1.4200
 3942TIP3    H233462   4.710   4.328   3.335 -0.4384  0.5020  1.8516
 3943TIP3   OH233463   4.588   1.118   0.537  0.0942 -0.3107 -0.4780
 3943TIP3    H133464   4.678   1.150   0.541  0.0521 -0.2885  0.8702
 3943TIP3    H233465   4.598   1.023   0.528  0.2223 -0.1312 -2.6016
 3944TIP3   OH233466   2.668   4.946   3.410 -0.0985  0.2897 -0.0849
 3944TIP3    H133467   2.762   4.934   3.423 -0.2239 -0.7292 -0.0808
 3944TIP3    H233468   2.627   4.879   3.465 -0.9479  2.4952  2.2066
 3945TIP3   OH233469   2.485   2.910   7.854  0.0192 -0.3238 -0.5697
 3945TIP3    H133470   2.477   2.989   7.908  3.8631  0.7271 -1.2455
 3945TIP3    H233471   2.462   2.940   7.765  0.2894 -0.2701 -0.6225
 3946TIP3   OH233472   3.780   6.735   8.443  0.0845 -0.2976  0.0054
 3946TIP3    H133473   3.785   6.652   8.395 -1.0146 -0.7115  0.5498
 3946TIP3    H233474   3.871   6.761   8.455  0.6212 -2.6977  1.9595
 3947TIP3   OH233475   1.391   3.781   1.810  0.1613 -0.1367  0.0915
 3947TIP3    H133476   1.361   3.856   1.862 -1.1871 -0.1327 -0.6476
 3947TIP3    H233477   1.339   3.707   1.842  1.0945 -0.6635  0.4388
 3948TIP3   OH233478   4.011   6.655   1.329 -0.2909 -0.2637  0.1716
 3948TIP3    H133479   4.043   6.582   1.382 -0.7766 -0.2581  0.4807
 3948TIP3    H233480   4.050   6.641   1.243  2.5315  1.0539  1.1094
 3949TIP3   OH233481   3.733   6.766   2.128 -0.4807  0.7305  0.1295
 3949TIP3    H133482   3.723   6.672   2.142  0.9567  0.5357  0.0616
 3949TIP3    H233483   3.738   6.804   2.216  2.1049  0.3102  0.2436
 3950TIP3   OH233484   2.165   5.302   8.064 -0.1728  0.0139  0.3418
 3950TIP3    H133485   2.073   5.278   8.072 -0.6847  0.9345 -1.9379
 3950TIP3    H233486   2.212   5.219   8.064 -1.1003 -0.5220  0.5042
 3951TIP3   OH233487   0.088   6.039   0.425  0.4841 -0.0288 -0.2588
 3951TIP3    H133488   0.035   6.051   0.345  0.5640 -1.8747 -0.6204
 3951TIP3    H233489   0.170   6.085   0.406 -0.2750  1.3385 -0.3927
 3952TIP3   OH233490   5.447   2.685   2.012 -0.0456 -0.6138 -0.0509
 3952TIP3    H133491   5.423   2.773   2.043 -3.7700 -0.9005 -1.5341
 3952TIP3    H233492   5.439   2.630   2.090 -0.2765 -0.0019  0.3684
 3953TIP3   OH233493   6.626   0.671   1.069  0.2077  0.4380 -0.0294
 3953TIP3    H133494   6.556   0.733   1.051 -0.1817  0.3617  1.1451
 3953TIP3    H233495   6.707   0.719   1.050 -0.0673  1.4807  1.2596
 3954TIP3   OH233496   0.094   1.114   2.865  0.2257 -0.2657  0.1027
 3954TIP3    H133497   0.137   1.084   2.945 -1.0898  0.5185  1.1382
 3954TIP3    H233498   0.002   1.093   2.877 -0.2578  1.3163 -0.4754
 3955TIP3   OH233499   5.887   2.218   1.654  0.3453 -0.6442 -0.0102
 3955TIP3    H133500   5.826   2.219   1.581 -0.6248 -2.3860  0.7125
 3955TIP3    H233501   5.927   2.131   1.651  1.7530 -0.0377  0.3753
 3956TIP3   OH233502   6.419   1.536   2.145 -0.8417 -0.6328 -0.7815
 3956TIP3    H133503   6.355   1.592   2.101 -0.7542  0.1707  0.0748
 3956TIP3    H233504   6.460   1.487   2.074 -1.6290 -0.3503 -1.4569
 3957TIP3   OH233505   1.503   5.032   2.292  0.4464  0.4392  0.9210
 3957TIP3    H133506   1.563   4.961   2.269 -0.6701 -0.1899 -0.1108
 3957TIP3    H233507   1.426   4.988   2.328 -0.4768  1.0768 -0.2215
 3958TIP3   OH233508   2.677   2.067   1.295 -0.1423 -0.1831 -0.4806
 3958TIP3    H133509   2.758   2.077   1.345 -1.0390  3.0472  0.5840
 3958TIP3    H233510   2.624   2.007   1.347  1.3890 -2.1056 -1.0497
 3959TIP3   OH233511   4.608   4.641   1.508  0.1481  0.1068  0.0025
 3959TIP3    H133512   4.635   4.732   1.508 -1.3734  0.6256 -1.7763
 3959TIP3    H233513   4.527   4.640   1.457 -0.4209 -2.0932  0.8168
 3960TIP3   OH233514   2.965   1.144   3.398  0.0230  0.3558  0.2088
 3960TIP3    H133515   2.952   1.050   3.390 -0.8800  0.5222 -0.5049
 3960TIP3    H233516   2.946   1.163   3.490  1.4871 -0.3147  0.6913
 3961TIP3   OH233517   5.199   3.407   1.034 -0.0044  0.3975 -0.5230
 3961TIP3    H133518   5.235   3.495   1.047 -0.0258  0.5883 -1.6615
 3961TIP3    H233519   5.110   3.412   1.068  0.8805 -0.0241  2.1657
 3962TIP3   OH233520   4.389   6.119   0.248  0.5722  0.1917 -0.0970
 3962TIP3    H133521   4.448   6.044   0.251  0.1424 -0.1599 -0.2041
 3962TIP3    H233522   4.424   6.180   0.312  1.6931  0.4783 -0.9490
 3963TIP3   OH233523   1.795   5.539   0.886  0.2416  0.2657  0.3222
 3963TIP3    H133524   1.863   5.474   0.907  1.1459  1.0859  0.0441
 3963TIP3    H233525   1.774   5.522   0.794 -0.7507 -0.6992  0.7102
 3964TIP3   OH233526   2.144   3.711   3.680  0.1381  0.5471  0.2991
 3964TIP3    H133527   2.212   3.683   3.742 -0.1955  0.8006  0.7822
 3964TIP3    H233528   2.062   3.698   3.727 -0.3948 -2.2847 -1.1719
 3965TIP3   OH233529   1.233   2.559   2.795  0.6744 -0.3701  0.3996
 3965TIP3    H133530   1.269   2.648   2.794  1.4193 -0.6400  1.2101
 3965TIP3    H233531   1.292   2.509   2.738  0.2506 -0.3467 -0.0632
 3966TIP3   OH233532   5.732   3.052   3.582 -0.4457  0.7718 -0.8419
 3966TIP3    H133533   5.801   2.995   3.617 -0.1979  1.0615 -0.8597
 3966TIP3    H233534   5.689   2.998   3.515 -1.2294  0.0369  0.2098
 3967TIP3   OH233535   5.864   5.322   2.903  0.3783 -0.0088 -0.3739
 3967TIP3    H133536   5.814   5.395   2.864  0.5405 -0.1558 -0.8702
 3967TIP3    H233537   5.829   5.244   2.860  1.8137 -0.0241 -1.6087
 3968TIP3   OH233538   1.780   3.176   7.735  0.0801 -0.2105  0.2644
 3968TIP3    H133539   1.832   3.241   7.782  1.6007 -0.8398 -0.4683
 3968TIP3    H233540   1.806   3.186   7.643  0.0179 -1.5394  0.0814
 3969TIP3   OH233541   3.186   3.987   2.522  0.4960  0.5547 -0.8792
 3969TIP3    H133542   3.150   3.898   2.532  0.7096  0.6657  1.3295
 3969TIP3    H233543   3.109   4.044   2.523  0.4996  0.5486  0.1552
 3970TIP3   OH233544   1.107   0.331   3.160  0.4756 -0.5602 -0.1225
 3970TIP3    H133545   1.055   0.257   3.130 -4.0707 -0.1122  5.0280
 3970TIP3    H233546   1.160   0.297   3.232  0.2685  0.5820  0.6187
 3971TIP3   OH233547   4.346   1.451   0.495  0.1794 -0.1395 -0.2411
 3971TIP3    H133548   4.337   1.361   0.524 -0.6342 -0.3874 -1.2252
 3971TIP3    H233549   4.406   1.446   0.420  0.9408  0.2738  0.3305
 3972TIP3   OH233550   4.495   3.010   3.535  0.0438 -0.5992  0.6418
 3972TIP3    H133551   4.421   3.064   3.560  0.1521  1.1596 -2.3389
 3972TIP3    H233552   4.558   3.019   3.606 -1.0453  1.0593  1.4290
 3973TIP3   OH233553   0.915   2.342   8.438 -0.1599 -0.0819 -0.4207
 3973TIP3    H133554   0.894   2.278   8.369 -2.6107  1.8252 -1.5971
 3973TIP3    H233555   0.965   2.410   8.392 -1.5228  1.0419 -0.2782
 3974TIP3   OH233556   1.715   1.934   2.496 -0.3740  0.0805 -0.2582
 3974TIP3    H133557   1.794   1.958   2.544  0.6649 -1.5832 -1.0301
 3974TIP3    H233558   1.643   1.955   2.555  0.7004  0.6419  0.8959
 3975TIP3   OH233559   1.057   4.785   2.356  0.4730 -0.4448  0.2381
 3975TIP3    H133560   1.042   4.878   2.340  2.0435 -0.4339 -1.5662
 3975TIP3    H233561   1.115   4.758   2.285 -1.2082 -3.1797 -0.2352
 3976TIP3   OH233562   0.052   3.314   1.577  0.2204 -0.1682 -0.0053
 3976TIP3    H133563   0.008   3.334   1.495  0.8381 -1.2565 -0.6187
 3976TIP3    H233564   0.107   3.390   1.594  0.6425 -0.2462 -0.9840
 3977TIP3   OH233565   4.514   0.653   7.981 -0.5602 -0.1761 -0.0441
 3977TIP3    H133566   4.558   0.590   7.923 -1.4397 -1.0293  0.2020
 3977TIP3    H233567   4.563   0.735   7.967  0.4537 -0.8366 -0.5436
 3978TIP3   OH233568   4.510   1.135   0.214  0.2003 -0.5897 -0.1065
 3978TIP3    H133569   4.467   1.074   0.154 -0.4965 -0.5607  0.3445
 3978TIP3    H233570   4.517   1.087   0.297  0.8480 -0.5131 -0.1121
 3979TIP3   OH233571   2.421   3.507   8.279 -0.0970 -0.0840  0.2727
 3979TIP3    H133572   2.442   3.437   8.217 -1.4679 -0.1246 -0.1890
 3979TIP3    H233573   2.488   3.501   8.347  1.5383  0.0382 -1.2591
 3980TIP3   OH233574   0.277   6.524   2.891 -0.3917  0.4860  0.6955
 3980TIP3    H133575   0.217   6.588   2.927 -0.1234  1.5866 -0.7243
 3980TIP3    H233576   0.228   6.442   2.892 -0.6574  0.6252  2.7351
 3981TIP3   OH233577   1.306   2.974   7.642 -0.3733 -0.1335 -0.0156
 3981TIP3    H133578   1.218   2.971   7.679  0.0432 -0.8693  0.9419
 3981TIP3    H233579   1.363   2.991   7.716  0.3159  0.2518 -0.6192
 3982TIP3   OH233580   4.559   5.946   3.240  0.7582  0.2950  0.1807
 3982TIP3    H133581   4.588   5.898   3.318 -2.5674  0.6352  1.8197
 3982TIP3    H233582   4.573   5.886   3.168  3.1732 -0.3664  1.0983
 3983TIP3   OH233583   6.441   2.581   1.776 -0.1429  0.0807  0.3420
 3983TIP3    H133584   6.489   2.512   1.731  0.3162  0.4643  0.2283
 3983TIP3    H233585   6.445   2.656   1.716 -0.8240  0.1433  0.3618
 3984TIP3   OH233586   4.182   0.979   2.742  0.2541  0.2418  0.3568
 3984TIP3    H133587   4.134   0.974   2.825  0.1958  0.7240  0.3551
 3984TIP3    H233588   4.131   0.925   2.682 -0.0137  0.3494  0.4849
 3985TIP3   OH233589   4.012   5.598   8.426  0.5990  0.1339  0.3862
 3985TIP3    H133590   4.004   5.561   8.513  2.9459 -0.2575  0.4778
 3985TIP3    H233591   4.005   5.523   8.367  2.0916 -0.0438  0.4126
 3986TIP3   OH233592   4.874   0.317   3.046 -0.3852 -0.4077 -0.0399
 3986TIP3    H133593   4.847   0.398   3.002  1.5894  0.0642 -0.5109
 3986TIP3    H233594   4.961   0.337   3.080  1.3391 -3.0929 -2.4370
 3987TIP3   OH233595   6.360   4.171   1.777 -0.0056  0.2023  0.2267
 3987TIP3    H133596   6.339   4.083   1.745 -0.8672  1.0389 -1.6910
 3987TIP3    H233597   6.295   4.228   1.735  1.5666  1.9802  0.0728
 3988TIP3   OH233598   1.651   5.080   1.736  0.9432  0.0320  0.4741
 3988TIP3    H133599   1.733   5.044   1.771  0.3128  0.3057  2.4018
 3988TIP3    H233600   1.586   5.010   1.751  0.5573  0.3344  0.2220
 3989TIP3   OH233601   5.204   2.589   3.018  0.2370 -0.2287  0.4662
 3989TIP3    H133602   5.208   2.680   3.045  1.1032  0.0305 -0.4383
 3989TIP3    H233603   5.290   2.572   2.979  0.0330 -1.3828  0.4682
 3990TIP3   OH233604   2.729   5.055   3.145  0.3604 -0.4814  0.0895
 3990TIP3    H133605   2.783   4.989   3.103  1.5469  0.9997 -0.8301
 3990TIP3    H233606   2.778   5.081   3.223 -0.0321 -0.5816  0.3755
 3991TIP3   OH233607   3.007   3.851   7.912 -0.0716 -0.3012  0.4528
 3991TIP3    H133608   2.913   3.869   7.917 -0.1560  1.5624 -3.7596
 3991TIP3    H233609   3.048   3.936   7.926  0.9038 -0.7796  0.5597
 3992TIP3   OH233610   2.117   6.164   1.642 -0.3145 -0.3733 -0.5805
 3992TIP3    H133611   2.133   6.133   1.553  0.7683 -0.2766 -0.4362
 3992TIP3    H233612   2.061   6.241   1.632 -2.8607 -2.1591 -0.9669
 3993TIP3   OH233613   6.000   6.107   0.114 -0.0034  0.1068  0.4861
 3993TIP3    H133614   5.972   6.117   0.205 -2.1486  0.1375 -0.1213
 3993TIP3    H233615   5.922   6.074   0.068  0.5121  1.5710 -1.6136
 3994TIP3   OH233616   1.339   5.887   8.716 -0.4757  0.2237  0.2468
 3994TIP3    H133617   1.418   5.837   8.699 -0.0014  0.3172  1.9502
 3994TIP3    H233618   1.287   5.878   8.637  0.9600 -0.3589 -0.6675
 3995TIP3   OH233619   1.107   4.590   8.036 -0.4940  0.0444  0.7622
 3995TIP3    H133620   1.048   4.515   8.038  0.6941 -0.9100  2.1925
 3995TIP3    H233621   1.050   4.666   8.046 -1.5863 -0.7647  0.8021
 3996TIP3   OH233622   0.477   3.205   0.906 -0.6903 -0.0396  0.3178
 3996TIP3    H133623   0.548   3.237   0.851 -0.2164 -1.9478 -0.2461
 3996TIP3    H233624   0.514   3.130   0.952 -2.4845 -1.4273 -0.4115
 3997TIP3   OH233625   2.372   0.725   2.620 -0.8052 -0.0157  0.1818
 3997TIP3    H133626   2.424   0.647   2.603  0.4096  0.8897 -0.4570
 3997TIP3    H233627   2.322   0.737   2.539  0.9811  1.2889 -0.8181
 3998TIP3   OH233628   2.567   0.257   2.197 -0.5637 -0.0385  0.2716
 3998TIP3    H133629   2.535   0.323   2.135 -0.1912  0.4269  0.5681
 3998TIP3    H233630   2.535   0.174   2.162  0.7242  0.0683 -1.2670
 3999TIP3   OH233631   0.432   3.464   7.342 -0.5380  0.3802 -0.8348
 3999TIP3    H133632   0.352   3.499   7.381 -0.3174 -1.1914  1.1956
 3999TIP3    H233633   0.475   3.418   7.414  1.7279  0.3758 -2.1148
 4000TIP3   OH233634   0.857   4.624   0.052  0.1008 -0.3796  0.1114
 4000TIP3    H133635   0.844   4.561  -0.019  1.0276  0.3246 -0.7013
 4000TIP3    H233636   0.845   4.710   0.012  1.5922  0.0758  0.5415
 4001TIP3   OH233637   3.085   3.530   2.284  0.2418 -0.2454  0.4516
 4001TIP3    H133638   3.081   3.609   2.337  1.6865 -0.3460  0.7291
 4001TIP3    H233639   3.033   3.551   2.205  1.7230  1.4698 -0.1230
 4002TIP3   OH233640   1.598   6.558   8.641 -0.1627 -0.7918 -0.6843
 4002TIP3    H133641   1.550   6.641   8.629  1.0932 -0.1316 -1.3346
 4002TIP3    H233642   1.672   6.581   8.697 -1.6571 -2.2461  2.0781
 4003TIP3   OH233643   5.591   0.804   3.295 -0.1417  0.4818 -0.0712
 4003TIP3    H133644   5.547   0.732   3.249  1.4805  0.6806 -2.1231
 4003TIP3    H233645   5.561   0.797   3.385 -0.5965 -2.3350 -0.3478
 4004TIP3   OH233646   4.270   2.133   3.678 -0.0959  0.1232 -0.2410
 4004TIP3    H133647   4.360   2.115   3.706  0.1313  0.1637 -0.9213
 4004TIP3    H233648   4.216   2.085   3.740  0.4693 -2.0024 -1.3159
 4005TIP3   OH233649   2.019   6.128   8.408 -0.2918  0.0454  0.2402
 4005TIP3    H133650   1.945   6.151   8.353  0.6325  2.2099 -0.2311
 4005TIP3    H233651   2.061   6.054   8.364 -0.1792  1.0532 -1.4233
 4006TIP3   OH233652   6.326   5.484   2.940 -0.4179  0.1356  0.0585
 4006TIP3    H133653   6.363   5.409   2.987  0.1652  0.6462  0.4279
 4006TIP3    H233654   6.232   5.470   2.943 -0.3107 -0.6696 -0.0175
 4007TIP3   OH233655   6.135   6.644   1.202 -0.0796  0.6273 -0.1575
 4007TIP3    H133656   6.074   6.587   1.249  0.9160  0.0318  0.4519
 4007TIP3    H233657   6.188   6.684   1.271  1.4793 -0.3405 -0.7427
 4008TIP3   OH233658   4.541   2.883   1.334  0.9043 -0.4463 -0.2987
 4008TIP3    H133659   4.536   2.789   1.351 -0.5682 -0.0103  2.0253
 4008TIP3    H233660   4.565   2.922   1.418  0.3945  1.3640 -0.9416
 4009TIP3   OH233661   4.613   5.393   0.790  0.3501  0.6920  0.6322
 4009TIP3    H133662   4.528   5.426   0.763 -0.1681 -1.5773 -0.8289
 4009TIP3    H233663   4.597   5.302   0.815  2.5845 -0.5078 -1.7703
 4010TIP3   OH233664   0.281   0.568   1.689 -0.2355 -0.3202  0.6901
 4010TIP3    H133665   0.220   0.532   1.753  0.1605  0.2987  1.4464
 4010TIP3    H233666   0.365   0.527   1.711  0.4065  1.5964  2.1040
 4011TIP3   OH233667   5.147   1.563   8.135 -0.4355  0.1239 -0.3472
 4011TIP3    H133668   5.227   1.524   8.098  0.6530  2.6881 -0.8726
 4011TIP3    H233669   5.088   1.574   8.061 -0.7038 -0.3955 -0.2157
 4012TIP3   OH233670   5.583   4.553   2.263 -0.1063 -0.5070 -0.2907
 4012TIP3    H133671   5.643   4.627   2.254 -0.0531 -0.6933 -1.7798
 4012TIP3    H233672   5.622   4.499   2.331  0.1204  0.5730  0.4661
 4013TIP3   OH233673   6.372   2.146   3.022  0.7828 -0.0700 -0.3414
 4013TIP3    H133674   6.370   2.226   3.074  1.3349  2.7598 -4.1594
 4013TIP3    H233675   6.463   2.118   3.024  0.9100  0.3462 -0.2487
 4014TIP3   OH233676   3.369   2.205   0.682 -0.0461 -0.0460 -0.2212
 4014TIP3    H133677   3.338   2.122   0.718 -1.2579  0.7515  0.6812
 4014TIP3    H233678   3.392   2.257   0.759  2.6717 -0.2216 -0.8223
 4015TIP3   OH233679   5.379   3.055   3.022  0.0841 -0.4350 -0.4336
 4015TIP3    H133680   5.459   3.106   3.029  0.1571 -0.4404 -1.1871
 4015TIP3    H233681   5.397   2.990   2.954 -0.4908 -0.5568 -0.4770
 4016TIP3   OH233682   3.438   5.047   0.002 -0.6900  0.4559 -0.4981
 4016TIP3    H133683   3.419   5.140   0.001 -1.6070  0.2731 -0.1899
 4016TIP3    H233684   3.399   5.014   0.083 -1.0157 -0.3242 -0.9593
 4017TIP3   OH233685   4.399   5.585   1.302 -0.7967 -0.6090  0.3518
 4017TIP3    H133686   4.457   5.660   1.307 -0.5047 -0.8545  0.7509
 4017TIP3    H233687   4.423   5.540   1.221 -1.9660  0.5175 -0.6554
 4018TIP3   OH233688   2.076   5.702   4.169  0.2163 -0.3808  0.1644
 4018TIP3    H133689   2.011   5.746   4.114 -0.8881 -1.3394  0.6678
 4018TIP3    H233690   2.027   5.677   4.248  1.0491 -1.6714  0.2898
 4019TIP3   OH233691   3.081   2.022   0.192  0.0453  0.0434 -0.1180
 4019TIP3    H133692   3.004   2.073   0.168  1.0465  0.8076 -1.8567
 4019TIP3    H233693   3.048   1.935   0.210 -1.1254  0.0980 -1.8223
 4020TIP3   OH233694   2.886   3.543   0.057 -0.8019  0.3694 -0.3642
 4020TIP3    H133695   2.934   3.625   0.068 -0.6061  0.0065  2.0001
 4020TIP3    H233696   2.897   3.521  -0.035 -0.2317  2.6002 -0.8786
 4021TIP3   OH233697   4.682   3.503   8.261 -0.2341  0.1427  0.5358
 4021TIP3    H133698   4.752   3.447   8.226  0.2938  1.5211 -0.7368
 4021TIP3    H233699   4.613   3.442   8.287 -0.1401 -1.0850 -1.8127
 4022TIP3   OH233700   2.372   5.021   2.843  0.5107 -0.1131 -0.0483
 4022TIP3    H133701   2.386   4.927   2.831 -1.6887 -0.4780 -0.0964
 4022TIP3    H233702   2.346   5.053   2.757  1.8025  0.6735 -0.1616
 4023TIP3   OH233703   2.262   2.657   3.050  0.6489  0.1492 -0.3439
 4023TIP3    H133704   2.334   2.620   2.998  0.1431  1.0852 -1.7809
 4023TIP3    H233705   2.206   2.582   3.069  3.1020 -1.0915  2.8758
 4024TIP3   OH233706   3.222   2.329   8.093  0.0715 -0.4765  0.0530
 4024TIP3    H133707   3.152   2.291   8.040 -1.3636  0.9939  0.8119
 4024TIP3    H233708   3.179   2.396   8.146  2.3036  1.5524 -0.5093
 4025TIP3   OH233709   6.611   2.276   0.336 -0.5452  0.7248 -0.1308
 4025TIP3    H133710   6.526   2.275   0.381 -0.7449 -1.4585 -0.4451
 4025TIP3    H233711   6.590   2.246   0.247  0.4771  0.7113 -0.3754
 4026TIP3   OH233712   6.058   4.179   0.529  0.6362  0.0489  0.7191
 4026TIP3    H133713   6.096   4.253   0.577  0.0686  1.1770 -0.4818
 4026TIP3    H233714   6.131   4.146   0.476  0.5462  0.6824  0.1892
 4027TIP3   OH233715   2.200   4.419   3.876  0.2703  0.5303  0.3979
 4027TIP3    H133716   2.280   4.468   3.893  0.4109  1.0525 -1.5549
 4027TIP3    H233717   2.144   4.481   3.828 -0.6697 -0.3404  0.3441
 4028TIP3   OH233718   5.493   0.188   2.717 -0.1827 -0.5550  0.4769
 4028TIP3    H133719   5.440   0.266   2.701 -0.5005 -0.2674  2.6000
 4028TIP3    H233720   5.459   0.123   2.656 -0.5902  0.6590 -0.6358
 4029TIP3   OH233721   4.747   5.912   2.929 -0.3040 -0.1248 -0.1996
 4029TIP3    H133722   4.722   5.991   2.976  0.5632 -0.4502  0.8544
 4029TIP3    H233723   4.702   5.918   2.845 -0.8594  1.1023  0.1711
 4030TIP3   OH233724   0.693   3.780   8.485 -0.6542  0.2101 -0.2327
 4030TIP3    H133725   0.630   3.802   8.554 -0.5731 -1.1939  0.3305
 4030TIP3    H233726   0.771   3.832   8.506 -0.4176 -0.6100  1.1285
 4031TIP3   OH233727   3.672   1.527   0.780 -0.3542  0.4581 -0.2563
 4031TIP3    H133728   3.602   1.462   0.781 -0.6913  0.7459 -1.6836
 4031TIP3    H233729   3.651   1.583   0.705  0.7300  1.3144  0.0464
 4032TIP3   OH233730   3.744   2.860   1.692  0.1492  0.0597 -0.0354
 4032TIP3    H133731   3.742   2.922   1.765  0.5651  1.4830 -1.1875
 4032TIP3    H233732   3.685   2.790   1.718 -0.6411  1.1338  1.1446
 4033TIP3   OH233733   5.204   4.799   2.402 -0.4614  0.5528 -0.2981
 4033TIP3    H133734   5.157   4.722   2.435 -0.0538  0.1399 -0.6752
 4033TIP3    H233735   5.164   4.817   2.317 -0.8618  1.0332 -0.0092
 4034TIP3   OH233736   4.811   6.041   3.182  0.5141  0.5344 -0.6114
 4034TIP3    H133737   4.724   6.044   3.223  0.2637 -0.0146 -1.0875
 4034TIP3    H233738   4.847   5.957   3.211  0.1060 -0.1310 -1.9441
 4035TIP3   OH233739   6.339   3.264   2.344 -0.4530  0.1178  0.4533
 4035TIP3    H133740   6.279   3.312   2.286 -2.1608 -2.2530  0.1070
 4035TIP3    H233741   6.374   3.194   2.289 -0.6960 -1.0898  1.7940
 4036TIP3   OH233742   2.653   0.863   7.427  0.0908 -0.3650 -0.2739
 4036TIP3    H133743   2.710   0.851   7.503  0.4102 -1.4904 -0.6619
 4036TIP3    H233744   2.580   0.915   7.459  0.8018  0.1787  0.5005
 4037TIP3   OH233745   3.535   2.702   0.070 -0.6386  0.5786 -0.3664
 4037TIP3    H133746   3.456   2.721   0.121  0.0351  2.9056 -0.0580
 4037TIP3    H233747   3.587   2.782   0.077  1.9539 -1.0218 -0.2146
 4038TIP3   OH233748   2.827   1.873   1.521 -0.4102  0.1697 -0.1413
 4038TIP3    H133749   2.748   1.887   1.469  0.6484  3.8978 -1.0374
 4038TIP3    H233750   2.881   1.816   1.466 -1.8713 -1.3444 -0.0941
 4039TIP3   OH233751   1.421   5.571   0.649  0.0746 -0.0844  0.3268
 4039TIP3    H133752   1.396   5.655   0.610  0.0773 -0.3669 -0.2882
 4039TIP3    H233753   1.385   5.505   0.590  0.1324 -0.5233  0.7691
 4040TIP3   OH233754   1.097   1.586   0.412 -0.2273 -0.3067 -0.5027
 4040TIP3    H133755   1.023   1.641   0.436  0.7205  1.7289 -1.9624
 4040TIP3    H233756   1.085   1.570   0.318 -0.6282 -2.9332 -0.0839
 4041TIP3   OH233757   2.747   3.968   0.690  1.3511  0.0673  1.1649
 4041TIP3    H133758   2.786   3.883   0.707  1.0076  0.1893  2.7624
 4041TIP3    H233759   2.788   4.026   0.755 -0.1194  0.5921  1.6478
 4042TIP3   OH233760   4.773   2.428   2.008  0.5103  0.1187  0.4614
 4042TIP3    H133761   4.693   2.415   1.957  1.0685  0.3809 -0.5129
 4042TIP3    H233762   4.765   2.366   2.081 -0.9087  0.6669  0.8006
 4043TIP3   OH233763   2.030   2.375   8.072  0.5037  0.1768 -0.1986
 4043TIP3    H133764   2.011   2.357   7.980  1.0477 -2.2468  0.0863
 4043TIP3    H233765   1.952   2.347   8.120  0.4226  0.9452  0.1465
 4044TIP3   OH233766   1.815   3.124   0.670 -0.1941 -0.1334  0.4903
 4044TIP3    H133767   1.868   3.128   0.749  2.5229 -1.8598 -1.0678
 4044TIP3    H233768   1.724   3.121   0.702  0.6860  0.7589  3.4045
 4045TIP3   OH233769   4.975   5.954   8.151  0.3895  0.5966 -0.3501
 4045TIP3    H133770   5.070   5.952   8.166  0.0640  0.2823  2.2243
 4045TIP3    H233771   4.948   6.040   8.184 -0.3932  0.0165  0.5924
 4046TIP3   OH233772   0.337   6.204   0.493 -0.2824 -0.2567  0.2937
 4046TIP3    H133773   0.277   6.273   0.523 -0.4573 -0.2930  0.0218
 4046TIP3    H233774   0.424   6.240   0.511 -0.3510  0.3276 -0.4599
 4047TIP3   OH233775   5.335   5.720   3.001 -0.4638  0.0750 -0.2323
 4047TIP3    H133776   5.287   5.653   3.050  0.8512 -0.8651 -0.1813
 4047TIP3    H233777   5.420   5.725   3.044  0.2569  0.1653 -1.6085
 4048TIP3   OH233778   0.535   2.538   1.873  0.7273 -0.4147 -0.6934
 4048TIP3    H133779   0.506   2.536   1.964 -0.8955 -2.0846 -1.1828
 4048TIP3    H233780   0.467   2.490   1.825  3.2006 -2.6253 -2.2856
 4049TIP3   OH233781   1.565   6.798   3.004  0.0167  0.2159 -0.3011
 4049TIP3    H133782   1.535   6.870   3.061 -0.1199 -0.6911  0.8069
 4049TIP3    H233783   1.629   6.751   3.057 -0.0330 -0.5973 -0.9544
 4050TIP3   OH233784   1.991   1.549   3.737  0.5343 -0.0200  0.1353
 4050TIP3    H133785   2.015   1.492   3.665  0.2666 -1.8892  1.4633
 4050TIP3    H233786   1.899   1.528   3.756  0.1866  1.3962  0.2064
 4051TIP3   OH233787   2.892   5.028   1.505 -0.2084  0.1769 -0.1714
 4051TIP3    H133788   2.944   5.049   1.427 -0.2618 -0.6603 -0.4402
 4051TIP3    H233789   2.869   4.936   1.495 -0.0961  0.0155  0.9160
 4052TIP3   OH233790   3.929   5.477   3.587  0.1050  0.5708 -0.0553
 4052TIP3    H133791   3.871   5.535   3.538 -0.3748 -1.5996 -2.2736
 4052TIP3    H233792   3.872   5.434   3.650  0.4880  2.4891  1.6896
 4053TIP3   OH233793   4.256   5.673   0.910 -0.0735 -0.6858  0.0034
 4053TIP3    H133794   4.318   5.705   0.845 -0.7408 -2.1762 -1.4410
 4053TIP3    H233795   4.275   5.724   0.989  1.1621  0.7595 -1.1668
 4054TIP3   OH233796   4.900   6.581   2.659 -0.3213  0.0659  0.0988
 4054TIP3    H133797   4.841   6.630   2.715  0.9388  1.3535  0.3348
 4054TIP3    H233798   4.842   6.536   2.597 -1.5302  1.5442  0.1128
 4055TIP3   OH233799   1.591   1.716   1.850  0.1105  0.0008 -0.0805
 4055TIP3    H133800   1.594   1.634   1.899  1.8586  0.4270  0.6093
 4055TIP3    H233801   1.526   1.770   1.897 -1.1955 -1.0216 -0.6575
 4056TIP3   OH233802   1.021   0.115   0.185  0.0874 -0.1642  0.5396
 4056TIP3    H133803   1.001   0.206   0.207  1.3292  0.3925 -0.4501
 4056TIP3    H233804   1.113   0.117   0.158 -0.0693 -1.5733 -0.2030
 4057TIP3   OH233805   3.998   6.149   1.424  0.1579  0.2335 -0.4872
 4057TIP3    H133806   4.022   6.128   1.514  0.3568  0.9141 -0.3723
 4057TIP3    H233807   3.910   6.114   1.413  0.0889  0.2456  0.0118
 4058TIP3   OH233808   2.521   5.931   2.287  0.9182  0.2516 -0.1402
 4058TIP3    H133809   2.499   6.007   2.341 -0.5972  0.3210 -0.7861
 4058TIP3    H233810   2.575   5.966   2.217  0.2686  0.7572 -0.4063
 4059TIP3   OH233811   4.029   5.994   0.585 -0.1079 -0.1701 -0.0349
 4059TIP3    H133812   3.981   6.030   0.511 -0.8782 -0.6124  0.2405
 4059TIP3    H233813   4.003   5.902   0.588  1.2550 -0.5837 -0.2781
 4060TIP3   OH233814   1.736   3.228   3.362  0.7181 -0.4621 -0.1881
 4060TIP3    H133815   1.692   3.165   3.304 -1.4283  1.3824 -0.7126
 4060TIP3    H233816   1.719   3.313   3.321 -0.3235  0.8716  2.7729
 4061TIP3   OH233817   3.371   6.660   2.973 -0.0347 -0.0410 -0.0882
 4061TIP3    H133818   3.277   6.657   2.955 -0.5263 -1.3379  2.2172
 4061TIP3    H233819   3.391   6.574   3.009  1.4829  1.0227  1.8029
 4062TIP3   OH233820   2.285   4.167   0.466  0.2196 -0.6324  0.3423
 4062TIP3    H133821   2.263   4.238   0.526 -0.0636 -1.0618  0.7563
 4062TIP3    H233822   2.372   4.138   0.494  1.1083  0.6895 -0.9348
 4063TIP3   OH233823   6.645   1.149   3.916  0.2326 -0.0817  0.6904
 4063TIP3    H133824   6.626   1.193   3.834 -2.7435 -0.0252  1.2707
 4063TIP3    H233825   6.657   1.220   3.979  1.2615 -0.1278  0.5571
 4064TIP3   OH233826   5.248   4.090   0.133  0.5556 -0.0161  0.0876
 4064TIP3    H133827   5.186   4.150   0.175  0.4516 -1.2897  1.8680
 4064TIP3    H233828   5.201   4.057   0.056 -0.3857  0.1799  0.5678
 4065TIP3   OH233829   5.404   1.850   0.255  0.3614  0.1057  0.7561
 4065TIP3    H133830   5.416   1.838   0.161 -0.7930  0.0563  0.6012
 4065TIP3    H233831   5.382   1.763   0.288 -0.1637  0.2997  0.9196
 4066TIP3   OH233832   5.424   4.744   0.335 -0.4726 -0.3372  0.4533
 4066TIP3    H133833   5.442   4.673   0.398  1.1404 -1.0098 -0.7066
 4066TIP3    H233834   5.511   4.772   0.305 -1.1847 -0.0624 -1.4858
 4067TIP3   OH233835   4.292   2.678   0.617 -0.2969 -0.2974  0.1023
 4067TIP3    H133836   4.342   2.652   0.540 -0.0863  0.0317  0.1243
 4067TIP3    H233837   4.250   2.760   0.592 -1.3351 -0.8829 -0.1277
 4068TIP3   OH233838   5.091   3.153   2.542 -0.1996  0.2795  0.2840
 4068TIP3    H133839   5.015   3.119   2.590  2.6265 -2.5611  3.3140
 4068TIP3    H233840   5.132   3.075   2.504  1.4996  1.6365 -0.8137
 4069TIP3   OH233841   2.029   2.092   2.918 -0.6763  0.2088 -0.1985
 4069TIP3    H133842   2.122   2.114   2.911 -1.4922  4.2471 -0.7413
 4069TIP3    H233843   1.998   2.091   2.827 -1.1981 -1.3995 -0.0423
 4070TIP3   OH233844   5.471   6.376   2.323 -0.0959  0.8595 -0.5317
 4070TIP3    H133845   5.400   6.344   2.378 -0.2854  1.7190 -0.2703
 4070TIP3    H233846   5.428   6.428   2.255  0.2078  0.5604 -0.9604
 4071TIP3   OH233847   1.344   5.853   7.782 -0.0845  0.3505 -0.1623
 4071TIP3    H133848   1.383   5.781   7.832  0.1967 -0.3778 -1.4138
 4071TIP3    H233849   1.399   5.860   7.704  0.0838  2.1352  0.0800
 4072TIP3   OH233850   6.392   2.053   8.159  0.4890 -0.7341  1.1314
 4072TIP3    H133851   6.365   2.126   8.104  0.4790 -1.2150  0.4809
 4072TIP3    H233852   6.316   2.036   8.214  0.2485 -0.6790  0.8209
 4073TIP3   OH233853   2.440   1.159   8.240 -0.9104  0.3540  0.2662
 4073TIP3    H133854   2.489   1.155   8.322 -2.1419 -0.1987  1.0000
 4073TIP3    H233855   2.497   1.116   8.176 -0.7170 -0.9214  1.2574
 4074TIP3   OH233856   3.681   0.467   3.067  0.2598  0.5825  0.1495
 4074TIP3    H133857   3.734   0.453   3.145  1.4911 -0.2830 -0.7986
 4074TIP3    H233858   3.706   0.554   3.035  0.6951  0.4160  0.0305
 4075TIP3   OH233859   4.619   3.175   8.633  0.6596 -0.8907 -0.4222
 4075TIP3    H133860   4.637   3.136   8.718 -0.2173  0.4288  0.4058
 4075TIP3    H233861   4.618   3.269   8.649  1.5195 -0.5468 -2.1135
 4076TIP3   OH233862   3.853   0.118   2.712  0.1560  0.3021 -0.1630
 4076TIP3    H133863   3.871   0.113   2.618 -2.6474 -2.1919 -0.7230
 4076TIP3    H233864   3.785   0.185   2.720  0.6418  0.7609  0.1467
 4077TIP3   OH233865   2.055   0.392   2.143  0.1470  0.3998  0.2271
 4077TIP3    H133866   2.016   0.427   2.223 -0.1472 -0.2522  0.3779
 4077TIP3    H233867   1.981   0.381   2.083  0.5028  1.9019 -0.5417
 4078TIP3   OH233868   4.754   1.410   2.271 -0.2960  0.2533  0.2079
 4078TIP3    H133869   4.700   1.354   2.326  0.5072  1.1726  2.0295
 4078TIP3    H233870   4.839   1.365   2.267 -0.3348  0.2167 -0.2511
 4079TIP3   OH233871   0.561   1.154   0.158 -0.3962 -0.2587 -0.1586
 4079TIP3    H133872   0.472   1.175   0.188  0.0909  1.0392  0.4510
 4079TIP3    H233873   0.578   1.067   0.194 -0.8249  0.1537  1.1255
 4080TIP3   OH233874   1.373   1.936   0.145 -0.2672  0.4560  0.2219
 4080TIP3    H133875   1.364   2.021   0.189  1.0983  0.6140  0.2539
 4080TIP3    H233876   1.320   1.944   0.066  1.2156  2.0054 -0.6767
 4081TIP3   OH233877   0.716   5.690   2.880  0.0984  0.2923  0.0049
 4081TIP3    H133878   0.793   5.636   2.897 -0.8027 -0.8172  0.7280
 4081TIP3    H233879   0.726   5.765   2.939 -1.2405 -1.7712  3.1049
 4082TIP3   OH233880   4.035   1.626   1.073  0.4448  0.9908  0.4154
 4082TIP3    H133881   4.095   1.686   1.030  0.0616  0.6806 -0.5715
 4082TIP3    H233882   4.090   1.574   1.131  1.0749  0.9656 -0.1937
 4083TIP3   OH233883   5.591   0.158   0.820  0.0661  0.0883  0.2362
 4083TIP3    H133884   5.536   0.086   0.850  1.2150 -1.4260 -1.1218
 4083TIP3    H233885   5.532   0.212   0.766 -0.5466 -0.4386  0.3691
 4084TIP3   OH233886   5.816   6.107   2.499 -0.2016 -0.3014 -0.5813
 4084TIP3    H133887   5.739   6.101   2.442 -1.3264 -0.5468  0.9248
 4084TIP3    H233888   5.798   6.179   2.558  0.8971 -0.1327 -0.4255
 4085TIP3   OH233889   1.128   1.097   8.635  0.5593 -0.2063  0.4859
 4085TIP3    H133890   1.068   1.169   8.653  0.9252  0.1882  0.1386
 4085TIP3    H233891   1.161   1.071   8.721  0.1766 -0.1823  0.6421
 4086TIP3   OH233892   6.376   1.338   1.220 -0.0980  0.0179  0.1885
 4086TIP3    H133893   6.352   1.427   1.246 -1.6041  0.0009 -0.9834
 4086TIP3    H233894   6.467   1.329   1.247  0.5055  2.3892 -0.7824
 4087TIP3   OH233895   3.898   2.122   8.387  0.2860 -0.3035 -0.2982
 4087TIP3    H133896   3.970   2.086   8.335  0.2369 -3.3902  1.5386
 4087TIP3    H233897   3.821   2.073   8.359 -0.1367 -0.5070  1.1393
 4088TIP3   OH233898   4.424   3.544   0.502  0.5678  0.2503  0.5903
 4088TIP3    H133899   4.330   3.534   0.520  0.6461  0.4718  1.1157
 4088TIP3    H233900   4.446   3.631   0.533  0.8531  0.3773  0.0436
 4089TIP3   OH233901   1.573   2.443   3.785 -0.0317  0.0876  0.3850
 4089TIP3    H133902   1.649   2.417   3.837 -0.4594 -0.7721  0.5876
 4089TIP3    H233903   1.526   2.362   3.769 -1.0100  0.6413  0.4089
 4090TIP3   OH233904   6.618   6.742   0.053 -0.8393 -0.1173 -0.8868
 4090TIP3    H133905   6.686   6.764   0.116 -0.2826 -0.0254 -1.5104
 4090TIP3    H233906   6.639   6.653   0.024 -1.6677 -0.5440 -0.2054
 4091TIP3   OH233907   1.621   0.130   1.890  0.5740  0.2571  0.3365
 4091TIP3    H133908   1.628   0.065   1.820  2.7823  1.3808 -0.5903
 4091TIP3    H233909   1.618   0.078   1.971 -1.3074 -1.0404 -0.4994
 4092TIP3   OH233910   2.178   4.532   1.525  0.0152 -0.3518  0.0747
 4092TIP3    H133911   2.253   4.577   1.565 -0.2752  1.5596 -1.4253
 4092TIP3    H233912   2.217   4.463   1.471  0.5544 -0.8236  1.0422
 4093TIP3   OH233913   5.743   5.765   8.079 -0.3277  0.3616 -0.0644
 4093TIP3    H133914   5.715   5.838   8.023  0.9209  1.4357  0.6763
 4093TIP3    H233915   5.663   5.739   8.125 -0.4587  2.5612  1.0924
 4094TIP3   OH233916   5.644   1.366   0.619  0.0503  0.4770  0.4782
 4094TIP3    H133917   5.615   1.334   0.704  0.6651  1.7994  1.2278
 4094TIP3    H233918   5.593   1.316   0.555 -0.5120 -0.4526  1.6171
 4095TIP3   OH233919   1.243   1.722   0.788  0.1102 -0.4487  0.6473
 4095TIP3    H133920   1.313   1.719   0.853 -0.4125  0.7865  1.3229
 4095TIP3    H233921   1.208   1.811   0.796  0.7413  0.1225 -2.1155
 4096TIP3   OH233922   3.285   1.219   2.913  0.0036  0.0260 -0.2214
 4096TIP3    H133923   3.373   1.245   2.888  0.5186 -1.4495 -0.0542
 4096TIP3    H233924   3.296   1.135   2.958 -1.4906 -0.2487 -0.2916
 4097TIP3   OH233925   3.246   0.842   1.780  0.7151 -0.4051 -0.2261
 4097TIP3    H133926   3.233   0.925   1.825  0.9948 -1.6089  2.2326
 4097TIP3    H233927   3.171   0.835   1.721 -1.5556 -0.1604  2.4002
 4098TIP3   OH233928   6.665   0.638   8.608  0.8440 -0.1006  0.3661
 4098TIP3    H133929   6.584   0.643   8.557  0.3981 -1.7834  0.8544
 4098TIP3    H233930   6.640   0.663   8.696  0.4918 -2.0635  0.8577
 4099TIP3   OH233931   1.430   5.006   1.423 -0.3412  0.4724  0.1195
 4099TIP3    H133932   1.522   5.022   1.406 -0.5074 -1.0893 -2.8753
 4099TIP3    H233933   1.426   4.914   1.449 -1.0982  0.3821 -0.2835
 4100TIP3   OH233934   3.271   0.764   0.762  0.1595 -0.3836 -1.1118
 4100TIP3    H133935   3.279   0.700   0.833 -1.0813  0.9778  0.3385
 4100TIP3    H233936   3.242   0.712   0.687 -2.1204 -1.4473  0.3600
 4101TIP3   OH233937   0.426   1.379   2.037  0.1730 -0.1121  0.2209
 4101TIP3    H133938   0.506   1.332   2.062  1.4980  0.7515 -2.0944
 4101TIP3    H233939   0.397   1.336   1.957 -0.4097  0.9660 -0.1607
 4102TIP3   OH233940   2.363   0.247   2.922  0.6556  0.2215 -0.3118
 4102TIP3    H133941   2.318   0.225   3.004 -1.5274  1.3363 -1.1297
 4102TIP3    H233942   2.309   0.207   2.854  2.1581 -0.2526 -1.2500
 4103TIP3   OH233943   6.850   0.461   0.540 -0.1040  0.1964  0.4027
 4103TIP3    H133944   6.757   0.452   0.561 -0.1251  0.0652  0.2556
 4103TIP3    H233945   6.885   0.519   0.607 -0.1446 -0.3144  0.8729
 4104TIP3   OH233946   5.773   4.784   2.331  0.2091  0.3526 -0.9413
 4104TIP3    H133947   5.858   4.800   2.371  0.8189 -0.1907 -1.9556
 4104TIP3    H233948   5.753   4.865   2.284 -0.7041  1.1480  0.7181
 4105TIP3   OH233949   4.200   2.395   3.712 -0.2592 -0.1358 -0.2209
 4105TIP3    H133950   4.230   2.309   3.683 -0.8789 -0.8019  1.0159
 4105TIP3    H233951   4.128   2.375   3.772 -1.1808  1.2976 -0.8048
 4106TIP3   OH233952   3.538   0.843   0.774 -0.5810 -0.1488  0.5100
 4106TIP3    H133953   3.451   0.808   0.791 -0.8045  0.5205  0.7808
 4106TIP3    H233954   3.566   0.800   0.693 -1.1406 -0.4050  0.4483
 4107TIP3   OH233955   4.404   0.241   2.572 -0.1870 -0.0890 -0.2497
 4107TIP3    H133956   4.379   0.149   2.569  0.6171 -0.3140 -0.2212
 4107TIP3    H233957   4.395   0.265   2.664 -0.7405 -0.0333 -0.3126
 4108TIP3   OH233958   4.216   4.489   2.800 -0.0635 -0.0960  0.1371
 4108TIP3    H133959   4.265   4.498   2.881  0.4060 -0.1684 -0.1337
 4108TIP3    H233960   4.127   4.468   2.828  0.1638 -0.4320  0.6241
 4109TIP3   OH233961   1.613   5.990   0.682  0.0433 -0.5287  0.3780
 4109TIP3    H133962   1.617   5.978   0.587 -0.9246  0.3656  0.2154
 4109TIP3    H233963   1.539   6.049   0.696  0.6193 -0.0811  1.6404
 4110TIP3   OH233964   1.626   2.265   7.774  0.0272  0.2292 -0.1387
 4110TIP3    H133965   1.538   2.261   7.811 -0.2282  1.1821 -0.6011
 4110TIP3    H233966   1.638   2.179   7.733 -0.7059  0.1041 -0.1097
 4111TIP3   OH233967   5.861   5.396   1.278  0.1994  0.0473  0.7548
 4111TIP3    H133968   5.906   5.460   1.223  0.6943 -0.4349  0.5950
 4111TIP3    H233969   5.897   5.312   1.252 -0.1626 -0.2649  1.2406
 4112TIP3   OH233970   0.145   3.676   0.511  0.2624  0.2929  0.3484
 4112TIP3    H133971   0.209   3.615   0.547 -0.0055  1.2896  2.6349
 4112TIP3    H233972   0.160   3.758   0.557 -0.0587  1.7381 -1.9289
 4113TIP3   OH233973   0.943   2.864   1.103 -0.3203 -0.3720 -0.1434
 4113TIP3    H133974   0.989   2.827   1.028 -0.7204 -0.5819 -0.2868
 4113TIP3    H233975   0.932   2.957   1.082 -1.2657 -0.6143 -0.7732
 4114TIP3   OH233976   3.207   0.904   0.411 -0.4755  0.1060 -0.2355
 4114TIP3    H133977   3.133   0.904   0.472 -1.2832  1.1160 -1.1709
 4114TIP3    H233978   3.258   0.826   0.434 -0.9387  0.2852  1.4870
 4115TIP3   OH233979   2.394   4.996   1.975 -0.5682 -0.1316  0.0601
 4115TIP3    H133980   2.484   5.020   1.996 -0.2474 -1.2093 -0.0280
 4115TIP3    H233981   2.346   5.009   2.057 -0.3902  0.6457  0.0525
 4116TIP3   OH233982   2.744   5.266   0.728 -0.2576 -0.2085  0.0275
 4116TIP3    H133983   2.760   5.208   0.653  0.5177  0.6200 -0.4619
 4116TIP3    H233984   2.679   5.328   0.698 -1.2405 -0.9150  0.6207
 4117TIP3   OH233985   4.639   3.094   1.832 -0.2121 -0.0112 -0.4171
 4117TIP3    H133986   4.685   3.030   1.886 -2.3563 -1.5152 -0.2521
 4117TIP3    H233987   4.586   3.144   1.894 -0.0261  0.6309 -0.7681
 4118TIP3   OH233988   6.531   0.267   0.076  0.2743 -0.0092 -0.7512
 4118TIP3    H133989   6.608   0.234   0.029 -0.0984 -0.3280 -1.1537
 4118TIP3    H233990   6.469   0.288   0.006  0.3595  1.1844 -0.4775
 4119TIP3   OH233991   5.253   5.710   0.346  0.2444  0.3767  0.4550
 4119TIP3    H133992   5.273   5.782   0.405 -0.5404  1.6427 -0.7592
 4119TIP3    H233993   5.166   5.679   0.374 -0.7488  1.8647 -0.7812
 4120TIP3   OH233994   1.324   3.689   0.899 -0.4714 -0.1407 -0.2226
 4120TIP3    H133995   1.364   3.770   0.868  0.8027 -0.1499  1.2727
 4120TIP3    H233996   1.311   3.637   0.820  0.2196  0.8576 -1.0233
 4121TIP3   OH233997   4.320   0.974   4.060  0.6925  0.0371  0.5948
 4121TIP3    H133998   4.365   0.967   3.976  0.1872 -0.1530  0.3356
 4121TIP3    H233999   4.253   1.041   4.045  1.3397  0.8404  1.1862
 4122TIP3   OH234000   2.256   2.131   2.283 -0.2916 -0.3369 -0.6770
 4122TIP3    H134001   2.227   2.094   2.200 -0.0457  0.5861 -1.1889
 4122TIP3    H234002   2.261   2.225   2.267  0.2107 -0.1914  0.2440
 4123TIP3   OH234003   0.687   6.712   2.064  0.1556 -0.3718  0.6889
 4123TIP3    H134004   0.732   6.634   2.031  1.8229  0.8671 -0.1027
 4123TIP3    H234005   0.738   6.785   2.030 -1.2879  1.0832  1.5217
 4124TIP3   OH234006   3.527   3.243   3.271 -0.2622 -0.1360 -0.1290
 4124TIP3    H134007   3.540   3.152   3.245  0.2340 -0.2631  0.5412
 4124TIP3    H234008   3.485   3.238   3.357  0.6039  0.2526  0.3318
 4125TIP3   OH234009   4.127   4.051   0.076 -0.2459 -0.6326  0.2518
 4125TIP3    H134010   4.119   4.070  -0.018 -2.1021  0.1692  0.5219
 4125TIP3    H234011   4.038   4.026   0.102  0.0550  0.0205  1.9778
 4126TIP3   OH234012   0.405   6.604   1.431  0.5434 -0.3822 -0.5335
 4126TIP3    H134013   0.363   6.518   1.429 -0.8028  0.2316 -1.9546
 4126TIP3    H234014   0.407   6.629   1.523  0.6441 -1.7789 -0.1425
 4127TIP3   OH234015   5.944   3.498   3.925  0.3692  0.2483  0.3152
 4127TIP3    H134016   6.035   3.501   3.894 -0.4313 -0.6964 -2.4033
 4127TIP3    H234017   5.925   3.588   3.952  1.5723  0.8875 -0.8250
 4128TIP3   OH234018   6.737   2.582   2.629 -0.2727 -0.1269  0.2665
 4128TIP3    H134019   6.747   2.551   2.539 -0.6134 -0.8926  0.4870
 4128TIP3    H234020   6.807   2.646   2.640 -1.1960  1.1504 -1.0448
 4129TIP3   OH234021   4.262   0.884   0.695 -0.3426 -0.0529 -0.1648
 4129TIP3    H134022   4.229   0.799   0.665  3.0732 -0.7553 -2.6311
 4129TIP3    H234023   4.264   0.938   0.615  2.1235  0.6000  0.2505
 4130TIP3   OH234024   5.470   4.184   8.307  0.4554 -0.7487  0.3367
 4130TIP3    H134025   5.517   4.257   8.348 -0.8819  0.5878 -0.4010
 4130TIP3    H234026   5.530   4.151   8.240  0.7341  0.2866  0.0568
 4131TIP3   OH234027   3.075   5.959   0.449 -0.0184  0.2325  0.2801
 4131TIP3    H134028   3.073   5.993   0.539  0.6588 -0.0934  0.4288
 4131TIP3    H234029   2.983   5.948   0.425 -0.3292  2.6872  0.0242
 4132TIP3   OH234030   2.243   5.042   2.202  0.2501  0.2460 -0.1845
 4132TIP3    H134031   2.153   5.007   2.206  0.5159 -0.3801  0.6860
 4132TIP3    H234032   2.235   5.132   2.234 -0.0523  0.1628 -0.0180
 4133TIP3   OH234033   6.589   6.782   3.513 -0.1895 -1.1782  0.1867
 4133TIP3    H134034   6.662   6.842   3.530 -1.2196  0.1783  0.0702
 4133TIP3    H234035   6.614   6.736   3.433 -0.2156  0.6225 -0.9359
 4134TIP3   OH234036   1.229   0.594   1.370 -0.0971 -0.1231  0.3636
 4134TIP3    H134037   1.169   0.653   1.324  1.0253  1.3866  0.7467
 4134TIP3    H234038   1.214   0.613   1.463  0.8330  0.1657  0.4677
 4135TIP3   OH234039   6.656   1.082   8.673 -0.0400 -0.0161  0.0477
 4135TIP3    H134040   6.585   1.034   8.717  0.5292  0.4330  1.5210
 4135TIP3    H234041   6.626   1.173   8.673 -0.2578 -0.0774 -0.9955
 4136TIP3   OH234042   6.835   6.319   1.311 -0.6780  0.0307  0.7271
 4136TIP3    H134043   6.926   6.297   1.288 -0.4806  0.4673  1.0906
 4136TIP3    H234044   6.796   6.346   1.227 -0.1197  1.0453  0.7745
 4137TIP3   OH234045   1.855   5.365   2.313 -0.3970  0.1835 -0.0053
 4137TIP3    H134046   1.836   5.409   2.230 -2.7718 -0.2463  0.2447
 4137TIP3    H234047   1.908   5.289   2.288  1.6632  1.7572 -0.7055
 4138TIP3   OH234048   0.824   3.482   8.171  0.3191  0.3765  0.1271
 4138TIP3    H134049   0.818   3.444   8.083 -3.1447 -1.3639  0.8988
 4138TIP3    H234050   0.743   3.454   8.214  1.7049  1.4112  3.8015
 4139TIP3   OH234051   3.267   0.473   1.486 -0.4902  0.1777 -0.1655
 4139TIP3    H134052   3.237   0.561   1.464 -0.6278 -0.0627 -0.9718
 4139TIP3    H234053   3.326   0.486   1.560  0.3014  1.0702 -0.9182
 4140TIP3   OH234054   6.603   5.423   4.007  0.3168  0.1420  0.5523
 4140TIP3    H134055   6.545   5.348   4.021 -0.9833  1.4902  2.9630
 4140TIP3    H234056   6.552   5.484   3.955  0.6215  0.1800  0.2974
 4141TIP3   OH234057   4.306   6.207   3.240 -0.1947  0.3009 -0.7370
 4141TIP3    H134058   4.282   6.146   3.310 -0.2135 -1.5905 -2.3054
 4141TIP3    H234059   4.399   6.226   3.255 -0.2054 -0.0675 -0.1888
 4142TIP3   OH234060   0.400   2.599   7.659 -0.0972  0.1804  0.1791
 4142TIP3    H134061   0.493   2.603   7.635  0.4456 -4.3039  0.5733
 4142TIP3    H234062   0.392   2.658   7.733  2.3466  0.9972 -0.1135
 4143TIP3   OH234063   1.750   2.236   2.224 -0.4398  0.0715  0.2982
 4143TIP3    H134064   1.764   2.142   2.212 -1.0176  0.0544 -0.3413
 4143TIP3    H234065   1.655   2.245   2.225 -0.7403  1.2308 -5.2991
 4144TIP3   OH234066   3.213   4.440   0.107  0.2231 -0.1237 -0.1570
 4144TIP3    H134067   3.185   4.380   0.037  0.3607 -0.0968 -0.2357
 4144TIP3    H234068   3.197   4.527   0.071 -0.8551 -0.1109  0.3135
 4145TIP3   OH234069   0.197   5.803   2.365 -0.0711  0.2232  0.2189
 4145TIP3    H134070   0.146   5.884   2.363 -1.2845 -0.5386 -0.6843
 4145TIP3    H234071   0.183   5.768   2.453 -0.9438  0.1292  0.0463
 4146TIP3   OH234072   2.993   4.178   8.598 -0.2080  0.7609 -0.4270
 4146TIP3    H134073   3.003   4.237   8.522  2.0259  0.3080 -0.5686
 4146TIP3    H234074   3.080   4.176   8.637 -1.3333  1.0546  2.2606
 4147TIP3   OH234075   3.297   2.616   1.202 -0.6063 -0.1554 -0.3440
 4147TIP3    H134076   3.249   2.579   1.128 -0.5770  1.3375 -1.1542
 4147TIP3    H234077   3.387   2.625   1.169 -0.5190  0.1988 -0.0133
 4148TIP3   OH234078   5.876   2.690   0.096 -0.4012  0.2552  0.6720
 4148TIP3    H134079   5.831   2.608   0.074 -1.2878  0.9076 -0.0454
 4148TIP3    H234080   5.908   2.723   0.012 -0.0083  0.6222  0.9618
 4149TIP3   OH234081   5.458   4.924   2.274 -0.0732 -0.2185  0.3671
 4149TIP3    H134082   5.479   4.893   2.185 -0.8020  2.0853 -0.6809
 4149TIP3    H234083   5.374   4.882   2.294 -0.1706 -0.3288 -0.2475
 4150TIP3   OH234084   5.248   1.749   2.947  0.2644  0.2949  0.2047
 4150TIP3    H134085   5.302   1.693   3.003 -1.5143 -0.1648  1.5716
 4150TIP3    H234086   5.188   1.792   3.008 -0.8262  0.8615 -1.2286
 4151TIP3   OH234087   3.384   2.058   2.796  0.4349  0.4321 -0.3566
 4151TIP3    H134088   3.301   2.022   2.828 -0.0911  1.9699  0.0674
 4151TIP3    H234089   3.362   2.146   2.767  1.3621 -0.0793 -2.8673
 4152TIP3   OH234090   3.073   3.441   3.831  0.3323 -0.1323  0.1937
 4152TIP3    H134091   3.003   3.440   3.896 -0.5573  0.3288 -0.7188
 4152TIP3    H234092   3.079   3.532   3.803  0.2856 -0.4126 -0.7817
 4153TIP3   OH234093   6.183   4.417   2.459 -0.7654  0.7364 -0.6909
 4153TIP3    H134094   6.195   4.341   2.402 -1.1959  1.0859 -1.2629
 4153TIP3    H234095   6.267   4.429   2.501 -0.6113  0.1070 -0.8042
 4154TIP3   OH234096   0.370   0.920   0.856  0.0775 -0.6828  0.4528
 4154TIP3    H134097   0.329   0.848   0.808 -0.5684 -0.2746  0.3936
 4154TIP3    H234098   0.340   0.999   0.812  1.0279 -0.3750  0.3294
 4155TIP3   OH234099   5.986   4.018   2.565 -0.6384  0.1516 -0.0477
 4155TIP3    H134100   5.906   4.046   2.520  0.0375  0.8901 -0.8218
 4155TIP3    H234101   6.001   3.929   2.535 -1.6848 -0.3557  0.8529
 4156TIP3   OH234102   3.557   2.332   2.566 -0.5467  0.5082  0.2158
 4156TIP3    H134103   3.585   2.414   2.607 -0.1414  1.6235 -2.1036
 4156TIP3    H234104   3.465   2.347   2.544 -0.8976 -0.2639  1.0861
 4157TIP3   OH234105   5.163   2.383   0.998 -0.2484  0.0869  0.0508
 4157TIP3    H134106   5.179   2.405   1.090 -0.3360  0.9384 -0.1332
 4157TIP3    H234107   5.072   2.356   0.995  0.0318 -0.9818  0.3930
 4158TIP3   OH234108   1.932   2.060   3.849  0.0015  0.7965 -0.1428
 4158TIP3    H134109   1.971   1.999   3.787 -0.2493  1.6857 -1.2149
 4158TIP3    H234110   1.867   2.009   3.896 -0.4908  0.3256 -1.3065
 4159TIP3   OH234111   6.237   0.017   0.196  0.0066 -1.1949  0.1152
 4159TIP3    H134112   6.315   0.045   0.244 -0.2937 -0.9833  0.4855
 4159TIP3    H234113   6.178   0.092   0.199 -0.0272 -1.1944 -0.5641
 4160TIP3   OH234114   0.613   5.873   0.396 -0.0022 -1.1989  0.0240
 4160TIP3    H134115   0.616   5.871   0.301 -1.8421  1.0283 -0.1525
 4160TIP3    H234116   0.705   5.870   0.423  0.9653  2.8149 -2.0501
 4161TIP3   OH234117   0.455   3.226   8.600  0.3078  0.1523  0.2505
 4161TIP3    H134118   0.429   3.153   8.656  0.2591 -0.1965 -0.2206
 4161TIP3    H234119   0.461   3.301   8.659  0.2755 -0.2159  0.7232
 4162TIP3   OH234120   4.978   4.705   8.166 -0.1178 -0.4044 -0.4070
 4162TIP3    H134121   4.902   4.649   8.175  1.3849 -2.1677  3.6660
 4162TIP3    H234122   5.051   4.645   8.151  1.0626  0.7515  0.4765
 4163TIP3   OH234123   2.494   1.119   1.384  0.2227 -0.3669 -0.3546
 4163TIP3    H134124   2.577   1.086   1.420 -0.9517 -1.7627  1.2579
 4163TIP3    H234125   2.520   1.173   1.309  2.4731 -2.5461 -1.2801
 4164TIP3   OH234126   3.533   4.130   0.943  0.3659 -0.2320  0.1332
 4164TIP3    H134127   3.561   4.139   1.035 -0.6435 -0.6585  0.4973
 4164TIP3    H234128   3.439   4.115   0.949  0.0647  0.9975 -1.0392
 4165TIP3   OH234129   2.611   4.146   0.415  0.6613  0.7917  0.3981
 4165TIP3    H134130   2.654   4.113   0.493  0.2079  0.1327  0.3785
 4165TIP3    H234131   2.582   4.068   0.368 -0.2630  1.2038  0.2502
 4166TIP3   OH234132   0.039   0.583   0.286 -0.3912  0.2437  0.2412
 4166TIP3    H134133   0.041   0.546   0.375 -0.6150  0.2018  0.2295
 4166TIP3    H234134  -0.050   0.614   0.275 -0.4885 -0.1647 -0.1398
 4167TIP3   OH234135   4.131   0.784   3.395 -0.6191  0.0378  0.2120
 4167TIP3    H134136   4.215   0.763   3.435 -0.3046 -0.4559 -0.6905
 4167TIP3    H234137   4.069   0.788   3.469 -0.0293 -0.7221  0.7551
 4168TIP3   OH234138   6.252   0.294   1.910 -0.3655  0.5204  0.1288
 4168TIP3    H134139   6.307   0.245   1.970  0.2077  1.6328  0.5343
 4168TIP3    H234140   6.163   0.271   1.935 -0.1104  0.0751  0.6441
 4169TIP3   OH234141   1.213   5.205   0.849 -0.5395 -0.2733  0.4430
 4169TIP3    H134142   1.275   5.256   0.902 -0.6192 -0.6426  0.8971
 4169TIP3    H234143   1.254   5.202   0.762  0.6590 -1.4744  1.0113
 4170TIP3   OH234144   5.425   4.910   1.427  0.5318 -0.1626 -0.1052
 4170TIP3    H134145   5.377   4.874   1.501  1.9140 -1.0798  0.3928
 4170TIP3    H234146   5.374   4.986   1.399 -0.3273 -0.1549  1.4064
 4171TIP3   OH234147   0.174   2.546   0.744 -0.4179  0.1093  0.5782
 4171TIP3    H134148   0.263   2.519   0.765 -0.0797  0.9631  0.2807
 4171TIP3    H234149   0.157   2.621   0.801 -0.2104  1.1971 -0.7438
 4172TIP3   OH234150   4.863   2.610   0.984  0.5334  0.0793 -0.4413
 4172TIP3    H134151   4.847   2.662   1.063 -0.5061 -1.4170  0.3886
 4172TIP3    H234152   4.791   2.631   0.925  1.0322  0.8157 -0.7983
 4173TIP3   OH234153   0.846   4.756   2.732  0.0235  0.3196 -0.1941
 4173TIP3    H134154   0.789   4.802   2.793  0.6694  0.5321  0.2478
 4173TIP3    H234155   0.848   4.666   2.764 -0.0400  0.3186 -0.1938
 4174TIP3   OH234156   3.504   0.895   0.301 -0.1449  0.4972  0.6253
 4174TIP3    H134157   3.536   0.851   0.222  1.5479  0.2321  1.4168
 4174TIP3    H234158   3.527   0.987   0.289  0.0510  0.4687  0.7954
 4175TIP3   OH234159   6.470   1.985   2.282  0.1277  0.7263 -0.2211
 4175TIP3    H134160   6.509   2.045   2.345  0.4965  0.1583  0.1092
 4175TIP3    H234161   6.543   1.928   2.255 -0.1462  0.6130 -0.7433
 4176TIP3   OH234162   2.790   6.640   1.644  0.1212 -0.0785  0.2983
 4176TIP3    H134163   2.797   6.546   1.663 -0.6249 -0.0766  0.6139
 4176TIP3    H234164   2.696   6.657   1.641  0.1438  0.0791 -2.6852
 4177TIP3   OH234165   2.937   5.369   2.686 -0.1083  0.3571 -0.2036
 4177TIP3    H134166   2.991   5.386   2.763 -1.7861  0.8983  0.9106
 4177TIP3    H234167   2.880   5.446   2.680 -3.6064 -1.8995  1.1829
 4178TIP3   OH234168   5.347   6.234   2.059 -0.2012 -0.0084 -0.7441
 4178TIP3    H134169   5.313   6.315   2.096  2.9826  1.2986 -0.3638
 4178TIP3    H234170   5.389   6.260   1.977 -1.5004 -1.8089 -2.0779
 4179TIP3   OH234171   0.452   6.247   1.212 -0.1935  0.1850 -0.2437
 4179TIP3    H134172   0.510   6.223   1.284 -1.8002 -1.6641  0.5063
 4179TIP3    H234173   0.497   6.215   1.133 -0.1812 -1.3413  0.3400
 4180TIP3   OH234174   6.570   1.859   8.285 -0.4992 -0.1987 -0.1990
 4180TIP3    H134175   6.556   1.825   8.197 -0.0441  1.0078 -0.7665
 4180TIP3    H234176   6.494   1.916   8.301 -0.6137 -0.4623  0.2213
 4181TIP3   OH234177   0.113   4.349   1.348 -0.3643 -0.7663 -0.7520
 4181TIP3    H134178   0.021   4.337   1.328 -0.6340  0.7794 -0.5933
 4181TIP3    H234179   0.147   4.403   1.276  0.1725 -0.5088 -0.3169
 4182TIP3   OH234180   4.604   6.743   8.506 -0.1451 -0.1900  0.0268
 4182TIP3    H134181   4.617   6.650   8.521 -1.5181 -0.4400 -0.1844
 4182TIP3    H234182   4.538   6.747   8.437 -0.6030  0.9230  0.5016
 4183TIP3   OH234183   1.455   1.096   3.568  0.7826  0.6311  0.4300
 4183TIP3    H134184   1.366   1.129   3.579 -0.0026 -0.8160 -0.9967
 4183TIP3    H234185   1.456   1.013   3.617  0.1199 -1.1856 -2.3749
 4184TIP3   OH234186   4.357   3.054   8.009 -0.4027 -0.3386  0.4191
 4184TIP3    H134187   4.445   3.083   7.985 -0.8606  1.2379  0.5889
 4184TIP3    H234188   4.302   3.082   7.935 -0.8332 -0.9609  0.4974
 4185TIP3   OH234189   1.337   6.556   1.968 -0.6929 -0.3674 -0.1255
 4185TIP3    H134190   1.280   6.553   1.891 -0.0222 -0.4241 -0.6318
 4185TIP3    H234191   1.375   6.644   1.967 -0.3968 -0.4920 -0.0785
 4186TIP3   OH234192   5.867   0.432   0.436  0.3787  0.2879  0.0633
 4186TIP3    H134193   5.938   0.494   0.453  0.6436  0.2042 -0.6967
 4186TIP3    H234194   5.828   0.416   0.522  1.8704 -0.3758  0.6461
 4187TIP3   OH234195   2.096   5.703   0.219  0.0398 -0.6183 -0.4060
 4187TIP3    H134196   2.162   5.666   0.161  2.1234  0.1053  1.3802
 4187TIP3    H234197   2.058   5.628   0.264  2.0700 -0.9241  0.9512
 4188TIP3   OH234198   0.702   3.967   0.540 -0.2829  0.1517 -0.1056
 4188TIP3    H134199   0.724   3.978   0.447  1.6966 -0.8658  0.2084
 4188TIP3    H234200   0.733   4.047   0.582  1.6288 -0.6686  0.1126
 4189TIP3   OH234201   0.052   5.990   0.720 -0.1206  0.1025 -0.3896
 4189TIP3    H134202   0.136   5.957   0.751 -0.3568 -0.7907 -0.6695
 4189TIP3    H234203   0.063   6.001   0.626 -0.9284 -2.0133 -0.7736
 4190TIP3   OH234204   1.339   3.359   2.857 -0.3498 -0.8056  0.0720
 4190TIP3    H134205   1.336   3.356   2.952 -1.2893 -0.2979  0.0689
 4190TIP3    H234206   1.301   3.444   2.834  1.6906 -0.0242 -0.6966
 4191TIP3   OH234207   6.297   4.119   0.248  0.1289  0.0087 -0.8379
 4191TIP3    H134208   6.315   4.054   0.180  1.5642  0.6754 -1.1234
 4191TIP3    H234209   6.232   4.178   0.209 -1.0924 -1.1312 -0.6251
 4192TIP3   OH234210   6.398   1.675   8.650 -0.3296 -0.1483 -0.4058
 4192TIP3    H134211   6.491   1.678   8.673 -0.8403  1.4804  1.7414
 4192TIP3    H234212   6.363   1.603   8.703 -0.6437  0.5515  0.3530
 4193TIP3   OH234213   5.781   0.048   0.662  0.7422 -0.1543  0.2020
 4193TIP3    H134214   5.720   0.077   0.729  0.5204  1.1982 -0.5333
 4193TIP3    H234215   5.867   0.050   0.705  0.3277 -1.9335  1.1972
 4194TIP3   OH234216   6.752   5.749   0.593  0.0158 -0.5530 -0.0961
 4194TIP3    H134217   6.750   5.653   0.589  1.9602 -0.6100 -0.8660
 4194TIP3    H234218   6.843   5.772   0.571 -0.7944  1.5522 -1.4931
 4195TIP3   OH234219   6.463   5.175   3.989 -0.0281 -0.2714 -0.1632
 4195TIP3    H134220   6.380   5.216   4.012 -0.2711  0.4831 -2.2261
 4195TIP3    H234221   6.468   5.098   4.046 -0.9849  0.9296  1.6635
 4196TIP3   OH234222   5.644   5.423   0.471 -0.1397  0.3086 -0.5213
 4196TIP3    H134223   5.687   5.392   0.392 -2.4505  0.6032 -1.9700
 4196TIP3    H234224   5.679   5.367   0.541  0.3707 -1.4040 -2.0723
 4197TIP3   OH234225   6.048   4.879   2.373  0.1305  0.0702 -0.4348
 4197TIP3    H134226   6.044   4.954   2.433  2.0966  0.9167 -1.2650
 4197TIP3    H234227   6.077   4.806   2.428 -0.7727  0.1563  0.1738
 4198TIP3   OH234228   5.886   0.400   1.573  0.0803 -0.1714 -0.6089
 4198TIP3    H134229   5.903   0.356   1.490  0.8908 -0.0101 -0.5325
 4198TIP3    H234230   5.968   0.443   1.594 -0.5636  1.0269 -0.4679
 4199TIP3   OH234231   2.077   0.698   8.332  0.2235 -0.0711  0.4431
 4199TIP3    H134232   2.094   0.603   8.331 -2.0768 -0.5645  0.8846
 4199TIP3    H234233   2.119   0.729   8.412  1.0965 -0.6956  0.2382
 4200TIP3   OH234234   4.261   2.005   3.963 -0.4036 -0.1612  0.3927
 4200TIP3    H134235   4.258   1.952   4.042 -2.3824  1.3790  1.4355
 4200TIP3    H234236   4.262   2.096   3.994  1.4719  0.4924 -1.3424
 4201TIP3   OH234237   4.740   3.383   1.596  0.1480  0.0271  0.6118
 4201TIP3    H134238   4.793   3.315   1.638  0.3061  0.4665  1.1383
 4201TIP3    H234239   4.725   3.447   1.665  1.8009  1.5896 -0.4175
 4202TIP3   OH234240   0.617   2.788   2.960  0.0778 -0.0364 -0.1751
 4202TIP3    H134241   0.571   2.725   3.016 -0.6939  0.5220 -0.1658
 4202TIP3    H234242   0.591   2.765   2.871  0.3423 -0.1641 -0.2192
 4203TIP3   OH234243   2.897   4.314   1.038 -0.8318  0.0587 -0.4670
 4203TIP3    H134244   2.952   4.371   0.984  0.7297 -1.4478 -0.5445
 4203TIP3    H234245   2.902   4.228   0.995 -1.6968 -0.5540  0.6067
 4204TIP3   OH234246   6.368   3.542   8.050 -0.1530  0.6556 -0.0081
 4204TIP3    H134247   6.278   3.512   8.064  0.8126 -1.0393  3.7228
 4204TIP3    H234248   6.390   3.511   7.962 -1.9909 -2.3600  0.4568
 4205TIP3   OH234249   0.465   5.032   0.922  0.1928 -0.1650  0.6861
 4205TIP3    H134250   0.377   5.009   0.893  0.0449 -0.4228  1.3244
 4205TIP3    H234251   0.518   4.954   0.901  0.2867  0.0180  0.2351
 4206TIP3   OH234252   4.344   2.950   8.677  0.2417  0.3330 -0.2653
 4206TIP3    H134253   4.320   2.905   8.596  0.2026  1.6542 -1.0314
 4206TIP3    H234254   4.286   2.912   8.743 -1.1523  0.6095 -1.2724
 4207TIP3   OH234255   2.229   4.788   2.531  0.2143 -0.2065 -0.5002
 4207TIP3    H134256   2.171   4.863   2.546  2.0676  1.0114  0.9990
 4207TIP3    H234257   2.171   4.719   2.499 -1.7742  1.4504 -0.6599
 4208TIP3   OH234258   1.021   3.381   2.927  0.2560  0.1760 -0.2757
 4208TIP3    H134259   0.995   3.299   2.969  0.1537  0.6612  0.6313
 4208TIP3    H234260   0.992   3.372   2.837 -3.6577  0.9074  0.7397
 4209TIP3   OH234261   2.602   5.296   3.247 -0.0591  0.8308 -0.6459
 4209TIP3    H134262   2.593   5.214   3.199  1.7137 -0.4094  0.9882
 4209TIP3    H234263   2.695   5.300   3.270 -0.3176  2.7749  0.2184
 4210TIP3   OH234264   6.727   1.990   2.498 -0.4260  0.2171 -0.6456
 4210TIP3    H134265   6.794   1.927   2.524 -1.6130 -0.8259  0.0212
 4210TIP3    H234266   6.751   2.071   2.544  0.5584 -0.0395 -0.6951
 4211TIP3   OH234267   5.350   6.298   0.837  0.3145 -0.2488  0.4795
 4211TIP3    H134268   5.334   6.293   0.743  0.5109  0.2371  0.4199
 4211TIP3    H234269   5.437   6.337   0.845  1.2553 -2.2542  0.8135
 4212TIP3   OH234270   4.139   2.876   0.453  0.7198 -0.1856 -0.3199
 4212TIP3    H134271   4.077   2.942   0.485  0.5535 -0.2639 -0.4806
 4212TIP3    H234272   4.087   2.821   0.394  0.5030 -1.3006  0.8692
 4213TIP3   OH234273   0.434   6.283   2.643 -0.0405 -0.2739 -0.0439
 4213TIP3    H134274   0.440   6.244   2.730  0.3936  0.3042  0.1963
 4213TIP3    H234275   0.446   6.377   2.658 -2.4069  0.1472 -0.4322
 4214TIP3   OH234276   3.136   5.363   2.882  0.0526  0.0982  0.5472
 4214TIP3    H134277   3.189   5.292   2.918 -0.2929 -0.6629 -0.4034
 4214TIP3    H234278   3.189   5.397   2.809  0.1866  0.7851  0.9540
 4215TIP3   OH234279   3.561   4.735   7.715  0.2306 -0.9538  0.0003
 4215TIP3    H134280   3.471   4.749   7.683 -0.0804 -2.9301 -0.1247
 4215TIP3    H234281   3.611   4.714   7.636  0.8501  0.1968  0.0609
 4216TIP3   OH234282   4.515   4.620   1.175 -0.1911  0.2391  0.3868
 4216TIP3    H134283   4.483   4.633   1.085  0.2459  0.5506  0.2766
 4216TIP3    H234284   4.442   4.576   1.219 -1.2370  1.9571  0.4518
 4217TIP3   OH234285   4.831   0.121   3.252 -0.1190 -0.3491 -0.1859
 4217TIP3    H134286   4.900   0.126   3.318 -0.3126 -2.8217  0.3095
 4217TIP3    H234287   4.806   0.212   3.237  2.4581  0.5507  0.4123
 4218TIP3   OH234288   5.613   0.087   2.963  0.2779 -0.0840  0.3365
 4218TIP3    H134289   5.589   0.171   3.002 -0.6584 -0.3379  0.3367
 4218TIP3    H234290   5.543   0.069   2.900  1.4666  0.0450 -1.0666
 4219TIP3   OH234291   6.251   0.664   2.841 -0.1482 -0.0775 -0.0257
 4219TIP3    H134292   6.344   0.649   2.860 -0.4539  0.0469  1.7845
 4219TIP3    H234293   6.231   0.604   2.770  1.1078 -0.7599  0.1675
 4220TIP3   OH234294   2.729   0.039   7.849  0.3279  0.0302 -0.2461
 4220TIP3    H134295   2.693   0.037   7.938  2.2520  2.6592  0.7490
 4220TIP3    H234296   2.789  -0.036   7.846  0.3982  0.0240  0.7703
 4221TIP3   OH234297   5.556   6.529   8.490 -0.5964  0.0242 -0.3634
 4221TIP3    H134298   5.534   6.437   8.505 -0.1350 -0.3609 -1.8816
 4221TIP3    H234299   5.476   6.567   8.453  0.1629 -0.5940 -2.8144
 4222TIP3   OH234300   6.256   1.327   2.240  0.1987 -0.4528 -0.2954
 4222TIP3    H134301   6.319   1.378   2.189 -2.5319  3.2705 -0.3157
 4222TIP3    H234302   6.253   1.370   2.325 -1.4579 -1.2463  0.0804
 4223TIP3   OH234303   5.545   3.322   1.996  0.1454  0.1955 -0.3146
 4223TIP3    H134304   5.630   3.286   2.022 -0.1535 -1.3683 -1.3599
 4223TIP3    H234305   5.518   3.268   1.922 -1.8065  0.6208  0.0340
 4224TIP3   OH234306   2.782   1.178   0.384 -0.1436 -0.1408  0.0707
 4224TIP3    H134307   2.866   1.203   0.421  0.5993 -1.4243 -0.6739
 4224TIP3    H234308   2.720   1.243   0.417  0.8810  0.0271  1.7375
 4225TIP3   OH234309   2.269   6.527   1.325  0.8532 -0.2873 -0.0406
 4225TIP3    H134310   2.181   6.533   1.290  1.5745  0.7195 -1.8192
 4225TIP3    H234311   2.264   6.570   1.410 -0.2783  0.1627 -0.3216
 4226TIP3   OH234312   4.701   2.803   0.701 -0.8546 -0.3754  0.0759
 4226TIP3    H134313   4.706   2.899   0.704 -0.9929 -0.3557 -0.2578
 4226TIP3    H234314   4.614   2.783   0.734 -1.3964 -0.3007 -1.2693
 4227TIP3   OH234315   4.056   2.023   2.632  0.3077  0.1028  0.1070
 4227TIP3    H134316   3.964   2.007   2.610  0.5249 -0.4258 -0.4504
 4227TIP3    H234317   4.062   2.118   2.641 -0.8621  0.0302  2.7419
 4228TIP3   OH234318   1.970   4.865   0.529 -0.1053 -0.0483 -0.0260
 4228TIP3    H134319   1.900   4.805   0.503 -2.0828  2.3440 -0.5715
 4228TIP3    H234320   2.044   4.842   0.473 -1.4815 -0.6142 -1.6878
 4229TIP3   OH234321   3.393   1.119   8.739  0.1596  0.6246  0.0774
 4229TIP3    H134322   3.477   1.147   8.703 -0.3495  1.3398 -0.6054
 4229TIP3    H234323   3.410   1.105   8.832  1.0718  0.5947 -0.0860
 4230TIP3   OH234324   4.843   4.609   0.639 -0.3213  0.0130 -0.2815
 4230TIP3    H134325   4.937   4.594   0.629 -0.1247  0.4516  0.7170
 4230TIP3    H234326   4.829   4.697   0.604 -0.1513  0.3864  0.5595
 4231TIP3   OH234327   6.597   4.196   8.368  0.3874 -0.1970 -0.7016
 4231TIP3    H134328   6.684   4.225   8.395  0.4431  0.2348 -1.3297
 4231TIP3    H234329   6.597   4.203   8.272 -0.3924 -0.0304 -0.7016
 4232TIP3   OH234330   4.345   2.312   8.463  0.5266  0.3835 -0.2510
 4232TIP3    H134331   4.367   2.369   8.389  0.0547 -1.6727 -2.0459
 4232TIP3    H234332   4.364   2.224   8.433  0.0256 -0.5690  1.9999
 4233TIP3   OH234333   5.579   3.165   0.367  0.1091 -0.5022  0.0411
 4233TIP3    H134334   5.614   3.238   0.316 -0.0669  1.1559  2.1496
 4233TIP3    H234335   5.519   3.205   0.429  0.1430 -2.4133  1.4119
 4234TIP3   OH234336   6.338   4.763   3.456 -0.3074  0.3610 -0.4638
 4234TIP3    H134337   6.299   4.847   3.431  0.1382  0.0062 -2.5563
 4234TIP3    H234338   6.384   4.782   3.538 -3.0637  1.2796  1.0140
 4235TIP3   OH234339   0.952   5.590   1.609  0.0430  0.1070  0.5967
 4235TIP3    H134340   0.948   5.624   1.698  2.3385  1.2042  0.3503
 4235TIP3    H234341   0.992   5.503   1.619 -0.5053 -0.1345  0.7075
 4236TIP3   OH234342   2.948   0.151   8.782  0.5043  0.5289  0.3704
 4236TIP3    H134343   2.977   0.213   8.850  0.2046  0.6641  0.3788
 4236TIP3    H234344   2.867   0.190   8.748  0.2352  0.0632  0.4771
 4237TIP3   OH234345   2.883   1.976   0.407  0.3811 -0.9134  0.6446
 4237TIP3    H134346   2.904   2.052   0.353  0.0416 -0.7627  0.7235
 4237TIP3    H234347   2.931   1.990   0.489 -0.2923 -0.3944  0.9618
 4238TIP3   OH234348   6.225   2.922   3.375 -0.3473 -0.5272  0.1519
 4238TIP3    H134349   6.228   2.947   3.468  0.8443  1.2120 -0.2952
 4238TIP3    H234350   6.173   2.990   3.333  0.7117 -0.2206 -0.7182
 4239TIP3   OH234351   0.752   4.938   0.842 -0.3392  0.0139  0.6352
 4239TIP3    H134352   0.743   4.988   0.923  0.6768  1.1857  0.0696
 4239TIP3    H234353   0.793   4.999   0.781  1.3726 -1.6290  0.0342
 4240TIP3   OH234354   5.762   5.475   1.524 -0.7940 -0.2173  0.3149
 4240TIP3    H134355   5.806   5.452   1.442  1.4775 -0.9826  1.6546
 4240TIP3    H234356   5.729   5.563   1.510 -0.3225 -0.2770 -1.3680
 4241TIP3   OH234357   2.388   5.347   8.775 -0.4730  0.2557  0.0007
 4241TIP3    H134358   2.374   5.298   8.694 -0.2083  0.3566 -0.1043
 4241TIP3    H234359   2.380   5.281   8.844  0.6793 -0.0924 -0.1795
 4242TIP3   OH234360   1.383   0.160   0.329 -0.1464 -0.3171 -0.2495
 4242TIP3    H134361   1.353   0.242   0.290  0.4209 -0.3907 -0.8785
 4242TIP3    H234362   1.363   0.168   0.422  1.1049  1.1031 -0.0517
 4243TIP3   OH234363   5.238   2.471   1.239  0.5107 -0.5637  0.4009
 4243TIP3    H134364   5.324   2.512   1.230  0.6854 -0.5497  1.8838
 4243TIP3    H234365   5.203   2.505   1.322 -0.7589 -0.8801  0.0269
 4244TIP3   OH234366   1.606   1.102   8.033  0.6010  0.1069  0.2798
 4244TIP3    H134367   1.575   1.183   8.074  1.2437  0.6659 -0.3275
 4244TIP3    H234368   1.690   1.125   7.995  0.7004 -0.8041 -0.0617
 4245TIP3   OH234369   2.481   2.826   3.128 -0.1295 -0.2915  0.7498
 4245TIP3    H134370   2.430   2.760   3.082 -0.8144  0.2863  0.6551
 4245TIP3    H234371   2.521   2.879   3.060 -1.6389  0.9436  0.7618
 4246TIP3   OH234372   0.956   3.824   1.820 -0.3867  0.1056 -0.1492
 4246TIP3    H134373   0.983   3.888   1.886 -0.2102 -0.0109 -0.1081
 4246TIP3    H234374   0.947   3.874   1.740 -0.4676  0.2238 -0.0662
 4247TIP3   OH234375   5.795   5.394   2.499 -0.0355 -0.0314 -0.4638
 4247TIP3    H134376   5.784   5.325   2.433 -0.5047 -1.5080  1.0724
 4247TIP3    H234377   5.706   5.421   2.520 -0.0494 -1.0391  0.9660
 4248TIP3   OH234378   5.176   4.890   3.461  0.2349 -0.0181 -0.5772
 4248TIP3    H134379   5.236   4.842   3.518 -0.6942 -0.1714  0.2860
 4248TIP3    H234380   5.101   4.911   3.516 -0.7633 -0.3049 -1.7781
 4249TIP3   OH234381   0.337   2.942   2.983  0.0905  0.0552  0.6730
 4249TIP3    H134382   0.245   2.961   3.003  0.2307  0.4105  1.0004
 4249TIP3    H234383   0.334   2.876   2.915 -0.4110 -0.1464  0.8874
 4250TIP3   OH234384   0.071   6.385   0.212 -0.1130  0.7099 -0.2498
 4250TIP3    H134385   0.045   6.300   0.247 -2.0456  1.2336 -0.2942
 4250TIP3    H234386   0.087   6.369   0.119 -0.9363  0.4546 -0.3628
 4251TIP3   OH234387   3.763   5.019   0.793 -0.0760 -0.3280 -0.3235
 4251TIP3    H134388   3.740   5.014   0.700  0.3046 -2.7699 -0.3497
 4251TIP3    H234389   3.791   5.109   0.806 -0.9933  0.3107 -2.3606
 4252TIP3   OH234390   2.250   3.375   2.682  0.3342  0.9263 -0.4611
 4252TIP3    H134391   2.233   3.349   2.773 -1.6890 -0.0932 -1.0876
 4252TIP3    H234392   2.340   3.349   2.666 -0.0870 -1.3276  0.4670
 4253TIP3   OH234393   1.312   5.101   2.797 -0.2429 -0.6178 -0.1364
 4253TIP3    H134394   1.249   5.107   2.726 -0.4519  1.3684  0.1509
 4253TIP3    H234395   1.397   5.114   2.754 -0.1643 -1.5455 -0.2844
 4254TIP3   OH234396   0.696   1.655   2.289  0.1732  0.2494 -0.1398
 4254TIP3    H134397   0.722   1.701   2.369 -1.0052  2.1933 -0.8242
 4254TIP3    H234398   0.767   1.592   2.274  0.0740 -0.7633  2.8235
 4255TIP3   OH234399   2.997   3.637   1.785 -0.2851  0.0909  0.2899
 4255TIP3    H134400   2.926   3.701   1.774 -0.1080  0.2532  0.0986
 4255TIP3    H234401   3.056   3.654   1.713 -0.4347 -0.5506  0.0078
 4256TIP3   OH234402   5.680   2.206   3.616  0.3423  0.8061  0.2229
 4256TIP3    H134403   5.634   2.287   3.593 -0.2702  0.4972  0.3235
 4256TIP3    H234404   5.753   2.201   3.555 -1.3646 -0.1119 -1.8526
 4257TIP3   OH234405   3.096   0.526   8.685 -0.8338  0.0731 -0.3308
 4257TIP3    H134406   3.055   0.590   8.744  0.5993  0.2574  0.5264
 4257TIP3    H234407   3.164   0.576   8.640 -0.9941 -0.4045 -1.1065
 4258TIP3   OH234408   4.416   4.450   1.858 -0.1692 -0.5172  0.0431
 4258TIP3    H134409   4.386   4.494   1.778 -0.4267 -2.3026 -0.8858
 4258TIP3    H234410   4.511   4.460   1.856  0.0243 -2.2468 -1.5828
 4259TIP3   OH234411   6.654   1.874   2.040  0.5581  0.2440  0.0459
 4259TIP3    H134412   6.567   1.871   2.000  0.1624  2.2537  0.6600
 4259TIP3    H234413   6.697   1.949   1.998  1.0201  0.8711  1.5705
 4260TIP3   OH234414   2.840   0.132   1.954 -0.6683 -0.4715  0.4227
 4260TIP3    H134415   2.809   0.093   2.035  0.0030  0.5176  1.1733
 4260TIP3    H234416   2.933   0.111   1.950 -0.5749 -0.0275  0.1922
 4261TIP3   OH234417   0.847   2.085   1.162 -0.1653 -0.5844 -0.5201
 4261TIP3    H134418   0.900   2.009   1.136  0.0343 -0.4356 -0.5473
 4261TIP3    H234419   0.909   2.158   1.165 -0.3391 -0.4410 -0.3976
 4262TIP3   OH234420   6.173   3.489   3.788  0.2023  0.6671 -0.5370
 4262TIP3    H134421   6.219   3.568   3.816  1.7564  0.0281 -1.1615
 4262TIP3    H234422   6.225   3.457   3.713 -1.3717 -0.0009 -1.3825
 4263TIP3   OH234423   2.166   6.677   8.239 -0.0759  0.8341  0.0630
 4263TIP3    H134424   2.216   6.727   8.175 -0.3854  1.4890  0.3225
 4263TIP3    H234425   2.180   6.722   8.322  0.4645 -0.1103  0.5096
 4264TIP3   OH234426   5.100   0.433   3.132 -0.0029 -0.2539 -0.4909
 4264TIP3    H134427   5.155   0.463   3.060  0.0357  2.4562  0.5744
 4264TIP3    H234428   5.161   0.407   3.200 -0.0507 -2.2359 -1.1435
 4265TIP3   OH234429   0.957   2.906   0.775 -0.2921  0.3155  0.1650
 4265TIP3    H134430   1.029   2.905   0.838  0.7859 -0.9717 -1.0078
 4265TIP3    H234431   0.989   2.853   0.702 -1.7399  1.2229 -1.1896
 4266TIP3   OH234432   4.559   3.847   1.870 -0.3438  0.0117 -0.5981
 4266TIP3    H134433   4.549   3.775   1.933  1.1968 -1.2194 -1.6928
 4266TIP3    H234434   4.585   3.804   1.788 -1.3130  1.6589 -1.8349
 4267TIP3   OH234435   2.426   4.092   2.031  0.0027  0.2980  0.5522
 4267TIP3    H134436   2.438   4.180   1.995 -0.4846 -0.5300 -1.8572
 4267TIP3    H234437   2.458   4.034   1.962  0.2559 -1.4516  2.0595
 4268TIP3   OH234438   6.675   1.702   2.371 -0.2616  0.3894 -0.2162
 4268TIP3    H134439   6.741   1.771   2.358 -0.2368  0.0965 -1.7374
 4268TIP3    H234440   6.726   1.626   2.399 -0.3695  1.1560  2.3632
 4269TIP3   OH234441   6.372   5.797   0.880  0.1908 -0.2219  0.3669
 4269TIP3    H134442   6.312   5.739   0.833  1.4812 -0.9303 -0.4787
 4269TIP3    H234443   6.459   5.764   0.858  1.0675  2.6322 -1.0230
 4270TIP3   OH234444   2.346   3.854   0.527  0.3694 -0.4117  0.5370
 4270TIP3    H134445   2.421   3.908   0.554  1.1716 -1.2142 -0.0478
 4270TIP3    H234446   2.382   3.791   0.465 -0.7436 -0.9951  0.4522
 4271TIP3   OH234447   5.827   4.621   0.649  0.5154  0.6358 -0.1229
 4271TIP3    H134448   5.920   4.635   0.629  0.1528 -0.0224 -2.6111
 4271TIP3    H234449   5.827   4.546   0.709  1.5522 -0.5089 -1.4783
 4272TIP3   OH234450   6.149   0.560   1.360 -0.0042  0.0479 -0.3901
 4272TIP3    H134451   6.204   0.629   1.322 -1.0992  1.4341  0.4689
 4272TIP3    H234452   6.100   0.526   1.285  0.3583  0.3753 -0.7872
 4273TIP3   OH234453   0.584   4.385   1.092 -0.3276  0.0518 -0.0825
 4273TIP3    H134454   0.663   4.361   1.141 -0.5221  1.4158  0.9604
 4273TIP3    H234455   0.529   4.307   1.096  0.9491 -0.9170 -0.8233
 4274TIP3   OH234456   0.865   1.164   8.319 -0.0450  0.0632 -0.5558
 4274TIP3    H134457   0.823   1.221   8.383 -0.2395 -1.4051  0.6861
 4274TIP3    H234458   0.795   1.107   8.288  0.5310 -0.8217 -0.2656
 4275TIP3   OH234459   1.132   1.944   8.173  0.6868  0.0974  0.2867
 4275TIP3    H134460   1.226   1.926   8.161  0.0621 -2.8074 -1.0151
 4275TIP3    H234461   1.088   1.874   8.126 -2.1953  1.4640  0.7496
 4276TIP3   OH234462   6.257   6.842   1.369  0.1845  0.2461 -0.1377
 4276TIP3    H134463   6.329   6.899   1.343  1.1658 -0.4202  1.0440
 4276TIP3    H234464   6.234   6.870   1.457 -2.6161  1.9928 -1.2768
 4277TIP3   OH234465   0.081   1.933   3.471  0.1179  0.1361 -0.1102
 4277TIP3    H134466   0.105   1.955   3.561 -1.0962 -0.6685  0.4456
 4277TIP3    H234467   0.121   1.848   3.455  2.3677  1.3323 -1.2254
 4278TIP3   OH234468   6.357   1.303   1.531 -0.1818 -0.1251 -0.0157
 4278TIP3    H134469   6.346   1.252   1.451 -0.0529  0.0780 -0.1636
 4278TIP3    H234470   6.448   1.334   1.527 -0.0148 -0.5365  0.4547
 4279TIP3   OH234471   1.375   6.627   3.313  0.0973 -0.0783  0.0761
 4279TIP3    H134472   1.322   6.695   3.270 -0.4045 -0.4142  0.1531
 4279TIP3    H234473   1.325   6.605   3.391 -0.6332 -1.7522 -0.8148
 4280TIP3   OH234474   4.636   5.076   2.743 -0.1128  0.4751 -0.3820
 4280TIP3    H134475   4.688   5.137   2.796 -0.4022  0.7865 -0.4552
 4280TIP3    H234476   4.692   5.052   2.670  0.4744 -0.3273  0.3083
 4281TIP3   OH234477   3.481   1.370   1.154 -0.0437  1.1625 -0.4348
 4281TIP3    H134478   3.513   1.340   1.239 -1.1163  1.3464  0.0541
 4281TIP3    H234479   3.386   1.363   1.160 -0.1269  0.6779 -1.8147
 4282TIP3   OH234480   4.272   3.574   8.072  0.4420  0.3202 -0.0110
 4282TIP3    H134481   4.183   3.596   8.042  0.7465  1.9797  0.2502
 4282TIP3    H234482   4.326   3.647   8.043  2.0432 -1.3507 -1.4845
 4283TIP3   OH234483   2.099   0.446   0.551 -0.1684  0.2871 -0.0932
 4283TIP3    H134484   2.166   0.483   0.495 -0.6417  3.1893  1.0887
 4283TIP3    H234485   2.017   0.460   0.503 -0.4877  2.0782  0.8805
 4284TIP3   OH234486   2.309   2.848   0.486  0.3165  0.4965  0.3743
 4284TIP3    H134487   2.367   2.889   0.423 -0.0223  0.6724  0.1751
 4284TIP3    H234488   2.260   2.783   0.435 -0.1335  0.8107  0.4041
 4285TIP3   OH234489   2.541   2.983   2.372 -0.3364 -0.4865 -0.0467
 4285TIP3    H134490   2.596   2.907   2.356  2.7413  1.4857  0.4046
 4285TIP3    H234491   2.516   3.013   2.285  0.4344 -0.6574 -0.3315
 4286TIP3   OH234492   2.564   1.735   3.062 -0.1603  0.5505 -0.1691
 4286TIP3    H134493   2.504   1.712   2.991 -0.9862  0.2235  0.6111
 4286TIP3    H234494   2.535   1.681   3.136  2.2579 -1.0236 -0.2653
 4287TIP3   OH234495   0.682   3.299   0.701  0.2466  0.0546 -0.2316
 4287TIP3    H134496   0.670   3.391   0.725 -0.0248 -0.3236  1.1700
 4287TIP3    H234497   0.774   3.280   0.722 -0.3297 -0.6399  1.9526
 4288TIP3   OH234498   1.834   5.223   8.745  0.3168  0.2282 -0.2375
 4288TIP3    H134499   1.887   5.203   8.822 -0.2265 -1.3955 -0.2413
 4288TIP3    H234500   1.897   5.240   8.675  0.8683 -1.0540 -0.0840
 4289TIP3   OH234501   6.624   0.815   2.279 -0.3271 -0.1452 -0.2759
 4289TIP3    H134502   6.546   0.859   2.245  0.4487 -0.3994 -2.5725
 4289TIP3    H234503   6.598   0.723   2.287 -0.3612 -0.1800 -0.7514
 4290TIP3   OH234504   2.582   5.678   0.827 -0.6155 -0.0216  0.6580
 4290TIP3    H134505   2.501   5.726   0.816 -1.9231 -1.6860  2.3719
 4290TIP3    H234506   2.586   5.659   0.921  0.5474 -1.9933  0.2652
 4291TIP3   OH234507   3.873   5.333   2.524  0.3177  0.1281  0.3550
 4291TIP3    H134508   3.866   5.294   2.437 -0.3269 -1.7794  1.2087
 4291TIP3    H234509   3.967   5.339   2.540  0.4770  1.2920 -0.7582
 4292TIP3   OH234510   2.628   3.021   1.689  0.4381 -0.0283  0.0875
 4292TIP3    H134511   2.676   3.082   1.634 -2.1055  0.5687 -1.6400
 4292TIP3    H234512   2.583   3.075   1.754 -2.1358  0.1554 -1.6857
 4293TIP3   OH234513   3.662   6.753   1.638  0.0596  0.1549 -0.0514
 4293TIP3    H134514   3.757   6.760   1.628 -0.1705  0.7185 -2.3443
 4293TIP3    H234515   3.626   6.817   1.577 -1.8234  0.0657  0.8808
 4294TIP3   OH234516   5.677   6.068   2.887  0.8009  0.1183  0.1599
 4294TIP3    H134517   5.694   6.141   2.827 -0.7273  0.1990 -0.2172
 4294TIP3    H234518   5.725   5.994   2.849 -0.5406  0.0281 -1.5158
 4295TIP3   OH234519   2.230   1.752   2.387 -0.1652 -0.1855 -0.2600
 4295TIP3    H134520   2.135   1.750   2.378 -0.2588  0.3031  0.5890
 4295TIP3    H234521   2.250   1.840   2.421  0.5244 -0.5233  0.2402
 4296TIP3   OH234522   4.075   4.415   1.882  0.0573  0.2008  0.6396
 4296TIP3    H134523   3.981   4.396   1.887  0.1344 -0.7218 -0.6455
 4296TIP3    H234524   4.082   4.481   1.813  0.4166 -0.3990  0.0914
 4297TIP3   OH234525   6.102   3.927   1.889 -0.8396 -0.5721 -0.0227
 4297TIP3    H134526   6.018   3.891   1.861 -0.2485 -0.6972 -1.7677
 4297TIP3    H234527   6.124   3.991   1.821  1.0868 -1.4704 -0.2941
 4298TIP3   OH234528   1.968   4.906   8.737 -0.5645  0.4054 -0.4898
 4298TIP3    H134529   1.935   4.949   8.657 -1.1009 -1.0999 -1.1101
 4298TIP3    H234530   2.004   4.978   8.789 -1.0131  1.5472 -1.6868
 4299TIP3   OH234531   5.995   1.654   0.721  0.0347  0.1617 -0.0719
 4299TIP3    H134532   5.962   1.573   0.682 -3.5327  2.0892 -1.5546
 4299TIP3    H234533   5.962   1.653   0.810  0.2652 -0.1300  0.0121
 4300TIP3   OH234534   3.971   5.146   1.768  0.4826  0.4202 -0.0410
 4300TIP3    H134535   4.042   5.132   1.830  0.9673 -0.2282 -0.7225
 4300TIP3    H234536   3.976   5.239   1.745  0.7677  0.4929  0.3252
 4301TIP3   OH234537   1.172   4.105   8.531  0.3398 -0.2843 -0.4468
 4301TIP3    H134538   1.148   4.015   8.554  1.8156 -0.5798  0.0052
 4301TIP3    H234539   1.176   4.105   8.435 -1.6198 -0.1512 -0.5711
 4302TIP3   OH234540   2.741   3.683   2.506  0.5398 -0.4008  0.0865
 4302TIP3    H134541   2.664   3.716   2.458  0.1436 -1.2858  0.0921
 4302TIP3    H234542   2.708   3.667   2.594  1.4742  2.0447  0.9647
 4303TIP3   OH234543   6.636   2.421   0.020 -0.3562  0.2830 -0.0203
 4303TIP3    H134544   6.615   2.453  -0.068  1.4687  1.3548 -0.1155
 4303TIP3    H234545   6.700   2.483   0.054  1.1905 -1.7094  0.9446
 4304TIP3   OH234546   2.086   3.309   0.824 -0.0501  0.0406 -0.4899
 4304TIP3    H134547   2.023   3.381   0.821 -0.1386 -0.0530 -0.8914
 4304TIP3    H234548   2.037   3.235   0.860 -0.1942 -0.0555 -0.8797
 4305TIP3   OH234549   2.625   6.640   8.671  0.5171 -0.4202 -0.1672
 4305TIP3    H134550   2.580   6.619   8.753  0.5241  1.2030  0.2871
 4305TIP3    H234551   2.570   6.601   8.603  0.6234 -1.9757  0.5973
 4306TIP3   OH234552   1.046   5.283   3.184  0.0984 -0.1384  0.1147
 4306TIP3    H134553   0.998   5.329   3.252  0.0382 -0.8092  0.5337
 4306TIP3    H234554   1.135   5.318   3.189 -0.4496  1.5703 -1.0792
 4307TIP3   OH234555   3.607   3.741   3.244  0.0108  0.2524 -0.4676
 4307TIP3    H134556   3.552   3.709   3.173 -0.5296  0.6465 -0.2273
 4307TIP3    H234557   3.679   3.787   3.200 -0.6725  1.0643 -0.7483
 4308TIP3   OH234558   2.420   4.824   1.534 -0.0174 -0.0349  0.1360
 4308TIP3    H134559   2.372   4.881   1.595  1.5230  0.2561  1.1103
 4308TIP3    H234560   2.492   4.788   1.585  1.3317  0.2087 -1.4931
 4309TIP3   OH234561   1.405   6.026   2.391 -0.0146 -0.8043  0.2074
 4309TIP3    H134562   1.378   6.092   2.455 -0.0037 -0.8903  0.3002
 4309TIP3    H234563   1.324   5.998   2.350  0.1225  0.6938 -1.2355
 4310TIP3   OH234564   1.180   4.924   1.002  0.7090 -0.2524 -0.3264
 4310TIP3    H134565   1.238   4.998   0.982  1.5064 -0.5029  0.9183
 4310TIP3    H234566   1.095   4.964   1.019  1.0799  0.3704  0.1228
 4311TIP3   OH234567   4.037   6.391   8.226  0.6070  0.2747  0.2369
 4311TIP3    H134568   3.959   6.395   8.171 -0.0801 -1.7531  0.9677
 4311TIP3    H234569   4.032   6.470   8.281  1.0998  2.1177 -2.2253
 4312TIP3   OH234570   5.640   6.844   1.423 -0.3514  0.1509  0.0508
 4312TIP3    H134571   5.677   6.819   1.338 -2.5349  2.1274 -1.6172
 4312TIP3    H234572   5.557   6.796   1.428 -0.8576  1.0417  0.4310
 4313TIP3   OH234573   5.580   5.934   1.233 -0.4546 -0.2117  0.2563
 4313TIP3    H134574   5.550   5.985   1.308  0.0777 -0.9714  1.0030
 4313TIP3    H234575   5.676   5.933   1.242 -0.3239  0.3205 -0.8590
 4314TIP3   OH234576   1.021   5.283   1.634  0.3127  0.5508 -0.6034
 4314TIP3    H134577   0.969   5.235   1.698  0.2279 -0.6150 -1.5142
 4314TIP3    H234578   1.104   5.301   1.679 -0.5803  1.8222  0.6176
 4315TIP3   OH234579   4.177   4.785   1.008  0.0406 -0.2540  0.7452
 4315TIP3    H134580   4.152   4.744   0.925 -0.8321  0.8285  0.4478
 4315TIP3    H234581   4.153   4.721   1.075 -1.1022 -0.3432  0.2787
 4316TIP3   OH234582   6.802   2.553   2.010  0.3299 -0.3329  0.3496
 4316TIP3    H134583   6.816   2.489   1.941 -0.5851 -0.2996  0.1204
 4316TIP3    H234584   6.862   2.625   1.989 -1.4948  0.6981 -1.7290
 4317TIP3   OH234585   6.564   4.259   0.151  0.9712  0.0645 -0.0024
 4317TIP3    H134586   6.564   4.198   0.225  0.7511 -3.4235 -2.6279
 4317TIP3    H234587   6.472   4.282   0.139  0.5711 -1.7901 -0.9038
 4318TIP3   OH234588   0.252   6.793   1.310  0.2928 -0.0544 -0.2769
 4318TIP3    H134589   0.321   6.735   1.344 -1.1271 -1.8646 -0.3236
 4318TIP3    H234590   0.276   6.880   1.342  1.3783 -0.9889  1.6671
 4319TIP3   OH234591   2.369   4.046   1.206  0.0081  0.2497  0.1742
 4319TIP3    H134592   2.395   4.013   1.292 -1.7564  0.4010  0.7986
 4319TIP3    H234593   2.279   4.016   1.195  0.0478  0.6320 -1.4312
 4320TIP3   OH234594   5.526   5.374   2.236  0.1952  0.3768 -0.1857
 4320TIP3    H134595   5.582   5.299   2.254 -1.1396 -0.7675 -0.6263
 4320TIP3    H234596   5.507   5.412   2.322 -0.5087 -0.8516  0.2316
 4321TIP3   OH234597   0.004   2.352   1.238 -0.0181  0.5050  0.0478
 4321TIP3    H134598   0.062   2.355   1.315 -2.5693  0.6161  2.1199
 4321TIP3    H234599   0.003   2.260   1.213  2.9401  0.8297 -1.7000
 4322TIP3   OH234600   2.234   5.351   0.818 -0.6283  0.3249  0.0676
 4322TIP3    H134601   2.285   5.336   0.898 -1.9346 -0.6519  0.7717
 4322TIP3    H234602   2.259   5.280   0.760 -1.7282 -0.6323  0.7240
 4323TIP3   OH234603   4.648   3.479   2.301  0.5000  0.3856  0.2371
 4323TIP3    H134604   4.577   3.447   2.356  1.7885  1.4455  2.7424
 4323TIP3    H234605   4.710   3.406   2.295  0.5457  0.3940  0.5876
 4324TIP3   OH234606   0.919   0.478   3.834  0.3114  0.1525  0.8838
 4324TIP3    H134607   0.984   0.408   3.839 -1.7087 -1.9117 -0.0151
 4324TIP3    H234608   0.929   0.515   3.746 -1.5259 -2.1242 -0.3711
 4325TIP3   OH234609   0.924   3.140   1.042 -0.3561 -0.4581  0.1968
 4325TIP3    H134610   0.896   3.150   0.952 -2.6328  1.7070  1.0478
 4325TIP3    H234611   0.994   3.205   1.053 -1.2223  0.4615  0.3916
 4326TIP3   OH234612   4.381   5.672   2.799  0.0210  0.1047  0.3365
 4326TIP3    H134613   4.421   5.632   2.722 -2.7002  0.7940 -1.5928
 4326TIP3    H234614   4.309   5.613   2.823  0.2754  0.3517  1.8477
 4327TIP3   OH234615   2.448   5.451   2.186 -0.0613  0.2154  0.2669
 4327TIP3    H134616   2.530   5.460   2.137  0.0012  0.5358  0.4282
 4327TIP3    H234617   2.429   5.540   2.216 -1.5343  0.5471 -1.4960
 4328TIP3   OH234618   4.548   0.320   8.789  0.2534 -0.0571  0.0410
 4328TIP3    H134619   4.527   0.255   8.722 -0.3157 -0.3107  0.4535
 4328TIP3    H234620   4.642   0.311   8.803  0.6706  1.0617 -1.8130
 4329TIP3   OH234621   3.968   4.138   2.625  0.0386  0.1039  0.2511
 4329TIP3    H134622   3.945   4.231   2.623  3.5382  1.0992 -0.4186
 4329TIP3    H234623   3.923   4.101   2.549 -2.6709  0.7765  1.3863
 4330TIP3   OH234624   5.378   3.169   1.798 -0.4247  0.4714 -0.4707
 4330TIP3    H134625   5.322   3.091   1.800 -1.4526  1.2001  1.2278
 4330TIP3    H234626   5.317   3.242   1.794  0.4846  1.2400 -0.5466
 4331TIP3   OH234627   0.431   5.198   8.720  0.2153 -0.4046  0.1464
 4331TIP3    H134628   0.437   5.102   8.724 -1.9331 -0.5813  0.4964
 4331TIP3    H234629   0.498   5.229   8.779 -0.6504 -1.8043  1.9553
 4332TIP3   OH234630   0.254   5.941   2.782 -0.1622  0.7371 -0.3023
 4332TIP3    H134631   0.181   5.906   2.729 -0.4627  1.1719 -0.1773
 4332TIP3    H234632   0.275   5.870   2.843 -0.0746  0.3795 -0.7452
 4333TIP3   OH234633   2.563   0.528   0.370 -0.5760  0.7257  0.2538
 4333TIP3    H134634   2.553   0.584   0.447  0.5008  0.2631  0.7443
 4333TIP3    H234635   2.473   0.505   0.346 -0.9767  1.7447  0.7137
 4334TIP3   OH234636   4.065   1.003   0.856 -0.3583  0.3389 -0.0073
 4334TIP3    H134637   4.010   0.936   0.895  0.4202  0.0801  0.6800
 4334TIP3    H234638   4.132   0.954   0.807 -0.2392  0.6278 -0.1370
 4335TIP3   OH234639   1.464   0.638   1.258 -0.2783 -0.2161 -0.1504
 4335TIP3    H134640   1.379   0.625   1.300 -0.3527 -0.7409 -0.4454
 4335TIP3    H234641   1.469   0.567   1.193  1.1871 -1.3370  1.1213
 4336TIP3   OH234642   3.785   1.591   3.554 -0.0489  0.0012  0.4248
 4336TIP3    H134643   3.871   1.631   3.542 -0.0356 -0.3272 -0.6501
 4336TIP3    H234644   3.799   1.520   3.617  0.4009  0.1216  0.4615
 4337TIP3   OH234645   4.140   2.487   3.464  0.2891 -0.3815  0.4012
 4337TIP3    H134646   4.132   2.444   3.550 -0.4984  0.4737  0.7726
 4337TIP3    H234647   4.202   2.559   3.479 -1.0505  0.7520  0.6751
 4338TIP3   OH234648   1.886   3.755   2.346  0.1446  0.2551  0.5506
 4338TIP3    H134649   1.977   3.774   2.366  0.4270 -0.8025  0.2973
 4338TIP3    H234650   1.838   3.775   2.426  0.7403 -0.2416  1.0279
 4339TIP3   OH234651   5.357   1.755   1.458 -0.4173  0.1064 -0.1140
 4339TIP3    H134652   5.404   1.783   1.379 -0.5490 -0.9485 -0.5860
 4339TIP3    H234653   5.379   1.821   1.524  0.7428  0.2971 -0.6660
 4340TIP3   OH234654   4.239   4.997   8.750  0.0010  0.0828 -0.0758
 4340TIP3    H134655   4.159   4.948   8.734  0.4786 -0.0728 -2.3515
 4340TIP3    H234656   4.309   4.943   8.714  0.7439  1.5877 -1.0293
 4341TIP3   OH234657   1.189   1.257   1.394 -0.4135  0.0600 -0.3718
 4341TIP3    H134658   1.260   1.198   1.369  0.8234  0.9204  0.9270
 4341TIP3    H234659   1.163   1.299   1.312 -0.2677 -1.1414 -1.0546
 4342TIP3   OH234660   1.933   1.664   1.818  0.3810  0.3184  0.2351
 4342TIP3    H134661   1.907   1.716   1.894  0.8119 -0.8674  1.2376
 4342TIP3    H234662   1.863   1.601   1.807  0.4128  0.3657 -0.2418
 4343TIP3   OH234663   0.982   0.790   2.568  0.4686  0.3506 -1.4670
 4343TIP3    H134664   0.905   0.834   2.603  1.3018  1.4439 -0.9424
 4343TIP3    H234665   0.994   0.714   2.626  0.6154  0.9870 -0.6457
 4344TIP3   OH234666   6.634   2.015   1.085  0.5333  0.2207 -0.2644
 4344TIP3    H134667   6.662   2.031   0.995 -0.9689  0.2954 -0.7351
 4344TIP3    H234668   6.540   2.030   1.084  0.6628  1.4409  1.6040
 4345TIP3   OH234669   0.520   0.259   2.731 -0.3797 -0.8067 -0.4628
 4345TIP3    H134670   0.585   0.189   2.733  0.4192 -0.0764 -0.2259
 4345TIP3    H234671   0.536   0.305   2.649  1.8130  1.5386  1.1110
 4346TIP3   OH234672   2.483   4.870   8.750 -0.1339  0.3174 -0.6306
 4346TIP3    H134673   2.529   4.795   8.788 -0.4215  0.8297  0.7781
 4346TIP3    H234674   2.395   4.866   8.787 -0.9855 -0.1235 -2.5856
 4347TIP3   OH234675   6.338   4.893   0.281 -0.3761  0.6904  0.0482
 4347TIP3    H134676   6.280   4.936   0.345 -0.0366 -1.3769  1.8525
 4347TIP3    H234677   6.420   4.941   0.289 -1.1937  2.3938 -1.1174
 4348TIP3   OH234678   0.824   1.813   2.522 -0.0599  0.3098  0.4648
 4348TIP3    H134679   0.771   1.891   2.539  0.0271  0.7256 -1.0416
 4348TIP3    H234680   0.908   1.848   2.490  0.4780 -0.3827  1.0810
 4349TIP3   OH234681   1.524   1.455   0.214  0.1647 -0.4867 -0.3698
 4349TIP3    H134682   1.489   1.537   0.248  0.2420 -0.4883 -0.2870
 4349TIP3    H234683   1.448   1.399   0.204  0.2412 -0.7744  0.5866
 4350TIP3   OH234684   0.424   6.683   8.699 -0.5251  0.8029 -0.1402
 4350TIP3    H134685   0.414   6.655   8.608 -2.1836 -1.4063  0.6347
 4350TIP3    H234686   0.476   6.614   8.739  0.2398  1.7871  0.6104
 4351TIP3   OH234687   6.731   6.448   0.850 -0.5558  0.0448 -0.0986
 4351TIP3    H134688   6.689   6.447   0.764 -0.1660  1.4015 -0.3221
 4351TIP3    H234689   6.666   6.412   0.909 -0.1305 -2.8765 -1.2334
 4352TIP3   OH234690   6.030   6.637   2.408 -0.2068 -0.1891  0.2115
 4352TIP3    H134691   5.992   6.586   2.479  0.3687  0.0561  0.7119
 4352TIP3    H234692   5.972   6.623   2.333 -0.3227 -1.1819  0.4762
 4353TIP3   OH234693   5.655   4.576   8.027 -0.6180 -0.2064 -0.1119
 4353TIP3    H134694   5.701   4.660   8.031 -0.7358 -0.1670  0.6021
 4353TIP3    H234695   5.705   4.523   7.965 -0.0881  0.1216  0.0346
 4354TIP3   OH234696   2.536   5.589   1.119  0.0435 -0.1608 -0.7641
 4354TIP3    H134697   2.454   5.540   1.126  1.2145 -2.1209  0.3012
 4354TIP3    H234698   2.527   5.660   1.182 -0.5924 -0.7624 -0.1507
 4355TIP3   OH234699   5.191   3.333   8.571  0.8275 -0.0271  0.1248
 4355TIP3    H134700   5.152   3.420   8.565 -1.4700 -0.8012  2.1300
 4355TIP3    H234701   5.206   3.306   8.481 -2.1468  0.8913 -0.7287
 4356TIP3   OH234702   4.964   2.081   0.831  0.2618  0.3197  0.4899
 4356TIP3    H134703   5.016   2.008   0.863 -0.0746 -0.6115 -0.9825
 4356TIP3    H234704   4.951   2.137   0.907  1.2697 -0.7086  1.4470
 4357TIP3   OH234705   3.744   0.193   0.461  0.6568  0.6734 -0.9014
 4357TIP3    H134706   3.683   0.119   0.464 -0.5220  1.6419 -0.2493
 4357TIP3    H234707   3.700   0.262   0.510  1.8267  1.7509 -1.3346
 4358TIP3   OH234708   5.883   5.000   0.097 -0.0444  0.4319 -0.1034
 4358TIP3    H134709   5.944   4.928   0.081 -0.9353 -0.3409 -0.1189
 4358TIP3    H234710   5.874   5.043   0.012 -0.2750 -0.0564 -0.3266
 4359TIP3   OH234711   6.140   0.398   3.066  0.5526 -0.4139  0.8322
 4359TIP3    H134712   6.056   0.430   3.033  0.0489 -1.8448  0.6434
 4359TIP3    H234713   6.127   0.388   3.160  0.6347 -0.2901  0.8573
 4360TIP3   OH234714   4.806   5.647   1.853  0.3879 -0.5180  0.1100
 4360TIP3    H134715   4.770   5.627   1.767 -0.5973 -2.7071  0.9793
 4360TIP3    H234716   4.806   5.564   1.900  2.6519  0.2409  1.6291
 4361TIP3   OH234717   4.451   0.851   2.295  0.4047 -0.1696 -0.4836
 4361TIP3    H134718   4.377   0.909   2.315 -0.5521 -0.6398 -2.4091
 4361TIP3    H234719   4.411   0.765   2.283  1.3625 -0.5614 -0.9395
 4362TIP3   OH234720   3.490   1.893   2.992  1.1313 -0.2489 -0.6766
 4362TIP3    H134721   3.459   1.961   2.932  2.0154  0.9577  0.1959
 4362TIP3    H234722   3.577   1.870   2.959  0.6428 -1.3697 -1.2657
 4363TIP3   OH234723   4.138   0.752   1.732 -0.1277  0.3275  0.9351
 4363TIP3    H134724   4.192   0.732   1.809  0.1794 -1.4098  0.3171
 4363TIP3    H234725   4.053   0.711   1.751  0.3199 -1.1733 -0.1152
 4364TIP3   OH234726   0.003   2.423   1.765 -0.2838  0.4493  0.4464
 4364TIP3    H134727   0.006   2.341   1.715  1.0952  0.8454 -0.1601
 4364TIP3    H234728   0.074   2.475   1.729  1.1097  0.5547  3.1765
 4365TIP3   OH234729   2.142   6.464   2.626 -0.8103  0.3139  0.1992
 4365TIP3    H134730   2.201   6.389   2.613  0.3199  1.0381  1.0032
 4365TIP3    H234731   2.111   6.485   2.538 -1.8759 -1.6373  0.0412
 4366TIP3   OH234732   0.941   5.399   3.406  0.7331 -0.6110  0.2818
 4366TIP3    H134733   0.940   5.464   3.475  1.0952 -0.6627  0.3400
 4366TIP3    H234734   0.876   5.334   3.433  0.4113 -0.3034  0.2488
 4367TIP3   OH234735   0.136   3.953   3.118 -0.0810 -0.6339  0.4072
 4367TIP3    H134736   0.173   4.030   3.162 -1.6767 -0.2120  1.0807
 4367TIP3    H234737   0.141   3.883   3.183  1.7561 -1.2620 -0.3463
 4368TIP3   OH234738   5.689   1.621   0.406  0.2653  0.0334 -0.1756
 4368TIP3    H134739   5.735   1.538   0.397  0.0882 -0.3531  1.9572
 4368TIP3    H234740   5.597   1.596   0.416  0.1095  0.5428 -0.2996
 4369TIP3   OH234741   2.636   6.308   0.734  0.2917  0.3617 -0.1291
 4369TIP3    H134742   2.670   6.261   0.658  0.6314  0.7090 -0.1923
 4369TIP3    H234743   2.712   6.321   0.791 -0.0936 -0.5952  0.6545
 4370TIP3   OH234744   1.232   4.309   2.503  0.0801 -0.0615  0.5207
 4370TIP3    H134745   1.157   4.261   2.467  0.0850 -1.3490  2.0985
 4370TIP3    H234746   1.255   4.261   2.583  2.1176  0.7423  0.4867
 4371TIP3   OH234747   0.312   4.093   0.809 -0.3533 -0.0882 -1.1773
 4371TIP3    H134748   0.274   4.085   0.897 -0.0882 -0.1340 -1.0643
 4371TIP3    H234749   0.277   4.175   0.775 -0.7755 -0.2693 -1.1879
 4372TIP3   OH234750   4.012   6.639   2.787  0.0118  0.3354 -0.0988
 4372TIP3    H134751   4.041   6.564   2.735 -1.8848 -1.0371  0.6985
 4372TIP3    H234752   4.090   6.693   2.798  1.1868 -0.9599 -1.6180
 4373TIP3   OH234753   1.222   6.313   2.113  0.4364  0.3625  0.0379
 4373TIP3    H134754   1.216   6.374   2.187  2.0415  0.0024  0.5253
 4373TIP3    H234755   1.284   6.354   2.053  0.3338 -0.0600 -0.3584
 4374TIP3   OH234756   2.677   4.471   2.900 -0.5075  0.7910 -0.0119
 4374TIP3    H134757   2.770   4.473   2.922 -0.6059  0.0746  0.4938
 4374TIP3    H234758   2.639   4.546   2.947  0.1117  2.2516 -1.7264
 4375TIP3   OH234759   5.677   1.897   1.399  0.1328 -0.3275 -0.6939
 4375TIP3    H134760   5.631   1.912   1.482  1.3411 -0.2403 -0.0092
 4375TIP3    H234761   5.626   1.946   1.334  0.9798  2.4889  0.5802
 4376TIP3   OH234762   3.183   2.826   1.773 -0.3426 -0.3439  0.0104
 4376TIP3    H134763   3.149   2.769   1.703 -1.1039  0.8860 -0.6663
 4376TIP3    H234764   3.199   2.910   1.729  0.3843  0.0851  1.0651
 4377TIP3   OH234765   5.631   1.187   2.428  0.3600  0.4312  0.2749
 4377TIP3    H134766   5.659   1.166   2.339  0.6543  2.3958 -0.1583
 4377TIP3    H234767   5.535   1.179   2.426  0.3058  1.1354 -0.4470
 4378TIP3   OH234768   0.757   2.382   8.681 -0.4201 -0.3175 -0.1117
 4378TIP3    H134769   0.684   2.351   8.628 -0.8659 -0.1245  0.3845
 4378TIP3    H234770   0.821   2.413   8.617 -0.8092 -0.4004 -0.5474
 4379TIP3   OH234771   3.244   5.493   8.678 -0.2248 -0.3560  0.1746
 4379TIP3    H134772   3.232   5.468   8.587 -1.9064 -0.9025  0.5012
 4379TIP3    H234773   3.164   5.540   8.700 -0.3084 -1.1320  1.6501
 4380TIP3   OH234774   2.453   6.728   7.896 -0.3417  0.2116 -0.5394
 4380TIP3    H134775   2.443   6.673   7.818  0.2542 -0.0597 -0.4336
 4380TIP3    H234776   2.533   6.695   7.938 -0.7759  0.2044  0.3102
 4381TIP3   OH234777   2.064   6.195   2.156  0.3062 -0.4533 -0.3914
 4381TIP3    H134778   1.998   6.140   2.196  0.1026 -0.2889 -0.4973
 4381TIP3    H234779   2.014   6.263   2.110  0.5603  0.6526  0.9025
 4382TIP3   OH234780   0.493   3.891   8.050 -0.4348  0.2874 -0.6018
 4382TIP3    H134781   0.401   3.915   8.045 -0.8852 -1.3930 -0.9332
 4382TIP3    H234782   0.500   3.836   8.128  0.1174 -0.2357 -1.0071
 4383TIP3   OH234783   4.325   1.175   2.197 -0.0977  0.2735 -0.0778
 4383TIP3    H134784   4.294   1.119   2.269 -0.2037 -0.1612 -0.4576
 4383TIP3    H234785   4.365   1.250   2.241  0.9445 -0.5705  0.4611
 4384TIP3   OH234786   1.352   2.611   1.194 -0.6066 -0.0586 -0.0304
 4384TIP3    H134787   1.300   2.676   1.242 -0.3356 -1.0867  1.7341
 4384TIP3    H234788   1.291   2.539   1.178 -1.1481  0.8634 -2.7262
 4385TIP3   OH234789   6.808   5.498   3.742 -0.2539 -0.1503  0.7012
 4385TIP3    H134790   6.810   5.449   3.823  0.7559 -1.5065 -0.1147
 4385TIP3    H234791   6.736   5.560   3.754 -0.5773 -0.7919  2.3378
 4386TIP3   OH234792   4.876   5.009   1.614 -0.2074 -0.1334  0.5959
 4386TIP3    H134793   4.810   5.052   1.669 -1.1594  0.7053 -1.1242
 4386TIP3    H234794   4.920   5.081   1.569  0.0492 -0.8190 -0.2724
 4387TIP3   OH234795   0.264   4.924   0.224 -0.2014 -0.1349 -0.5404
 4387TIP3    H134796   0.303   4.838   0.241 -1.9135 -0.8876 -0.2452
 4387TIP3    H234797   0.280   4.973   0.305 -3.1466 -1.7489  1.2072
 4388TIP3   OH234798   3.038   5.419   8.200 -0.4818  0.0775 -0.2621
 4388TIP3    H134799   3.116   5.465   8.167  0.0029 -1.5805 -1.5759
 4388TIP3    H234800   3.046   5.330   8.165 -1.8413 -0.7754  1.4358
 4389TIP3   OH234801   2.054   1.369   3.327 -0.5376 -0.5945  0.5352
 4389TIP3    H134802   2.022   1.359   3.238 -1.1777  0.8504  0.5824
 4389TIP3    H234803   1.977   1.389   3.379 -0.2871 -2.1139  1.5750
 4390TIP3   OH234804   6.394   0.124   8.502  0.6143 -0.7173  0.1681
 4390TIP3    H134805   6.424   0.071   8.428 -2.9071 -1.7886 -0.7024
 4390TIP3    H234806   6.398   0.064   8.577  0.7851 -0.8112  0.0842
 4391TIP3   OH234807   0.463   5.890   3.775 -0.7052  0.4696  0.7090
 4391TIP3    H134808   0.494   5.799   3.778 -1.8901 -0.1093 -1.8421
 4391TIP3    H234809   0.368   5.883   3.787 -0.8034  1.3646  0.5267
 4392TIP3   OH234810   0.212   0.496   0.096 -0.5269  0.1844  0.3737
 4392TIP3    H134811   0.166   0.460   0.020  0.1800 -0.8660  0.4178
 4392TIP3    H234812   0.143   0.509   0.162 -0.7760 -1.3866  0.4518
 4393TIP3   OH234813   3.653   4.745   1.507 -0.7366 -0.0931  0.4797
 4393TIP3    H134814   3.632   4.653   1.493 -1.0980  0.2394 -1.5501
 4393TIP3    H234815   3.568   4.787   1.519 -0.5491 -0.0420  1.8279
 4394TIP3   OH234816   1.516   5.765   8.518 -0.4624 -0.3369 -0.3525
 4394TIP3    H134817   1.511   5.699   8.448 -0.1118  0.4237 -1.1128
 4394TIP3    H234818   1.594   5.816   8.497  0.8190 -1.3338  1.7358
 4395TIP3   OH234819   2.318   2.382   3.202  0.6128  0.0611 -0.0783
 4395TIP3    H134820   2.358   2.381   3.115  1.5256 -0.6037  0.3287
 4395TIP3    H234821   2.288   2.292   3.215  1.9758 -0.2817  0.9427
 4396TIP3   OH234822   2.190   5.630   3.009 -0.0344  0.1423  0.0165
 4396TIP3    H134823   2.101   5.620   3.044  0.6351 -0.9383  1.4730
 4396TIP3    H234824   2.191   5.573   2.932 -0.9785  1.1699 -0.7966
 4397TIP3   OH234825   1.177   1.863   8.468  0.0147 -0.5336 -0.1833
 4397TIP3    H134826   1.135   1.790   8.423  0.3930 -1.3085  0.6984
 4397TIP3    H234827   1.236   1.901   8.402 -0.1959 -1.0090 -0.6494
 4398TIP3   OH234828   3.554   6.541   2.463  0.1904 -0.5885  0.2029
 4398TIP3    H134829   3.474   6.494   2.489 -1.1294  0.3469 -1.9277
 4398TIP3    H234830   3.583   6.584   2.544 -1.9992 -0.2007  0.8700
 4399TIP3   OH234831   2.007   1.839   2.756 -0.2714  0.1776 -0.4069
 4399TIP3    H134832   2.018   1.904   2.826  0.4841 -0.2325 -0.1328
 4399TIP3    H234833   1.999   1.891   2.676 -0.3968  0.6313 -0.1027
 4400TIP3   OH234834   5.803   3.984   2.783 -0.0690  0.0906  0.6887
 4400TIP3    H134835   5.856   4.022   2.713  1.0871  0.3240  1.6561
 4400TIP3    H234836   5.748   4.057   2.813  2.0709  1.1184  2.4737
 4401TIP3   OH234837   3.286   3.975   0.616  0.3113  0.9748  0.3577
 4401TIP3    H134838   3.202   3.933   0.598  1.2619 -0.7933 -0.2073
 4401TIP3    H234839   3.278   4.006   0.706 -1.1595  1.4027  0.0976
 4402TIP3   OH234840   6.518   2.597   0.668 -0.0913 -0.0438 -0.4806
 4402TIP3    H134841   6.544   2.679   0.710  1.0944 -0.7084  0.1187
 4402TIP3    H234842   6.436   2.618   0.624 -1.2410  0.7964  1.8895
 4403TIP3   OH234843   4.250   4.309   1.585 -0.5913  0.8080 -0.2192
 4403TIP3    H134844   4.239   4.247   1.513 -2.5116 -0.0103  0.7192
 4403TIP3    H234845   4.343   4.305   1.606 -0.6560 -1.8659 -0.1195
 4404TIP3   OH234846   5.731   2.851   1.101 -0.5988 -0.3178  0.1588
 4404TIP3    H134847   5.749   2.858   1.007  0.8723 -0.2903  0.4223
 4404TIP3    H234848   5.666   2.919   1.118  1.3934  1.8141 -0.2936
 4405TIP3   OH234849   1.525   0.828   0.735 -0.2437  0.4593 -0.0936
 4405TIP3    H134850   1.542   0.850   0.826 -0.1273  0.7839 -0.1950
 4405TIP3    H234851   1.537   0.733   0.731 -0.7244  0.3790  0.3334
 4406TIP3   OH234852   5.216   5.183   0.802 -0.1713  0.0475  0.3265
 4406TIP3    H134853   5.210   5.133   0.721 -2.1040 -0.8709  0.9574
 4406TIP3    H234854   5.248   5.121   0.867  1.1532  0.7158  0.3317
 4407TIP3   OH234855   3.226   0.192   1.109 -0.5399 -0.2843  0.2981
 4407TIP3    H134856   3.267   0.132   1.171  1.0750  0.7015  0.2216
 4407TIP3    H234857   3.150   0.227   1.156 -1.7845 -2.6160  0.2134
 4408TIP3   OH234858   6.458   0.300   3.879  0.1273  0.0119  0.3013
 4408TIP3    H134859   6.408   0.381   3.892  0.0728 -0.2771  2.1790
 4408TIP3    H234860   6.545   0.330   3.854 -0.6882  0.5359 -2.2265
 4409TIP3   OH234861   1.188   2.891   2.997 -0.0711  0.7069  0.1436
 4409TIP3    H134862   1.187   2.852   2.909 -0.3390 -0.4646  0.6414
 4409TIP3    H234863   1.106   2.861   3.037  0.1698  1.0166  0.8900
 4410TIP3   OH234864   1.744   0.181   8.536 -0.1446 -0.0827 -0.3746
 4410TIP3    H134865   1.689   0.135   8.473  0.8774  0.1581 -1.4965
 4410TIP3    H234866   1.830   0.187   8.493  0.5677  0.1903  1.0020
 4411TIP3   OH234867   4.945   4.771   8.447  0.6228  0.2196 -0.6506
 4411TIP3    H134868   4.999   4.843   8.481 -0.2657  0.8914 -0.6531
 4411TIP3    H234869   4.954   4.777   8.352 -1.2209  1.7570 -0.7804
 4412TIP3   OH234870   3.170   2.852   3.611 -0.8356 -0.0987  0.3422
 4412TIP3    H134871   3.117   2.774   3.599  0.2542 -0.8262  0.1578
 4412TIP3    H234872   3.256   2.820   3.635  0.6241  0.8387 -3.0255
 4413TIP3   OH234873   3.547   5.005   2.769  0.4704 -0.4390  0.6665
 4413TIP3    H134874   3.595   4.923   2.782 -0.1622 -0.5747  2.5748
 4413TIP3    H234875   3.455   4.977   2.760  0.3826 -0.0027  0.1646
 4414TIP3   OH234876   0.793   3.538   0.318 -0.5551  0.0942  0.0620
 4414TIP3    H134877   0.703   3.515   0.341 -1.0393  1.0080 -0.8379
 4414TIP3    H234878   0.844   3.461   0.341 -1.3531  0.0561  1.8407
 4415TIP3   OH234879   3.300   0.090   3.054  0.1769 -0.0490 -0.2081
 4415TIP3    H134880   3.345   0.137   2.984  0.2850 -0.8693 -0.7062
 4415TIP3    H234881   3.251   0.021   3.008 -0.9554  0.3314  0.3916
 4416TIP3   OH234882   3.553   4.945   4.229 -0.4794  0.0086  0.2265
 4416TIP3    H134883   3.626   4.888   4.205 -0.3766  0.6322 -1.0431
 4416TIP3    H234884   3.484   4.885   4.257 -0.2763 -0.7563 -0.8311
 4417TIP3   OH234885   3.137   3.101   3.570 -0.2048  0.2455 -0.0509
 4417TIP3    H134886   3.061   3.131   3.620  0.1631 -0.1450  0.7750
 4417TIP3    H234887   3.126   3.006   3.565  0.9411  0.0017  1.3571
 4418TIP3   OH234888   5.123   1.025   1.554 -0.5287 -0.2617  0.2181
 4418TIP3    H134889   5.100   1.025   1.647 -2.4241  0.0907 -0.1964
 4418TIP3    H234890   5.167   1.109   1.540 -0.3155 -0.2784  0.7819
 4419TIP3   OH234891   5.971   1.767   3.935  0.0315  0.0610  0.3702
 4419TIP3    H134892   5.961   1.673   3.951 -0.1186 -0.3061 -1.6842
 4419TIP3    H234893   6.060   1.776   3.903 -0.5378  0.3189 -1.2210
 4420TIP3   OH234894   6.409   4.379   1.222 -0.0467  0.1142 -0.0935
 4420TIP3    H134895   6.340   4.370   1.156  0.0148  1.9133 -0.4536
 4420TIP3    H234896   6.380   4.451   1.278  1.8686  1.5476 -0.7794
 4421TIP3   OH234897   4.949   1.180   0.141  0.0239  0.9976 -0.1976
 4421TIP3    H134898   4.892   1.106   0.120  1.0030 -0.1932  1.1394
 4421TIP3    H234899   5.037   1.149   0.120  0.2981  2.4851 -1.3972
 4422TIP3   OH234900   1.772   2.336   3.944 -0.3001  0.5955 -0.5383
 4422TIP3    H134901   1.812   2.413   3.984  0.6330 -0.7523  1.2420
 4422TIP3    H234902   1.840   2.301   3.886 -0.2605  0.3808 -0.3604
 4423TIP3   OH234903   4.157   0.055   2.342  0.0114 -0.0618 -0.2230
 4423TIP3    H134904   4.075   0.104   2.339 -0.0927 -0.2744 -1.2708
 4423TIP3    H234905   4.130  -0.037   2.336  0.1128 -0.4001  2.9936
 4424TIP3   OH234906   2.506   4.109   0.941 -0.0233  0.2504  0.4526
 4424TIP3    H134907   2.562   4.175   0.901 -0.6769 -0.6836 -2.2561
 4424TIP3    H234908   2.425   4.156   0.962 -0.4859  0.4021 -1.4550
 4425TIP3   OH234909   6.681   0.542   1.557  0.0923 -0.2286  0.5756
 4425TIP3    H134910   6.715   0.593   1.631 -0.6594  1.3583 -0.1100
 4425TIP3    H234911   6.587   0.539   1.572 -0.0897  0.2669 -0.3812
 4426TIP3   OH234912   3.588   1.161   0.224  0.2438 -0.0496 -0.7692
 4426TIP3    H134913   3.652   1.168   0.154 -1.3149  0.5326 -2.1987
 4426TIP3    H234914   3.617   1.225   0.290  1.8286 -0.7466 -0.7737
 4427TIP3   OH234915   2.283   0.884   3.063  0.5046 -0.1407  0.2185
 4427TIP3    H134916   2.301   0.914   2.974  0.4776  1.9980  0.8799
 4427TIP3    H234917   2.188   0.871   3.065  0.4158  0.4475  0.0987
 4428TIP3   OH234918   1.078   2.649   1.743  0.3202  0.3707  0.3189
 4428TIP3    H134919   0.993   2.612   1.720  0.4016  0.0757  0.4913
 4428TIP3    H234920   1.081   2.733   1.696 -0.1042  0.4288  0.3970
 4429TIP3   OH234921   6.212   0.183   1.591 -0.0708 -0.3786 -0.0965
 4429TIP3    H134922   6.273   0.243   1.548  2.1730 -3.0041 -0.8674
 4429TIP3    H234923   6.209   0.213   1.682 -0.6004  2.0200 -0.8535
 4430TIP3   OH234924   1.756   2.710   8.499  0.4816 -0.6546 -0.0676
 4430TIP3    H134925   1.711   2.650   8.439 -1.8595  0.5658  0.3645
 4430TIP3    H234926   1.836   2.664   8.523 -0.0079 -2.4972 -1.7193
 4431TIP3   OH234927   5.811   1.488   1.501  0.4182 -0.3261 -0.2926
 4431TIP3    H134928   5.735   1.434   1.479 -0.0224  0.4124 -0.6171
 4431TIP3    H234929   5.789   1.527   1.586  0.0917  0.4810 -0.7344
 4432TIP3   OH234930   6.818   4.308   8.523  0.4491 -0.2545 -0.1146
 4432TIP3    H134931   6.814   4.261   8.607 -1.0903  0.0391  0.0180
 4432TIP3    H234932   6.862   4.390   8.543 -0.1813 -0.0558  0.4884
 4433TIP3   OH234933   1.787   2.678   2.022  0.0390 -0.3299  0.0766
 4433TIP3    H134934   1.821   2.615   1.959  0.8394  0.6533 -0.4941
 4433TIP3    H234935   1.766   2.756   1.970 -1.0776 -0.1605  0.7434
 4434TIP3   OH234936   2.135   0.367   0.944  0.1898 -0.0116 -0.6098
 4434TIP3    H134937   2.188   0.306   0.996 -2.8869 -0.7501  2.0290
 4434TIP3    H234938   2.149   0.340   0.853  2.9149 -1.1834  0.0505
 4435TIP3   OH234939   1.973   2.504   1.044 -0.0240 -0.5013 -0.1404
 4435TIP3    H134940   2.046   2.564   1.028 -0.5391 -0.0033 -0.6464
 4435TIP3    H234941   1.925   2.543   1.117  0.5398 -1.1427  0.5986
 4436TIP3   OH234942   5.315   3.296   3.755 -0.7747  0.0990  0.6683
 4436TIP3    H134943   5.288   3.350   3.830  1.4716  0.5713  1.2289
 4436TIP3    H234944   5.409   3.284   3.768  0.2401  2.1832 -3.2822
 4437TIP3   OH234945   2.824   0.560   0.262 -0.5746  0.1322  0.1987
 4437TIP3    H134946   2.736   0.529   0.280 -0.1427 -1.0137  0.3930
 4437TIP3    H234947   2.880   0.514   0.324  0.2884  0.0818 -0.5890
 4438TIP3   OH234948   4.074   3.395   0.379  0.1692 -0.2007  0.4571
 4438TIP3    H134949   4.066   3.349   0.295  2.2694 -1.2654  0.7774
 4438TIP3    H234950   4.113   3.479   0.356  1.2484 -0.7002  0.3729
 4439TIP3   OH234951   2.781   4.189   1.827  0.5677 -0.2071  0.4887
 4439TIP3    H134952   2.854   4.206   1.887  0.7037  0.7756  0.0629
 4439TIP3    H234953   2.742   4.275   1.811 -0.6396 -0.6998  0.6324
 4440TIP3   OH234954   6.690   3.276   1.759 -0.3210 -0.0254 -0.0597
 4440TIP3    H134955   6.641   3.347   1.718 -0.5897  0.2209  0.6779
 4440TIP3    H234956   6.777   3.282   1.720  0.5010  2.4255  1.9027
 4441TIP3   OH234957   3.488   6.494   1.090  0.2614  0.2874  0.0509
 4441TIP3    H134958   3.522   6.433   1.024  1.0382  1.1101 -0.3484
 4441TIP3    H234959   3.567   6.528   1.133 -0.2218  0.0638  1.1395
 4442TIP3   OH234960   2.681   1.892   4.093 -0.3870  0.0077 -0.0527
 4442TIP3    H134961   2.746   1.963   4.096 -1.2701  0.8474 -0.1372
 4442TIP3    H234962   2.702   1.837   4.168 -0.1867  0.8373  0.5159
 4443TIP3   OH234963   5.358   0.540   3.665 -0.3036  0.0306 -0.0055
 4443TIP3    H134964   5.419   0.467   3.678  0.4695  0.3916 -1.3715
 4443TIP3    H234965   5.290   0.505   3.608 -0.0313  0.3075 -0.5100
 4444TIP3   OH234966   4.908   0.239   8.240 -0.2896  0.7232 -0.5871
 4444TIP3    H134967   4.963   0.274   8.310 -1.2000  2.7238 -0.8081
 4444TIP3    H234968   4.956   0.163   8.207  1.4228  1.3196  0.4319
 4445TIP3   OH234969   1.067   0.298   3.612 -0.7544  0.1222  0.5246
 4445TIP3    H134970   1.076   0.275   3.704 -1.9775  1.5045  1.0171
 4445TIP3    H234971   1.143   0.353   3.594 -0.4540 -0.2419  0.6607
 4446TIP3   OH234972   4.785   6.275   2.770 -0.1712  0.0234 -0.0012
 4446TIP3    H134973   4.705   6.275   2.822 -0.7832  1.3205 -0.8982
 4446TIP3    H234974   4.856   6.269   2.835 -0.9587 -3.1984  0.7123
 4447TIP3   OH234975   1.237   0.856   1.049 -0.3310 -0.4844 -1.0290
 4447TIP3    H134976   1.232   0.793   0.977  0.4259  0.8610 -2.3202
 4447TIP3    H234977   1.196   0.935   1.015 -0.4236  0.0293  0.2156
 4448TIP3   OH234978   2.971   0.600   2.510  0.1092 -0.0900 -0.3125
 4448TIP3    H134979   3.032   0.671   2.494 -1.5353  1.7369  1.0482
 4448TIP3    H234980   2.948   0.568   2.423  2.3345 -0.3229 -0.8726
 4449TIP3   OH234981   6.662   6.840   3.090  0.2773 -0.4940 -0.6281
 4449TIP3    H134982   6.744   6.869   3.128  0.9721 -0.0241 -2.3899
 4449TIP3    H234983   6.597   6.855   3.159  1.9943 -3.5399  1.9433
 4450TIP3   OH234984   1.763   4.701   2.069 -0.0456  0.2513  0.3347
 4450TIP3    H134985   1.795   4.791   2.076 -0.5965  0.4239  0.7038
 4450TIP3    H234986   1.671   4.706   2.095  0.6798 -0.9318  3.5094
 4451TIP3   OH234987   1.265   6.247   1.604  0.0547  0.4502 -0.2912
 4451TIP3    H134988   1.283   6.215   1.516 -0.6978  0.7158 -0.5534
 4451TIP3    H234989   1.175   6.219   1.621  0.1957  0.3970  0.3974
 4452TIP3   OH234990   5.446   6.702   8.733 -0.3291  0.3766  0.3405
 4452TIP3    H134991   5.372   6.707   8.793 -1.0746 -0.7100 -0.4618
 4452TIP3    H234992   5.442   6.614   8.695 -0.9300  1.5329 -2.5763
 4453TIP3   OH234993   3.153   6.238   0.933 -0.2422  0.5763  0.4257
 4453TIP3    H134994   3.228   6.178   0.934  0.3709  1.2560 -1.2741
 4453TIP3    H234995   3.174   6.303   1.000 -0.2265 -0.2645  1.2646
 4454TIP3   OH234996   6.173   1.622   2.033  0.4041 -0.1276 -0.1829
 4454TIP3    H134997   6.078   1.632   2.024  0.2463 -0.1746  1.2409
 4454TIP3    H234998   6.198   1.688   2.097  1.0321 -1.3871  0.9105
 4455TIP3   OH234999   4.870   6.148   0.669  0.0421  0.5289  0.1411
 4455TIP3    H135000   4.864   6.129   0.763 -0.0481 -3.4558 -0.4912
 4455TIP3    H235001   4.785   6.123   0.633  0.8669 -0.3800 -1.2871
 4456TIP3   OH235002   1.000   1.745   1.966 -0.0697  0.5480  0.4259
 4456TIP3    H135003   1.029   1.681   2.032 -0.9420  0.8837  1.1656
 4456TIP3    H235004   1.019   1.704   1.882  2.5970  0.7810  0.8203
 4457TIP3   OH235005   4.124   2.049   8.227 -0.3205  0.2540  0.0888
 4457TIP3    H135006   4.167   1.998   8.160  0.1740 -0.5935  1.0280
 4457TIP3    H235007   4.157   2.138   8.215 -0.1137  0.0757 -0.6775
 4458TIP3   OH235008   6.423   0.915   4.354  0.1646 -0.0558 -0.4210
 4458TIP3    H135009   6.426   0.837   4.411  1.3996  1.5640  1.8995
 4458TIP3    H235010   6.475   0.890   4.278 -0.5838 -1.9442 -0.3877
 4459TIP3   OH235011   4.311   5.903   3.101 -0.4083  0.4637  0.4858
 4459TIP3    H135012   4.305   5.993   3.072  0.2801  1.1810  2.3894
 4459TIP3    H235013   4.386   5.902   3.161 -1.7401 -0.8338  2.2442
 4460TIP3   OH235014   0.709   0.572   2.749 -0.4280  0.2547 -0.2117
 4460TIP3    H135015   0.687   0.640   2.685  0.2415  0.0792 -0.6421
 4460TIP3    H235016   0.798   0.544   2.725 -0.5523 -0.5194  0.1752
 4461TIP3   OH235017   1.974   2.900   1.367  0.0433  0.3587 -0.8739
 4461TIP3    H135018   1.958   2.968   1.301  1.0852  0.5662 -0.9263
 4461TIP3    H235019   2.068   2.903   1.382 -0.0427 -0.3931 -0.1258
 4462TIP3   OH235020   1.596   5.531   2.437 -0.3566 -0.4100 -0.3746
 4462TIP3    H135021   1.549   5.455   2.403 -0.7244  0.1804 -1.2440
 4462TIP3    H235022   1.527   5.594   2.458 -0.0329 -0.1373 -0.1196
 4463TIP3   OH235023   0.357   2.325   0.169  0.4345 -1.0758  0.1835
 4463TIP3    H135024   0.352   2.244   0.119  0.0902 -0.9093 -0.0580
 4463TIP3    H235025   0.354   2.297   0.261 -0.3014 -1.2977  0.0956
 4464TIP3   OH235026   3.451   0.180   0.143 -0.0837 -0.2608 -0.1109
 4464TIP3    H135027   3.429   0.193   0.051  2.5006 -1.5877 -1.0083
 4464TIP3    H235028   3.535   0.224   0.154 -1.1309  1.4125  2.1507
 4465TIP3   OH235029   4.459   0.735   1.654 -0.0078  0.4782  0.5198
 4465TIP3    H135030   4.420   0.765   1.571 -0.3003  2.0732  1.2001
 4465TIP3    H235031   4.417   0.650   1.671 -0.4960  0.4773 -0.5816
 4466TIP3   OH235032   1.424   0.363   2.200  0.4141 -0.6675  0.3935
 4466TIP3    H135033   1.511   0.398   2.182  0.0953 -0.3653 -0.6483
 4466TIP3    H235034   1.405   0.306   2.125  0.1450 -1.5495  1.1303
 4467TIP3   OH235035   3.411   5.831   2.982 -0.3013 -0.2989 -0.3805
 4467TIP3    H135036   3.474   5.835   3.055 -0.7423 -0.4962  0.0154
 4467TIP3    H235037   3.462   5.857   2.906  0.4289 -1.0451 -0.1703
 4468TIP3   OH235038   1.401   2.448   2.621 -0.1550  0.0963 -0.3169
 4468TIP3    H135039   1.465   2.497   2.569  0.1548 -3.3650 -3.6537
 4468TIP3    H235040   1.337   2.417   2.557 -0.6987 -3.1197  1.5781
 4469TIP3   OH235041   4.595   0.205   2.027  0.9112 -0.0416  0.4374
 4469TIP3    H135042   4.540   0.180   2.101 -0.5122  2.7575  0.4445
 4469TIP3    H235043   4.551   0.169   1.951  0.0083  0.6759  0.6065
 4470TIP3   OH235044   5.074   5.795   1.815  0.0551 -0.0409  0.5690
 4470TIP3    H135045   5.058   5.880   1.774  1.8728  0.1013  0.0801
 4470TIP3    H235046   5.012   5.792   1.888 -1.2095  0.9655 -0.4074
 4471TIP3   OH235047   6.653   1.222   0.871 -0.1503  0.2139 -0.2976
 4471TIP3    H135048   6.657   1.180   0.957  0.3923  1.2019  0.1874
 4471TIP3    H235049   6.737   1.200   0.830 -0.1369  0.2885 -0.3102
 4472TIP3   OH235050   2.084   4.368   3.545 -0.1539 -0.2418  0.6232
 4472TIP3    H135051   2.123   4.298   3.493 -0.6309  0.3950 -0.6468
 4472TIP3    H235052   2.023   4.412   3.484 -0.4451  0.7756  1.6118
 4473TIP3   OH235053   2.753   1.470   3.597 -0.5196  0.3442 -0.1065
 4473TIP3    H135054   2.825   1.532   3.603 -0.7937  0.8462 -1.6211
 4473TIP3    H235055   2.718   1.464   3.686 -0.8440  2.7852 -0.0254
 4474TIP3   OH235056   0.537   5.004   3.388  0.0930  1.0673  0.9621
 4474TIP3    H135057   0.466   5.057   3.422  0.0774  1.3729  0.4585
 4474TIP3    H235058   0.578   5.058   3.321  1.4816  1.3330  1.9849
 4475TIP3   OH235059   0.081   1.388   0.503  0.0407  0.0206  0.5654
 4475TIP3    H135060   0.091   1.418   0.593  1.7440  0.1510  0.3730
 4475TIP3    H235061   0.113   1.298   0.504 -1.3644 -0.4961  0.3731
 4476TIP3   OH235062   2.794   4.574   1.056  0.0641  0.1920 -0.3787
 4476TIP3    H135063   2.719   4.596   1.111  1.0383 -0.0901  1.1542
 4476TIP3    H235064   2.819   4.486   1.086  1.8097  0.8213  0.1350
 4477TIP3   OH235065   6.713   4.494   1.880  0.1926  0.2381  0.2109
 4477TIP3    H135066   6.662   4.514   1.801  0.5625  3.2277  0.6442
 4477TIP3    H235067   6.783   4.437   1.850 -2.1167 -2.3292 -0.7614
 4478TIP3   OH235068   5.891   4.370   8.031 -0.0322 -0.3187 -0.1598
 4478TIP3    H135069   5.932   4.338   7.950 -0.2387 -0.7324 -0.1024
 4478TIP3    H235070   5.937   4.452   8.050  0.0708 -0.2538 -0.6560
 4479TIP3   OH235071   2.765   6.732   3.107  0.3984  0.2817 -0.3212
 4479TIP3    H135072   2.706   6.689   3.046  0.1958  1.8629 -1.2835
 4479TIP3    H235073   2.783   6.817   3.068  1.6478  0.6660  0.9873
 4480TIP3   OH235074   5.012   5.812   3.000  0.0254 -0.1128  0.0956
 4480TIP3    H135075   4.921   5.842   3.000 -0.0252 -0.2638  0.4398
 4480TIP3    H235076   5.026   5.777   3.088  0.4820  0.1065  0.1102
 4481TIP3   OH235077   4.819   6.043   8.394  0.6714  0.5360  0.0996
 4481TIP3    H135078   4.746   6.093   8.431  1.3805  1.8809 -0.2768
 4481TIP3    H235079   4.859   6.000   8.470 -1.8021 -2.0788  0.0876
 4482TIP3   OH235080   3.212   3.440   1.998 -0.3586  0.3261 -0.0654
 4482TIP3    H135081   3.155   3.372   2.033 -0.8258  0.4485 -0.5753
 4482TIP3    H235082   3.196   3.440   1.904 -0.0748  0.8760 -0.1226
 4483TIP3   OH235083   1.127   0.258   3.886 -0.0976 -0.6101 -0.2763
 4483TIP3    H135084   1.087   0.176   3.914 -1.3741 -0.2556 -0.9902
 4483TIP3    H235085   1.173   0.290   3.964 -2.2799 -0.3995  0.9920
 4484TIP3   OH235086   4.687   0.825   1.457 -0.3636  0.2208  0.2627
 4484TIP3    H135087   4.705   0.736   1.425 -0.5549 -0.2298  1.3539
 4484TIP3    H235088   4.598   0.819   1.492 -1.0435  1.2995 -1.1700
 4485TIP3   OH235089   1.468   0.244   2.907  0.1936 -0.1218  0.6417
 4485TIP3    H135090   1.515   0.321   2.876 -1.9038  1.2085  0.5769
 4485TIP3    H235091   1.416   0.215   2.832 -0.1812 -0.6762  1.1001
 4486TIP3   OH235092   0.986   4.981   1.749 -0.2165  0.0430 -0.7718
 4486TIP3    H135093   1.033   4.980   1.832  0.9224  2.5902 -1.2634
 4486TIP3    H235094   1.035   4.921   1.693  0.1222 -0.2715 -0.1485
 4487TIP3   OH235095   3.750   1.165   8.251  0.3133  0.0109  0.3742
 4487TIP3    H135096   3.826   1.224   8.251 -0.2260  0.7238  0.2190
 4487TIP3    H235097   3.688   1.207   8.311  0.1416 -0.7066  0.7096
 4488TIP3   OH235098   4.807   1.905   3.304 -0.4560  0.7151  0.1299
 4488TIP3    H135099   4.862   1.972   3.345  2.6084 -1.3711 -0.2734
 4488TIP3    H235100   4.840   1.898   3.215 -1.2961 -0.7017 -0.1011
 4489TIP3   OH235101   3.402   0.473   3.231  0.2486 -0.1055  0.1150
 4489TIP3    H135102   3.376   0.486   3.140  1.5764 -0.9582 -0.4220
 4489TIP3    H235103   3.434   0.558   3.260  1.3960 -0.2207 -0.7748
 4490TIP3   OH235104   6.510   1.778   2.569 -0.3162 -0.1483 -0.2328
 4490TIP3    H135105   6.596   1.743   2.544  0.8123  1.0815  1.7209
 4490TIP3    H235106   6.510   1.868   2.535 -0.2817  0.2801  0.8662
 4491TIP3   OH235107   3.636   6.644   0.230  0.6877  0.2024  0.1760
 4491TIP3    H135108   3.671   6.703   0.163 -0.7605  0.4574 -0.3946
 4491TIP3    H235109   3.546   6.674   0.244  0.1015 -1.4903  0.3015
 4492TIP3   OH235110   6.590   4.335   0.983 -0.4172 -0.3052 -0.6518
 4492TIP3    H135111   6.658   4.278   0.948  1.3802  0.6396  1.1052
 4492TIP3    H235112   6.548   4.283   1.052 -0.3768 -0.3324 -0.6477
 4493TIP3   OH235113   3.806   4.392   1.657  0.5866 -0.9093 -0.0174
 4493TIP3    H135114   3.820   4.480   1.690 -0.1798 -1.1256  0.9507
 4493TIP3    H235115   3.728   4.361   1.704 -0.8408 -1.1001 -2.3775
 4494TIP3   OH235116   6.011   1.737   3.501  0.2133 -0.0464 -0.2241
 4494TIP3    H135117   6.063   1.746   3.421 -0.5597  1.3617 -0.6042
 4494TIP3    H235118   6.054   1.667   3.550  2.5738  1.1236 -0.4542
 4495TIP3   OH235119   0.414   3.017   1.406  0.2186  0.6415 -0.3334
 4495TIP3    H135120   0.413   3.100   1.359 -0.3305  0.0169 -1.4751
 4495TIP3    H235121   0.477   3.030   1.477  1.5122  1.4354 -1.5720
 4496TIP3   OH235122   1.745   0.501   2.603  0.8215  0.0197 -0.1619
 4496TIP3    H135123   1.666   0.548   2.579  1.5644  0.0660 -2.8646
 4496TIP3    H235124   1.817   0.557   2.573  1.8025 -1.3471 -0.4851
 4497TIP3   OH235125   4.139   3.581   1.524 -0.2287 -0.8190  0.0978
 4497TIP3    H135126   4.134   3.629   1.442  0.8330 -1.3318 -0.2847
 4497TIP3    H235127   4.117   3.490   1.501  1.3272 -1.2282  0.1050
 4498TIP3   OH235128   5.369   4.579   0.695 -0.4071 -0.2312 -0.0539
 4498TIP3    H135129   5.450   4.564   0.647  0.1531 -0.1231  0.8355
 4498TIP3    H235130   5.354   4.673   0.689 -0.3533 -0.2220 -0.0399
 4499TIP3   OH235131   0.342   3.971   1.704 -0.1302  0.0622  0.1129
 4499TIP3    H135132   0.270   3.968   1.767  0.4438  0.6178  0.8223
 4499TIP3    H235133   0.365   4.064   1.698  0.6428 -0.1232  0.0454
 4500TIP3   OH235134   3.391   5.638   7.801  0.4841  0.5073  0.0347
 4500TIP3    H135135   3.310   5.615   7.755  0.6281  0.8192 -0.3797
 4500TIP3    H235136   3.391   5.734   7.803 -1.5484  0.6729  4.2593
 4501TIP3   OH235137   0.843   0.001   1.712  0.0125 -0.8800 -0.0075
 4501TIP3    H135138   0.841   0.011   1.616 -1.9069  0.9892  0.1361
 4501TIP3    H235139   0.755  -0.031   1.734  0.2531 -0.7702  1.1512
 4502TIP3   OH235140   5.241   3.358   2.424  1.1088  0.0209 -0.2836
 4502TIP3    H135141   5.278   3.323   2.343  1.7665 -1.1353  0.4779
 4502TIP3    H235142   5.168   3.300   2.444  0.9396  0.3092 -0.0604
 4503TIP3   OH235143   3.170   0.342   3.117  0.5185 -0.1381  0.1150
 4503TIP3    H135144   3.218   0.259   3.119 -1.5377 -1.6693 -3.6252
 4503TIP3    H235145   3.080   0.319   3.135 -0.1787  1.1291 -1.4453
 4504TIP3   OH235146   0.890   2.914   2.781  0.3452 -0.1089  0.0983
 4504TIP3    H135147   0.900   2.826   2.816  1.9246  0.0584  0.1429
 4504TIP3    H235148   0.835   2.959   2.844  0.6025 -0.7019  0.7614
 4505TIP3   OH235149   4.216   1.781   0.934  0.1323 -0.5330  0.3293
 4505TIP3    H135150   4.249   1.869   0.954 -1.4760  0.4749 -1.1969
 4505TIP3    H235151   4.280   1.745   0.873  0.3474 -0.0788  0.2795
 4506TIP3   OH235152   6.729   2.692   8.143 -0.2699  0.0847  0.4127
 4506TIP3    H135153   6.705   2.652   8.227  0.5801  0.4888  0.8618
 4506TIP3    H235154   6.808   2.645   8.116  0.2898  0.8962  0.5640
 4507TIP3   OH235155   4.876   5.741   3.693  0.0669 -0.1188 -0.3440
 4507TIP3    H135156   4.935   5.671   3.665 -2.0993 -2.3608  0.2917
 4507TIP3    H235157   4.791   5.716   3.657 -1.0733  1.4131  1.1282
 4508TIP3   OH235158   2.284   0.150   2.173  0.1577  0.0112 -0.5227
 4508TIP3    H135159   2.242   0.177   2.091  0.1534  0.0360 -0.5121
 4508TIP3    H235160   2.231   0.191   2.242 -0.5316 -0.9229 -0.4637
 4509TIP3   OH235161   4.278   5.241   1.804  0.4335  0.2294  0.0984
 4509TIP3    H135162   4.329   5.161   1.790 -0.0917 -0.3354  1.2736
 4509TIP3    H235163   4.342   5.305   1.836  0.9303  0.4134 -1.2367
 4510TIP3   OH235164   2.820   3.918   3.053  0.5796  0.0880 -0.0047
 4510TIP3    H135165   2.736   3.873   3.042  0.6300 -0.9693  2.9678
 4510TIP3    H235166   2.885   3.849   3.043  0.9005  0.3161  0.4857
 4511TIP3   OH235167   6.532   0.913   3.924  0.1164 -0.6472  0.0622
 4511TIP3    H135168   6.553   0.873   4.008 -0.5453 -2.2666 -0.5057
 4511TIP3    H235169   6.553   1.006   3.935  0.6364 -0.9489  1.7940
 4512TIP3   OH235170   4.574   4.572   0.293 -0.6806 -0.3357 -0.7121
 4512TIP3    H135171   4.547   4.627   0.366 -1.2327  0.2269 -1.3252
 4512TIP3    H235172   4.580   4.484   0.330 -0.9656 -0.0628  0.0020
 4513TIP3   OH235173   1.433   3.987   2.014 -0.3691 -0.0201  0.4666
 4513TIP3    H135174   1.367   4.003   2.081 -1.7579  0.8526 -1.0367
 4513TIP3    H235175   1.510   3.957   2.063 -1.7949 -0.9263  2.3034
 4514TIP3   OH235176   2.281   1.799   1.207  0.2130 -0.4127 -0.0220
 4514TIP3    H135177   2.307   1.814   1.298  2.6840  0.9105 -0.8378
 4514TIP3    H235178   2.200   1.848   1.196  0.5965  0.5181  1.1136
 4515TIP3   OH235179   6.093   2.317   3.043  0.4906  0.1368 -1.1629
 4515TIP3    H135180   6.002   2.320   3.011  0.3558 -0.5050 -0.8587
 4515TIP3    H235181   6.125   2.232   3.014  0.4120 -0.4091  0.2568
 4516TIP3   OH235182   3.804   5.070   0.221 -0.1506 -0.0757  0.2584
 4516TIP3    H135183   3.774   5.148   0.174  0.9781  0.1219 -0.1641
 4516TIP3    H235184   3.724   5.022   0.241 -1.1136  2.1970  2.3713
 4517TIP3   OH235185   2.993   6.534   8.631  0.0039  0.6499 -0.5309
 4517TIP3    H135186   2.941   6.495   8.701 -1.0366  2.2971 -0.3322
 4517TIP3    H235187   3.078   6.490   8.637 -0.3121  0.2148  1.2572
 4518TIP3   OH235188   6.532   2.128   0.117  0.0445  0.2657  0.2830
 4518TIP3    H135189   6.582   2.179   0.053 -1.6923  1.5483 -0.1439
 4518TIP3    H235190   6.593   2.062   0.149  1.2102  0.1124 -2.0942
 4519TIP3   OH235191   5.587   0.172   2.258  0.3907  0.3795  0.3525
 4519TIP3    H135192   5.663   0.195   2.312  2.1371  1.6854 -2.4163
 4519TIP3    H235193   5.546   0.256   2.237  0.4290  0.0460 -1.1832
 4520TIP3   OH235194   0.966   4.093   8.049  0.2913 -0.1384 -0.1054
 4520TIP3    H135195   0.954   4.007   8.009  1.1340 -0.4727  0.3510
 4520TIP3    H235196   1.055   4.119   8.027  0.2177  0.3978  0.1929
 4521TIP3   OH235197   1.002   0.606   1.873 -0.7074  0.2261 -0.7138
 4521TIP3    H135198   1.024   0.549   1.947 -0.1302  0.5258 -0.6473
 4521TIP3    H235199   0.954   0.549   1.812  1.5217 -0.8792 -1.5510
 4522TIP3   OH235200   6.091   5.741   7.918  0.2274  0.4146 -0.1722
 4522TIP3    H135201   6.117   5.734   8.010  1.0285 -0.1231 -0.4288
 4522TIP3    H235202   6.008   5.788   7.920 -1.1548 -1.8957  1.0610
 4523TIP3   OH235203   2.308   5.006   1.718  0.3740  0.6995  0.0999
 4523TIP3    H135204   2.357   5.019   1.799 -0.8669  0.2397  0.9635
 4523TIP3    H235205   2.237   5.071   1.723 -1.7928 -1.6056  1.1278
 4524TIP3   OH235206   6.162   6.782   3.400  0.0011 -0.4890 -0.0021
 4524TIP3    H135207   6.140   6.709   3.342  0.9598 -1.3232  0.6673
 4524TIP3    H235208   6.144   6.749   3.488  2.0751 -0.5556  0.4377
 4525TIP3   OH235209   2.605   2.446   8.432 -0.5845 -0.5030  0.1982
 4525TIP3    H135210   2.600   2.355   8.458  2.6827 -1.2636 -1.3154
 4525TIP3    H235211   2.639   2.444   8.342  0.5253  2.1882  0.4381
 4526TIP3   OH235212   1.197   0.447   8.180  0.6472 -0.2706  0.8708
 4526TIP3    H135213   1.221   0.450   8.273  1.6237  0.7348  0.5990
 4526TIP3    H235214   1.280   0.453   8.133  0.1298 -0.3677 -0.0774
 4527TIP3   OH235215   4.373   3.721   8.604  0.1753 -0.1868 -0.5254
 4527TIP3    H135216   4.349   3.708   8.695  0.2380  3.4970  0.1779
 4527TIP3    H235217   4.468   3.711   8.601  0.0624 -1.4992 -0.5150
 4528TIP3   OH235218   0.846   4.642   1.219  0.5816 -0.6914 -0.0953
 4528TIP3    H135219   0.876   4.650   1.128  0.8438 -1.9715 -0.1344
 4528TIP3    H235220   0.828   4.549   1.231 -3.0257 -0.1351  0.0645
 4529TIP3   OH235221   1.418   3.126   2.251  0.2361 -0.4935 -0.0438
 4529TIP3    H135222   1.446   3.048   2.203  0.0880 -0.5175 -0.0894
 4529TIP3    H235223   1.325   3.112   2.268  0.4990 -0.9468  1.1125
 4530TIP3   OH235224   1.109   1.252   2.913 -0.2178  0.2914 -0.1432
 4530TIP3    H135225   1.135   1.343   2.929 -1.0705  0.3283  1.1652
 4530TIP3    H235226   1.031   1.240   2.967 -0.1516 -1.2083 -0.3554
 4531TIP3   OH235227   1.793   4.596   2.656  0.0890  0.0612  0.1228
 4531TIP3    H135228   1.846   4.523   2.688  2.5321  2.4450  2.0419
 4531TIP3    H235229   1.789   4.583   2.561  1.9802 -1.6084  0.2071
 4532TIP3   OH235230   6.130   5.096   2.562  0.2694 -0.6920 -0.1201
 4532TIP3    H135231   6.135   5.191   2.555  1.1216 -0.7654 -0.8379
 4532TIP3    H235232   6.059   5.079   2.623  0.7293  0.4293  0.7552
 4533TIP3   OH235233   3.785   3.439   1.045  0.3247 -0.2521 -0.0201
 4533TIP3    H135234   3.711   3.496   1.066  0.8631  0.7186 -0.6737
 4533TIP3    H235235   3.825   3.479   0.968  2.4507  0.1525  1.1897
 4534TIP3   OH235236   1.626   6.534   1.591 -0.2763  0.2698 -0.3882
 4534TIP3    H135237   1.635   6.440   1.604  2.0587  0.5240  0.3360
 4534TIP3    H235238   1.679   6.552   1.513 -2.2762  0.7757 -1.7058
 4535TIP3   OH235239   2.382   0.652   4.007 -0.0035 -0.3515 -0.0565
 4535TIP3    H135240   2.310   0.590   3.994  0.9784 -1.1668 -2.0294
 4535TIP3    H235241   2.457   0.596   4.027  0.8115  0.1972 -1.4804
 4536TIP3   OH235242   0.075   5.338   2.524 -0.5329 -0.3486  0.1352
 4536TIP3    H135243  -0.010   5.324   2.481  0.1096 -0.7470 -1.0749
 4536TIP3    H235244   0.083   5.266   2.586 -1.2863 -0.0287  0.6153
 4537TIP3   OH235245   6.527   1.319   8.049 -0.3477  0.0960 -0.1014
 4537TIP3    H135246   6.537   1.243   7.992 -0.0360 -0.3406  0.5299
 4537TIP3    H235247   6.590   1.305   8.119 -0.5878  0.7295  0.2456
 4538TIP3   OH235248   2.931   0.301   8.346  0.1313  0.0092  0.0941
 4538TIP3    H135249   2.919   0.364   8.276 -0.0394  0.3483  0.4268
 4538TIP3    H235250   3.008   0.332   8.393  1.8446 -1.6090 -1.4431
 4539TIP3   OH235251   5.170   3.594   3.659 -0.3233  0.0531  0.3800
 4539TIP3    H135252   5.125   3.517   3.626 -0.0769  0.3165 -0.6048
 4539TIP3    H235253   5.147   3.664   3.597  0.4107  0.4849  0.5787
 4540TIP3   OH235254   2.180   3.395   3.387 -0.5301  0.1057 -0.4088
 4540TIP3    H135255   2.239   3.395   3.462  0.0855 -0.4627 -0.8750
 4540TIP3    H235256   2.220   3.457   3.326 -1.5685  1.3342  0.1238
 4541TIP3   OH235257   6.685   0.496   0.872 -0.0313 -0.5711  0.3725
 4541TIP3    H135258   6.677   0.544   0.955  1.0653  1.4766 -0.6327
 4541TIP3    H235259   6.721   0.411   0.897  0.3497  0.0270  2.0073
 4542TIP3   OH235260   1.243   4.562   0.598  0.2900 -0.1418 -0.0613
 4542TIP3    H135261   1.215   4.606   0.679 -0.3410 -1.9967  0.7864
 4542TIP3    H235262   1.272   4.633   0.541 -1.1545  1.4181  1.0293
 4543TIP3   OH235263   4.405   3.993   1.572  0.3417 -0.0529  0.3488
 4543TIP3    H135264   4.350   3.915   1.582  0.0538 -0.0463 -0.9931
 4543TIP3    H235265   4.409   4.031   1.660 -0.8140 -0.7177  0.7100
 4544TIP3   OH235266   5.758   4.387   0.429 -0.2314 -0.3836 -0.6275
 4544TIP3    H135267   5.831   4.404   0.368  0.6450 -0.5484  0.3455
 4544TIP3    H235268   5.800   4.377   0.514 -1.4186 -0.3854 -0.0214
 4545TIP3   OH235269   1.064   3.312   1.717  0.2037  0.3016 -0.3499
 4545TIP3    H135270   1.065   3.262   1.798 -0.1676  1.3415  0.3152
 4545TIP3    H235271   0.971   3.327   1.699  0.2804 -0.0368 -1.0400
 4546TIP3   OH235272   4.565   5.955   8.785 -0.6159  0.1971 -0.0814
 4546TIP3    H135273   4.523   5.911   8.859 -0.0805 -0.7129 -0.3054
 4546TIP3    H235274   4.618   5.887   8.744 -0.4079  0.8567 -0.9250
 4547TIP3   OH235275   3.216   4.891   2.498 -0.4589 -0.2430  0.2527
 4547TIP3    H135276   3.307   4.862   2.490 -0.0372  0.6818  1.3087
 4547TIP3    H235277   3.217   4.948   2.575 -2.4021 -1.9980  1.6834
 4548TIP3   OH235278   2.952   4.563   2.944  0.0605 -0.1250 -0.4443
 4548TIP3    H135279   2.939   4.645   2.992 -0.4168 -0.2119 -0.4193
 4548TIP3    H235280   2.983   4.501   3.011  2.0998  0.4592 -0.7805
 4549TIP3   OH235281   6.614   5.902   0.374 -0.3778 -0.1072  0.3688
 4549TIP3    H135282   6.522   5.882   0.356  0.2432 -2.4018 -0.6275
 4549TIP3    H235283   6.636   5.849   0.451  0.1803  0.2130  0.4398
 4550TIP3   OH235284   0.340   5.964   0.816  0.6612  0.1066 -0.1181
 4550TIP3    H135285   0.380   5.937   0.734  1.2620 -0.0772  0.2226
 4550TIP3    H235286   0.316   5.882   0.860 -1.6887  0.2294 -1.0530
 4551TIP3   OH235287   1.916   1.047   0.480 -0.1097 -0.2884 -0.4231
 4551TIP3    H135288   1.941   1.052   0.572  0.6246 -1.5424 -0.5257
 4551TIP3    H235289   1.825   1.017   0.481 -0.7715  1.6109 -0.0966
 4552TIP3   OH235290   2.824   0.877   2.579 -0.5996 -0.6361 -0.0960
 4552TIP3    H135291   2.909   0.835   2.569 -0.0885 -0.3271  2.2438
 4552TIP3    H235292   2.815   0.933   2.502  0.8159 -1.4698 -0.9090
 4553TIP3   OH235293   4.952   5.834   2.248  0.4281 -0.2584 -1.0096
 4553TIP3    H135294   4.909   5.884   2.179  1.6907 -2.0074 -3.1827
 4553TIP3    H235295   4.954   5.744   2.216 -0.0705 -1.4321  1.9116
 4554TIP3   OH235296   6.030   2.405   8.574  0.0025 -0.2975 -0.2118
 4554TIP3    H135297   6.043   2.493   8.537 -0.9908  0.3313  0.8938
 4554TIP3    H235298   6.114   2.362   8.561 -0.0160  0.1998 -2.3626
 4555TIP3   OH235299   6.796   5.483   0.657  0.3926  0.2090  0.5889
 4555TIP3    H135300   6.890   5.478   0.643  0.4996  1.9069  0.5529
 4555TIP3    H235301   6.761   5.406   0.612  1.6210  0.4091 -0.7817
 4556TIP3   OH235302   4.671   6.694   2.760 -0.3064 -0.0447 -0.3741
 4556TIP3    H135303   4.625   6.762   2.808 -1.5083 -1.0180 -0.1141
 4556TIP3    H235304   4.617   6.677   2.683  0.7811  0.3582 -1.2661
 4557TIP3   OH235305   6.630   5.643   8.791 -0.2212  0.0624 -0.1197
 4557TIP3    H135306   6.547   5.644   8.840 -0.0089  0.0811  0.2371
 4557TIP3    H235307   6.664   5.555   8.805 -0.0743  0.1243 -0.0902
 4558TIP3   OH235308   5.596   2.000   1.140 -0.0850 -0.1913 -0.8507
 4558TIP3    H135309   5.669   2.058   1.163 -0.6402 -0.3795  1.6086
 4558TIP3    H235310   5.544   2.052   1.078 -0.7768  2.2030  1.5479
 4559TIP3   OH235311   0.477   0.854   1.527  0.0145 -0.8828  0.2965
 4559TIP3    H135312   0.385   0.851   1.502  0.4757  0.0897 -1.7456
 4559TIP3    H235313   0.503   0.762   1.536 -0.6341 -1.2286 -1.1877
 4560TIP3   OH235314   6.325   3.745   7.728 -0.7331  0.2743  0.6637
 4560TIP3    H135315   6.367   3.662   7.750 -2.0051 -0.5491  0.1461
 4560TIP3    H235316   6.232   3.730   7.745 -0.8762  2.0056  1.7324
 4561TIP3   OH235317   0.865   5.654   0.522  0.5843  0.0050 -0.1147
 4561TIP3    H135318   0.908   5.586   0.575 -0.8346 -1.4380 -0.7225
 4561TIP3    H235319   0.909   5.648   0.437  0.7542  0.1546 -0.0381
 4562TIP3   OH235320   1.942   1.301   8.715 -0.0316 -0.0170  0.1688
 4562TIP3    H135321   1.980   1.214   8.705 -1.2737 -0.6530  0.8188
 4562TIP3    H235322   1.849   1.286   8.733 -0.3291  1.4498  0.0186
 4563TIP3   OH235323   5.502   4.850   2.925  0.0197  0.8160  0.6492
 4563TIP3    H135324   5.472   4.865   3.015 -2.0322 -1.5751  0.4854
 4563TIP3    H235325   5.578   4.794   2.933  2.1661  3.5542  0.9162
 4564TIP3   OH235326   5.657   6.729   2.281  0.0714  0.3346 -0.1365
 4564TIP3    H135327   5.723   6.799   2.286 -0.3111  0.7266 -0.5474
 4564TIP3    H235328   5.685   6.665   2.347  1.5466 -0.0905 -1.1112
 4565TIP3   OH235329   3.254   3.423   1.627  0.4820  0.2140  0.4313
 4565TIP3    H135330   3.308   3.353   1.663  0.7124 -0.0287 -0.3524
 4565TIP3    H235331   3.295   3.444   1.543  1.0088  1.9875  1.0824
 4566TIP3   OH235332   0.748   6.009   1.562  0.1119  0.2192 -0.2092
 4566TIP3    H135333   0.723   5.919   1.582  1.0552  0.1428  0.7408
 4566TIP3    H235334   0.823   6.001   1.504 -0.6426  0.4197 -1.2317
 4567TIP3   OH235335   0.129   5.955   8.614 -0.2679  0.4825  0.2541
 4567TIP3    H135336   0.122   5.861   8.635  1.2388  0.7283  2.0992
 4567TIP3    H235337   0.038   5.987   8.617 -0.7830 -0.8484 -0.1800
 4568TIP3   OH235338   5.913   2.658   1.488  0.2119 -0.1054 -0.1817
 4568TIP3    H135339   5.970   2.589   1.455 -0.4132 -0.0006 -1.5226
 4568TIP3    H235340   5.932   2.734   1.434  1.2914  1.0050  1.6259
 4569TIP3   OH235341   1.821   6.285   3.168  0.5388  0.1889 -0.2568
 4569TIP3    H135342   1.726   6.274   3.164  0.2935  2.0977 -0.4654
 4569TIP3    H235343   1.843   6.267   3.260 -0.6123  3.3658  0.7753
 4570TIP3   OH235344   0.473   2.966   2.234 -0.3422  0.1537  0.5225
 4570TIP3    H135345   0.419   2.944   2.158 -1.1438  0.3181  1.0336
 4570TIP3    H235346   0.452   3.058   2.253 -0.2586  0.0703  1.0332
 4571TIP3   OH235347   2.180   3.074   3.505 -0.4021  0.1868 -0.3190
 4571TIP3    H135348   2.227   3.089   3.423 -0.1698  2.8475  0.2020
 4571TIP3    H235349   2.247   3.042   3.566  0.0558  0.8615 -0.4541
 4572TIP3   OH235350   0.877   2.625   3.669 -0.4433 -0.2952  0.0360
 4572TIP3    H135351   0.936   2.574   3.724  0.0567  1.0729  0.8352
 4572TIP3    H235352   0.859   2.569   3.594 -0.4556 -1.8723  1.1804
 4573TIP3   OH235353   4.647   6.503   0.028 -0.3568  0.4524 -0.4761
 4573TIP3    H135354   4.646   6.426  -0.028 -0.2242 -0.8655  1.2632
 4573TIP3    H235355   4.563   6.547   0.010 -0.8825 -0.6423 -0.7752
 4574TIP3   OH235356   2.368   3.305   2.228  0.2827  0.1264 -0.0374
 4574TIP3    H135357   2.316   3.380   2.256 -0.0204 -0.0749 -0.0640
 4574TIP3    H235358   2.370   3.311   2.133  1.3569  0.8395  0.0006
 4575TIP3   OH235359   1.429   6.841   1.079 -0.0434 -0.0618 -0.3209
 4575TIP3    H135360   1.427   6.756   1.034 -0.5870  0.1089 -0.6263
 4575TIP3    H235361   1.471   6.900   1.017  3.0713 -0.7152  1.0008
 4576TIP3   OH235362   1.200   4.711   0.845  0.3543 -0.0690  0.4883
 4576TIP3    H135363   1.184   4.651   0.918 -0.8909  0.3216  0.5644
 4576TIP3    H235364   1.215   4.796   0.885 -2.4712  0.6154  0.3076
 4577TIP3   OH235365   0.559   3.358   8.274 -0.1335 -0.4609 -0.2026
 4577TIP3    H135366   0.483   3.402   8.236  0.1066 -0.3549 -0.5661
 4577TIP3    H235367   0.558   3.384   8.366  0.2580  0.6835 -0.4993
 4578TIP3   OH235368   1.193   2.797   7.440  0.0097 -0.3257 -0.3067
 4578TIP3    H135369   1.202   2.704   7.461  0.1889 -0.5254 -1.2030
 4578TIP3    H235370   1.245   2.842   7.507 -0.3919 -0.8352  0.3630
 4579TIP3   OH235371   6.014   5.546   8.607  0.4202  0.1689  0.6172
 4579TIP3    H135372   6.022   5.602   8.530 -0.9424 -0.6536 -0.1652
 4579TIP3    H235373   6.078   5.476   8.594 -0.1857 -0.2745 -0.0693
 4580TIP3   OH235374   2.077   3.659   3.405 -0.1715  0.3661 -0.2085
 4580TIP3    H135375   2.152   3.714   3.382  0.1602  0.0923  0.2282
 4580TIP3    H235376   2.067   3.668   3.499 -1.4665  1.3928 -0.4076
 4581TIP3   OH235377   4.739   1.021   3.085 -0.1066  0.1785 -0.2707
 4581TIP3    H135378   4.810   0.977   3.039 -0.0178 -0.9445  0.8748
 4581TIP3    H235379   4.684   0.949   3.118 -0.8597  0.9728  0.2601
 4582TIP3   OH235380   4.356   3.155   1.499 -0.6701  0.0669 -0.0272
 4582TIP3    H135381   4.315   3.208   1.566 -0.6783  0.3191 -0.2310
 4582TIP3    H235382   4.302   3.076   1.495  0.4937 -0.8744  1.6870
 4583TIP3   OH235383   1.048   5.597   2.260  0.8242  0.2905 -0.5309
 4583TIP3    H135384   1.136   5.612   2.295  0.1399  0.9014  1.0121
 4583TIP3    H235385   1.063   5.561   2.172  2.6077 -0.8884  0.1998
 4584TIP3   OH235386   3.458   0.537   1.238 -0.1626  0.1815 -0.0585
 4584TIP3    H135387   3.424   0.479   1.305 -0.1207  0.6133  0.3388
 4584TIP3    H235388   3.537   0.493   1.205  0.0575  0.1755  0.4759
 4585TIP3   OH235389   5.894   4.873   3.532  0.4201 -0.6762  0.2950
 4585TIP3    H135390   5.885   4.779   3.551  0.5566 -1.0538 -1.3514
 4585TIP3    H235391   5.959   4.904   3.595  0.0577 -1.5827  1.1513
 4586TIP3   OH235392   1.448   5.384   0.098  0.4212 -0.0216 -0.7647
 4586TIP3    H135393   1.424   5.429   0.017  2.1605  0.0989 -1.2670
 4586TIP3    H235394   1.367   5.379   0.149 -0.1229  2.5534 -1.2358
 4587TIP3   OH235395   1.907   6.727   0.862  0.2330 -0.4147  0.5879
 4587TIP3    H135396   1.861   6.718   0.945 -0.6942 -1.7224 -0.0338
 4587TIP3    H235397   1.964   6.803   0.874 -2.1560  1.3682  1.3677
 4588TIP3   OH235398   1.461   0.202   3.191 -0.0253  0.3294  0.2799
 4588TIP3    H135399   1.513   0.280   3.210 -0.7836  0.6627  1.0913
 4588TIP3    H235400   1.440   0.210   3.098 -1.0789  1.7490  0.5909
 4589TIP3   OH235401   3.584   5.085   4.012 -0.4418 -0.1038  0.3099
 4589TIP3    H135402   3.569   5.061   4.103  0.3780  0.2844  0.5544
 4589TIP3    H235403   3.676   5.111   4.009 -0.3109 -0.6440 -0.7411
 4590TIP3   OH235404   0.638   1.717   3.255 -0.0161 -0.0929  0.3239
 4590TIP3    H135405   0.569   1.720   3.321  0.1727 -0.1958  0.5230
 4590TIP3    H235406   0.713   1.761   3.295  0.4370 -1.0661  0.5768
 4591TIP3   OH235407   5.337   1.995   8.232 -0.1194 -0.0244 -0.1239
 4591TIP3    H135408   5.291   2.072   8.198  2.7089  1.1937 -1.5328
 4591TIP3    H235409   5.390   2.029   8.304  1.7675 -0.3643 -1.2603
 4592TIP3   OH235410   5.907   1.678   2.021  0.2550  0.3553 -0.0631
 4592TIP3    H135411   5.853   1.697   2.098 -0.9929  0.9235 -1.0532
 4592TIP3    H235412   5.892   1.752   1.962 -1.6626 -1.6982 -2.3576
 4593TIP3   OH235413   5.177   3.320   2.754  0.4835  0.1378  0.0323
 4593TIP3    H135414   5.106   3.383   2.764 -0.1892 -0.6164  0.1052
 4593TIP3    H235415   5.158   3.276   2.671  1.4896  0.6989 -0.5093
 4594TIP3   OH235416   3.170   5.503   1.737  0.6744  0.3394  0.1267
 4594TIP3    H135417   3.171   5.583   1.790 -0.6736  0.7040 -0.3611
 4594TIP3    H235418   3.081   5.469   1.746  1.1784 -1.0022  0.1529
 4595TIP3   OH235419   1.086   3.027   8.510  0.0513  0.4525 -0.2701
 4595TIP3    H135420   1.095   2.940   8.471  0.9856  0.2993  0.2514
 4595TIP3    H235421   1.131   3.086   8.449  1.5204  0.2117  0.5342
 4596TIP3   OH235422   3.131   4.643   8.116  0.2218 -0.6955 -0.0004
 4596TIP3    H135423   3.225   4.625   8.112  0.3239 -0.4415  1.0896
 4596TIP3    H235424   3.091   4.573   8.065  1.0941  0.1236 -1.9370
 4597TIP3   OH235425   6.476   5.460   3.309 -0.1596 -0.5996 -0.5343
 4597TIP3    H135426   6.382   5.481   3.305 -0.2048 -0.5485  0.5163
 4597TIP3    H235427   6.481   5.386   3.369  0.5655  0.0552  0.2407
 4598TIP3   OH235428   1.671   4.165   7.923  0.1781  0.4417  0.1880
 4598TIP3    H135429   1.584   4.128   7.911  0.2127  0.6241 -0.7129
 4598TIP3    H235430   1.731   4.103   7.881  0.2718  1.2828 -0.9856
 4599TIP3   OH235431   2.271   2.403   2.384 -0.2543  0.1917  0.0742
 4599TIP3    H135432   2.355   2.388   2.428 -1.6041 -0.2616  2.7073
 4599TIP3    H235433   2.241   2.487   2.419 -1.7990 -0.6167  0.7624
 4600TIP3   OH235434   6.173   6.591   0.213  0.0377  0.1515  0.0507
 4600TIP3    H135435   6.235   6.522   0.187  0.8113  0.4799  0.9762
 4600TIP3    H235436   6.227   6.670   0.219 -0.0935  0.1450  2.4162
 4601TIP3   OH235437   5.123   2.788   2.658  0.4222  0.1533 -0.4422
 4601TIP3    H135438   5.160   2.704   2.687  0.9990  0.9442  1.2284
 4601TIP3    H235439   5.185   2.819   2.591  1.9642  0.6777  1.1466
 4602TIP3   OH235440   5.444   0.780   1.353  0.0460 -0.9120  0.2483
 4602TIP3    H135441   5.516   0.726   1.321  0.1223 -1.2477  0.9860
 4602TIP3    H235442   5.382   0.782   1.279  1.3069  0.3573 -0.8408
 4603TIP3   OH235443   0.805   4.590   3.255 -0.2672 -0.4116 -0.2512
 4603TIP3    H135444   0.814   4.609   3.348  0.5293  0.2329 -0.4419
 4603TIP3    H235445   0.782   4.674   3.215 -1.1116 -0.7871 -0.5817
 4604TIP3   OH235446   0.453   1.356   2.335 -0.3608 -0.2495 -0.2579
 4604TIP3    H135447   0.464   1.268   2.298  1.0163 -0.8817  1.5034
 4604TIP3    H235448   0.378   1.393   2.287 -1.3169 -2.5682 -0.6926
 4605TIP3   OH235449   2.482   5.306   2.870 -0.3460 -0.0113 -0.2644
 4605TIP3    H135450   2.477   5.212   2.853 -0.6417 -0.0263 -0.1109
 4605TIP3    H235451   2.553   5.337   2.814 -0.5294 -0.2515 -0.6361
 4606TIP3   OH235452   3.857   3.224   2.318  0.0586  0.2098 -0.5175
 4606TIP3    H135453   3.845   3.296   2.257 -2.2379  3.1034  2.9321
 4606TIP3    H235454   3.934   3.249   2.370 -0.2564 -0.2490  0.1875
 4607TIP3   OH235455   3.441   6.248   1.818 -0.4647 -0.6322  0.2309
 4607TIP3    H135456   3.478   6.213   1.899  0.1455  0.2733  0.3591
 4607TIP3    H235457   3.445   6.343   1.829 -2.4751 -0.4816  0.0718
 4608TIP3   OH235458   1.739   1.940   1.905 -0.7292  0.3691  0.6271
 4608TIP3    H135459   1.677   1.933   1.832  0.4073  0.8527 -0.4165
 4608TIP3    H235460   1.721   2.025   1.944  1.8298  2.4137 -2.1861
 4609TIP3   OH235461   6.215   1.315   0.925 -0.0288  0.3049  0.0349
 4609TIP3    H135462   6.167   1.278   0.851 -3.0415  0.9198  1.5278
 4609TIP3    H235463   6.249   1.398   0.892 -0.0497 -0.0993 -1.0536
 4610TIP3   OH235464   3.879   1.808   2.269  0.7569  0.0095  0.0542
 4610TIP3    H135465   3.794   1.775   2.239  1.0441  0.2190 -1.0542
 4610TIP3    H235466   3.877   1.902   2.248  1.0229  0.1392  0.5979
 4611TIP3   OH235467   2.930   2.199   3.356  0.1038 -0.2294  0.8285
 4611TIP3    H135468   2.979   2.268   3.402 -0.1323 -0.0830  0.8643
 4611TIP3    H235469   2.847   2.241   3.332  0.6186  0.0214 -0.6274
 4612TIP3   OH235470   2.412   0.715   1.501  0.2798 -0.6612 -0.0574
 4612TIP3    H135471   2.488   0.668   1.535 -0.5582 -0.7624  1.8475
 4612TIP3    H235472   2.360   0.648   1.456  0.3642 -1.0092  0.3538
 4613TIP3   OH235473   5.327   0.381   3.279  0.1473  0.3639  0.3879
 4613TIP3    H135474   5.359   0.292   3.295 -0.1615  0.3442  0.9231
 4613TIP3    H235475   5.273   0.401   3.355  0.1000  0.9601  0.2024
 4614TIP3   OH235476   2.223   0.520   1.984  0.0234  0.1968  0.1346
 4614TIP3    H135477   2.167   0.471   2.043 -1.6018  0.8228 -0.8315
 4614TIP3    H235478   2.178   0.517   1.900  1.0490  1.4027 -0.4945
 4615TIP3   OH235479   5.281   6.339   3.435 -0.4552  0.2770 -0.3534
 4615TIP3    H135480   5.220   6.337   3.509 -0.8553 -0.0950 -0.6884
 4615TIP3    H235481   5.322   6.425   3.440 -0.3382  0.1831  0.4121
 4616TIP3   OH235482   2.204   4.011   0.268 -0.1307  0.1748  0.1785
 4616TIP3    H135483   2.225   4.049   0.353 -0.0741  2.1541 -0.6820
 4616TIP3    H235484   2.289   3.987   0.231  0.0058  1.0548 -0.0927
 4617TIP3   OH235485   4.625   6.589   2.377  0.0427 -0.8377  0.2532
 4617TIP3    H135486   4.566   6.558   2.445  0.9726 -0.1540  1.3943
 4617TIP3    H235487   4.684   6.514   2.360 -0.4994 -1.1783 -0.1880
 4618TIP3   OH235488   6.641   5.084   7.790 -0.2313  0.4037 -0.2522
 4618TIP3    H135489   6.644   5.093   7.695 -0.5601  0.2629 -0.2756
 4618TIP3    H235490   6.688   5.161   7.823  1.7192 -0.6018 -0.5630
 4619TIP3   OH235491   0.094   4.531   8.615  0.0645 -0.0841 -0.0339
 4619TIP3    H135492   0.158   4.595   8.582 -0.3985 -0.4654 -1.7375
 4619TIP3    H235493   0.132   4.502   8.698  1.2732  0.9358 -0.1851
 4620TIP3   OH235494   2.064   0.168   1.846  0.2046  0.6466 -0.7807
 4620TIP3    H135495   2.020   0.133   1.769  1.1900  0.2810 -1.1861
 4620TIP3    H235496   2.155   0.142   1.836  0.1568 -0.3867  1.0657
 4621TIP3   OH235497   2.343   1.405   3.032 -0.1493  0.5949 -0.1354
 4621TIP3    H135498   2.408   1.354   2.984 -0.0114 -0.2688  0.9227
 4621TIP3    H235499   2.273   1.421   2.969  0.9331  1.2751 -1.2029
 4622TIP3   OH235500   6.313   6.352   2.181  0.4219  0.0510  0.3648
 4622TIP3    H135501   6.320   6.313   2.094  3.7441 -1.2772  1.0937
 4622TIP3    H235502   6.331   6.445   2.168  0.0854  0.0105 -0.4259
 4623TIP3   OH235503   0.105   4.149   1.556  0.3417  0.2259 -0.1419
 4623TIP3    H135504   0.104   4.229   1.503  0.4847  0.5535  0.3501
 4623TIP3    H235505   0.112   4.180   1.646 -0.4131 -0.3074  0.1129
 4624TIP3   OH235506   0.536   2.613   3.492 -0.3383  0.1074 -0.0720
 4624TIP3    H135507   0.509   2.690   3.542 -0.5907  0.3708 -0.6079
 4624TIP3    H235508   0.467   2.602   3.426 -0.5542 -0.8690  0.3118
 4625TIP3   OH235509   4.338   1.668   2.288 -0.0911  0.0216 -0.4068
 4625TIP3    H135510   4.263   1.726   2.279 -0.2955 -0.1609  0.1093
 4625TIP3    H235511   4.342   1.621   2.204  0.8116  1.6288 -1.3234
 4626TIP3   OH235512   6.307   6.044   0.984  0.1409 -0.0720 -0.2573
 4626TIP3    H135513   6.378   6.092   0.941 -0.8823  0.8197 -1.0021
 4626TIP3    H235514   6.328   5.952   0.968  1.9121  0.0808  0.8312
 4627TIP3   OH235515   3.343   3.271   8.298  0.5640 -1.1735  0.1771
 4627TIP3    H135516   3.434   3.298   8.299  0.0810  0.5852  1.7927
 4627TIP3    H235517   3.294   3.349   8.324 -1.5395 -1.7069 -1.8603
 4628TIP3   OH235518   2.035   5.067   0.142 -0.3464  0.0572 -0.5846
 4628TIP3    H135519   2.061   5.159   0.142 -0.2032  0.0208 -0.0318
 4628TIP3    H235520   2.002   5.052   0.230 -3.0252  0.3155 -1.4680
 4629TIP3   OH235521   5.877   5.077   8.608  0.1340  0.4947  0.4959
 4629TIP3    H135522   5.893   5.151   8.550  1.1304  0.9961  1.3769
 4629TIP3    H235523   5.786   5.052   8.590  0.2903  0.8665 -0.9858
 4630TIP3   OH235524   2.581   5.111   8.668  0.4124  0.2364 -0.4152
 4630TIP3    H135525   2.511   5.143   8.610 -0.3060 -0.6954 -0.0958
 4630TIP3    H235526   2.555   5.021   8.689  2.0637 -0.3765 -0.8287
 4631TIP3   OH235527   6.666   5.805   7.983 -0.1358  0.3211 -0.1447
 4631TIP3    H135528   6.605   5.733   7.998  0.6928 -0.8259 -1.9517
 4631TIP3    H235529   6.628   5.853   7.910  1.5673 -1.0682 -2.0650
 4632TIP3   OH235530   5.695   4.493   2.976 -0.5547 -0.5010 -0.0240
 4632TIP3    H135531   5.599   4.491   2.969 -0.5821  0.4230 -0.0398
 4632TIP3    H235532   5.712   4.535   3.060 -0.1573 -1.5339  0.4253
 4633TIP3   OH235533   0.365   1.892   1.224 -0.2732  0.3075 -0.0012
 4633TIP3    H135534   0.386   1.800   1.237  0.7092  0.4578 -0.3879
 4633TIP3    H235535   0.442   1.939   1.256 -1.6893  1.1526  2.4317
 4634TIP3   OH235536   6.396   2.723   2.698 -0.1192 -0.1295 -0.2661
 4634TIP3    H135537   6.412   2.630   2.686  3.4177  0.5897 -2.6795
 4634TIP3    H235538   6.323   2.727   2.760 -0.7326 -4.4368 -0.3967
 4635TIP3   OH235539   0.352   1.398   0.322  0.5258  0.0340  1.0266
 4635TIP3    H135540   0.272   1.414   0.373 -0.2788 -0.8948  0.1066
 4635TIP3    H235541   0.379   1.486   0.292 -1.0050  0.2479  0.1391
 4636TIP3   OH235542   5.892   3.454   1.229 -0.1116  0.4526 -0.0384
 4636TIP3    H135543   5.858   3.364   1.231 -2.3214  1.2052 -1.1641
 4636TIP3    H235544   5.817   3.509   1.252  0.9412  2.0855 -0.3349
 4637TIP3   OH235545   1.399   0.631   2.982 -0.0518 -0.3989 -0.1275
 4637TIP3    H135546   1.478   0.605   2.934 -0.4182 -0.2574 -0.8125
 4637TIP3    H235547   1.433   0.670   3.063  0.7212  2.1373 -1.5543
 4638TIP3   OH235548   6.050   1.027   0.917 -0.5258 -0.4170  0.1810
 4638TIP3    H135549   6.016   0.945   0.880  2.6000 -2.2717  1.0708
 4638TIP3    H235550   6.037   1.091   0.848 -1.4133 -2.0673 -1.2849
 4639TIP3   OH235551   4.996   6.425   0.508 -0.0969  0.1139 -0.5693
 4639TIP3    H135552   4.929   6.415   0.575  0.2994 -1.3331 -0.3584
 4639TIP3    H235553   4.979   6.353   0.447  1.9005 -0.9766  0.0713
 4640TIP3   OH235554   2.540   6.152   2.478  0.1916  0.1790 -0.3973
 4640TIP3    H135555   2.598   6.213   2.432  0.6607  1.3451  1.6421
 4640TIP3    H235556   2.459   6.200   2.490  0.9755  0.9773  2.3202
 4641TIP3   OH235557   2.636   6.786   1.282  0.2502  0.0657 -0.3762
 4641TIP3    H135558   2.583   6.707   1.291  0.1182  0.2128  0.2197
 4641TIP3    H235559   2.638   6.823   1.371  0.3712  0.6878 -0.6328
 4642TIP3   OH235560   2.184   2.228   1.742  0.2451  0.2679 -0.6299
 4642TIP3    H135561   2.262   2.209   1.795 -0.7961  0.3835  1.0070
 4642TIP3    H235562   2.171   2.322   1.751 -0.1623  0.2302 -0.8116
 4643TIP3   OH235563   4.327   2.800   8.164 -0.3692 -0.3981  0.8184
 4643TIP3    H135564   4.277   2.734   8.117  0.7327 -0.1379 -0.8253
 4643TIP3    H235565   4.320   2.879   8.110  0.6713  0.0101  1.2468
 4644TIP3   OH235566   0.844   0.157   0.672 -0.1743 -0.0177  0.4715
 4644TIP3    H135567   0.802   0.087   0.721  0.1994 -0.3283  0.3512
 4644TIP3    H235568   0.800   0.157   0.586 -1.1545  0.8336  0.9450
 4645TIP3   OH235569   5.893   1.848   0.379  0.3882  0.1345 -0.5655
 4645TIP3    H135570   5.877   1.754   0.382 -2.5938  0.5582 -0.2169
 4645TIP3    H235571   5.857   1.882   0.461  3.0026  1.4716  0.1624
 4646TIP3   OH235572   1.145   2.734   3.912 -0.2272 -0.1039 -0.6421
 4646TIP3    H135573   1.227   2.721   3.863  0.0873 -0.1516 -0.1087
 4646TIP3    H235574   1.088   2.663   3.882  0.1025 -0.3717 -0.6471
 4647TIP3   OH235575   0.859   5.820   0.114  0.3227  0.1600  0.4247
 4647TIP3    H135576   0.924   5.890   0.112 -0.2495  0.6689 -0.6964
 4647TIP3    H235577   0.784   5.855   0.068  0.5234 -1.6662 -1.4088
 4648TIP3   OH235578   6.222   5.793   8.156  0.2982  0.1849  0.3072
 4648TIP3    H135579   6.301   5.841   8.129  0.0162  0.1698 -0.5687
 4648TIP3    H235580   6.167   5.859   8.198 -0.5374  0.9025 -1.8117
 4649TIP3   OH235581   1.299   2.200   8.705  0.1324  0.0011  0.8889
 4649TIP3    H135582   1.242   2.161   8.770  0.1721 -1.7144 -0.0463
 4649TIP3    H235583   1.244   2.264   8.659 -0.3977 -0.0720  1.4136
 4650TIP3   OH235584   4.639   2.706   3.307 -0.5146 -0.1814  0.0216
 4650TIP3    H135585   4.665   2.710   3.399 -0.0191 -0.4519 -0.1057
 4650TIP3    H235586   4.714   2.668   3.262 -1.3697 -1.6260 -0.2440
 4651TIP3   OH235587   4.987   2.559   8.617  0.4059 -0.2972  0.1884
 4651TIP3    H135588   4.891   2.565   8.615  0.4020  0.1977  1.0507
 4651TIP3    H235589   5.012   2.536   8.528 -0.6297 -2.4741  0.3944
 4652TIP3   OH235590   2.229   5.457   3.552  0.0778  0.0203  0.0648
 4652TIP3    H135591   2.319   5.457   3.522  0.1860  1.3462  0.3266
 4652TIP3    H235592   2.187   5.527   3.503 -0.9752 -0.9518 -0.4788
 4653TIP3   OH235593   4.323   4.374   0.582 -0.0172 -0.4538  0.2137
 4653TIP3    H135594   4.402   4.326   0.555 -0.3470 -2.3212  2.2724
 4653TIP3    H235595   4.327   4.374   0.678 -1.1107  1.9325  0.3111
 4654TIP3   OH235596   2.074   3.638   7.735 -0.3307  0.2590  0.1747
 4654TIP3    H135597   2.154   3.588   7.719  1.1388  1.1365  3.8186
 4654TIP3    H235598   2.086   3.719   7.685 -0.2131 -0.7063 -1.4120
 4655TIP3   OH235599   4.630   2.505   8.342  0.0156  0.2343  0.0898
 4655TIP3    H135600   4.684   2.572   8.300 -0.7563 -0.3626 -1.9452
 4655TIP3    H235601   4.668   2.422   8.315 -0.1561 -0.1879  1.0877
 4656TIP3   OH235602   4.356   3.718   1.322 -0.2049 -0.6183  0.3926
 4656TIP3    H135603   4.299   3.714   1.245 -1.7590 -1.2887  1.5341
 4656TIP3    H235604   4.406   3.798   1.310 -1.0952 -0.2140 -0.8629
 4657TIP3   OH235605   1.863   1.021   2.201 -0.0694 -0.1984 -0.3198
 4657TIP3    H135606   1.942   1.002   2.252 -0.6028  0.3540  0.7417
 4657TIP3    H235607   1.854   1.116   2.206 -1.3756 -0.3362  0.4739
 4658TIP3   OH235608   0.677   1.972   8.066  1.0078 -0.2225  0.2160
 4658TIP3    H135609   0.719   2.004   7.986 -0.0711 -1.4865 -0.8920
 4658TIP3    H235610   0.593   2.019   8.069 -0.9315 -3.2289 -1.8217
 4659TIP3   OH235611   1.573   2.108   0.333 -0.0341 -0.0091 -0.0816
 4659TIP3    H135612   1.538   2.025   0.302 -0.5896 -0.3220  1.2965
 4659TIP3    H235613   1.574   2.164   0.256  0.9801 -1.4781 -1.1922
 4660TIP3   OH235614   4.381   6.500   8.725 -0.2541  0.7289  0.0516
 4660TIP3    H135615   4.344   6.412   8.719  0.0938  0.6160 -0.4524
 4660TIP3    H235616   4.360   6.541   8.641  0.5244  0.7552 -0.1350
 4661TIP3   OH235617   2.567   0.465   4.050  0.3613  0.0903 -0.0385
 4661TIP3    H135618   2.555   0.376   4.085  1.5258  1.3669  4.2334
 4661TIP3    H235619   2.655   0.465   4.014  0.8990 -0.2330  1.1991
 4662TIP3   OH235620   2.611   3.576   0.137 -0.2198  0.1571  0.0832
 4662TIP3    H135621   2.703   3.560   0.114 -0.5293 -3.5574  0.7467
 4662TIP3    H235622   2.563   3.508   0.090 -2.5958  1.5248  0.3779
 4663TIP3   OH235623   0.081   4.630   3.908  0.1069 -0.6923 -0.0520
 4663TIP3    H135624   0.107   4.672   3.826  0.1294 -0.6305 -0.0124
 4663TIP3    H235625   0.094   4.536   3.891 -2.9208 -1.0184 -1.2830
 4664TIP3   OH235626   6.229   2.536   8.158  0.5891 -0.1632 -0.1557
 4664TIP3    H135627   6.263   2.623   8.140 -1.2942  0.6717 -0.0084
 4664TIP3    H235628   6.306   2.481   8.170  1.8314  1.0692 -2.0883
 4665TIP3   OH235629   2.728   4.286   8.454 -0.2756  0.7891  0.6070
 4665TIP3    H135630   2.693   4.375   8.462 -1.0924  0.7767 -1.9988
 4665TIP3    H235631   2.821   4.298   8.441 -0.3120  1.2151  0.7178
 4666TIP3   OH235632   3.409   0.271   2.847  0.2793  0.3197  0.8868
 4666TIP3    H135633   3.371   0.356   2.869  0.1541  0.0157  1.9084
 4666TIP3    H235634   3.367   0.246   2.765 -0.2765  0.8864  0.9963
 4667TIP3   OH235635   3.797   3.497   0.344  0.1828 -0.5468 -0.5391
 4667TIP3    H135636   3.768   3.581   0.382 -1.6933 -1.6066  0.5308
 4667TIP3    H235637   3.891   3.494   0.363 -0.3011 -0.1311  2.4436
 4668TIP3   OH235638   1.661   6.024   0.409 -0.1853  0.5475 -0.0659
 4668TIP3    H135639   1.741   5.979   0.381 -1.6116 -0.7637 -2.3067
 4668TIP3    H235640   1.669   6.112   0.373  0.2888  0.4741 -0.1461
 4669TIP3   OH235641   1.092   2.513   1.040 -0.4078 -0.4621 -0.0238
 4669TIP3    H135642   1.141   2.432   1.054 -0.8132 -1.0801 -1.9191
 4669TIP3    H235643   1.128   2.549   0.959  2.2238  3.1867  2.4500
 4670TIP3   OH235644   6.849   3.968   8.373 -0.4403  0.0073  0.1003
 4670TIP3    H135645   6.824   3.964   8.281  0.5922  1.7429 -0.3029
 4670TIP3    H235646   6.924   4.027   8.375  0.7217 -1.4053  1.8323
 4671TIP3   OH235647   6.286   2.245   0.085 -0.2915 -0.2838  0.3509
 4671TIP3    H135648   6.364   2.194   0.104 -0.2785 -0.0642  0.9242
 4671TIP3    H235649   6.286   2.256  -0.010  0.1722 -0.5994  0.3142
 4672TIP3   OH235650   2.153   0.443   8.453 -0.5947 -0.1744 -0.3124
 4672TIP3    H135651   2.176   0.373   8.393  2.6746 -0.8703  1.5417
 4672TIP3    H235652   2.058   0.438   8.460 -0.7117 -2.6792 -2.2585
 4673TIP3   OH235653   4.530   1.098   1.716  0.3392 -0.4440  0.0184
 4673TIP3    H135654   4.542   1.018   1.769 -0.6338 -0.7598 -0.2257
 4673TIP3    H235655   4.438   1.097   1.692  0.4072  0.5697 -0.3099
 4674TIP3   OH235656   5.594   5.470   1.959  0.4168  0.2979  0.4965
 4674TIP3    H135657   5.603   5.565   1.953  0.4438  0.2948  0.4939
 4674TIP3    H235658   5.570   5.454   2.051 -0.6283  0.4009  0.2599
 4675TIP3   OH235659   0.357   4.123   2.461  0.1610  0.7599 -0.1033
 4675TIP3    H135660   0.332   4.193   2.400  0.0002 -1.2465 -2.4703
 4675TIP3    H235661   0.281   4.065   2.462  0.2383  0.6319  1.9447
 4676TIP3   OH235662   6.086   2.720   3.923  0.7241  0.5709 -0.1905
 4676TIP3    H135663   6.029   2.702   3.848  1.6157  0.8619 -0.9668
 4676TIP3    H235664   6.103   2.634   3.961 -0.8959  0.5632  0.5737
 4677TIP3   OH235665   1.225   3.742   0.344  0.1660 -0.1388  0.1244
 4677TIP3    H135666   1.258   3.817   0.295  0.2522  0.7782  1.5239
 4677TIP3    H235667   1.137   3.727   0.311  0.5106 -0.0445 -0.8471
 4678TIP3   OH235668   3.073   4.783   0.867 -0.4839  0.2064  0.1954
 4678TIP3    H135669   3.057   4.876   0.883 -1.5484 -0.1405  1.3306
 4678TIP3    H235670   3.168   4.775   0.865 -0.3800  1.3020  0.2014
 4679TIP3   OH235671   0.482   3.638   1.083  0.8124 -0.5857 -0.7938
 4679TIP3    H135672   0.398   3.671   1.051 -0.0883 -1.2532  0.7204
 4679TIP3    H235673   0.539   3.714   1.085  0.0059  0.0395 -1.1474
 4680TIP3   OH235674   4.797   1.667   3.434  0.1496 -0.8846 -0.3202
 4680TIP3    H135675   4.884   1.633   3.456  1.2694  2.9482  2.1430
 4680TIP3    H235676   4.815   1.749   3.387 -2.1813 -0.5496 -0.7185
 4681TIP3   OH235677   2.304   0.263   0.565  0.2343 -0.2037  0.1515
 4681TIP3    H135678   2.347   0.342   0.533 -0.4678  0.3516  0.5270
 4681TIP3    H235679   2.211   0.278   0.549  0.0975 -1.0019  0.1346
 4682TIP3   OH235680   3.632   6.391   2.783  0.4174  0.1398  0.1379
 4682TIP3    H135681   3.555   6.340   2.807 -0.0072  1.1483  0.9621
 4682TIP3    H235682   3.691   6.327   2.743  1.1526 -1.6786  3.7136
 4683TIP3   OH235683   0.411   4.310   1.428  0.5532 -0.9866  0.0083
 4683TIP3    H135684   0.439   4.337   1.340 -0.1686  0.2380  0.1192
 4683TIP3    H235685   0.324   4.272   1.414  1.0527 -2.1608  0.0189
 4684TIP3   OH235686   0.654   1.548   7.867  0.1056 -0.3825 -0.0247
 4684TIP3    H135687   0.568   1.510   7.845 -0.1466  0.4648 -0.6030
 4684TIP3    H235688   0.633   1.636   7.898  0.8247  0.3031 -1.3742
 4685TIP3   OH235689   3.572   1.550   3.297  0.8088  0.3797  0.0405
 4685TIP3    H135690   3.629   1.557   3.220 -0.5465  1.2263 -0.9423
 4685TIP3    H235691   3.504   1.489   3.270 -0.4980  1.7859 -0.0151
 4686TIP3   OH235692   2.458   3.779   1.320  0.5514  0.0096 -0.1427
 4686TIP3    H135693   2.463   3.684   1.313 -0.6354  0.0224 -1.6200
 4686TIP3    H235694   2.506   3.812   1.244  1.7569  0.6379  0.8573
 4687TIP3   OH235695   5.923   4.302   0.969 -0.1944 -0.2324  0.0422
 4687TIP3    H135696   5.913   4.215   1.008  0.5318  0.3265  1.5491
 4687TIP3    H235697   5.880   4.361   1.030 -0.0675  0.5504 -0.6044
 4688TIP3   OH235698   0.673   4.869   2.924 -0.4288 -0.3803  0.1414
 4688TIP3    H135699   0.708   4.858   3.012  0.6359  2.7496  0.2150
 4688TIP3    H235700   0.602   4.932   2.933 -1.4772 -1.3414 -1.0366
 4689TIP3   OH235701   1.251   0.296   1.403  0.0902  0.2235  0.4690
 4689TIP3    H135702   1.277   0.388   1.411 -1.5064  0.8287 -0.6621
 4689TIP3    H235703   1.294   0.266   1.322 -2.8954  1.4016 -1.7428
 4690TIP3   OH235704   1.596   0.516   2.843  0.0500 -0.1854  0.2407
 4690TIP3    H135705   1.630   0.569   2.770  1.3900  0.0858  1.0240
 4690TIP3    H235706   1.675   0.483   2.886 -0.7495 -1.8157  0.5132
 4691TIP3   OH235707   1.269   2.534   3.563  0.3066 -0.1477 -0.0272
 4691TIP3    H135708   1.188   2.485   3.553 -0.1566  0.6827 -0.4424
 4691TIP3    H235709   1.282   2.577   3.478 -0.5293  2.2878  0.9846
 4692TIP3   OH235710   4.159   4.571   1.183  0.8810  0.2186 -0.6155
 4692TIP3    H135711   4.235   4.512   1.179  1.4100  0.8788 -0.4703
 4692TIP3    H235712   4.089   4.521   1.142  1.0925 -0.8472  0.2762
 4693TIP3   OH235713   6.703   3.400   0.531 -0.0201  0.2148  0.2177
 4693TIP3    H135714   6.659   3.409   0.615 -0.6849 -1.3468  0.0695
 4693TIP3    H235715   6.683   3.481   0.484 -2.0268 -0.0677  0.4990
 4694TIP3   OH235716   6.231   4.472   8.097 -0.0544 -0.3746 -0.3018
 4694TIP3    H135717   6.271   4.413   8.033 -0.4595  0.3697 -1.2648
 4694TIP3    H235718   6.280   4.456   8.178  0.3553 -1.4574 -0.7441
 4695TIP3   OH235719   4.715   4.468   1.852 -0.4350  0.2823  0.2616
 4695TIP3    H135720   4.737   4.387   1.807 -2.1989  0.6368 -1.3607
 4695TIP3    H235721   4.774   4.533   1.815 -0.7319  0.2260 -0.3224
 4696TIP3   OH235722   5.535   4.654   3.456  0.1354  0.5373 -0.6757
 4696TIP3    H135723   5.595   4.682   3.387 -0.1527  0.7969 -0.8261
 4696TIP3    H235724   5.527   4.560   3.444 -0.9282  0.7563 -1.8273
 4697TIP3   OH235725   4.562   5.376   2.393  0.5060  0.1316  0.0008
 4697TIP3    H135726   4.627   5.445   2.382  0.3529  0.3735  0.5466
 4697TIP3    H235727   4.513   5.403   2.471  0.2457 -0.4351  0.0333
 4698TIP3   OH235728   3.838   1.828   2.548 -0.2084 -0.2897  0.0914
 4698TIP3    H135729   3.868   1.787   2.467  0.7776 -1.0324  0.8085
 4698TIP3    H235730   3.771   1.890   2.520  0.7929  0.1751 -1.3956
 4699TIP3   OH235731   4.769   6.470   2.088  0.1997  0.2346  0.4634
 4699TIP3    H135732   4.676   6.454   2.071 -0.4307  2.1856  1.7439
 4699TIP3    H235733   4.776   6.565   2.095  2.3078  0.1271  0.4598
 4700TIP3   OH235734   1.901   2.088   3.231 -0.2097  0.3194 -0.1742
 4700TIP3    H135735   1.973   2.084   3.169 -0.4414  1.9582 -0.5926
 4700TIP3    H235736   1.943   2.081   3.317  0.2488 -0.5593 -0.4639
 4701TIP3   OH235737   5.884   0.843   1.919  0.1881 -0.5454 -0.0645
 4701TIP3    H135738   5.886   0.939   1.917 -0.9061 -0.5145 -0.3887
 4701TIP3    H235739   5.974   0.817   1.899  0.4151  0.4067 -0.3442
 4702TIP3   OH235740   3.091   3.018   0.410  0.2619  0.4672  0.5314
 4702TIP3    H135741   3.006   3.014   0.367  0.8628  2.1299 -0.9190
 4702TIP3    H235742   3.071   3.015   0.503 -1.4155  1.3484  0.2348
 4703TIP3   OH235743   2.501   0.071   0.637 -0.1331 -0.1745 -0.2806
 4703TIP3    H135744   2.569   0.118   0.685 -0.9476 -0.2306  0.9819
 4703TIP3    H235745   2.428   0.133   0.633 -0.3469 -0.4555 -0.7632
 4704TIP3   OH235746   6.836   5.556   2.737 -0.0036  0.1689  0.4764
 4704TIP3    H135747   6.876   5.499   2.802  1.3844  2.5137  1.7941
 4704TIP3    H235748   6.749   5.575   2.772 -0.3132 -0.7820  0.2357
 4705TIP3   OH235749   1.194   4.097   8.265 -0.0782  0.0272  0.1103
 4705TIP3    H135750   1.109   4.084   8.222  0.6964  0.2058 -1.5479
 4705TIP3    H235751   1.243   4.017   8.246  0.2698  0.1032  0.6830
 4706TIP3   OH235752   4.926   4.307   8.389 -0.0195 -0.4703  0.3226
 4706TIP3    H135753   4.832   4.292   8.384 -0.1254  0.1717  0.3770
 4706TIP3    H235754   4.953   4.320   8.298 -0.2528  0.9349  0.4377
 4707TIP3   OH235755   3.429   0.532   2.947 -0.1831  0.7284  0.4313
 4707TIP3    H135756   3.449   0.607   2.891 -0.2215 -1.5365 -2.9185
 4707TIP3    H235757   3.515   0.502   2.977  0.0958  0.4294 -0.6311
 4708TIP3   OH235758   2.353   4.669   1.317  0.6620  0.2262 -0.2362
 4708TIP3    H135759   2.374   4.577   1.335  0.6845  0.4441  0.8989
 4708TIP3    H235760   2.389   4.717   1.391  1.7727  1.3036 -1.4126
 4709TIP3   OH235761   4.311   5.378   4.094 -0.3131  0.2849  0.3686
 4709TIP3    H135762   4.273   5.458   4.131 -2.0977 -0.3198 -0.0661
 4709TIP3    H235763   4.239   5.337   4.047  1.3246 -0.0526 -2.0249
 4710TIP3   OH235764   6.709   3.235   3.297 -0.5840 -0.8957 -0.0212
 4710TIP3    H135765   6.619   3.219   3.325 -1.2494  0.2719 -1.3876
 4710TIP3    H235766   6.732   3.319   3.338  1.3835 -2.9197  3.6158
 4711TIP3   OH235767   0.675   0.973   2.409 -0.6082  0.2096  0.0721
 4711TIP3    H135768   0.598   1.015   2.371  1.1164  2.1962 -1.4838
 4711TIP3    H235769   0.709   1.037   2.471 -0.5121 -0.9168  1.2287
 4712TIP3   OH235770   0.241   2.460   1.987 -0.5344  0.7102 -0.3008
 4712TIP3    H135771   0.208   2.370   1.989  1.1130  0.0706  1.6106
 4712TIP3    H235772   0.289   2.470   2.069 -0.9726  3.4965 -0.2945
 4713TIP3   OH235773   1.407   4.092   2.671  0.0413  0.0273  0.1704
 4713TIP3    H135774   1.357   4.130   2.743 -1.3001 -0.8154 -0.2834
 4713TIP3    H235775   1.482   4.051   2.714 -0.4637 -0.0157  1.0401
 4714TIP3   OH235776   5.983   5.302   8.769 -0.1970 -0.4187 -0.8465
 4714TIP3    H135777   5.953   5.389   8.744  1.6731  0.8815  1.1079
 4714TIP3    H235778   6.004   5.259   8.686 -0.7881  1.1107 -1.8399
 4715TIP3   OH235779   4.186   2.718   2.523  0.1026  0.2841  0.0613
 4715TIP3    H135780   4.175   2.764   2.606 -1.6360  0.1083 -0.0351
 4715TIP3    H235781   4.246   2.647   2.543  0.1009  0.5419  1.0467
 4716TIP3   OH235782   2.321   3.023   7.641  0.3580  0.5879  0.4941
 4716TIP3    H135783   2.291   2.942   7.682  0.8409  0.0228 -0.2676
 4716TIP3    H235784   2.241   3.076   7.634 -0.0319  0.0307  0.6412
 4717TIP3   OH235785   2.200   6.171   1.894 -0.1568  0.0646 -0.0241
 4717TIP3    H135786   2.172   6.182   1.803 -0.5197 -0.1161  0.0627
 4717TIP3    H235787   2.124   6.132   1.937  0.0720  0.0019  0.3213
 4718TIP3   OH235788   2.888   1.481   0.317  0.4157 -0.2326  0.0545
 4718TIP3    H135789   2.838   1.433   0.252  0.0278  1.3047 -0.8434
 4718TIP3    H235790   2.979   1.463   0.295  0.3094  0.9603 -1.5127
 4719TIP3   OH235791   1.969   5.078   2.348 -0.2734 -0.9103 -0.5329
 4719TIP3    H135792   1.898   5.018   2.371 -2.1685  0.8578 -1.4583
 4719TIP3    H235793   2.012   5.097   2.432 -2.0703 -0.6122  0.3646
 4720TIP3   OH235794   3.459   0.653   1.913  0.1756  0.2330 -0.0068
 4720TIP3    H135795   3.521   0.704   1.965  1.4702  0.2604 -1.4790
 4720TIP3    H235796   3.399   0.718   1.876  0.4131  0.4348 -0.0415
 4721TIP3   OH235797   6.362   0.171   0.614 -0.1777 -0.3088 -0.1492
 4721TIP3    H135798   6.396   0.210   0.694 -0.4711  0.2405 -0.2837
 4721TIP3    H235799   6.304   0.239   0.577  1.0738  0.0482 -1.5758
 4722TIP3   OH235800   0.928   1.685   8.336 -0.7461  0.3334  0.0055
 4722TIP3    H135801   0.892   1.700   8.424 -1.0682 -1.1299  0.1462
 4722TIP3    H235802   0.857   1.645   8.287 -0.2861  0.3179 -0.6652
 4723TIP3   OH235803   3.792   4.925   1.367 -0.2869  0.4306 -0.2934
 4723TIP3    H135804   3.761   4.848   1.414  1.6479 -1.6639 -2.2357
 4723TIP3    H235805   3.855   4.966   1.426 -1.6890  0.9064  0.9505
 4724TIP3   OH235806   3.770   1.349   2.938 -0.1323 -0.0120  0.3973
 4724TIP3    H135807   3.811   1.284   2.995  2.6733  0.8410 -0.4648
 4724TIP3    H235808   3.757   1.425   2.995  1.4820  0.4131  0.2267
 4725TIP3   OH235809   2.221   3.651   0.084 -0.3655 -0.2499  0.1013
 4725TIP3    H135810   2.219   3.626  -0.008  1.7078  0.7761 -0.2660
 4725TIP3    H235811   2.272   3.732   0.086  0.4255 -0.7376  2.2424
 4726TIP3   OH235812   6.754   1.304   8.466  0.0361 -0.5959 -0.1832
 4726TIP3    H135813   6.833   1.336   8.423 -1.3883 -0.1049 -2.6330
 4726TIP3    H235814   6.718   1.240   8.405 -2.0601  0.0648  0.2712
 4727TIP3   OH235815   4.366   2.544   2.647 -0.2847 -0.5021  0.0911
 4727TIP3    H135816   4.443   2.600   2.649 -0.8281  0.2601 -0.0568
 4727TIP3    H235817   4.313   2.571   2.721 -1.2666  0.2417 -0.8427
 4728TIP3   OH235818   6.703   5.807   2.120 -0.4565  0.6035 -0.3446
 4728TIP3    H135819   6.644   5.766   2.057 -0.8507  1.1882 -0.3733
 4728TIP3    H235820   6.762   5.737   2.148 -0.8987  0.1092 -0.6336
 4729TIP3   OH235821   2.320   4.511   2.227 -0.2000  0.3351 -0.1517
 4729TIP3    H135822   2.240   4.536   2.273 -0.3384 -0.8404  0.2855
 4729TIP3    H235823   2.292   4.446   2.164  0.1310  1.3230 -1.3605
 4730TIP3   OH235824   0.098   2.092   7.700 -0.0177 -0.5466  0.7309
 4730TIP3    H135825   0.091   2.170   7.644 -2.3153 -0.0795  1.5246
 4730TIP3    H235826   0.031   2.032   7.666 -0.5315 -0.7995  2.1019
 4731TIP3   OH235827   3.627   5.562   1.124  0.1441  0.3017  0.3416
 4731TIP3    H135828   3.568   5.500   1.082  0.5659 -0.1545  0.4222
 4731TIP3    H235829   3.568   5.624   1.168 -0.2826 -0.7588  1.3316
 4732TIP3   OH235830   3.645   5.628   7.694 -0.1105  0.3795 -0.7593
 4732TIP3    H135831   3.567   5.661   7.739  0.8626  1.7092  0.0330
 4732TIP3    H235832   3.667   5.547   7.741 -0.0737  0.8781  0.1144
 4733TIP3   OH235833   5.739   4.033   2.158 -0.0762  0.3379  0.0443
 4733TIP3    H135834   5.773   3.960   2.210  0.8490  0.9957  0.3794
 4733TIP3    H235835   5.682   3.992   2.093 -0.6431 -0.5736  1.0816
 4734TIP3   OH235836   2.202   0.118   1.322 -0.2364  0.0793 -0.1846
 4734TIP3    H135837   2.290   0.147   1.300 -1.0877  2.3382 -0.9317
 4734TIP3    H235838   2.215   0.038   1.373  2.3088  1.2001  1.1271
 4735TIP3   OH235839   6.838   4.984   2.214 -0.1170  1.2570  0.1310
 4735TIP3    H135840   6.869   4.916   2.155  0.5008  1.4340  0.2523
 4735TIP3    H235841   6.846   5.065   2.164  0.5443  1.4250  0.5002
 4736TIP3   OH235842   0.357   1.109   8.679 -0.1587 -0.5430  0.2188
 4736TIP3    H135843   0.410   1.188   8.669 -1.1378  0.2440  1.0393
 4736TIP3    H235844   0.347   1.076   8.590  1.3719 -0.5139  0.0032
 4737TIP3   OH235845   3.451   0.128   2.488  0.7169 -0.2527 -0.2852
 4737TIP3    H135846   3.528   0.149   2.434  1.6414 -0.4449  0.9005
 4737TIP3    H235847   3.482   0.059   2.547  0.0315  0.5661  1.0895
 4738TIP3   OH235848   3.273   6.667   8.780 -0.3270  0.2448  0.0878
 4738TIP3    H135849   3.294   6.702   8.693 -1.6463  0.7738 -0.0496
 4738TIP3    H235850   3.286   6.573   8.772 -2.5248 -0.0041 -1.3856
 4739TIP3   OH235851   4.358   4.961   1.795 -0.2929 -0.0496 -0.3322
 4739TIP3    H135852   4.336   4.977   1.703  0.5830  0.9706 -0.3797
 4739TIP3    H235853   4.400   4.875   1.795  1.7414  0.8909 -1.2487
 4740TIP3   OH235854   3.311   1.970   1.358  0.8072 -0.7057 -0.2895
 4740TIP3    H135855   3.311   2.031   1.432 -0.2638 -0.4353 -0.5052
 4740TIP3    H235856   3.397   1.928   1.362  1.3056  0.3346  0.2607
 4741TIP3   OH235857   2.616   3.860   0.235 -0.7494  0.0045  0.9692
 4741TIP3    H135858   2.560   3.911   0.178  1.2565 -0.0929 -1.2452
 4741TIP3    H235859   2.631   3.778   0.188  3.3243  1.0627  0.0106
 4742TIP3   OH235860   0.407   1.000   2.375  0.3662 -0.2678  0.3492
 4742TIP3    H135861   0.347   0.991   2.450  0.4427 -2.1709  0.2227
 4742TIP3    H235862   0.352   0.981   2.298  0.9553 -1.4486  0.1907
 4743TIP3   OH235863   6.424   6.371   8.282 -0.7174 -0.1119  0.2868
 4743TIP3    H135864   6.440   6.304   8.215 -0.6967  1.3530 -1.2459
 4743TIP3    H235865   6.495   6.358   8.345  0.5900 -0.2146 -1.1122
 4744TIP3   OH235866   4.274   6.258   0.045  0.0447 -0.3029  0.1278
 4744TIP3    H135867   4.179   6.262   0.048  0.0440  1.6790 -0.9196
 4744TIP3    H235868   4.301   6.231   0.133 -1.4236  0.7488  0.9268
 4745TIP3   OH235869   2.267   3.064   8.181  0.5795  0.5242 -0.2203
 4745TIP3    H135870   2.241   3.059   8.089 -0.9965  2.1075  0.1026
 4745TIP3    H235871   2.261   2.973   8.212 -1.4794  0.3313 -1.0298
 4746TIP3   OH235872   1.395   4.208   0.225 -0.0587  0.8808  0.3459
 4746TIP3    H135873   1.488   4.188   0.223 -0.2136  0.1862 -0.3944
 4746TIP3    H235874   1.374   4.214   0.318  0.2060 -1.5631  0.6383
 4747TIP3   OH235875   2.598   3.844   1.100  0.6252 -0.3726 -0.4828
 4747TIP3    H135876   2.550   3.915   1.057 -1.5246 -0.5978  1.3511
 4747TIP3    H235877   2.652   3.806   1.031 -0.7951  0.8289 -2.3466
 4748TIP3   OH235878   3.122   1.514   3.057 -0.2162 -0.2914 -0.1716
 4748TIP3    H135879   3.141   1.578   2.988 -0.4343  0.2417  0.2512
 4748TIP3    H235880   3.156   1.554   3.137 -2.3834  0.3878  0.5073
 4749TIP3   OH235881   2.361   4.953   8.272 -0.0023 -0.7635  0.4267
 4749TIP3    H135882   2.404   4.876   8.310 -0.6456 -0.7917  1.1233
 4749TIP3    H235883   2.418   5.026   8.296  0.6936 -1.0234 -0.3696
 4750TIP3   OH235884   4.539   6.248   8.733 -0.2371 -0.5003  0.0506
 4750TIP3    H135885   4.586   6.234   8.815  0.7041 -1.2580 -0.5921
 4750TIP3    H235886   4.447   6.232   8.755 -0.1900  0.7959  1.2773
 4751TIP3   OH235887   4.306   6.133   1.977  0.5302  0.6598 -0.0814
 4751TIP3    H135888   4.338   6.109   1.890  1.3722 -0.1776  0.4512
 4751TIP3    H235889   4.350   6.216   1.997 -0.3497  1.3386 -0.7981
 4752TIP3   OH235890   3.366   3.616   1.166  0.3301  0.3720 -0.9008
 4752TIP3    H135891   3.299   3.628   1.098 -0.7871  0.0054  0.0973
 4752TIP3    H235892   3.415   3.539   1.138 -0.6232 -0.2435 -0.9095
 4753TIP3   OH235893   3.502   3.975   2.998  0.2117  0.1715 -0.3032
 4753TIP3    H135894   3.410   4.001   2.993  0.3668  1.0222  0.8379
 4753TIP3    H235895   3.504   3.886   2.963 -1.2735 -0.3340  0.8000
 4754TIP3   OH235896   5.895   1.910   1.861  0.0180 -0.3879 -0.0261
 4754TIP3    H135897   5.926   1.963   1.787  0.0437 -0.2974  0.0491
 4754TIP3    H235898   5.914   1.964   1.938 -0.0301 -0.4725  0.0444
 4755TIP3   OH235899   5.171   4.953   3.010 -0.5435  0.4044  0.2618
 4755TIP3    H135900   5.166   4.981   2.919 -0.8566 -1.5809 -0.3895
 4755TIP3    H235901   5.164   4.858   3.006 -2.2742  0.3400  2.4678
 4756TIP3   OH235902   5.279   1.213   0.757 -0.0013  0.4442  0.4724
 4756TIP3    H135903   5.189   1.224   0.788 -0.1596 -0.3899  0.3319
 4756TIP3    H235904   5.322   1.164   0.827  0.1519  0.2145  0.2178
 4757TIP3   OH235905   0.870   4.319   2.188  0.2456 -0.6245  0.4049
 4757TIP3    H135906   0.885   4.233   2.229  0.8312 -0.7222  0.0135
 4757TIP3    H235907   0.776   4.332   2.191  0.3416 -0.1542  2.7192
 4758TIP3   OH235908   3.145   5.914   3.251 -0.0411 -0.0446 -0.2452
 4758TIP3    H135909   3.083   5.848   3.220 -0.1823 -0.6844  1.3072
 4758TIP3    H235910   3.109   5.997   3.220 -0.8369 -0.5426 -0.6971
 4759TIP3   OH235911   1.275   0.753   2.413 -0.2862 -0.1175 -0.2424
 4759TIP3    H135912   1.359   0.783   2.447 -0.5012 -0.4305  0.5815
 4759TIP3    H235913   1.297   0.706   2.333  0.5382 -1.8529  0.9449
 4760TIP3   OH235914   6.625   6.232   3.353  0.0704 -0.2961 -0.2428
 4760TIP3    H135915   6.619   6.167   3.423 -1.5223 -0.6895 -0.7058
 4760TIP3    H235916   6.536   6.263   3.340  0.3776  0.0504 -1.8291
 4761TIP3   OH235917   6.697   3.309   3.741  0.1846 -0.7507  0.6150
 4761TIP3    H135918   6.649   3.268   3.668  1.0853 -0.5042 -0.1370
 4761TIP3    H235919   6.753   3.374   3.698 -0.4611  0.5642  1.6785
 4762TIP3   OH235920   3.324   2.079   8.200  0.2267  0.4675  0.0441
 4762TIP3    H135921   3.355   1.998   8.157 -0.8582 -1.3155  2.3829
 4762TIP3    H235922   3.300   2.137   8.128  1.4726 -1.1166 -1.7445
 4763TIP3   OH235923   6.082   1.911   7.945  0.2064 -0.0532  0.4173
 4763TIP3    H135924   6.156   1.860   7.913  1.2113  1.4691  0.2253
 4763TIP3    H235925   6.017   1.906   7.876  1.1350  0.6561 -0.5320
 4764TIP3   OH235926   6.379   3.795   2.657 -0.1569 -0.3706  0.3853
 4764TIP3    H135927   6.307   3.799   2.594  0.1906 -0.8808 -0.0565
 4764TIP3    H235928   6.354   3.726   2.718 -0.7311  0.4721  1.1146
 4765TIP3   OH235929   4.674   4.384   8.652 -0.0365 -0.0048  0.0809
 4765TIP3    H135930   4.741   4.411   8.590  0.3906 -0.1235  0.4808
 4765TIP3    H235931   4.631   4.310   8.611 -0.8052  0.8782 -0.7575
 4766TIP3   OH235932   4.241   2.400   0.401  0.5798  0.5743  1.1645
 4766TIP3    H135933   4.323   2.429   0.441  0.0129  1.7661  1.5045
 4766TIP3    H235934   4.250   2.305   0.394  2.5965  0.8144 -0.1911
 4767TIP3   OH235935   5.750   3.173   0.967  0.0725  0.2117  0.2918
 4767TIP3    H135936   5.705   3.114   0.906 -0.2079  1.3749 -0.6616
 4767TIP3    H235937   5.838   3.181   0.931  0.0369  0.5673  0.2890
 4768TIP3   OH235938   1.881   6.814   4.350 -0.7013  0.3002  0.3832
 4768TIP3    H135939   1.858   6.748   4.415 -0.0559 -1.8238 -1.4069
 4768TIP3    H235940   1.826   6.794   4.274 -0.3570  1.7283 -0.2830
 4769TIP3   OH235941   4.468   3.234   7.693 -0.4186  0.1359 -0.1982
 4769TIP3    H135942   4.499   3.294   7.625 -0.8308 -0.0075 -0.5136
 4769TIP3    H235943   4.425   3.290   7.757 -1.9678  0.0562 -1.1391
 4770TIP3   OH235944   1.062   5.480   0.874 -0.3119  0.3648  0.0307
 4770TIP3    H135945   1.071   5.440   0.960 -2.5353  0.1688  0.2217
 4770TIP3    H235946   1.105   5.419   0.814 -0.8594 -0.7331  0.7254
 4771TIP3   OH235947   2.465   2.516   1.448  0.4285  0.1338 -0.1034
 4771TIP3    H135948   2.452   2.435   1.498  0.6719  0.0885 -0.1155
 4771TIP3    H235949   2.552   2.507   1.410  0.0559 -0.0561 -0.9376
 4772TIP3   OH235950   6.769   3.358   1.347  0.2690 -0.2741  0.1237
 4772TIP3    H135951   6.797   3.271   1.320  1.4069 -0.1133  0.7000
 4772TIP3    H235952   6.797   3.415   1.276  1.6086 -0.0979  0.7491
 4773TIP3   OH235953   5.985   5.588   8.130 -0.5160 -0.0184 -0.1453
 4773TIP3    H135954   5.917   5.648   8.101 -0.4497 -0.3772 -1.0844
 4773TIP3    H235955   5.974   5.510   8.075  0.5848 -0.1213 -0.2519
 4774TIP3   OH235956   0.109   1.429   8.051  0.1652 -0.7237 -0.2892
 4774TIP3    H135957   0.169   1.425   8.125 -0.8086  1.5094  0.7267
 4774TIP3    H235958   0.157   1.475   7.982 -0.7144  2.4861  1.0549
 4775TIP3   OH235959   1.507   0.159   0.870  0.0355  0.7279 -0.3235
 4775TIP3    H135960   1.444   0.110   0.818  0.6900 -0.6134  0.1206
 4775TIP3    H235961   1.545   0.222   0.808  0.1431 -0.2160 -1.2455
 4776TIP3   OH235962   0.077   6.845   2.154 -0.2317 -0.2381 -0.0219
 4776TIP3    H135963   0.030   6.762   2.156 -0.5321 -0.0711  1.7517
 4776TIP3    H235964   0.029   6.898   2.091 -0.3113 -1.2421 -0.8282
 4777TIP3   OH235965   3.003   6.498   0.725 -0.2838  0.2444  0.3284
 4777TIP3    H135966   3.065   6.469   0.658 -1.3735 -0.2775 -0.4963
 4777TIP3    H235967   2.975   6.417   0.767 -0.6824  0.4341  0.4295
 4778TIP3   OH235968   0.078   2.616   3.005  0.0994 -0.5271  0.0263
 4778TIP3    H135969   0.086   2.688   2.943  2.3550 -2.1542 -1.7777
 4778TIP3    H235970   0.168   2.585   3.018 -0.8541 -4.1533 -0.7845
 4779TIP3   OH235971   6.478   0.224   0.869  0.6850  0.0078  0.4510
 4779TIP3    H135972   6.460   0.308   0.913 -1.1459  0.8720 -1.7453
 4779TIP3    H235973   6.569   0.204   0.893 -0.3187 -0.1325  5.2794
 4780TIP3   OH235974   4.791   6.396   1.248 -0.2589  0.1688 -0.0582
 4780TIP3    H135975   4.792   6.492   1.241 -0.9666  0.2086  0.3054
 4780TIP3    H235976   4.720   6.377   1.309  0.8224 -0.5309  1.0113
 4781TIP3   OH235977   6.833   5.411   8.770 -0.3244  0.2984  0.8443
 4781TIP3    H135978   6.920   5.380   8.796 -1.1716 -1.1468  2.1275
 4781TIP3    H235979   6.777   5.389   8.844 -2.5305 -2.4066 -1.3727
 4782TIP3   OH235980   1.811   3.061   1.576 -0.0914 -0.2568 -0.5310
 4782TIP3    H135981   1.858   3.038   1.495  0.1105 -1.3161 -0.1323
 4782TIP3    H235982   1.738   2.999   1.580  0.2873 -0.6690  0.4283
 4783TIP3   OH235983   1.681   5.795   2.082  0.1347  0.2360 -0.3294
 4783TIP3    H135984   1.601   5.753   2.050  0.3769  0.1960 -0.8801
 4783TIP3    H235985   1.650   5.862   2.143 -0.3673  0.8856 -1.2813
 4784TIP3   OH235986   6.506   2.596   2.420 -0.1232 -0.2307  0.2688
 4784TIP3    H135987   6.536   2.594   2.511  1.4116 -1.4137 -0.2152
 4784TIP3    H235988   6.510   2.504   2.393  0.6275  0.2573 -1.3541
 4785TIP3   OH235989   1.371   2.258   7.911 -0.2876 -0.6386 -0.0389
 4785TIP3    H135990   1.300   2.246   7.974  1.1291  0.9916  2.0039
 4785TIP3    H235991   1.332   2.309   7.840 -1.7509 -1.9015 -0.1805
 4786TIP3   OH235992   5.962   0.687   3.611  0.1961 -0.7380 -0.0057
 4786TIP3    H135993   5.999   0.646   3.689 -0.2587 -0.0825  0.5675
 4786TIP3    H235994   6.026   0.754   3.587  0.2047 -0.7522 -0.0218
 4787TIP3   OH235995   4.313   5.868   8.533  0.1782 -0.1907 -0.0805
 4787TIP3    H135996   4.350   5.828   8.612  1.0848  0.7080 -0.0413
 4787TIP3    H235997   4.225   5.896   8.559  0.6219  0.4763  0.7423
 4788TIP3   OH235998   3.289   6.287   3.295 -0.2245 -0.0705  0.0439
 4788TIP3    H135999   3.329   6.241   3.221 -0.8248  1.3237 -1.1949
 4788TIP3    H236000   3.266   6.218   3.356 -1.1591 -1.4640 -1.7722
 4789TIP3   OH236001   5.309   0.826   4.103  0.2280  0.2507  0.2406
 4789TIP3    H136002   5.355   0.858   4.025  0.3649  1.1563  0.6763
 4789TIP3    H236003   5.231   0.783   4.068  1.2183 -1.0366 -0.4846
 4790TIP3   OH236004   6.061   1.028   7.811  0.0572  0.5554 -0.1542
 4790TIP3    H136005   6.035   0.937   7.794 -0.6600  0.7356 -0.0091
 4790TIP3    H236006   6.085   1.029   7.903  2.2604 -0.0064 -0.6547
 4791TIP3   OH236007   3.316   4.883   1.308  0.7938  0.7406 -0.0581
 4791TIP3    H136008   3.221   4.889   1.308  0.7299 -0.0679  0.0331
 4791TIP3    H236009   3.336   4.829   1.231  1.1662  0.8383 -0.0309
 4792TIP3   OH236010   6.552   2.320   0.927  0.3687  0.3341  0.3823
 4792TIP3    H136011   6.501   2.373   0.865  1.1990 -0.6114 -1.1696
 4792TIP3    H236012   6.486   2.265   0.970  0.0310 -1.8811 -2.5861
 4793TIP3   OH236013   0.055   4.089   2.896  0.1873 -0.3416  0.8301
 4793TIP3    H136014   0.140   4.123   2.867  0.4340 -2.2026 -0.8166
 4793TIP3    H236015   0.078   4.017   2.956 -0.1694 -1.4944 -0.3807
 4794TIP3   OH236016   4.515   5.531   8.657 -0.6057  0.1928 -0.4860
 4794TIP3    H136017   4.546   5.492   8.575  1.0650  1.8240 -0.7045
 4794TIP3    H236018   4.582   5.507   8.721 -1.9556 -1.1552  0.4833
 4795TIP3   OH236019   6.780   2.135   3.559 -0.5562  0.2222 -0.0618
 4795TIP3    H136020   6.796   2.107   3.649  0.5194  1.2263  0.0892
 4795TIP3    H236021   6.836   2.079   3.506  0.4192  1.0213  0.0999
 4796TIP3   OH236022   0.724   4.160   1.824  0.4555  0.6531  0.0974
 4796TIP3    H136023   0.630   4.179   1.828  0.3543  0.4653 -1.0767
 4796TIP3    H236024   0.731   4.068   1.849  0.5876  1.2118  2.3666
 4797TIP3   OH236025   3.555   1.285   1.394  0.1611  0.0515 -0.3708
 4797TIP3    H136026   3.634   1.287   1.449  1.1585  0.8136 -1.7674
 4797TIP3    H236027   3.519   1.198   1.407  1.5811 -0.5334 -0.1721
 4798TIP3   OH236028   6.025   1.107   2.310  0.4457 -0.1269 -0.3134
 4798TIP3    H136029   6.031   1.193   2.351 -0.6453  0.4485 -1.3272
 4798TIP3    H236030   5.937   1.076   2.331  0.5700 -0.6775 -0.5787
 4799TIP3   OH236031   0.761   1.642   8.552 -0.9103 -0.3741 -0.2426
 4799TIP3    H136032   0.700   1.569   8.542  0.3927 -1.7012  0.9359
 4799TIP3    H236033   0.724   1.694   8.623 -1.5032 -0.2375 -0.6406
 4800TIP3   OH236034   3.325   2.945   0.215 -0.0060 -0.1181  0.0678
 4800TIP3    H136035   3.266   2.945   0.140  0.0786  2.9677 -0.1250
 4800TIP3    H236036   3.268   2.954   0.291  0.1063  1.9150 -0.0508
 4801TIP3   OH236037   2.192   6.815   3.840 -0.0307  0.3089  0.2578
 4801TIP3    H136038   2.270   6.857   3.876  0.1582 -0.2468  0.5103
 4801TIP3    H236039   2.180   6.855   3.754  0.8332  0.0287  0.0031
 4802TIP3   OH236040   3.325   1.032   2.613 -0.4393 -0.4667 -0.1453
 4802TIP3    H136041   3.414   1.053   2.642 -0.7761  0.4601  0.2812
 4802TIP3    H236042   3.269   1.093   2.662 -1.0631  1.0957 -2.6163
 4803TIP3   OH236043   5.476   5.334   1.433  0.1598  0.2764  0.6628
 4803TIP3    H136044   5.423   5.285   1.370 -0.6954 -1.8037  2.8113
 4803TIP3    H236045   5.469   5.425   1.405 -2.7080 -0.1875 -0.4712
 4804TIP3   OH236046   5.567   4.050   3.000  0.3396 -0.1606 -0.1668
 4804TIP3    H136047   5.483   4.017   2.969 -0.6476  1.4093  0.7011
 4804TIP3    H236048   5.595   4.113   2.934  0.7905 -0.5818 -0.3877
 4805TIP3   OH236049   1.519   1.036   2.103 -0.1911 -0.4787 -0.5142
 4805TIP3    H136050   1.552   1.115   2.147 -0.5895 -0.2304 -0.6607
 4805TIP3    H236051   1.427   1.054   2.087 -0.3661 -1.1081 -0.2594
 4806TIP3   OH236052   3.410   1.546   0.267  0.3947 -0.0119  0.6833
 4806TIP3    H136053   3.392   1.457   0.298  1.7274  0.1211  1.9642
 4806TIP3    H236054   3.492   1.537   0.218  0.5883  0.5224  0.9056
 4807TIP3   OH236055   1.464   0.331   3.835  0.4275 -0.0351  0.1129
 4807TIP3    H136056   1.535   0.395   3.830 -0.2152  0.6844  0.0795
 4807TIP3    H236057   1.404   0.366   3.902 -0.4527 -0.0674 -0.6430
 4808TIP3   OH236058   2.333   2.269   8.292  0.3384 -0.1539  0.2191
 4808TIP3    H136059   2.395   2.236   8.358 -0.1007  1.3938  1.4610
 4808TIP3    H236060   2.247   2.255   8.330 -0.0595 -1.0856 -0.9408
 4809TIP3   OH236061   5.456   1.947   0.486 -0.0145 -0.4092 -0.1306
 4809TIP3    H136062   5.373   1.985   0.514  0.2699 -0.7319  1.2252
 4809TIP3    H236063   5.434   1.893   0.411 -0.5345  1.8511 -1.7209
 4810TIP3   OH236064   5.534   3.813   1.746 -0.1956  0.1176 -0.0225
 4810TIP3    H136065   5.445   3.788   1.721 -0.3872  0.4892  0.2688
 4810TIP3    H236066   5.561   3.875   1.678 -0.1883  0.0638 -0.0689
 4811TIP3   OH236067   0.189   5.477   0.413  0.3367 -0.1778 -0.4368
 4811TIP3    H136068   0.128   5.549   0.423  0.0997 -0.5777  1.2990
 4811TIP3    H236069   0.272   5.510   0.449  0.4362 -0.5087 -0.3585
 4812TIP3   OH236070   1.942   4.564   8.065  0.7339 -0.8835  0.1031
 4812TIP3    H136071   1.882   4.605   8.003  1.8437 -0.4911 -0.7410
 4812TIP3    H236072   1.885   4.510   8.121 -0.2377 -1.8069 -1.6909
 4813TIP3   OH236073   1.870   6.561   1.798 -0.0193  0.1949 -0.4590
 4813TIP3    H136074   1.813   6.485   1.787  0.2209 -0.0098 -0.3000
 4813TIP3    H236075   1.863   6.582   1.891 -0.9256  1.0364 -0.7033
 4814TIP3   OH236076   5.630   5.486   0.802  0.1764  0.6006 -0.0881
 4814TIP3    H136077   5.706   5.542   0.818  1.1040 -0.3635 -0.9418
 4814TIP3    H236078   5.667   5.404   0.769 -1.1572 -0.4661  0.9501
 4815TIP3   OH236079   5.570   3.910   1.992  0.4593  0.5220  0.6984
 4815TIP3    H136080   5.549   3.898   1.899  1.1481  0.6195  0.5232
 4815TIP3    H236081   5.552   3.825   2.032 -1.0616  0.8406  0.7213
 4816TIP3   OH236082   6.355   0.230   3.637  1.0158 -0.1102 -0.5483
 4816TIP3    H136083   6.284   0.295   3.641 -1.4871 -2.5425 -1.8355
 4816TIP3    H236084   6.406   0.246   3.716 -1.2687  1.4858  0.7443
 4817TIP3   OH236085   2.733   1.496   3.199 -0.4104  0.1273 -0.0978
 4817TIP3    H136086   2.701   1.558   3.133  1.6479  0.2734 -1.0399
 4817TIP3    H236087   2.820   1.527   3.221 -0.4655 -0.8140  1.6020
 4818TIP3   OH236088   5.306   0.323   0.392  0.3439 -0.5772 -0.2662
 4818TIP3    H136089   5.401   0.319   0.405  0.4699 -0.4202 -1.0538
 4818TIP3    H236090   5.277   0.232   0.397  0.6719 -0.7259 -0.8925
 4819TIP3   OH236091   2.469   3.346   0.050 -0.5203  0.4807  0.7023
 4819TIP3    H136092   2.401   3.343  -0.016  0.0571 -0.6180  0.1144
 4819TIP3    H236093   2.488   3.254   0.069  1.2144  0.7213  0.3758
 4820TIP3   OH236094   3.839   3.464   0.723  0.5841  0.2119 -0.1804
 4820TIP3    H136095   3.747   3.443   0.708  0.3885  1.0593 -0.2117
 4820TIP3    H236096   3.859   3.531   0.658  1.1160  0.3319  0.1017
 4821TIP3   OH236097   5.280   6.058   2.390 -0.4303 -0.0414  0.0923
 4821TIP3    H136098   5.329   6.040   2.469  1.0106 -2.0705 -1.1605
 4821TIP3    H236099   5.253   5.971   2.358 -0.5662  0.6612 -1.8646
 4822TIP3   OH236100   3.141   2.301   1.305  0.1599  0.0680  0.2927
 4822TIP3    H136101   3.104   2.378   1.261  3.1017  1.5565  0.1564
 4822TIP3    H236102   3.214   2.274   1.248 -0.8520 -3.0059  0.2552
 4823TIP3   OH236103   3.934   5.741   0.622  0.1860  0.2961  0.5183
 4823TIP3    H136104   3.924   5.690   0.702  2.7669  0.0268  0.7589
 4823TIP3    H236105   3.918   5.679   0.551 -0.1326  0.0252  0.8271
 4824TIP3   OH236106   1.833   6.075   1.985 -0.0619 -0.1399  0.4512
 4824TIP3    H136107   1.842   6.155   1.933 -0.1600 -0.8935 -0.7632
 4824TIP3    H236108   1.766   6.096   2.050 -3.0222 -0.3830 -2.2759
 4825TIP3   OH236109   2.700   0.006   2.735  0.1676 -0.2298  0.5433
 4825TIP3    H136110   2.691   0.078   2.797  1.0515 -0.2160  0.6783
 4825TIP3    H236111   2.670  -0.071   2.783 -3.0119  0.3159 -0.3457
 4826TIP3   OH236112   1.475   1.083   0.709 -0.2239 -0.5164  0.0522
 4826TIP3    H136113   1.441   1.100   0.621  1.7637  0.2854 -0.6178
 4826TIP3    H236114   1.511   0.995   0.705 -0.2339 -0.5220  0.0830
 4827TIP3   OH236115   6.736   6.593   3.349  0.0291 -0.0590  0.3640
 4827TIP3    H136116   6.758   6.598   3.442  1.6811 -1.9784  0.1584
 4827TIP3    H236117   6.814   6.627   3.304 -0.1498 -0.5472 -0.3323
 4828TIP3   OH236118   0.757   6.652   0.610  0.3836  0.5388  0.1942
 4828TIP3    H136119   0.721   6.657   0.521  1.6591 -1.4886 -0.5012
 4828TIP3    H236120   0.718   6.726   0.655 -0.4747  1.5199 -1.9942
 4829TIP3   OH236121   5.092   0.136   3.181 -0.0484 -0.7709 -0.5400
 4829TIP3    H136122   5.071   0.194   3.254 -0.8987 -2.3653  0.5433
 4829TIP3    H236123   5.009   0.127   3.134  0.4746  0.1909 -1.7259
 4830TIP3   OH236124   1.744   1.483   3.779 -0.4689 -0.1269 -0.0988
 4830TIP3    H136125   1.724   1.399   3.739  0.5339  0.3694 -1.7611
 4830TIP3    H236126   1.671   1.540   3.754 -0.6873 -0.2565  0.2386
 4831TIP3   OH236127   1.206   0.497   2.456  0.2947  0.1559 -0.2518
 4831TIP3    H136128   1.186   0.586   2.488  2.6412  0.4048  0.7165
 4831TIP3    H236129   1.238   0.451   2.533  0.9287 -0.9298 -1.1406
 4832TIP3   OH236130   3.483   4.514   1.014 -0.1785 -0.2003 -0.0286
 4832TIP3    H136131   3.541   4.478   1.081  0.7351 -0.4541 -0.9253
 4832TIP3    H236132   3.539   4.575   0.965 -1.1214  0.8188  0.1120
 4833TIP3   OH236133   1.574   5.122   2.707  0.0006 -0.1430  0.3258
 4833TIP3    H136134   1.568   5.143   2.614  0.7182 -0.3594  0.2230
 4833TIP3    H236135   1.667   5.104   2.721 -0.3266 -1.6850  0.7367
 4834TIP3   OH236136   0.042   3.354   8.647 -0.1130 -0.1648 -0.2192
 4834TIP3    H136137   0.078   3.269   8.673  1.4074  0.6280  0.4096
 4834TIP3    H236138   0.003   3.390   8.727  2.3419  1.1865  0.4768
 4835TIP3   OH236139   1.415   1.082   1.383  0.5671  0.0941  0.4906
 4835TIP3    H136140   1.485   1.140   1.413  0.8628 -0.5899  1.1731
 4835TIP3    H236141   1.413   1.012   1.448  0.0296 -0.5114 -0.1613
 4836TIP3   OH236142   4.405   0.424   0.214 -0.2653  0.2083 -0.4121
 4836TIP3    H136143   4.461   0.392   0.143  1.0347  0.1664  0.6083
 4836TIP3    H236144   4.464   0.437   0.288 -1.2739  2.0946  0.1227
 4837TIP3   OH236145   6.437   4.054   2.138 -0.3883 -0.0372  0.5311
 4837TIP3    H136146   6.466   4.132   2.090 -1.1780  0.2451  0.4893
 4837TIP3    H236147   6.514   4.027   2.188  1.4193 -1.9816 -2.9040
 4838TIP3   OH236148   2.499   5.201   3.547 -0.7331  0.3605 -0.2961
 4838TIP3    H136149   2.548   5.119   3.546 -1.8804 -0.3336 -1.5615
 4838TIP3    H236150   2.550   5.260   3.491 -0.9294 -0.1117 -0.9768
 4839TIP3   OH236151   2.449   4.556   2.634  0.2970  0.7807  0.6045
 4839TIP3    H136152   2.461   4.481   2.692 -1.5280  1.1740  1.5809
 4839TIP3    H236153   2.356   4.578   2.642  0.0588  1.1015 -2.2356
 4840TIP3   OH236154   6.383   3.879   1.297  0.5401  0.2800  0.5042
 4840TIP3    H136155   6.304   3.909   1.253  0.5348 -0.6168 -0.1229
 4840TIP3    H236156   6.376   3.913   1.386 -0.5779  0.1556  0.4689
 4841TIP3   OH236157   1.692   0.005   2.741  0.1905  0.1050 -0.3041
 4841TIP3    H136158   1.684   0.035   2.832  1.2041 -1.7162  0.4416
 4841TIP3    H236159   1.764  -0.058   2.743  0.3674  0.1638 -2.4344
 4842TIP3   OH236160   3.660   6.572   3.014 -0.3812  0.3930  0.0612
 4842TIP3    H136161   3.584   6.588   3.070  0.0424  0.9492  0.4935
 4842TIP3    H236162   3.633   6.501   2.956 -0.3444 -1.2983  1.9829
 4843TIP3   OH236163   3.726   6.225   2.441  0.0023  0.1861 -0.6891
 4843TIP3    H136164   3.672   6.146   2.431  0.3272 -0.0546 -0.5947
 4843TIP3    H236165   3.803   6.207   2.388  0.0816  0.4382 -0.6564
 4844TIP3   OH236166   5.643   5.284   0.010 -0.1121 -0.5464 -0.0378
 4844TIP3    H136167   5.714   5.256   0.067 -0.2504 -1.2672 -0.2129
 4844TIP3    H236168   5.564   5.251   0.053 -0.2681 -0.5188 -0.3003
 4845TIP3   OH236169   1.898   0.021   8.771  0.1631  0.2295 -0.2481
 4845TIP3    H136170   1.885   0.045   8.679  0.1773 -0.0009 -0.3132
 4845TIP3    H236171   1.852  -0.063   8.780  0.1886  0.2355 -0.0537
 4846TIP3   OH236172   3.563   3.301   0.497  0.0741 -0.0382  0.4216
 4846TIP3    H136173   3.477   3.259   0.492  0.0401 -0.1168  1.5905
 4846TIP3    H236174   3.573   3.328   0.588  1.3565 -0.1701  0.3487
 4847TIP3   OH236175   1.799   6.583   0.370 -0.6050  0.0115 -0.1342
 4847TIP3    H136176   1.863   6.630   0.423 -0.0196 -0.3538 -0.5069
 4847TIP3    H236177   1.850   6.516   0.324 -0.9528  0.8968 -1.8642
 4848TIP3   OH236178   5.961   3.013   2.037 -0.0325 -0.2368  0.4216
 4848TIP3    H136179   5.979   3.068   1.961  1.6245 -2.4601 -0.9114
 4848TIP3    H236180   5.971   2.923   2.005 -0.9393 -1.3089  2.8840
 4849TIP3   OH236181   2.136   3.693   8.395 -0.3429  0.1291  0.1426
 4849TIP3    H136182   2.063   3.711   8.336 -0.2713  1.2537  0.3780
 4849TIP3    H236183   2.184   3.776   8.399 -0.7875  0.3387  2.3785
 4850TIP3   OH236184   4.340   1.184   0.621 -0.5092  0.5433 -0.0576
 4850TIP3    H136185   4.265   1.168   0.563 -0.6388  4.4429 -1.2744
 4850TIP3    H236186   4.414   1.145   0.576 -1.3436 -0.8905 -0.2534
 4851TIP3   OH236187   4.303   5.794   2.332  0.0896 -0.0579 -0.6238
 4851TIP3    H136188   4.327   5.752   2.250 -1.2049 -1.6557 -0.2426
 4851TIP3    H236189   4.265   5.724   2.385 -0.7997  1.3080  0.6403
 4852TIP3   OH236190   5.654   0.566   2.857  0.3903  0.1935  0.2909
 4852TIP3    H136191   5.612   0.558   2.771  0.1446  0.7355  0.3532
 4852TIP3    H236192   5.622   0.650   2.891 -0.1534 -0.3899  1.2638
 4853TIP3   OH236193   1.428   1.684   8.206  0.3145  0.1467  0.1530
 4853TIP3    H136194   1.351   1.657   8.256 -0.7153  1.0771 -0.8565
 4853TIP3    H236195   1.410   1.654   8.117  1.3840 -0.0964  0.0103
 4854TIP3   OH236196   4.627   3.020   1.558 -0.0005 -0.0807  0.5453
 4854TIP3    H136197   4.596   3.111   1.552 -0.5895 -0.3479 -0.7320
 4854TIP3    H236198   4.643   3.007   1.651 -1.0507  0.9678  0.9004
 4855TIP3   OH236199   3.349   2.216   3.113  0.0120 -0.0176 -0.0091
 4855TIP3    H136200   3.410   2.159   3.067 -0.5492  0.6675 -1.6646
 4855TIP3    H236201   3.312   2.160   3.182  1.0175 -1.0108 -0.2479
 4856TIP3   OH236202   4.648   4.226   8.420 -0.5118 -0.3383  0.2129
 4856TIP3    H136203   4.639   4.132   8.407  1.7354 -0.7752  1.3010
 4856TIP3    H236204   4.588   4.266   8.356 -3.2754 -2.4769  1.2707
 4857TIP3   OH236205   3.066   2.181   2.956 -0.1205 -0.3275 -0.2732
 4857TIP3    H136206   3.134   2.242   2.981  0.3622 -1.0635  0.2264
 4857TIP3    H236207   2.996   2.236   2.920  0.4584  0.4763 -0.1765
 4858TIP3   OH236208   3.241   4.325   2.879  0.7345  0.1077 -0.1356
 4858TIP3    H136209   3.228   4.411   2.839  1.4474  1.6173  2.6397
 4858TIP3    H236210   3.156   4.304   2.918  0.3960 -0.7904 -1.2775
 4859TIP3   OH236211   1.260   0.403   0.332 -0.1876 -0.0095  0.0690
 4859TIP3    H136212   1.334   0.455   0.301 -0.9435  1.6197  0.8317
 4859TIP3    H236213   1.184   0.441   0.289 -0.6598 -1.2823 -0.2622
 4860TIP3   OH236214   3.133   0.434   1.803  0.1778 -0.1901  0.2728
 4860TIP3    H136215   3.170   0.349   1.777 -1.6504 -0.0087 -3.8156
 4860TIP3    H236216   3.069   0.413   1.871  0.6761 -1.8880  0.2673
 4861TIP3   OH236217   3.591   5.974   2.402 -0.4828  0.3370  0.4345
 4861TIP3    H136218   3.637   5.943   2.480  1.4494  0.6806 -0.5028
 4861TIP3    H236219   3.608   5.908   2.335  0.2553  1.3671 -0.4453
 4862TIP3   OH236220   3.411   5.371   1.016 -0.0587 -0.5776  0.3401
 4862TIP3    H136221   3.343   5.389   1.080 -0.9180 -1.0020 -0.4373
 4862TIP3    H236222   3.397   5.435   0.946  0.4586 -0.5451  0.2574
 4863TIP3   OH236223   1.349   1.137   2.488  0.2813  0.3901  0.4750
 4863TIP3    H136224   1.282   1.173   2.430 -0.8908 -0.2691  1.3907
 4863TIP3    H236225   1.428   1.187   2.466 -0.6048  1.5255 -0.2890
 4864TIP3   OH236226   4.822   3.107   2.698 -0.2522  0.1869 -0.2656
 4864TIP3    H136227   4.797   3.015   2.703  0.9237 -0.1250  0.3422
 4864TIP3    H236228   4.874   3.122   2.777  0.0934  1.2032 -0.6658
 4865TIP3   OH236229   4.510   5.750   0.786  0.2948  0.1888 -0.2746
 4865TIP3    H136230   4.539   5.750   0.695 -0.2626 -0.2890 -0.4565
 4865TIP3    H236231   4.581   5.792   0.834  0.5847  0.4589 -0.9315
 4866TIP3   OH236232   4.722   4.280   1.051  0.5988  0.1294 -0.2134
 4866TIP3    H136233   4.724   4.375   1.068  2.8949  0.3907 -1.5533
 4866TIP3    H236234   4.631   4.262   1.027  0.3987  2.2925 -1.3716
 4867TIP3   OH236235   4.609   4.963   1.430 -0.0536  0.6033  0.3322
 4867TIP3    H136236   4.543   5.031   1.428  0.8567  1.4898 -1.0629
 4867TIP3    H236237   4.691   5.010   1.447  0.3548 -0.3732  1.1948
 4868TIP3   OH236238   0.224   3.748   1.316  0.2226  0.5185  0.2634
 4868TIP3    H136239   0.201   3.714   1.403 -2.0110  0.0782 -0.4366
 4868TIP3    H236240   0.317   3.731   1.308 -0.2193 -3.0689  1.0240
 4869TIP3   OH236241   0.037   4.967   3.360  0.1084 -0.8425  0.0033
 4869TIP3    H136242  -0.017   4.893   3.388 -1.2504 -0.6825 -1.9778
 4869TIP3    H236243   0.055   4.949   3.268  0.8232  0.6946 -0.1743
 4870TIP3   OH236244   6.229   4.984   3.320 -0.2021  0.2530 -0.6621
 4870TIP3    H136245   6.322   4.977   3.300  0.3679  0.4166  1.6319
 4870TIP3    H236246   6.205   5.071   3.289  0.2863  0.0275 -1.7011
 4871TIP3   OH236247   0.510   0.490   1.811 -0.3105 -0.2698  0.2980
 4871TIP3    H136248   0.586   0.549   1.812 -0.0561 -0.5889  0.1571
 4871TIP3    H236249   0.503   0.459   1.901  0.5624 -1.2789  0.0486
 4872TIP3   OH236250   1.577   4.659   2.408  0.0637  0.0445  0.3884
 4872TIP3    H136251   1.489   4.695   2.417  0.0520  0.3130 -0.7079
 4872TIP3    H236252   1.566   4.579   2.357  0.4677  0.1516  0.1216
 4873TIP3   OH236253   4.795   2.291   8.730 -0.0683 -0.1550  0.2789
 4873TIP3    H136254   4.747   2.372   8.712 -0.4898 -0.6857 -1.1517
 4873TIP3    H236255   4.753   2.225   8.673  0.3666 -1.3423  1.2929
 4874TIP3   OH236256   2.775   2.245   1.610  0.0524 -0.1259  0.0658
 4874TIP3    H136257   2.846   2.235   1.546  0.0453  1.2040 -0.1746
 4874TIP3    H236258   2.785   2.169   1.668  1.6773  0.0181  0.0311
 4875TIP3   OH236259   2.878   4.679   3.294  0.6883 -0.4295  0.3692
 4875TIP3    H136260   2.913   4.622   3.362  0.2534 -0.7082  0.3566
 4875TIP3    H236261   2.873   4.765   3.335  0.5941 -0.5611  0.6352
 4876TIP3   OH236262   3.902   0.246   1.536 -0.5222  0.6467  0.0090
 4876TIP3    H136263   3.925   0.332   1.500  0.3685  0.5904  0.4176
 4876TIP3    H236264   3.925   0.253   1.629 -1.3172  0.2696  0.2380
 4877TIP3   OH236265   2.141   6.164   0.082 -0.4545  0.1715  0.1842
 4877TIP3    H136266   2.083   6.195   0.151 -0.3182 -1.3292  1.0167
 4877TIP3    H236267   2.111   6.074   0.065 -0.0417  0.2731 -1.2283
 4878TIP3   OH236268   5.422   4.479   2.911 -0.1266  0.3047 -0.2452
 4878TIP3    H136269   5.373   4.432   2.978  0.0856 -0.0718 -0.3456
 4878TIP3    H236270   5.357   4.531   2.865  0.0701  2.6411  1.9130
 4879TIP3   OH236271   2.412   3.160   7.946  0.2514  0.0190 -0.2183
 4879TIP3    H136272   2.476   3.200   7.887  1.2987 -0.0808  0.8163
 4879TIP3    H236273   2.438   3.189   8.034  0.0511 -1.5921  0.4052
 4880TIP3   OH236274   0.169   1.091   0.448 -0.0509 -0.1968 -0.0689
 4880TIP3    H136275   0.211   1.097   0.534 -0.0449  1.4196 -0.1631
 4880TIP3    H236276   0.112   1.014   0.455 -0.0823 -0.0714  1.3899
 4881TIP3   OH236277   0.234   3.373   2.578 -0.1551 -0.1292 -0.6162
 4881TIP3    H136278   0.251   3.322   2.499 -0.6683 -0.0600 -0.7757
 4881TIP3    H236279   0.265   3.461   2.557 -1.2347  0.1459 -1.1246
 4882TIP3   OH236280   5.404   4.848   3.181 -0.4311 -0.2084 -0.0583
 4882TIP3    H136281   5.485   4.850   3.232 -0.0526  0.2561 -0.6650
 4882TIP3    H236282   5.357   4.771   3.213  0.4593 -0.7431 -0.0225
 4883TIP3   OH236283   0.449   5.789   1.920 -0.1075  0.4555  0.2283
 4883TIP3    H136284   0.454   5.717   1.857 -0.7412  0.8297 -0.2559
 4883TIP3    H236285   0.358   5.818   1.916  0.3334  1.8507 -0.2070
 4884TIP3   OH236286   6.313   4.618   0.528 -0.0449  0.2729 -0.4164
 4884TIP3    H136287   6.242   4.644   0.587 -0.3912 -0.7862 -0.3511
 4884TIP3    H236288   6.383   4.681   0.546  1.1423 -1.8295  3.5310
 4885TIP3   OH236289   2.139   4.351   8.605  0.1153  0.2425 -0.6541
 4885TIP3    H136290   2.123   4.307   8.522  1.2235  0.2889 -0.9046
 4885TIP3    H236291   2.055   4.345   8.652 -0.2702 -0.5363 -1.4135
 4886TIP3   OH236292   0.401   2.530   3.242 -0.1580  0.1125 -0.4796
 4886TIP3    H136293   0.328   2.506   3.300  0.0740  0.1624 -0.1642
 4886TIP3    H236294   0.359   2.554   3.159 -0.8140  3.2022  0.5955
 4887TIP3   OH236295   3.746   5.372   3.782 -0.3739  0.7168  0.6244
 4887TIP3    H136296   3.701   5.287   3.776  1.1406 -0.1078  0.5626
 4887TIP3    H236297   3.720   5.406   3.868 -1.4004  0.4411  0.4409
 4888TIP3   OH236298   3.112   5.951   0.742  0.3781 -0.3472  0.2853
 4888TIP3    H136299   3.066   5.870   0.763  1.6081 -1.3323 -0.6267
 4888TIP3    H236300   3.062   6.019   0.787 -0.7505 -1.5831  1.0020
 4889TIP3   OH236301   5.154   4.825   0.903 -0.1590 -0.6550  0.1635
 4889TIP3    H136302   5.175   4.735   0.929 -0.1843 -0.7216 -0.0468
 4889TIP3    H236303   5.192   4.834   0.816  2.2078  0.3668  1.1915
 4890TIP3   OH236304   5.714   1.899   0.606 -0.2201 -0.2116  0.1144
 4890TIP3    H136305   5.700   1.989   0.636  1.0421  0.5363 -1.3797
 4890TIP3    H236306   5.641   1.882   0.547  0.4838  0.5591 -1.0375
 4891TIP3   OH236307   4.826   0.296   1.081 -0.4249 -0.7318 -0.0213
 4891TIP3    H136308   4.776   0.377   1.075 -0.9969 -1.1038 -0.4989
 4891TIP3    H236309   4.902   0.318   1.135  0.5172  0.6733 -1.8036
 4892TIP3   OH236310   5.259   5.847   8.529 -0.6032  0.6521  0.5928
 4892TIP3    H136311   5.288   5.922   8.478 -1.1557 -0.3618 -1.3210
 4892TIP3    H236312   5.266   5.773   8.468 -1.0370 -0.6689  2.0904
 4893TIP3   OH236313   5.850   5.442   8.364 -0.1765 -0.0125 -0.3972
 4893TIP3    H136314   5.835   5.382   8.292 -0.8234 -1.2441  0.7036
 4893TIP3    H236315   5.783   5.418   8.429  1.2810  0.0536  1.2128
 4894TIP3   OH236316   1.857   1.360   1.947  0.2797 -0.0895  0.2558
 4894TIP3    H136317   1.854   1.334   2.039  0.0194 -1.8015 -0.2029
 4894TIP3    H236318   1.949   1.382   1.931  0.1590  1.1509  1.1364
 4895TIP3   OH236319   1.213   2.332   2.405  0.4476 -0.1530 -0.3805
 4895TIP3    H136320   1.268   2.254   2.402 -0.9346 -1.3009  1.6561
 4895TIP3    H236321   1.128   2.303   2.371  0.5073  1.0700 -1.6611
 4896TIP3   OH236322   5.583   5.736   1.941 -0.0487  0.0303 -0.4243
 4896TIP3    H136323   5.514   5.746   1.875  0.4473  0.8947 -0.8331
 4896TIP3    H236324   5.550   5.782   2.018 -0.0822  0.1216 -0.4939
 4897TIP3   OH236325   4.655   1.584   0.574  0.5091  0.0318  0.0541
 4897TIP3    H136326   4.663   1.588   0.670  0.0686  1.4401  0.0444
 4897TIP3    H236327   4.740   1.551   0.545  2.0268  3.0185  0.7350
 4898TIP3   OH236328   5.011   5.257   1.525  0.1072 -0.0323 -0.1536
 4898TIP3    H136329   5.036   5.349   1.526  0.6323 -0.1478  2.2964
 4898TIP3    H236330   5.088   5.210   1.557 -0.2522 -1.3117 -1.0886
 4899TIP3   OH236331   4.519   6.481   1.269 -0.2990  0.2253 -0.4920
 4899TIP3    H136332   4.462   6.408   1.245  0.0093  0.2566 -1.3367
 4899TIP3    H236333   4.479   6.557   1.227  0.3364  0.2540 -1.0666
 4900TIP3   OH236334   0.212   3.520   8.514 -0.1531  0.2547 -0.4445
 4900TIP3    H136335   0.256   3.570   8.583 -0.3331 -0.0223 -0.1256
 4900TIP3    H236336   0.163   3.453   8.561 -1.1538  0.7356 -0.7851
 4901TIP3   OH236337   2.317   1.162   7.939  0.0191 -0.1686  0.6253
 4901TIP3    H136338   2.227   1.145   7.910  0.1919  1.1308 -0.8107
 4901TIP3    H236339   2.367   1.087   7.907 -0.4068 -0.4927  0.7066
 4902TIP3   OH236340   2.198   0.784   8.554  0.0828 -0.1805 -0.7068
 4902TIP3    H136341   2.188   0.854   8.619  1.7888 -1.0327  0.5533
 4902TIP3    H236342   2.290   0.788   8.528 -0.2475 -0.7628 -2.0578
 4903TIP3   OH236343   4.608   1.495   2.948 -0.4610  0.1745  0.3006
 4903TIP3    H136344   4.650   1.528   3.027 -0.1264  0.2646  0.0883
 4903TIP3    H236345   4.528   1.547   2.939  0.5762  1.7132 -0.6139
 4904TIP3   OH236346   0.500   4.424   0.735  0.0174  0.1038 -0.1322
 4904TIP3    H136347   0.407   4.412   0.715 -0.1057  0.1817  0.3670
 4904TIP3    H236348   0.507   4.407   0.829  0.8012 -1.5520 -0.4614
 4905TIP3   OH236349   6.243   2.125   2.762  0.4579 -0.1141 -0.1258
 4905TIP3    H136350   6.216   2.216   2.767 -0.9970 -0.5780  2.8201
 4905TIP3    H236351   6.317   2.118   2.822  0.4285 -0.8704 -0.1625
 4906TIP3   OH236352   2.105   2.302   2.575  0.0816  0.4398 -0.3684
 4906TIP3    H136353   2.085   2.385   2.620 -1.7061  1.6184 -3.0912
 4906TIP3    H236354   2.176   2.324   2.515  1.0959 -0.6229  0.3953
 4907TIP3   OH236355   3.861   5.736   1.586 -0.2757  1.0487  0.0222
 4907TIP3    H136356   3.796   5.666   1.594 -0.7209  1.5477  0.8551
 4907TIP3    H236357   3.815   5.805   1.538 -0.8302  1.9184  1.7077
 4908TIP3   OH236358   3.968   5.074   1.503  0.3249 -0.4253  0.3603
 4908TIP3    H136359   4.006   5.070   1.591  1.5573 -0.3914 -0.1542
 4908TIP3    H236360   4.031   5.125   1.452  0.7868 -2.3319 -1.0938
 4909TIP3   OH236361   5.673   5.722   1.515  0.4197 -0.3172 -0.2510
 4909TIP3    H136362   5.701   5.805   1.478  1.1714 -0.6850 -0.5276
 4909TIP3    H236363   5.612   5.746   1.584 -0.6721  0.4129 -1.4140
 4910TIP3   OH236364   2.585   5.245   1.530  0.5316 -0.0052 -0.4301
 4910TIP3    H136365   2.538   5.234   1.613 -0.1557  3.2248 -0.2630
 4910TIP3    H236366   2.676   5.224   1.551  0.0774 -0.9594  0.6759
 4911TIP3   OH236367   3.143   0.234   1.480  0.2245  0.1126  0.4528
 4911TIP3    H136368   3.100   0.235   1.395  2.0469 -2.0304 -0.5988
 4911TIP3    H236369   3.165   0.326   1.497 -0.0096  0.5650 -1.4837
 4912TIP3   OH236370   6.149   2.559   3.663  0.5162  0.4304  0.2873
 4912TIP3    H136371   6.198   2.482   3.692  1.8338  0.0585 -2.5672
 4912TIP3    H236372   6.205   2.633   3.686  0.5466  0.3204  0.5730
 4913TIP3   OH236373   2.433   1.155   3.465 -0.1420 -0.0349  0.0882
 4913TIP3    H136374   2.528   1.162   3.455 -0.2482  1.4768 -0.0312
 4913TIP3    H236375   2.401   1.138   3.376  0.1707 -3.3775  0.4789
 4914TIP3   OH236376   6.344   2.562   0.973  0.0983 -0.2974  0.0613
 4914TIP3    H136377   6.358   2.499   0.902  0.9171  1.9556 -1.8975
 4914TIP3    H236378   6.333   2.646   0.929  2.4104  1.5447  2.6270
 4915TIP3   OH236379   2.670   2.578   0.291 -0.4624 -0.8302  0.0017
 4915TIP3    H136380   2.612   2.652   0.273 -0.2976 -1.0735 -1.6453
 4915TIP3    H236381   2.685   2.582   0.386 -2.3945 -0.2071  0.3174
 4916TIP3   OH236382   4.486   3.934   1.204 -0.3653  0.6571  0.5198
 4916TIP3    H136383   4.485   3.960   1.111  0.0047  0.0307  0.3351
 4916TIP3    H236384   4.530   4.006   1.248  1.7869 -0.1654 -0.1589
 4917TIP3   OH236385   3.697   1.268   8.754 -0.0341 -0.0044 -0.8581
 4917TIP3    H136386   3.675   1.351   8.796  1.1495 -0.6286  1.1483
 4917TIP3    H236387   3.790   1.256   8.773 -0.3725 -2.1836 -0.2769
 4918TIP3   OH236388   3.334   5.715   3.296 -0.7882 -0.1671  0.2081
 4918TIP3    H136389   3.304   5.804   3.276  2.0390  1.1178  1.2243
 4918TIP3    H236390   3.428   5.718   3.282 -0.8916 -3.9064 -2.6875
 4919TIP3   OH236391   6.459   4.554   2.050  0.0953  0.5394  0.0978
 4919TIP3    H136392   6.533   4.599   2.008 -0.5982  1.5309 -0.0888
 4919TIP3    H236393   6.484   4.548   2.142  0.4867  0.7166  0.0055
 4920TIP3   OH236394   5.400   6.651   0.210  0.2542  0.2862  0.1547
 4920TIP3    H136395   5.490   6.668   0.182 -0.0952  1.2194 -0.4742
 4920TIP3    H236396   5.397   6.678   0.301  1.0159 -1.3250  0.7017
 4921TIP3   OH236397   2.709   2.358   2.665 -0.7000  0.1078  0.0391
 4921TIP3    H136398   2.706   2.271   2.625 -0.1439  0.1155 -0.0167
 4921TIP3    H236399   2.628   2.400   2.635 -0.7227 -0.2062 -0.3493
 4922TIP3   OH236400   2.994   1.171   2.530 -0.1676 -0.1757 -0.1764
 4922TIP3    H136401   2.951   1.249   2.495  1.7491 -0.0232 -2.4606
 4922TIP3    H236402   3.000   1.111   2.456  1.1036 -1.2680  0.7499
 4923TIP3   OH236403   3.870   1.300   0.586  0.0457 -0.4141  0.7851
 4923TIP3    H136404   3.890   1.391   0.607 -2.6127  0.2234  0.9196
 4923TIP3    H236405   3.949   1.267   0.542  0.3539  2.5592 -1.1596
 4924TIP3   OH236406   5.432   1.504   1.355  0.3146  0.4046  0.1103
 4924TIP3    H136407   5.429   1.474   1.445 -0.9057 -1.3191 -0.4555
 4924TIP3    H236408   5.428   1.600   1.361  0.4170  0.3175  1.8621
 4925TIP3   OH236409   5.818   2.785   0.540 -0.0094  0.6781 -0.1045
 4925TIP3    H136410   5.896   2.730   0.535  0.3014  1.0328  0.7271
 4925TIP3    H236411   5.756   2.733   0.591 -0.0794  0.6847 -0.1820
 4926TIP3   OH236412   4.583   6.263   3.293 -0.7104 -0.3381 -0.1548
 4926TIP3    H136413   4.600   6.338   3.349 -0.5470 -0.2603 -0.3086
 4926TIP3    H236414   4.635   6.192   3.330  1.9363  0.4947 -2.0186
 4927TIP3   OH236415   0.600   3.447   3.353 -0.0807 -0.1587 -0.4887
 4927TIP3    H136416   0.613   3.356   3.381  1.4414 -0.2599 -1.4095
 4927TIP3    H236417   0.663   3.497   3.404 -1.0446  0.4365  0.1520
 4928TIP3   OH236418   1.573   1.704   2.207  0.0346 -0.3410 -0.1968
 4928TIP3    H136419   1.656   1.714   2.161 -0.2536 -0.0278 -0.6634
 4928TIP3    H236420   1.526   1.636   2.159  0.4999 -1.3917  0.7911
 4929TIP3   OH236421   0.465   3.157   3.067  0.2560 -0.0831 -0.4386
 4929TIP3    H136422   0.422   3.079   3.033  0.3620 -0.1548 -0.4106
 4929TIP3    H236423   0.396   3.204   3.113  0.2560 -0.3125 -0.1965
 4930TIP3   OH236424   4.685   1.225   0.827 -0.0881  0.1411 -0.3227
 4930TIP3    H136425   4.666   1.316   0.849  0.2832 -0.0047  0.6525
 4930TIP3    H236426   4.611   1.198   0.772 -1.6778  0.2071  1.6585
 4931TIP3   OH236427   0.079   2.840   0.097 -0.1614  0.3860  0.3705
 4931TIP3    H136428   0.027   2.760   0.101 -0.0662  0.3712  1.4845
 4931TIP3    H236429   0.073   2.878   0.185  0.0829  1.4231 -0.0373
 4932TIP3   OH236430   0.393   0.026   2.981  0.1188  0.0786 -0.0123
 4932TIP3    H136431   0.448   0.101   3.005  1.0426 -0.3607 -0.6903
 4932TIP3    H236432   0.436  -0.049   3.022  0.7702 -0.4410 -1.5584
 4933TIP3   OH236433   3.867   3.578   2.847 -0.2733 -0.2339  0.1492
 4933TIP3    H136434   3.824   3.602   2.929  0.8819 -0.7362  0.9318
 4933TIP3    H236435   3.852   3.484   2.839 -1.1651 -0.0292 -0.7058
 4934TIP3   OH236436   1.699   1.277   0.324 -0.5321 -0.1231 -0.2356
 4934TIP3    H136437   1.653   1.194   0.331 -0.8526  0.1898  2.0540
 4934TIP3    H236438   1.635   1.337   0.287 -1.1500 -0.3084  0.5075
 4935TIP3   OH236439   1.500   1.075   0.347  0.4886 -0.5080 -0.4048
 4935TIP3    H136440   1.485   1.068   0.253 -1.7271  0.6740 -0.2108
 4935TIP3    H236441   1.421   1.119   0.380  3.3065  4.0278  1.2511
 4936TIP3   OH236442   2.111   3.306   1.168  0.5143 -0.3888  0.2137
 4936TIP3    H136443   2.018   3.328   1.160  0.1084 -1.1929  2.1371
 4936TIP3    H236444   2.113   3.233   1.230  2.1855 -2.5895 -2.1774
 4937TIP3   OH236445   0.992   1.030   1.476  0.3934 -0.0871 -0.1465
 4937TIP3    H136446   1.041   1.105   1.441 -0.4326  0.4761 -0.1070
 4937TIP3    H236447   1.013   0.959   1.415 -0.3196  0.6576 -1.3059
 4938TIP3   OH236448   5.108   2.650   0.880  0.2696  0.3899 -0.0788
 4938TIP3    H136449   5.126   2.556   0.883  0.2372  0.2280 -2.7706
 4938TIP3    H236450   5.050   2.665   0.955  1.0423 -1.5340  0.9782
 4939TIP3   OH236451   4.870   6.420   0.985 -0.3648  0.4750  0.7570
 4939TIP3    H136452   4.949   6.376   0.952 -0.6184  0.4736  0.1342
 4939TIP3    H236453   4.884   6.427   1.079  0.0900 -0.1124  0.7409
 4940TIP3   OH236454   0.049   2.259   0.232  0.4737 -0.4789 -0.2512
 4940TIP3    H136455  -0.042   2.231   0.226  0.5219 -0.3919 -1.6868
 4940TIP3    H236456   0.086   2.240   0.146  1.5486  0.4046 -0.0105
 4941TIP3   OH236457   6.118   4.948   1.678  0.0543 -0.1136  0.3719
 4941TIP3    H136458   6.111   4.938   1.773 -0.4897 -1.9049  0.1700
 4941TIP3    H236459   6.027   4.959   1.649  0.2722  1.1799  0.0930
 4942TIP3   OH236460   3.544   0.147   2.066  0.1595  0.7775 -0.1581
 4942TIP3    H136461   3.586   0.061   2.071  0.6747  0.9725 -0.8268
 4942TIP3    H236462   3.608   0.207   2.104  0.4033  1.0434 -0.9526
 4943TIP3   OH236463   3.654   2.503   8.733 -0.3134 -0.1960  0.2845
 4943TIP3    H136464   3.583   2.452   8.695  1.2146 -0.5894 -2.2588
 4943TIP3    H236465   3.611   2.581   8.767 -2.3167 -1.7875  1.6461
 4944TIP3   OH236466   6.396   2.061   0.987  0.2965 -0.2965  1.0235
 4944TIP3    H136467   6.301   2.057   0.975  0.2550  0.7971  0.8367
 4944TIP3    H236468   6.432   2.051   0.899  0.3546 -0.6198  1.0829
 4945TIP3   OH236469   2.785   2.298   0.838  0.2640  0.3243 -0.2374
 4945TIP3    H136470   2.696   2.297   0.871  0.4537 -0.3451  0.2679
 4945TIP3    H236471   2.804   2.391   0.823  0.4239  0.7398  2.1967
 4946TIP3   OH236472   0.979   3.355   0.121 -0.1448 -0.0777 -0.0315
 4946TIP3    H136473   1.012   3.287   0.062  1.0041 -1.1933  1.8112
 4946TIP3    H236474   0.909   3.312   0.171  0.7383 -0.0135  1.3052
 4947TIP3   OH236475   2.878   0.818   3.004 -0.2120 -1.1493  0.1100
 4947TIP3    H136476   2.837   0.734   2.986  0.8178 -1.1940 -2.4020
 4947TIP3    H236477   2.922   0.842   2.922  0.9407  1.0338  1.2650
 4948TIP3   OH236478   3.195   1.071   0.710 -0.2751  0.4550 -0.8877
 4948TIP3    H136479   3.178   1.046   0.619  1.3398 -2.6062 -0.4743
 4948TIP3    H236480   3.267   1.015   0.738  0.1067  2.1482  1.9560
 4949TIP3   OH236481   2.758   3.185   8.641  0.6408 -0.1008  0.1316
 4949TIP3    H136482   2.755   3.097   8.604  2.6854 -0.0831 -0.2081
 4949TIP3    H236483   2.812   3.175   8.720 -0.7752  0.5100  1.2259
 4950TIP3   OH236484   6.851   2.844   1.641  0.6246  0.4865 -0.0426
 4950TIP3    H136485   6.765   2.868   1.606  0.8996  0.3679 -0.8255
 4950TIP3    H236486   6.899   2.927   1.648  0.8378  0.4275 -0.7110
 4951TIP3   OH236487   5.071   3.995   2.394  0.4866 -0.1346 -0.2170
 4951TIP3    H136488   4.983   4.029   2.412  0.8783  0.3993  0.7802
 4951TIP3    H236489   5.114   4.064   2.344  1.6827  1.5278  2.8176
 4952TIP3   OH236490   0.045   1.301   2.135 -0.0424  0.1187 -0.5649
 4952TIP3    H136491   0.050   1.206   2.127 -1.3084  0.0874 -1.2613
 4952TIP3    H236492  -0.034   1.316   2.188  0.7546  0.7587  0.4701
 4953TIP3   OH236493   5.597   6.811   8.373  0.0372 -0.3589  0.1628
 4953TIP3    H136494   5.531   6.742   8.368 -1.1351  0.8163 -2.0937
 4953TIP3    H236495   5.666   6.783   8.313 -0.5144  0.4486 -0.8842
 4954TIP3   OH236496   1.680   1.476   8.312  0.3499 -0.4344  0.5928
 4954TIP3    H136497   1.706   1.559   8.273 -0.2601 -0.5452 -0.0724
 4954TIP3    H236498   1.740   1.412   8.276  0.5963 -0.3406  0.8325
 4955TIP3   OH236499   0.565   4.326   0.078  0.3399  0.7667  0.1246
 4955TIP3    H136500   0.473   4.312   0.058  0.9325 -1.8870 -1.2558
 4955TIP3    H236501   0.569   4.332   0.174 -0.9835 -2.3993  0.4937
 4956TIP3   OH236502   2.366   3.087   0.252  0.0121  0.5486  0.1079
 4956TIP3    H136503   2.449   3.089   0.300  0.1838 -0.8866 -0.0983
 4956TIP3    H236504   2.391   3.087   0.160 -0.1950 -0.3360  0.0453
 4957TIP3   OH236505   6.749   3.564   1.105 -0.1945 -0.3700  0.2732
 4957TIP3    H136506   6.841   3.585   1.089  0.2403  2.7345  4.8457
 4957TIP3    H236507   6.713   3.644   1.144 -4.4293 -2.0546  0.3193
 4958TIP3   OH236508   3.494   4.534   4.135  1.1003 -0.5713  0.4095
 4958TIP3    H136509   3.579   4.501   4.163  1.1219 -0.8207  0.0589
 4958TIP3    H236510   3.487   4.620   4.175  1.2659 -0.7909  0.9201
 4959TIP3   OH236511   4.657   0.031   2.447  0.2861  0.5638  0.3720
 4959TIP3    H136512   4.666  -0.057   2.410  1.6211  0.3169  1.1961
 4959TIP3    H236513   4.570   0.032   2.487  0.2450 -0.3680  0.3209
 4960TIP3   OH236514   6.487   3.399   8.686 -0.0162  0.3482 -0.7846
 4960TIP3    H136515   6.517   3.433   8.602 -1.4840  1.0528 -1.0498
 4960TIP3    H236516   6.488   3.304   8.675  2.7597  0.2516 -0.5134
 4961TIP3   OH236517   1.923   3.395   7.795  0.1818 -0.4343  0.0414
 4961TIP3    H136518   2.001   3.390   7.851 -0.4109 -1.1615  0.8240
 4961TIP3    H236519   1.924   3.484   7.761 -0.2528  0.5651  2.4361
 4962TIP3   OH236520   2.406   1.954   0.849  0.0043  0.1122 -0.5637
 4962TIP3    H136521   2.478   2.003   0.889  0.1903 -0.4210 -0.2329
 4962TIP3    H236522   2.415   1.865   0.885 -2.2450  0.5887  1.3804
 4963TIP3   OH236523   5.603   1.927   3.634 -0.4431 -0.2008 -0.6331
 4963TIP3    H136524   5.684   1.921   3.584  1.0095 -0.0990  1.5781
 4963TIP3    H236525   5.536   1.895   3.574  1.3934 -1.5173 -2.1258
 4964TIP3   OH236526   4.150   4.022   1.129  0.1442 -0.1239 -0.2047
 4964TIP3    H136527   4.191   4.047   1.212 -1.6223 -2.8571  1.6648
 4964TIP3    H236528   4.056   4.025   1.147 -0.4257  1.6173 -2.9597
 4965TIP3   OH236529   0.346   3.372   3.217  0.4795 -0.0824 -0.1056
 4965TIP3    H136530   0.432   3.401   3.245  0.1473  1.5011 -0.6539
 4965TIP3    H236531   0.295   3.452   3.206 -0.6617 -0.9035 -1.1061
 4966TIP3   OH236532   3.657   1.579   2.624  0.5071 -0.1269 -0.8409
 4966TIP3    H136533   3.609   1.597   2.543  1.1775  1.4518 -0.9241
 4966TIP3    H236534   3.706   1.660   2.642  1.0930 -0.7663  0.6456
 4967TIP3   OH236535   0.595   1.251   0.930 -0.2028 -0.3436 -0.0906
 4967TIP3    H136536   0.639   1.204   0.859  1.6554  0.9784  0.1233
 4967TIP3    H236537   0.559   1.181   0.986  0.3373 -1.4387 -1.0713
 4968TIP3   OH236538   6.365   6.156   2.935  0.5549  0.3663 -0.3508
 4968TIP3    H136539   6.300   6.174   2.867  0.3035  0.4719 -0.0826
 4968TIP3    H236540   6.323   6.181   3.017  0.9639  0.5222 -0.1817
 4969TIP3   OH236541   4.244   5.551   3.825  1.1645  0.3736  0.1064
 4969TIP3    H136542   4.188   5.617   3.865  1.7150  0.2788  1.0602
 4969TIP3    H236543   4.288   5.508   3.899  1.8332 -0.1401 -0.5700
 4970TIP3   OH236544   6.212   2.030   8.368 -0.1842  0.6828 -0.1919
 4970TIP3    H136545   6.213   1.987   8.454  1.1474  0.9960 -0.0313
 4970TIP3    H236546   6.139   2.092   8.374 -0.0549  0.7717  0.7625
 4971TIP3   OH236547   1.383   6.139   0.697 -0.1938  0.5569 -0.2800
 4971TIP3    H136548   1.342   6.176   0.618  0.2626  0.7016 -0.4538
 4971TIP3    H236549   1.393   6.214   0.756 -1.6633  0.2353  0.4235
 4972TIP3   OH236550   0.239   6.771   1.913 -0.5282  0.0792  0.7791
 4972TIP3    H136551   0.239   6.721   1.995 -0.9525  1.3745  1.6002
 4972TIP3    H236552   0.295   6.846   1.931 -1.1712  0.7288  0.1223
 4973TIP3   OH236553   6.756   5.845   0.926  1.2626 -0.0477  0.0481
 4973TIP3    H136554   6.702   5.787   0.873  0.0531  0.0831  1.1041
 4973TIP3    H236555   6.794   5.906   0.862  0.2267 -0.1834 -0.7362
 4974TIP3   OH236556   2.242   2.035   2.583 -0.4695  0.3862 -0.2422
 4974TIP3    H136557   2.215   2.078   2.502 -1.0241  0.6099  0.0584
 4974TIP3    H236558   2.217   2.096   2.652 -0.2352  0.0804  0.1171
 4975TIP3   OH236559   6.544   6.248   8.061  0.4583 -0.1077 -0.2848
 4975TIP3    H136560   6.582   6.177   8.009  0.2154  0.0431 -0.6774
 4975TIP3    H236561   6.619   6.292   8.101  0.6971  0.1325 -0.9752
 4976TIP3   OH236562   4.194   3.669   3.725 -0.4382  0.5722  0.0391
 4976TIP3    H136563   4.267   3.609   3.708 -2.1495 -1.4292 -0.7723
 4976TIP3    H236564   4.235   3.754   3.739  2.0558 -0.5499  0.0765
 4977TIP3   OH236565   4.462   0.534   1.386  0.3336  0.6204 -0.0087
 4977TIP3    H136566   4.526   0.534   1.457  0.4971 -0.9993 -0.1098
 4977TIP3    H236567   4.514   0.527   1.306  0.0772 -1.6077 -0.0514
 4978TIP3   OH236568   0.214   3.493   0.853  0.1103  0.2893  0.5385
 4978TIP3    H136569   0.258   3.556   0.795  1.7260 -0.9562  0.3373
 4978TIP3    H236570   0.172   3.547   0.920 -2.1332  1.8145 -1.9140
 4979TIP3   OH236571   3.255   2.028   3.267  0.5418  0.2261  0.4421
 4979TIP3    H136572   3.171   1.988   3.247  0.5791 -1.2318  2.8499
 4979TIP3    H236573   3.317   1.955   3.272  1.8194  1.1871 -0.4956
 4980TIP3   OH236574   3.373   0.164   1.625  0.0035 -0.1085  0.3289
 4980TIP3    H136575   3.389   0.080   1.582 -0.3260  0.0913 -0.1956
 4980TIP3    H236576   3.299   0.201   1.577  1.4716  1.4439 -0.8163
 4981TIP3   OH236577   1.616   6.058   2.180 -0.4987 -0.2622 -0.1298
 4981TIP3    H136578   1.575   6.048   2.266  0.8913 -0.6207  0.5176
 4981TIP3    H236579   1.543   6.064   2.119 -1.5280  0.8405  1.1541
 4982TIP3   OH236580   5.687   5.141   1.439  0.0328  0.2621 -0.1480
 4982TIP3    H136581   5.723   5.097   1.362 -0.7911 -0.6494 -0.0281
 4982TIP3    H236582   5.637   5.215   1.404  1.0440  0.8661 -0.3760
 4983TIP3   OH236583   3.410   3.464   3.509 -0.1444 -0.5482  0.1053
 4983TIP3    H136584   3.352   3.540   3.518 -0.8413 -1.0647  0.1381
 4983TIP3    H236585   3.357   3.391   3.542 -0.5207 -1.5118 -2.3862
 4984TIP3   OH236586   6.105   1.177   1.374  0.4902  0.2365  0.1409
 4984TIP3    H136587   6.120   1.263   1.414  1.1092 -0.0014  0.4336
 4984TIP3    H236588   6.099   1.117   1.449  2.5621 -0.3602 -0.1132
 4985TIP3   OH236589   2.226   0.725   0.764 -0.6647  0.0099 -0.0499
 4985TIP3    H136590   2.207   0.800   0.707 -0.4618  0.4983  0.5275
 4985TIP3    H236591   2.142   0.679   0.771 -0.6037 -0.2855 -1.0687
 4986TIP3   OH236592   6.012   0.538   1.889 -0.2595  0.2421 -0.5830
 4986TIP3    H136593   6.069   0.538   1.812  0.3611  1.2482 -0.1348
 4986TIP3    H236594   6.067   0.572   1.960 -1.3052  0.8920 -0.0657
 4987TIP3   OH236595   4.563   2.170   0.807  0.8522  0.4657 -0.6209
 4987TIP3    H136596   4.620   2.101   0.773  1.1172  0.1582  0.4098
 4987TIP3    H236597   4.567   2.239   0.741 -1.2767 -1.3895 -2.9195
 4988TIP3   OH236598   6.087   1.656   7.779  0.3565  0.4691  0.0608
 4988TIP3    H136599   6.155   1.702   7.828 -0.6664  0.5954  1.4426
 4988TIP3    H236600   6.130   1.578   7.745  1.9524  2.0454 -1.7528
 4989TIP3   OH236601   2.636   1.040   8.102 -0.2820  0.3209 -0.1712
 4989TIP3    H136602   2.712   1.084   8.141  0.0743  0.1409 -0.6446
 4989TIP3    H236603   2.668   1.007   8.018 -0.3132 -1.5383  0.5019
 4990TIP3   OH236604   2.820   3.406   2.499 -0.4602 -0.4793  0.6400
 4990TIP3    H136605   2.812   3.502   2.496 -0.2376 -0.4891 -1.5313
 4990TIP3    H236606   2.731   3.375   2.482  0.1782 -0.5790 -3.3824
 4991TIP3   OH236607   2.044   1.037   1.512 -0.2354  0.4721  0.2081
 4991TIP3    H136608   1.988   1.056   1.437 -0.8485  0.2202  0.5992
 4991TIP3    H236609   1.985   1.040   1.588  0.3882  0.7927  0.6919
 4992TIP3   OH236610   2.089   2.497   7.749 -0.3525 -0.7147 -0.0718
 4992TIP3    H136611   2.064   2.440   7.676 -1.0229 -0.7106  0.1485
 4992TIP3    H236612   2.016   2.491   7.810  0.3053 -0.8985  0.7122
 4993TIP3   OH236613   1.989   5.891   2.941 -0.1572 -0.3307 -0.0043
 4993TIP3    H136614   2.026   5.832   2.874 -1.9103 -2.6672  0.9498
 4993TIP3    H236615   1.965   5.833   3.013 -0.8357  1.7703  1.5488
 4994TIP3   OH236616   4.308   2.555   1.163 -0.6711  0.0066  0.0323
 4994TIP3    H136617   4.402   2.572   1.165 -0.4381 -1.1293 -0.6653
 4994TIP3    H236618   4.273   2.620   1.103  0.2328 -1.8895 -2.7407
 4995TIP3   OH236619   1.144   5.701   3.371 -0.6603 -0.1029  0.1241
 4995TIP3    H136620   1.224   5.651   3.353 -1.2520 -0.2985 -2.4257
 4995TIP3    H236621   1.103   5.655   3.444  0.7821 -0.9296  0.4567
 4996TIP3   OH236622   4.459   4.751   3.281 -0.1187 -0.0444 -0.2844
 4996TIP3    H136623   4.375   4.725   3.246  0.5796  0.6662 -2.7067
 4996TIP3    H236624   4.451   4.845   3.296 -0.1532 -0.2033  0.7643
 4997TIP3   OH236625   3.229   3.343   2.929 -0.0299 -0.0160 -0.2634
 4997TIP3    H136626   3.285   3.354   3.006 -1.8299  0.8903  0.9997
 4997TIP3    H236627   3.284   3.365   2.855  1.0014  1.8919  1.0050
 4998TIP3   OH236628   4.920   0.214   8.543 -0.1110 -0.1228 -0.4526
 4998TIP3    H136629   4.908   0.137   8.599 -0.0240 -0.6514 -1.1419
 4998TIP3    H236630   4.960   0.279   8.600 -0.0471 -0.6382  0.1080
 4999TIP3   OH236631   2.129   6.828   0.113 -0.0723 -0.2135 -0.1395
 4999TIP3    H136632   2.203   6.824   0.052  1.4578  1.6971  1.4578
 4999TIP3    H236633   2.054   6.848   0.057  1.1067  0.5871 -1.5346
 5000TIP3   OH236634   3.096   4.119   1.800 -0.0571 -0.1016  0.1554
 5000TIP3    H136635   3.170   4.174   1.775 -0.6225  0.7981  0.3950
 5000TIP3    H236636   3.067   4.079   1.717 -0.3742  0.9095 -0.2384
 5001TIP3   OH236637   6.665   3.962   0.618  0.6775  0.3151  0.5575
 5001TIP3    H136638   6.691   3.962   0.526  1.3445  1.5659  0.7188
 5001TIP3    H236639   6.575   3.994   0.618  0.0889 -1.2152  0.2400
 5002TIP3   OH236640   0.155   3.857   0.718 -0.3354  0.5433 -0.3843
 5002TIP3    H136641   0.093   3.827   0.784 -0.8495  0.6813 -0.8026
 5002TIP3    H236642   0.222   3.904   0.768 -0.5195  0.3223  0.0759
 5003TIP3   OH236643   0.538   1.626   2.081 -0.1431 -0.0065  0.4169
 5003TIP3    H136644   0.553   1.535   2.056  2.6789  0.4742  0.0268
 5003TIP3    H236645   0.584   1.635   2.164 -1.6302  0.7602  1.2024
 5004TIP3   OH236646   6.755   0.137   1.972 -0.0789  0.4420 -0.1613
 5004TIP3    H136647   6.705   0.211   1.940  0.3896  0.5091 -0.7563
 5004TIP3    H236648   6.755   0.074   1.900  2.9150  1.5307 -1.2584
 5005TIP3   OH236649   5.435   2.666   0.515  0.4586 -0.4275  0.8627
 5005TIP3    H136650   5.374   2.738   0.499  1.2708  0.3713  1.2984
 5005TIP3    H236651   5.382   2.599   0.557 -0.3816 -0.2174  0.1799
 5006TIP3   OH236652   5.431   3.161   8.603 -0.4985  0.2366  0.1049
 5006TIP3    H136653   5.339   3.187   8.592 -0.6451 -0.4042 -0.2335
 5006TIP3    H236654   5.480   3.232   8.562 -0.9165 -0.2867 -1.3610
 5007TIP3   OH236655   0.093   3.050   2.181 -0.2941 -0.2322  0.4758
 5007TIP3    H136656   0.015   3.026   2.131 -0.4172 -1.4036  1.1950
 5007TIP3    H236657   0.151   2.974   2.172  0.6934  0.5349  0.1218
 5008TIP3   OH236658   1.452   0.224   3.569 -0.1551  0.3636 -0.2191
 5008TIP3    H136659   1.405   0.306   3.554  1.8499  1.1848 -2.8252
 5008TIP3    H236660   1.463   0.220   3.664 -2.7010  1.6364  0.2381
 5009TIP3   OH236661   1.180   2.202   8.156 -0.3777 -0.2237 -0.8111
 5009TIP3    H136662   1.157   2.110   8.141 -2.0542 -0.1251  0.7877
 5009TIP3    H236663   1.214   2.203   8.245  1.5951  0.4273 -1.5283
 5010TIP3   OH236664   1.880   2.857   0.067  0.2222 -0.5014 -0.2018
 5010TIP3    H136665   1.869   2.797   0.140  1.4558  0.4776  0.8540
 5010TIP3    H236666   1.796   2.903   0.059 -0.8011 -2.4337 -1.1611
 5011TIP3   OH236667   6.174   4.010   1.143 -0.3589  0.4594  0.3570
 5011TIP3    H136668   6.093   4.025   1.094 -1.4414 -1.2829  1.5458
 5011TIP3    H236669   6.234   3.972   1.079 -0.6675  1.1643 -0.3721
 5012TIP3   OH236670   0.791   1.151   2.597 -0.0303  0.2690 -0.0665
 5012TIP3    H136671   0.803   1.215   2.527  1.0882 -0.4789 -0.6071
 5012TIP3    H236672   0.784   1.203   2.677  0.1276  1.0919 -0.5736
 5013TIP3   OH236673   4.365   3.884   2.314 -0.0578 -0.0565  0.3739
 5013TIP3    H136674   4.348   3.900   2.221  1.3812  0.2195  0.1237
 5013TIP3    H236675   4.308   3.946   2.360  1.6340  2.2829 -0.4538
 5014TIP3   OH236676   3.296   6.770   8.053 -0.2233 -0.1862  0.5601
 5014TIP3    H136677   3.369   6.808   8.102 -0.8168  0.3054  1.0745
 5014TIP3    H236678   3.259   6.844   8.005  0.2245 -0.6228 -0.4844
 5015TIP3   OH236679   2.719   0.079   2.473 -0.2301  0.2679 -0.0928
 5015TIP3    H136680   2.702   0.033   2.555 -0.6767  0.8036  0.1183
 5015TIP3    H236681   2.677   0.164   2.484 -1.3515 -0.1001 -1.3504
 5016TIP3   OH236682   5.199   2.978   1.357  0.9002  0.7645  0.1791
 5016TIP3    H136683   5.111   2.960   1.391 -0.4209 -0.4140 -3.3950
 5016TIP3    H236684   5.215   3.070   1.379 -2.0523  1.5602 -0.6003
 5017TIP3   OH236685   6.388   6.623   2.092 -0.1639  0.1205 -0.5185
 5017TIP3    H136686   6.433   6.590   2.015  0.6270 -0.4652  0.1736
 5017TIP3    H236687   6.364   6.713   2.070  0.3963  0.0875 -1.2898
 5018TIP3   OH236688   4.131   3.519   2.658 -0.2648 -0.4787  0.5877
 5018TIP3    H136689   4.037   3.529   2.670 -0.5334 -2.6920  0.7259
 5018TIP3    H236690   4.159   3.468   2.734  0.5396 -2.1687 -0.7673
 5019TIP3   OH236691   2.212   3.571   1.768 -0.2175 -0.6127 -0.4720
 5019TIP3    H136692   2.215   3.478   1.745 -0.0265 -0.6901 -0.1326
 5019TIP3    H236693   2.284   3.610   1.718  3.3240 -1.5280  3.3229
 5020TIP3   OH236694   1.166   0.305   0.925  0.0397  0.5233 -0.0144
 5020TIP3    H136695   1.225   0.312   1.000  0.0995  0.2204 -0.0324
 5020TIP3    H236696   1.199   0.230   0.876 -0.1859  0.5328 -0.1802
 5021TIP3   OH236697   1.172   3.253   1.027 -0.0997 -0.1200 -0.8307
 5021TIP3    H136698   1.266   3.258   1.011 -0.0736  0.2630 -0.5930
 5021TIP3    H236699   1.144   3.345   1.032 -0.1331 -0.1767  1.0526
 5022TIP3   OH236700   4.466   5.606   2.189 -0.2082  0.0376 -0.3618
 5022TIP3    H136701   4.558   5.607   2.215 -0.7423  2.2102  1.7617
 5022TIP3    H236702   4.430   5.527   2.231 -0.1836  1.4562  2.5799
 5023TIP3   OH236703   0.119   1.173   1.881 -0.5607 -0.5534  0.0762
 5023TIP3    H136704   0.122   1.099   1.941  2.1652  0.5567  1.4788
 5023TIP3    H236705   0.060   1.236   1.924  0.2271 -0.3607  0.9188
 5024TIP3   OH236706   6.714   2.134   0.791  0.6241  0.4977 -0.1018
 5024TIP3    H136707   6.684   2.174   0.709 -1.4339  0.7624  0.7075
 5024TIP3    H236708   6.701   2.203   0.856 -1.2836 -0.8124  1.0142
 5025TIP3   OH236709   2.846   6.848   1.108  0.0165 -0.0940  0.2973
 5025TIP3    H136710   2.835   6.877   1.018  0.9188 -0.1076  0.1737
 5025TIP3    H236711   2.757   6.832   1.139 -0.3775  1.0129 -0.2170
 5026TIP3   OH236712   0.960   5.691   1.893 -0.0582  0.3774  0.2253
 5026TIP3    H136713   0.897   5.744   1.943  1.7811  0.9534  2.1184
 5026TIP3    H236714   1.015   5.756   1.849  1.5657  0.1105  1.7298
 5027TIP3   OH236715   0.751   1.855   1.442 -0.0944 -0.2169  0.1106
 5027TIP3    H136716   0.728   1.938   1.401  3.4541  0.2498 -1.2873
 5027TIP3    H236717   0.781   1.879   1.530  0.5118 -0.0540 -0.1369
 5028TIP3   OH236718   6.553   5.694   1.939  0.5214 -0.3284 -0.8095
 5028TIP3    H136719   6.560   5.697   1.844 -0.3628  2.7549 -0.8570
 5028TIP3    H236720   6.459   5.690   1.956  0.5550  1.4004 -0.0857
 5029TIP3   OH236721   4.673   4.128   0.297  0.5565  0.0214 -0.1448
 5029TIP3    H136722   4.683   4.203   0.237  0.0677 -0.9767 -1.5199
 5029TIP3    H236723   4.756   4.081   0.290  0.8727  0.4351  0.7385
 5030TIP3   OH236724   3.427   6.487   3.199 -0.1088 -0.0491  0.6536
 5030TIP3    H136725   3.481   6.485   3.278 -1.4666 -0.9428  1.5997
 5030TIP3    H236726   3.357   6.425   3.216 -1.3591  0.9412 -0.6094
 5031TIP3   OH236727   5.400   2.291   1.768 -0.0800  0.3111  0.4620
 5031TIP3    H136728   5.358   2.312   1.851  0.5613  2.2883  0.3428
 5031TIP3    H236729   5.338   2.322   1.702  0.8277  1.8641  0.2793
 5032TIP3   OH236730   0.086   5.211   3.073  0.5230 -0.4537  0.2576
 5032TIP3    H136731   0.102   5.302   3.048  0.3326 -0.4157  0.2695
 5032TIP3    H236732  -0.007   5.209   3.094  0.6987 -0.4615  1.0563
 5033TIP3   OH236733   5.731   2.846   7.922 -0.2495 -0.3179  0.5671
 5033TIP3    H136734   5.730   2.768   7.978 -1.6136  0.9593  2.4307
 5033TIP3    H236735   5.661   2.829   7.859 -0.5789 -0.5794  0.9948
 5034TIP3   OH236736   1.016   1.142   0.288 -0.1240  0.7041 -0.5614
 5034TIP3    H136737   1.086   1.084   0.257 -0.4481 -0.9586  1.6132
 5034TIP3    H236738   1.062   1.212   0.335  0.1157 -0.7242  1.4040
 5035TIP3   OH236739   6.509   0.538   1.263 -0.1649  0.5109 -0.2448
 5035TIP3    H136740   6.452   0.611   1.286 -0.1590  0.0938  1.2161
 5035TIP3    H236741   6.595   0.577   1.253  0.0337  0.6088  1.5029
 5036TIP3   OH236742   5.542   5.271   1.694 -0.3543  0.0829  0.1705
 5036TIP3    H136743   5.588   5.354   1.690  0.8396 -0.5901 -0.6730
 5036TIP3    H236744   5.505   5.259   1.606 -0.4798 -0.2883  0.2697
 5037TIP3   OH236745   0.813   4.283   1.184 -0.1973 -0.1047  0.0092
 5037TIP3    H136746   0.833   4.200   1.141  0.6504  0.5074 -0.8199
 5037TIP3    H236747   0.841   4.270   1.275  0.4361 -0.5451 -0.2414
 5038TIP3   OH236748   5.359   0.632   0.479 -0.6602  0.2897 -0.3708
 5038TIP3    H136749   5.421   0.579   0.428 -0.6852 -1.0116  0.8856
 5038TIP3    H236750   5.282   0.576   0.488 -1.1349  0.9935  0.0454
 5039TIP3   OH236751   3.784   1.609   0.365 -0.3359 -0.4324 -0.0512
 5039TIP3    H136752   3.869   1.637   0.329 -0.8810  2.2142  0.5274
 5039TIP3    H236753   3.769   1.667   0.439 -2.6035 -0.9502 -0.0472
 5040TIP3   OH236754   1.077   2.435   8.625 -0.5808  0.0229  0.5450
 5040TIP3    H136755   1.076   2.526   8.597 -0.1269  0.3159  1.4163
 5040TIP3    H236756   1.009   2.393   8.574 -0.5300  0.7653 -0.1534
 5041TIP3   OH236757   1.516   1.175   2.893  0.5556 -0.5508  0.5920
 5041TIP3    H136758   1.498   1.247   2.834  0.5497 -1.3958 -0.4719
 5041TIP3    H236759   1.450   1.182   2.962 -0.0450 -0.1139 -0.0226
 5042TIP3   OH236760   1.992   4.229   3.759 -0.2207  0.1140 -0.1893
 5042TIP3    H136761   2.009   4.257   3.849 -0.7478  0.8182 -0.3022
 5042TIP3    H236762   2.035   4.294   3.704 -1.4109  0.7009 -0.4532
 5043TIP3   OH236763   2.010   4.265   1.680  0.3593  0.3745  0.0722
 5043TIP3    H136764   1.945   4.334   1.694  2.1420  1.8282  1.8217
 5043TIP3    H236765   1.973   4.212   1.610 -1.6741  2.3838 -0.5299
 5044TIP3   OH236766   2.997   3.930   1.975  0.3854  0.1798 -0.3764
 5044TIP3    H136767   2.930   3.887   1.921  0.4119 -1.2654  0.6906
 5044TIP3    H236768   3.041   3.989   1.914 -2.4731  1.9865 -0.8979
 5045TIP3   OH236769   2.859   2.796   3.714  0.6911 -0.4099 -0.5360
 5045TIP3    H136770   2.948   2.761   3.715  1.5906  1.6033 -1.7199
 5045TIP3    H236771   2.869   2.888   3.739 -1.0803 -0.1613 -0.5887
 5046TIP3   OH236772   3.441   5.354   2.432 -0.5014  0.0697  0.1652
 5046TIP3    H136773   3.509   5.302   2.476 -1.4390 -0.4013  1.0917
 5046TIP3    H236774   3.470   5.358   2.340  0.5893 -0.4207  0.4682
 5047TIP3   OH236775   3.807   0.605   0.603  0.1871  0.0655  0.3135
 5047TIP3    H136776   3.844   0.530   0.558  1.1454 -0.2550  1.5789
 5047TIP3    H236777   3.735   0.570   0.655 -0.4285  0.3100 -0.3558
 5048TIP3   OH236778   3.253   6.846   0.554 -0.3407 -0.5599 -0.5795
 5048TIP3    H136779   3.218   6.761   0.527  0.9340 -1.3251  0.0830
 5048TIP3    H236780   3.262   6.838   0.649 -2.0107  1.0280 -0.2388
 5049TIP3   OH236781   1.386   4.577   2.137 -0.0113 -0.2605  0.1169
 5049TIP3    H136782   1.395   4.510   2.205 -1.0660  0.1672  0.7016
 5049TIP3    H236783   1.385   4.528   2.055  3.0987 -0.6647  0.2189
 5050TIP3   OH236784   6.417   0.611   1.640 -0.1531  0.4884 -0.1555
 5050TIP3    H136785   6.338   0.665   1.636  0.3530  1.1970 -0.8282
 5050TIP3    H236786   6.424   0.587   1.732  0.7238  3.3109  0.6206
 5051TIP3   OH236787   6.412   4.531   2.615  0.4931 -0.1274  0.4341
 5051TIP3    H136788   6.355   4.567   2.683 -1.0388 -2.4445  0.4811
 5051TIP3    H236789   6.499   4.526   2.656  0.3038  1.5076  1.0821
 5052TIP3   OH236790   1.576   1.490   8.589  0.1981 -0.7578 -0.0945
 5052TIP3    H136791   1.497   1.436   8.586 -0.1188 -0.2474 -1.5148
 5052TIP3    H236792   1.586   1.524   8.500  1.6071 -0.2125  0.2410
 5053TIP3   OH236793   5.997   3.792   1.514 -0.0413 -0.4099 -0.0910
 5053TIP3    H136794   5.926   3.729   1.529 -2.4443  2.1856  0.2118
 5053TIP3    H236795   5.992   3.812   1.420 -0.6848  0.8340  0.1962
 5054TIP3   OH236796   5.304   0.408   2.726  0.5795 -0.4148 -0.3332
 5054TIP3    H136797   5.209   0.419   2.731  0.5525 -0.4685 -0.7332
 5054TIP3    H236798   5.329   0.448   2.643  0.8027 -1.1230 -0.6109
 5055TIP3   OH236799   0.954   3.073   3.884  0.8064 -0.1808  1.1627
 5055TIP3    H136800   0.866   3.073   3.923  0.5179 -0.5581  0.5290
 5055TIP3    H236801   1.008   3.025   3.948  0.1716 -1.4815  0.7701
 5056TIP3   OH236802   2.266   4.346   1.800  0.4308  0.0733 -0.3914
 5056TIP3    H136803   2.199   4.314   1.740 -1.8720  1.5690  1.2128
 5056TIP3    H236804   2.284   4.435   1.770  0.5775  0.2085  0.0871
 5057TIP3   OH236805   1.372   6.844   0.561  0.4796 -0.2565 -0.1549
 5057TIP3    H136806   1.427   6.853   0.484 -0.6551 -0.7392 -1.0503
 5057TIP3    H236807   1.380   6.751   0.585 -1.0532 -0.7016 -1.1948
 5058TIP3   OH236808   2.814   3.667   1.351 -0.1914 -0.3766 -0.5441
 5058TIP3    H136809   2.842   3.739   1.294 -0.3743 -0.0224 -0.1873
 5058TIP3    H236810   2.884   3.602   1.342 -0.0028 -0.1395 -0.8380
 5059TIP3   OH236811   3.282   4.625   0.580  0.9774 -0.0968  0.5481
 5059TIP3    H136812   3.267   4.639   0.487  3.0540  1.2926  0.3604
 5059TIP3    H236813   3.236   4.543   0.600  1.2655 -0.9327 -1.9045
 5060TIP3   OH236814   2.188   1.463   3.551  0.0761  0.4068  0.2498
 5060TIP3    H136815   2.268   1.500   3.513 -0.1257 -0.5133 -1.1368
 5060TIP3    H236816   2.149   1.413   3.480 -0.1928 -1.6141  1.7412
 5061TIP3   OH236817   1.657   2.713   2.986 -0.1489  0.2023  0.1061
 5061TIP3    H136818   1.602   2.745   3.058 -2.3345  1.4506 -1.9931
 5061TIP3    H236819   1.704   2.791   2.955  1.2557 -0.4478  0.5013
 5062TIP3   OH236820   3.027   6.792   2.673 -0.1417 -0.0020  0.1061
 5062TIP3    H136821   2.962   6.727   2.646 -1.1508  1.4150 -1.0467
 5062TIP3    H236822   3.007   6.870   2.620  1.7655  0.8733  0.5797
 5063TIP3   OH236823   4.339   3.972   3.498 -0.0491  0.3217  0.3024
 5063TIP3    H136824   4.314   3.973   3.590 -0.1874  0.9878  0.2634
 5063TIP3    H236825   4.418   4.025   3.494 -0.4452  0.9006 -0.0626
 5064TIP3   OH236826   4.888   2.335   0.959  0.1548 -0.1230 -0.0276
 5064TIP3    H136827   4.878   2.423   0.921  0.9968  0.2471  0.5847
 5064TIP3    H236828   4.871   2.347   1.052  0.7798 -0.4999  0.1436
 5065TIP3   OH236829   6.133   0.908   3.446  0.2373 -0.1128  0.1786
 5065TIP3    H136830   6.116   0.936   3.536 -0.0087  0.2482  0.0244
 5065TIP3    H236831   6.205   0.963   3.416  2.5866 -2.4138  1.2114
 5066TIP3   OH236832   5.898   6.193   0.742 -0.0576 -0.7011 -0.3188
 5066TIP3    H136833   5.958   6.258   0.778 -0.8083 -1.0950  1.7992
 5066TIP3    H236834   5.870   6.230   0.658  0.6817  0.9980  0.1351
 5067TIP3   OH236835   0.570   4.598   0.526 -0.2260 -0.5732  0.1755
 5067TIP3    H136836   0.541   4.547   0.601 -1.5354  0.3951  0.3529
 5067TIP3    H236837   0.651   4.555   0.497 -0.2977 -1.6028  1.4546
 5068TIP3   OH236838   1.953   1.829   3.691 -0.0257  0.4263  0.2748
 5068TIP3    H136839   1.973   1.742   3.727 -1.4962 -0.8263 -1.7192
 5068TIP3    H236840   1.866   1.819   3.652  0.1648  2.5586 -0.8022
 5069TIP3   OH236841   1.203   2.130   7.609 -0.1160  0.0964  0.4622
 5069TIP3    H136842   1.181   2.083   7.689 -3.1219 -0.3849 -0.5506
 5069TIP3    H236843   1.151   2.210   7.614  0.5217  0.5821 -0.5236
 5070TIP3   OH236844   2.412   2.040   7.749  0.2226  0.3495  0.6767
 5070TIP3    H136845   2.492   2.066   7.704  0.5136 -0.2126  0.8598
 5070TIP3    H236846   2.437   1.964   7.801 -0.6864 -0.5440 -0.1434
 5071TIP3   OH236847   0.968   3.524   2.552 -0.5394 -0.4247  0.4048
 5071TIP3    H136848   0.884   3.570   2.547 -0.6535 -0.6470  0.2197
 5071TIP3    H236849   0.952   3.451   2.612 -0.8692 -1.2609 -0.6720
 5072TIP3   OH236850   3.496   3.093   1.826 -0.1214  0.2116 -0.2259
 5072TIP3    H136851   3.510   3.017   1.882  1.3932  0.7047  0.1214
 5072TIP3    H236852   3.438   3.151   1.876 -1.3507 -0.7108 -0.5296
 5073TIP3   OH236853   5.467   2.543   1.467  0.1226  0.3012 -0.0744
 5073TIP3    H136854   5.522   2.512   1.395 -0.6821  0.6696 -0.8683
 5073TIP3    H236855   5.452   2.466   1.522  0.6174 -0.0156 -0.3780
 5074TIP3   OH236856   2.314   1.153   3.232  0.1856 -0.2746  0.3095
 5074TIP3    H136857   2.269   1.133   3.150 -0.7561  1.2766  0.4038
 5074TIP3    H236858   2.283   1.241   3.256  0.7177 -0.5336  2.1338
 5075TIP3   OH236859   0.941   5.179   2.963  0.1689  0.4703  0.7220
 5075TIP3    H136860   0.986   5.094   2.967  1.4980  1.0331 -1.0839
 5075TIP3    H236861   0.967   5.223   3.044  0.0244 -0.5563  1.3517
 5076TIP3   OH236862   6.190   1.324   8.064  0.2792  0.4574  0.4093
 5076TIP3    H136863   6.143   1.244   8.087  0.0299  0.9169  1.5546
 5076TIP3    H236864   6.128   1.373   8.009  0.6482 -0.3784 -0.7762
 5077TIP3   OH236865   4.251   4.109   1.387  0.2956 -0.2465 -0.4656
 5077TIP3    H136866   4.193   4.033   1.399 -1.1822  0.6196 -1.7249
 5077TIP3    H236867   4.335   4.080   1.422 -1.0940 -1.2526  2.3961
 5078TIP3   OH236868   5.324   2.863   1.572  0.2560  0.0101  0.1458
 5078TIP3    H136869   5.297   2.884   1.482  0.5858 -0.9105 -0.1837
 5078TIP3    H236870   5.260   2.908   1.627  0.5371  1.2843 -0.5195
 5079TIP3   OH236871   0.317   1.833   2.144  0.1584 -0.0653 -0.0226
 5079TIP3    H136872   0.230   1.800   2.170  0.1279 -1.8843 -2.1752
 5079TIP3    H236873   0.354   1.763   2.091  2.7938  0.8792  0.4258
 5080TIP3   OH236874   4.253   4.915   0.542 -0.0014  0.3207 -0.2646
 5080TIP3    H136875   4.185   4.975   0.573 -2.1818 -1.8664 -0.5153
 5080TIP3    H236876   4.320   4.917   0.611 -0.7500  1.8005  0.4697
 5081TIP3   OH236877   3.128   1.941   2.890  0.0702 -0.1340 -0.3000
 5081TIP3    H136878   3.089   2.026   2.911 -1.1191 -0.7176 -0.1093
 5081TIP3    H236879   3.147   1.902   2.975  0.9689  0.0798 -0.3879
 5082TIP3   OH236880   1.995   2.226   4.126 -0.7672  0.0578  0.0633
 5082TIP3    H136881   1.920   2.169   4.141 -1.0513  0.5004  0.3463
 5082TIP3    H236882   1.960   2.300   4.077 -0.3832 -0.0505 -0.3775
 5083TIP3   OH236883   5.021   6.810   2.549 -0.2119  0.2650 -0.1473
 5083TIP3    H136884   5.088   6.837   2.611  1.4514 -0.5661 -1.4929
 5083TIP3    H236885   4.995   6.723   2.579  1.4931 -0.6745 -1.2350
 5084TIP3   OH236886   1.483   2.308   2.161 -0.0022  0.1427 -0.1895
 5084TIP3    H136887   1.528   2.390   2.182  0.5389 -0.5964  1.7530
 5084TIP3    H236888   1.393   2.335   2.141  0.5504  1.3390 -1.2117
 5085TIP3   OH236889   1.832   3.492   2.853 -0.0176  0.1191 -0.7769
 5085TIP3    H136890   1.763   3.434   2.888 -0.1661  0.4944 -0.4377
 5085TIP3    H236891   1.836   3.471   2.760 -0.6369  0.1348 -0.8139
 5086TIP3   OH236892   3.719   0.732   2.931 -0.0510 -0.0065 -0.1817
 5086TIP3    H136893   3.702   0.778   3.013  0.5955  0.8672 -0.5161
 5086TIP3    H236894   3.651   0.764   2.871 -1.3814 -1.6750  0.3583
 5087TIP3   OH236895   1.099   4.964   3.371 -0.3100  0.3962  0.0696
 5087TIP3    H136896   1.180   4.975   3.320  0.0951  0.8330  0.7856
 5087TIP3    H236897   1.030   4.994   3.312  0.3635  3.1014  0.4786
 5088TIP3   OH236898   5.967   0.861   8.632 -0.8682 -0.2704  0.6579
 5088TIP3    H136899   5.926   0.848   8.546  0.8369 -1.1406 -0.0791
 5088TIP3    H236900   6.018   0.942   8.621 -1.2640  0.0390  1.1008
 5089TIP3   OH236901   5.585   3.136   2.298  0.4119  0.4033  0.6655
 5089TIP3    H136902   5.650   3.170   2.236 -0.8075  0.6992 -0.4838
 5089TIP3    H236903   5.520   3.205   2.304 -0.4263 -0.3918  0.8540
 5090TIP3   OH236904   2.621   3.768   8.229  0.5330  0.0942  0.4511
 5090TIP3    H136905   2.526   3.754   8.221  0.4983  0.8793 -0.8801
 5090TIP3    H236906   2.659   3.681   8.214  0.0290 -0.2871  1.2887
 5091TIP3   OH236907   0.786   1.455   2.016  0.4313 -0.5656 -0.3220
 5091TIP3    H136908   0.874   1.471   2.051  0.7900 -2.4055 -0.2805
 5091TIP3    H236909   0.776   1.360   2.020 -1.2681 -0.4469 -1.0672
 5092TIP3   OH236910   4.381   5.715   0.028 -0.0986  0.6351  0.7168
 5092TIP3    H136911   4.440   5.656  -0.020 -0.2390  1.3515 -0.3891
 5092TIP3    H236912   4.366   5.671   0.112 -0.3114 -0.9676 -0.1114
 5093TIP3   OH236913   0.394   4.415   1.938  0.5842  0.7548 -0.1038
 5093TIP3    H136914   0.306   4.425   1.900 -0.7443  2.6408  3.0608
 5093TIP3    H236915   0.430   4.504   1.938  1.1708  0.5422  1.4831
 5094TIP3   OH236916   3.824   5.394   8.544  0.9844  0.4582  0.2804
 5094TIP3    H136917   3.872   5.328   8.595 -0.2826  0.4669  1.5487
 5094TIP3    H236918   3.743   5.408   8.594 -0.9443 -0.4542 -2.3853
 5095TIP3   OH236919   5.035   0.498   1.699 -0.1840 -0.7411 -0.5497
 5095TIP3    H136920   4.968   0.564   1.681 -0.2179 -0.5263  0.3157
 5095TIP3    H236921   4.993   0.436   1.759  1.1514  0.8716  2.2661
 5096TIP3   OH236922   4.908   2.068   1.536 -0.2468 -0.1619 -0.2427
 5096TIP3    H136923   4.959   2.056   1.617 -0.9961  1.3295  0.4862
 5096TIP3    H236924   4.965   2.122   1.480 -0.8094  1.1412  0.4034
 5097TIP3   OH236925   0.110   0.690   2.578  0.9673  0.0508  0.1660
 5097TIP3    H136926   0.180   0.638   2.617  1.4308 -0.7948 -1.6853
 5097TIP3    H236927   0.107   0.662   2.487 -1.8086  0.0561  0.1738
 5098TIP3   OH236928   1.705   6.659   2.239 -0.6820  0.3639 -0.2440
 5098TIP3    H136929   1.676   6.570   2.260  2.1981 -1.0122 -1.5501
 5098TIP3    H236930   1.702   6.706   2.322  2.6694 -2.5047  1.7927
 5099TIP3   OH236931   1.856   3.657   3.227 -0.0849 -0.3494 -0.2726
 5099TIP3    H136932   1.936   3.646   3.278  0.6210 -1.2589 -1.5062
 5099TIP3    H236933   1.797   3.706   3.284  1.4989  0.7339  0.5086
 5100TIP3   OH236934   2.640   0.178   2.957  0.1368  0.0503  0.0633
 5100TIP3    H136935   2.663   0.262   2.998 -0.6211  0.4890 -0.4004
 5100TIP3    H236936   2.545   0.180   2.950  0.1209 -0.8144 -0.0447
 5101TIP3   OH236937   3.201   4.859   1.771  0.0548 -0.1915  0.1650
 5101TIP3    H136938   3.161   4.845   1.857 -0.2596 -1.2354 -0.1298
 5101TIP3    H236939   3.246   4.943   1.778 -2.4402  1.2251  0.4390
 5102TIP3   OH236940   6.371   1.037   3.393  0.0733 -0.2625  0.3680
 5102TIP3    H136941   6.345   1.010   3.305  0.0294 -0.3076  0.3957
 5102TIP3    H236942   6.453   1.085   3.379  0.0206 -0.1928  0.2926
 5103TIP3   OH236943   3.132   0.856   2.521 -0.3795  0.0322  0.2525
 5103TIP3    H136944   3.127   0.874   2.428  2.1934 -0.0407  0.0433
 5103TIP3    H236945   3.220   0.883   2.547 -0.7414 -0.6929  2.4912
 5104TIP3   OH236946   2.875   5.270   3.309 -0.1541  0.2481 -0.0841
 5104TIP3    H136947   2.953   5.215   3.303  0.2977  0.9134 -0.5922
 5104TIP3    H236948   2.899   5.340   3.370 -0.9403 -0.4488  1.0478
 5105TIP3   OH236949   2.654   0.621   7.758  0.6034 -0.0051  0.8917
 5105TIP3    H136950   2.707   0.596   7.835 -0.1068 -1.6899  0.8698
 5105TIP3    H236951   2.573   0.656   7.796  1.8587  3.1418  0.9395
 5106TIP3   OH236952   0.306   5.670   3.954  0.2021 -0.1541 -0.3142
 5106TIP3    H136953   0.259   5.654   4.036  0.6399  1.2903  0.2409
 5106TIP3    H236954   0.250   5.630   3.887 -0.3354 -1.0620  0.6287
 5107TIP3   OH236955   4.241   6.725   0.061  1.1362 -0.3824  0.3008
 5107TIP3    H136956   4.148   6.706   0.071 -0.0266  3.2696 -1.6409
 5107TIP3    H236957   4.275   6.653   0.007 -0.5947 -1.6146  0.7744
 5108TIP3   OH236958   0.379   5.037   2.702  0.1034 -0.1733  0.9699
 5108TIP3    H136959   0.316   4.970   2.728 -2.2120  0.4809 -2.3607
 5108TIP3    H236960   0.350   5.116   2.749 -2.0264  0.2324 -0.8506
 5109TIP3   OH236961   6.163   3.578   2.365  0.5598  0.2452  0.6241
 5109TIP3    H136962   6.245   3.549   2.325  0.1766 -1.0114  0.7116
 5109TIP3    H236963   6.175   3.559   2.458  1.2439  2.6723  1.1080
 5110TIP3   OH236964   5.766   3.574   2.110  0.2695 -0.1534  0.5296
 5110TIP3    H136965   5.768   3.508   2.180  1.8134  0.7197  1.3754
 5110TIP3    H236966   5.837   3.548   2.051  0.2412  0.2050  0.3355
 5111TIP3   OH236967   6.335   5.856   0.322 -0.2697 -0.9096  0.0920
 5111TIP3    H136968   6.304   5.766   0.329 -0.3319 -0.9786 -0.9227
 5111TIP3    H236969   6.286   5.893   0.249  0.6399 -0.4344 -0.2935
 5112TIP3   OH236970   5.129   6.300   8.332 -0.4352 -0.0393  0.0769
 5112TIP3    H136971   5.147   6.380   8.281 -0.5224  0.3332  0.6251
 5112TIP3    H236972   5.089   6.332   8.413 -1.3803 -0.7035 -0.1165
 5113TIP3   OH236973   3.293   6.752   1.575 -0.1300  0.0010 -0.1193
 5113TIP3    H136974   3.255   6.737   1.661  1.8576  1.1892  1.0556
 5113TIP3    H236975   3.298   6.665   1.536 -1.2881 -0.5345  0.8597
 5114TIP3   OH236976   2.854   3.960   0.383 -0.5169 -0.1006  0.1475
 5114TIP3    H136977   2.918   3.964   0.311 -1.7181  0.3236 -0.9470
 5114TIP3    H236978   2.783   3.907   0.348  0.3427 -2.9539  2.3308
 5115TIP3   OH236979   2.046   1.385   0.191 -0.2676  0.3631 -0.3480
 5115TIP3    H136980   2.033   1.375   0.097 -1.3797  1.2796 -0.3159
 5115TIP3    H236981   2.128   1.433   0.199  0.0206 -0.0380 -0.8215
 5116TIP3   OH236982   1.011   3.842   3.530  0.1600  0.4037 -0.1805
 5116TIP3    H136983   1.031   3.813   3.441 -1.9159  0.1673 -0.6184
 5116TIP3    H236984   1.018   3.938   3.526 -0.7031  0.4501 -0.8326
 5117TIP3   OH236985   1.340   0.313   0.581  0.5724  0.2694  0.3898
 5117TIP3    H136986   1.257   0.291   0.623  0.5499  0.5694  0.5072
 5117TIP3    H236987   1.315   0.357   0.500  0.6179  0.0021  0.2274
 5118TIP3   OH236988   5.703   5.837   2.279  0.0179 -0.6556 -0.1556
 5118TIP3    H136989   5.616   5.808   2.253 -0.5192 -2.1803  2.8330
 5118TIP3    H236990   5.705   5.931   2.259 -1.2032 -1.1108 -2.8178
 5119TIP3   OH236991   2.525   6.688   3.454 -0.9751 -0.0257 -0.6042
 5119TIP3    H136992   2.573   6.606   3.469 -0.3171  0.5414  0.5284
 5119TIP3    H236993   2.506   6.687   3.360  0.6676 -0.6095 -0.9802
 5120TIP3   OH236994   1.199   2.417   0.120  0.0028  0.2340  0.0341
 5120TIP3    H136995   1.139   2.342   0.120  0.4842 -0.1593 -1.0186
 5120TIP3    H236996   1.224   2.428   0.028  2.2621 -0.1805  0.5508
 5121TIP3   OH236997   3.205   1.925   2.012 -0.0897 -0.0999  0.5923
 5121TIP3    H136998   3.299   1.923   2.031 -0.1406  0.5151  0.9435
 5121TIP3    H236999   3.185   2.018   1.999 -0.5212 -0.2925 -0.1531
 5122TIP3   OH237000   0.094   1.015   2.083  0.4264 -0.1425 -0.4128
 5122TIP3    H137001   0.086   0.921   2.069 -1.1213  0.0581 -1.0928
 5122TIP3    H237002   0.079   1.027   2.176 -2.9085 -0.3186 -0.8084
 5123TIP3   OH237003   3.348   6.789   0.231 -0.1167 -0.1063 -0.4315
 5123TIP3    H137004   3.373   6.877   0.203 -3.7229  0.8714 -0.9771
 5123TIP3    H237005   3.320   6.745   0.151  2.4554 -2.1854 -0.3177
 5124TIP3   OH237006   3.563   6.600   8.676 -0.1176 -0.3065 -0.4230
 5124TIP3    H137007   3.469   6.608   8.657 -0.1809 -1.2806 -0.6067
 5124TIP3    H237008   3.585   6.680   8.723 -1.2098 -0.3913  0.2757
 5125TIP3   OH237009   5.657   2.778   1.385  0.2325  0.2628  0.2191
 5125TIP3    H137010   5.593   2.796   1.317 -0.4988  0.2631  0.8858
 5125TIP3    H237011   5.705   2.860   1.395  0.1744  0.3380 -0.1165
 5126TIP3   OH237012   2.687   1.519   2.806  0.3895  0.1543  0.0916
 5126TIP3    H137013   2.769   1.473   2.788  0.8484  0.0123  2.1951
 5126TIP3    H237014   2.715   1.608   2.830  0.1243 -0.2660  2.1611
 5127TIP3   OH237015   3.836   1.029   0.504  0.7000 -0.2098 -0.3594
 5127TIP3    H137016   3.779   1.071   0.567 -1.4537 -1.1399 -1.5649
 5127TIP3    H237017   3.872   0.953   0.550  0.0762 -0.2328  0.0927
 5128TIP3   OH237018   4.060   2.247   1.563 -0.1269 -0.4433 -0.3691
 5128TIP3    H137019   4.072   2.155   1.583 -1.7323  0.0533  4.0254
 5128TIP3    H237020   3.978   2.251   1.513 -1.1910 -1.3534  1.2202
 5129TIP3   OH237021   4.079   2.503   1.371 -0.1179 -0.0339  0.3918
 5129TIP3    H137022   4.071   2.408   1.382 -2.1364 -0.2903 -2.1548
 5129TIP3    H237023   4.135   2.514   1.294 -0.9852  0.7554 -0.1499
 5130TIP3   OH237024   3.615   4.989   2.054 -0.0060 -0.0351 -0.0312
 5130TIP3    H137025   3.527   4.979   2.091  0.2095  0.0758  0.5124
 5130TIP3    H237026   3.671   5.007   2.129  0.2678  1.2641 -0.5190
 5131TIP3   OH237027   4.203   6.696   1.595 -0.3895  0.2364  0.9432
 5131TIP3    H137028   4.206   6.741   1.511  3.0484 -1.3226  0.0469
 5131TIP3    H237029   4.219   6.765   1.660 -1.4545  1.2094  0.1991
 5132TIP3   OH237030   5.674   2.394   0.212 -0.4068  0.5009 -0.2564
 5132TIP3    H137031   5.589   2.400   0.168  0.0389  1.2985 -1.0395
 5132TIP3    H237032   5.726   2.336   0.157 -0.0366  1.0353 -0.4798
 5133TIP3   OH237033   2.837   5.203   1.147  0.6315 -0.0250 -0.3765
 5133TIP3    H137034   2.813   5.271   1.084  2.8718  1.4428  0.2317
 5133TIP3    H237035   2.754   5.181   1.190 -0.9725 -0.9978 -3.6036
 5134TIP3   OH237036   1.886   3.419   2.603  0.3784 -0.1968  0.2092
 5134TIP3    H137037   1.877   3.470   2.523  4.3347  1.7559  0.7591
 5134TIP3    H237038   1.938   3.343   2.577  0.4923 -0.2729  0.6540
 5135TIP3   OH237039   4.974   2.649   2.885  0.1112 -0.5857 -0.4930
 5135TIP3    H137040   5.036   2.608   2.945  2.9579  1.2532 -1.9881
 5135TIP3    H237041   5.001   2.621   2.798 -1.8127 -0.4808 -1.1868
 5136TIP3   OH237042   1.033   5.714   1.386 -0.4394 -0.3631 -0.0678
 5136TIP3    H137043   0.956   5.720   1.330  0.6476 -2.5475 -1.9616
 5136TIP3    H237044   1.002   5.667   1.464 -1.1958 -0.4357 -0.4053
 5137TIP3   OH237045   4.751   5.135   3.301 -0.1004  0.1256 -0.3317
 5137TIP3    H137046   4.663   5.157   3.268 -0.2999  0.9596  0.7245
 5137TIP3    H237047   4.769   5.201   3.368  1.7163  0.4946 -1.1350
 5138TIP3   OH237048   6.572   4.608   8.055  0.3057 -0.2826 -0.1625
 5138TIP3    H137049   6.612   4.634   8.138 -0.8751  0.8418  0.0961
 5138TIP3    H237050   6.617   4.527   8.031  0.8207 -0.5224  1.4586
 5139TIP3   OH237051   2.904   3.048   0.059  0.0609 -0.8119 -0.2155
 5139TIP3    H137052   2.871   3.044   0.149  1.4798 -0.7492  0.3341
 5139TIP3    H237053   2.977   2.986   0.057  1.2583  0.5367 -0.7718
 5140TIP3   OH237054   2.418   3.971   8.362  0.2146 -0.0258 -0.1291
 5140TIP3    H137055   2.332   4.011   8.375  1.0610  1.9506 -0.2012
 5140TIP3    H237056   2.401   3.894   8.309 -1.4461  0.7601 -0.8091
 5141TIP3   OH237057   3.568   4.750   1.850 -0.3109  0.6263 -0.0256
 5141TIP3    H137058   3.640   4.812   1.842 -0.3849  0.7713  0.3862
 5141TIP3    H237059   3.593   4.676   1.795  1.1771 -0.3006  1.7816
 5142TIP3   OH237060   0.699   5.079   1.092 -0.2208 -0.1903 -0.2657
 5142TIP3    H137061   0.693   5.072   1.187 -0.6658 -0.8458 -0.3310
 5142TIP3    H237062   0.608   5.078   1.062 -0.0606 -1.8230 -0.8020
 5143TIP3   OH237063   3.580   0.482   2.512 -0.1763 -0.3396  0.3460
 5143TIP3    H137064   3.490   0.478   2.481  0.1129 -0.9752 -0.4560
 5143TIP3    H237065   3.604   0.574   2.504 -0.9078 -0.0840  1.0348
 5144TIP3   OH237066   3.329   6.187   0.202 -0.3192  0.6301  0.2155
 5144TIP3    H137067   3.270   6.183   0.127  1.3004  0.7260 -1.1421
 5144TIP3    H237068   3.337   6.280   0.221 -1.0574  0.5792  0.7894
 5145TIP3   OH237069   3.580   1.978   7.869 -0.1219 -0.1494 -0.9770
 5145TIP3    H137070   3.547   1.937   7.790 -0.3440 -0.6852 -0.6124
 5145TIP3    H237071   3.538   1.930   7.941 -0.3041  0.6494 -0.5398
 5146TIP3   OH237072   6.091   5.425   7.903 -0.8028  0.2085  0.4799
 5146TIP3    H137073   6.147   5.501   7.892 -0.5604 -0.1172 -0.6951
 5146TIP3    H237074   6.134   5.373   7.971 -0.8273  0.9669  1.0965
 5147TIP3   OH237075   1.944   3.570   8.189 -0.1909  0.2510  0.1317
 5147TIP3    H137076   1.877   3.637   8.203  0.3998  0.7239  0.7858
 5147TIP3    H237077   1.902   3.488   8.215  0.0737  0.7906  2.4983
 5148TIP3   OH237078   6.834   0.198   1.685 -0.7788  0.4629 -0.1962
 5148TIP3    H137079   6.791   0.241   1.611 -0.0540  1.5781  0.0075
 5148TIP3    H237080   6.835   0.106   1.661 -0.1327  0.8513 -1.8221
 5149TIP3   OH237081   3.482   0.085   8.133  0.1030  0.7758 -0.1259
 5149TIP3    H137082   3.465   0.173   8.101  1.4217  0.5606 -1.5334
 5149TIP3    H237083   3.532   0.098   8.214 -1.3795  1.3024  0.7494
 5150TIP3   OH237084   2.783   2.630   8.543  0.0310  0.0487  0.4269
 5150TIP3    H137085   2.717   2.566   8.518  1.7219 -1.7033  0.1661
 5150TIP3    H237086   2.781   2.631   8.639  1.8320 -2.6007  0.6025
 5151TIP3   OH237087   2.079   5.333   3.144 -0.8741 -0.7433 -0.0637
 5151TIP3    H137088   2.159   5.364   3.184 -0.2675 -1.0544 -0.9998
 5151TIP3    H237089   2.100   5.244   3.113 -1.8443 -1.1738  0.4550
 5152TIP3   OH237090   4.381   6.659   0.714  0.1310 -0.2781  0.3284
 5152TIP3    H137091   4.410   6.603   0.786 -1.2378 -0.9057  0.4163
 5152TIP3    H237092   4.316   6.606   0.667  1.7059 -0.3047 -2.0212
 5153TIP3   OH237093   5.223   1.243   8.243  0.3656 -0.0053 -0.2786
 5153TIP3    H137094   5.266   1.277   8.164  0.6823 -1.5096 -0.7760
 5153TIP3    H237095   5.292   1.196   8.289 -0.1346 -0.2192  0.2555
 5154TIP3   OH237096   2.517   6.660   1.650 -0.0473  0.2174 -0.4477
 5154TIP3    H137097   2.446   6.664   1.715  0.2606 -0.2797 -0.0742
 5154TIP3    H237098   2.527   6.750   1.620 -1.0137  0.2535 -0.6917
 5155TIP3   OH237099   1.654   0.981   1.865 -0.9983  0.6273 -0.3505
 5155TIP3    H137100   1.614   0.959   1.949 -0.2256  2.1726  0.4696
 5155TIP3    H237101   1.593   0.947   1.800 -0.6408 -2.4142  0.7380
 5156TIP3   OH237102   6.736   4.702   3.384  0.3614  0.3084 -0.2363
 5156TIP3    H137103   6.777   4.618   3.408 -2.2399 -1.1774 -0.7033
 5156TIP3    H237104   6.692   4.685   3.301 -0.9039  1.9304  0.0578
 5157TIP3   OH237105   1.942   0.838   0.066 -0.0214  0.7599 -0.2827
 5157TIP3    H137106   1.955   0.774  -0.004  0.8119  2.3584 -1.6482
 5157TIP3    H237107   1.890   0.791   0.132  0.3806 -1.2290 -1.3165
 5158TIP3   OH237108   2.927   4.451   2.695 -0.3210 -0.0550  0.3874
 5158TIP3    H137109   2.940   4.489   2.782  0.3430 -0.9782  0.7045
 5158TIP3    H237110   2.957   4.518   2.635 -1.4195  0.8698  0.8326
 5159TIP3   OH237111   5.415   1.006   2.565  0.2579 -0.6913  0.9450
 5159TIP3    H137112   5.366   0.934   2.605  1.2690 -0.7163  2.1831
 5159TIP3    H237113   5.460   0.967   2.491 -1.2136 -0.7613  0.0418
 5160TIP3   OH237114   2.402   4.290   1.110 -0.1373  0.3256  0.1751
 5160TIP3    H137115   2.374   4.203   1.138 -0.3882  0.2979 -0.1516
 5160TIP3    H237116   2.321   4.339   1.097 -0.0050  0.5334  0.1256
 5161TIP3   OH237117   0.988   5.762   0.816 -0.5963  0.9208  0.4204
 5161TIP3    H137118   1.024   5.673   0.825  0.6126  1.3984  0.5199
 5161TIP3    H237119   1.065   5.818   0.808 -1.2882  1.6498 -3.1210
 5162TIP3   OH237120   3.043   1.822   8.147  0.0739  0.1780  0.7208
 5162TIP3    H137121   3.092   1.865   8.077  1.1745 -1.1531  0.6285
 5162TIP3    H237122   3.043   1.730   8.123 -0.1639 -0.2039  2.0974
 5163TIP3   OH237123   5.318   6.283   3.822 -0.1823 -0.1751 -0.2763
 5163TIP3    H137124   5.385   6.346   3.847 -0.5620  0.1971 -0.1821
 5163TIP3    H237125   5.236   6.333   3.824 -0.4210 -0.5405 -0.7087
 5164TIP3   OH237126   0.114   1.344   1.332 -0.0079 -0.0559 -0.0916
 5164TIP3    H137127   0.153   1.322   1.247  1.2247 -1.0208  0.7005
 5164TIP3    H237128   0.154   1.428   1.355  1.3860 -0.8770  0.5582
 5165TIP3   OH237129   0.494   1.766   3.489  0.1523 -0.2233  0.2281
 5165TIP3    H137130   0.518   1.781   3.580  1.8773 -0.4240 -0.1566
 5165TIP3    H237131   0.403   1.739   3.492  0.6443 -1.8969  2.0688
 5166TIP3   OH237132   0.371   2.434   2.233  0.6044  0.2361  0.1886
 5166TIP3    H137133   0.321   2.408   2.310  1.5394 -1.5939  0.2420
 5166TIP3    H237134   0.441   2.368   2.226  0.5017  0.2751 -2.2514
 5167TIP3   OH237135   5.434   1.821   8.779 -0.2644  0.1000  0.3988
 5167TIP3    H137136   5.523   1.791   8.758 -0.5523 -0.5230  0.0509
 5167TIP3    H237137   5.428   1.907   8.739  0.0069 -0.0802 -0.0335
 5168TIP3   OH237138   3.498   4.841   3.927  0.6054 -0.0144 -0.0978
 5168TIP3    H137139   3.557   4.777   3.968  0.1193  0.5984  1.6704
 5168TIP3    H237140   3.537   4.926   3.948  0.7003  0.3243 -1.5608
 5169TIP3   OH237141   5.560   2.690   2.742 -0.2335 -0.4693 -0.4757
 5169TIP3    H137142   5.500   2.698   2.667  0.8988 -0.7769 -1.4509
 5169TIP3    H237143   5.593   2.778   2.757  0.8518 -0.6751 -1.4928
 5170TIP3   OH237144   3.865   4.561   3.281 -0.4162  0.1300  0.2025
 5170TIP3    H137145   3.851   4.587   3.372  0.3511  0.1720  0.3176
 5170TIP3    H237146   3.777   4.550   3.245 -0.7822 -2.0167  1.5493
 5171TIP3   OH237147   2.535   3.356   8.499 -0.3818 -0.0875  0.6886
 5171TIP3    H137148   2.598   3.287   8.523  0.2696  0.3291  0.2285
 5171TIP3    H237149   2.454   3.308   8.479  0.6391 -0.9727 -1.6975
 5172TIP3   OH237150   4.140   3.769   2.928  0.6595  0.8844 -0.2264
 5172TIP3    H137151   4.052   3.759   2.891  0.8306  2.4050 -1.1575
 5172TIP3    H237152   4.193   3.801   2.855  1.7683  0.9055  0.5671
 5173TIP3   OH237153   4.349   6.671   2.192  0.6219  0.2147 -0.2463
 5173TIP3    H137154   4.316   6.640   2.108 -1.0939  0.3141  0.3562
 5173TIP3    H237155   4.321   6.605   2.255  1.7847  0.2078  0.2881
 5174TIP3   OH237156   0.301   4.409   2.215  0.4830  0.4465  0.5927
 5174TIP3    H137157   0.334   4.497   2.227 -1.1365  1.1289  0.3792
 5174TIP3    H237158   0.333   4.382   2.129  2.6719 -0.0216  1.4824
 5175TIP3   OH237159   0.027   6.281   3.455  0.0308  0.3722 -0.2585
 5175TIP3    H137160  -0.062   6.260   3.426 -0.1101  1.0206 -0.3204
 5175TIP3    H237161   0.023   6.375   3.475  0.6605  0.3671 -0.1143
 5176TIP3   OH237162   0.548   1.749   1.739 -0.5128 -0.1888  0.1480
 5176TIP3    H137163   0.599   1.671   1.718  0.6959  1.1338 -2.4248
 5176TIP3    H237164   0.465   1.717   1.774  0.3010 -2.5481  0.0491
 5177TIP3   OH237165   4.012   4.343   1.123 -0.9318 -0.0326  0.0306
 5177TIP3    H137166   4.014   4.256   1.084  0.0613 -0.5491  1.1550
 5177TIP3    H237167   3.975   4.329   1.210 -2.8152  1.0360 -0.5515
 5178TIP3   OH237168   2.775   2.260   0.563 -0.6828  0.6668  0.4074
 5178TIP3    H137169   2.844   2.327   0.559 -0.2835  0.2864  0.8111
 5178TIP3    H237170   2.758   2.249   0.656  1.3598 -1.9015  0.6027
 5179TIP3   OH237171   3.143   0.148   0.328 -0.1962  0.3524  0.3247
 5179TIP3    H137172   3.215   0.124   0.386 -0.0174  1.1434  0.4395
 5179TIP3    H237173   3.096   0.066   0.313 -1.0054  0.3337  2.6067
 5180TIP3   OH237174   5.729   0.536   1.991 -0.2380  0.2362  0.1796
 5180TIP3    H137175   5.750   0.449   1.956 -0.5884 -0.4961  1.7188
 5180TIP3    H237176   5.812   0.585   1.985  0.7561 -1.1293  1.8851
 5181TIP3   OH237177   4.034   4.541   2.147  0.0832  0.2240 -0.2306
 5181TIP3    H137178   4.114   4.519   2.100 -0.2840  1.5221 -1.5252
 5181TIP3    H237179   3.971   4.564   2.079 -1.1342  0.0919  0.8020
 5182TIP3   OH237180   2.720   6.503   3.323  0.5237  0.0726 -0.2058
 5182TIP3    H137181   2.738   6.580   3.269 -0.3131  0.1393 -0.3939
 5182TIP3    H237182   2.671   6.445   3.266  1.8763 -0.9885 -0.3408
 5183TIP3   OH237183   0.126   1.417   1.648 -0.2952  0.7122  0.4841
 5183TIP3    H137184   0.100   1.357   1.578  0.3741  2.1485 -1.0423
 5183TIP3    H237185   0.212   1.449   1.622 -0.4724  2.0529  1.4629
 5184TIP3   OH237186   3.293   2.696   3.053  0.0105 -0.6727  0.2235
 5184TIP3    H137187   3.317   2.675   3.143 -0.1028  1.7321  0.8641
 5184TIP3    H237188   3.310   2.790   3.044 -0.0589 -0.8273 -2.2440
 5185TIP3   OH237189   2.794   0.930   7.917  0.5696 -0.2471  0.2131
 5185TIP3    H137190   2.798   0.908   7.824  0.2233 -0.5801  0.2756
 5185TIP3    H237191   2.813   0.847   7.962  0.9493 -0.0409  0.4367
 5186TIP3   OH237192   5.540   3.953   1.295  0.0383  0.0913 -0.0621
 5186TIP3    H137193   5.567   3.871   1.253  0.1987  0.4442 -0.6635
 5186TIP3    H237194   5.491   3.999   1.227  0.6264  0.8363  0.0083
 5187TIP3   OH237195   6.687   6.050   3.562 -0.5908 -0.0538 -0.3070
 5187TIP3    H137196   6.660   5.990   3.631 -1.4615 -0.4439 -0.9638
 5187TIP3    H237197   6.704   5.993   3.487  0.5006  0.3468 -0.3715
 5188TIP3   OH237198   4.970   1.307   0.673  0.3928  0.2206  0.2254
 5188TIP3    H137199   5.004   1.299   0.763  0.4898 -1.9720  0.0602
 5188TIP3    H237200   4.887   1.353   0.683  1.1902  1.5371  1.2047
 5189TIP3   OH237201   5.094   1.287   7.903 -0.3239  0.0992  0.0852
 5189TIP3    H137202   5.186   1.308   7.917 -0.5452  0.4862  1.0044
 5189TIP3    H237203   5.047   1.369   7.919 -0.9167 -0.3306  0.6034
 5190TIP3   OH237204   2.859   6.586   2.588 -0.2084  0.4734 -0.0667
 5190TIP3    H137205   2.853   6.491   2.601 -1.2563  0.4928 -0.3004
 5190TIP3    H237206   2.769   6.617   2.596  0.2086  1.5414  0.6352
 5191TIP3   OH237207   0.400   1.602   3.010 -0.1269 -0.0465 -0.0509
 5191TIP3    H137208   0.347   1.660   3.065  0.6983 -1.5014  2.4405
 5191TIP3    H237209   0.349   1.593   2.929 -1.3872  2.2374  0.3952
 5192TIP3   OH237210   1.858   0.463   2.983  0.3393 -0.2835  0.1050
 5192TIP3    H137211   1.827   0.378   3.017  0.4534 -0.8059 -1.0498
 5192TIP3    H237212   1.883   0.512   3.061  0.8152 -1.5319  0.7715
 5193TIP3   OH237213   1.217   0.128   2.668  0.4675  0.0452 -0.3665
 5193TIP3    H137214   1.259   0.210   2.695  0.2685  0.1689 -0.4317
 5193TIP3    H237215   1.289   0.065   2.664  0.4225 -0.1095  0.9830
 5194TIP3   OH237216   5.608   6.317   8.756  0.8860 -0.0957 -0.5467
 5194TIP3    H137217   5.536   6.307   8.693 -0.0462 -1.1798  0.6279
 5194TIP3    H237218   5.577   6.272   8.835  3.2272 -1.4337 -0.2927
 5195TIP3   OH237219   5.137   3.270   0.063  0.2952 -0.5069 -0.5074
 5195TIP3    H137220   5.223   3.274   0.105 -0.2034 -0.1718  0.5247
 5195TIP3    H237221   5.154   3.282  -0.030  1.2876  0.3644 -0.2204
 5196TIP3   OH237222   5.878   6.265   2.729 -0.2517  0.3277  0.4515
 5196TIP3    H137223   5.931   6.284   2.806  0.7792 -0.0303 -0.1402
 5196TIP3    H237224   5.869   6.349   2.685  0.2191  0.3118  0.3208
 5197TIP3   OH237225   2.795   6.633   2.086 -0.1686  0.3565  0.1018
 5197TIP3    H137226   2.787   6.717   2.130  0.1582  0.6625 -0.4141
 5197TIP3    H237227   2.710   6.619   2.045 -1.2613 -0.9735  2.6031
 5198TIP3   OH237228   3.894   4.842   1.043  0.0511 -0.0647 -0.0957
 5198TIP3    H137229   3.864   4.853   0.953  1.0104  2.4645 -0.1644
 5198TIP3    H237230   3.890   4.930   1.081  0.3023 -0.9543  2.1397
 5199TIP3   OH237231   3.172   5.634   0.923  0.1405 -0.4289 -0.5172
 5199TIP3    H137232   3.126   5.553   0.900  0.8712 -1.0738  0.2173
 5199TIP3    H237233   3.123   5.669   0.997  0.3663 -0.7006 -0.2368
 5200TIP3   OH237234   6.581   0.039   2.754 -0.3245  0.0804  0.2123
 5200TIP3    H137235   6.505  -0.010   2.724 -1.8195  1.4070  1.6043
 5200TIP3    H237236   6.600   0.003   2.841 -1.0436  1.4314  0.9743
 5201TIP3   OH237237   2.274   0.423   3.423 -0.1748 -0.0107  0.9451
 5201TIP3    H137238   2.282   0.410   3.517 -1.3380  1.4603  1.2920
 5201TIP3    H237239   2.241   0.340   3.389 -1.2304 -0.0875  2.0914
 5202TIP3   OH237240   1.255   6.218   3.213  0.2838 -0.3236 -0.1952
 5202TIP3    H137241   1.191   6.157   3.250  1.2514 -0.0880  2.0090
 5202TIP3    H237242   1.219   6.305   3.232  1.1253 -0.1924  0.8662
 5203TIP3   OH237243   5.329   3.666   2.378  0.1257 -0.0537 -0.3386
 5203TIP3    H137244   5.341   3.665   2.473  0.1122 -0.6611 -0.3451
 5203TIP3    H237245   5.307   3.576   2.354 -1.0672  0.3316 -0.7729
 5204TIP3   OH237246   6.442   4.489   3.420 -0.5121 -0.0802  0.3063
 5204TIP3    H137247   6.479   4.528   3.499  2.0927  0.4937 -1.0876
 5204TIP3    H237248   6.388   4.559   3.382 -0.8778  0.0200  1.0031
 5205TIP3   OH237249   6.660   4.231   2.387  0.1428  0.0219  0.1028
 5205TIP3    H137250   6.745   4.257   2.422  0.3453  0.2307 -0.5431
 5205TIP3    H237251   6.672   4.141   2.358 -0.6132 -0.9400  2.5270
 5206TIP3   OH237252   5.141   5.548   2.458 -0.2336 -0.1416  0.6108
 5206TIP3    H137253   5.186   5.520   2.538  1.3964 -0.0048 -0.2366
 5206TIP3    H237254   5.091   5.470   2.431  2.2037 -1.4890 -0.2822
 5207TIP3   OH237255   4.204   2.843   0.116  0.1130  0.2318  0.3206
 5207TIP3    H137256   4.192   2.757   0.154  0.6752  0.7485  1.7170
 5207TIP3    H237257   4.254   2.892   0.181  1.4645  1.0448 -1.2399
 5208TIP3   OH237258   1.290   3.295   0.517  0.3804  0.1494  0.0567
 5208TIP3    H137259   1.351   3.355   0.473  2.9480 -1.9330  0.5384
 5208TIP3    H237260   1.265   3.232   0.449  1.5975 -1.0269  0.6521
 5209TIP3   OH237261   4.302   0.365   1.960  0.3461 -0.2381 -0.1764
 5209TIP3    H137262   4.320   0.385   2.052  0.7074  0.2958 -0.3552
 5209TIP3    H237263   4.273   0.274   1.960  0.0204 -0.1430  0.5045
 5210TIP3   OH237264   0.221   3.744   1.599  0.1399 -0.2997  0.7879
 5210TIP3    H137265   0.132   3.752   1.633  0.1263  0.4335  0.5836
 5210TIP3    H237266   0.272   3.809   1.647  0.2776  0.2328 -0.0605
 5211TIP3   OH237267   0.725   0.104   2.308  0.5326  0.2345  0.3809
 5211TIP3    H137268   0.754   0.012   2.310 -2.5077 -0.8682 -0.2658
 5211TIP3    H237269   0.641   0.103   2.354  0.6931  2.8527  0.8543
 5212TIP3   OH237270   0.425   1.293   2.616 -0.6471 -0.1429  0.2334
 5212TIP3    H137271   0.414   1.366   2.555  0.2203 -0.1817  0.0230
 5212TIP3    H237272   0.474   1.228   2.567  0.2816 -0.0739  1.0447
 5213TIP3   OH237273   3.742   2.160   2.813  0.6011 -0.4002  0.1780
 5213TIP3    H137274   3.798   2.154   2.736  0.4063 -3.1086  0.1485
 5213TIP3    H237275   3.765   2.243   2.853  3.2413 -0.5215 -0.8934
 5214TIP3   OH237276   1.390   2.766   2.531  0.2511 -0.0865  0.0614
 5214TIP3    H137277   1.442   2.690   2.503  0.9393  1.2293 -2.5316
 5214TIP3    H237278   1.444   2.842   2.510 -1.7753  1.2596 -0.6164
 5215TIP3   OH237279   2.466   5.357   3.828 -0.2540  0.3793 -0.3005
 5215TIP3    H137280   2.438   5.298   3.758 -0.2790  1.2559 -1.0466
 5215TIP3    H237281   2.461   5.304   3.908 -0.7584 -0.4714 -0.8855
 5216TIP3   OH237282   3.962   6.645   1.993 -0.2334 -0.3836  0.5928
 5216TIP3    H137283   3.906   6.718   2.018 -1.8577 -1.1899 -0.4884
 5216TIP3    H237284   3.911   6.596   1.929  2.4363 -0.1822 -1.8959
 5217TIP3   OH237285   0.330   1.558   8.716  0.3559  0.0877  0.2864
 5217TIP3    H137286   0.244   1.555   8.675 -0.1253  1.3602  1.1486
 5217TIP3    H237287   0.384   1.609   8.655 -0.2828  1.7265  1.0241
 5218TIP3   OH237288   3.598   0.369   1.061  0.0306  0.3213 -0.0195
 5218TIP3    H137289   3.623   0.288   1.106 -1.5783  0.5781  1.4505
 5218TIP3    H237290   3.534   0.341   0.995  1.7199  0.0606 -1.6161
 5219TIP3   OH237291   1.145   5.784   2.839 -0.1861 -0.6193 -0.0273
 5219TIP3    H137292   1.197   5.736   2.775  0.2261 -1.4959  0.9359
 5219TIP3    H237293   1.208   5.836   2.888 -0.7829  2.6044 -2.3172
 5220TIP3   OH237294   1.542   6.442   1.265 -0.6784 -0.2385  0.6258
 5220TIP3    H137295   1.483   6.509   1.301  1.4264  1.8324  0.4389
 5220TIP3    H237296   1.588   6.408   1.341  0.6956  1.0557  0.4180
 5221TIP3   OH237297   4.608   1.859   0.412  0.1603  0.3361  0.5432
 5221TIP3    H137298   4.617   1.815   0.496 -0.8470 -1.0516 -0.0263
 5221TIP3    H237299   4.568   1.793   0.355  0.6683  1.2934 -0.9775
 5222TIP3   OH237300   4.340   5.103   2.263 -0.2604 -0.2801  0.2042
 5222TIP3    H137301   4.257   5.152   2.263 -0.6121 -0.8726  0.1880
 5222TIP3    H237302   4.375   5.118   2.350 -0.0322  0.5540 -0.0179
 5223TIP3   OH237303   6.504   4.934   3.334  0.3394 -0.1505  0.0985
 5223TIP3    H137304   6.594   4.902   3.331  0.5908  0.5761 -2.2446
 5223TIP3    H237305   6.451   4.856   3.351  1.3894 -0.5413  1.7863
 5224TIP3   OH237306   3.640   2.399   3.601  0.1309  0.2177  0.6276
 5224TIP3    H137307   3.550   2.425   3.618  0.0627 -0.4081  1.2662
 5224TIP3    H237308   3.634   2.337   3.528  0.2274  1.4269 -0.4439
 5225TIP3   OH237309   6.146   0.427   3.438  0.0618 -0.5031 -0.0831
 5225TIP3    H137310   6.063   0.475   3.426 -1.1149 -2.1876  0.9210
 5225TIP3    H237311   6.170   0.445   3.529  1.1711  0.4705 -0.5452
 5226TIP3   OH237312   1.389   1.647   0.580 -0.4789 -0.7171 -0.6561
 5226TIP3    H137313   1.461   1.669   0.639 -0.9627  1.7241 -0.8376
 5226TIP3    H237314   1.310   1.666   0.630 -0.8996  1.5249 -2.0154
 5227TIP3   OH237315   0.518   3.539   8.013 -0.2618  0.4475  0.1454
 5227TIP3    H137316   0.484   3.583   7.936 -0.2711  0.1821 -0.0024
 5227TIP3    H237317   0.554   3.610   8.067  0.5775  0.5495 -0.5212
 5228TIP3   OH237318   5.809   4.388   1.729 -0.0004  0.1149  0.1641
 5228TIP3    H137319   5.859   4.428   1.800  0.8398  0.6209 -0.6928
 5228TIP3    H237320   5.818   4.294   1.743  0.7141  0.2062  0.3636
 5229TIP3   OH237321   1.499   2.485   2.933 -0.5474 -0.1505 -0.0771
 5229TIP3    H137322   1.420   2.525   2.898 -0.3043  0.3909 -0.0282
 5229TIP3    H237323   1.558   2.559   2.948  0.0753 -0.5753 -0.3924
 5230TIP3   OH237324   3.397   1.527   3.999 -0.3236  0.2372  0.0789
 5230TIP3    H137325   3.334   1.548   3.930  0.1225  0.3510 -0.3033
 5230TIP3    H237326   3.359   1.564   4.078 -1.0121 -0.1929 -0.0323
 5231TIP3   OH237327   3.020   2.178   0.984  0.0416  0.2590 -0.2307
 5231TIP3    H137328   3.040   2.086   1.005  0.1308 -0.0585 -1.6108
 5231TIP3    H237329   2.926   2.185   0.995 -0.2154 -0.4818 -1.8082
 5232TIP3   OH237330   3.450   3.432   3.091  0.2562 -0.5797 -0.0343
 5232TIP3    H137331   3.492   3.491   3.154  0.3705 -0.5422 -0.1460
 5232TIP3    H237332   3.467   3.344   3.126 -0.0716 -0.5399  0.2289
 5233TIP3   OH237333   3.902   2.180   0.789 -0.1952 -0.3651  0.6350
 5233TIP3    H137334   3.831   2.221   0.740 -0.9658  0.5595  2.4368
 5233TIP3    H237335   3.953   2.253   0.823  0.7080 -1.0002  0.6891
 5234TIP3   OH237336   2.823   5.529   8.080  0.0545 -0.7811 -0.1635
 5234TIP3    H137337   2.858   5.611   8.046 -0.1924 -0.7528 -0.3541
 5234TIP3    H237338   2.892   5.494   8.136 -0.0886 -0.1402  0.4130
 5235TIP3   OH237339   0.305   0.533   2.678 -0.4727 -0.1235 -0.1817
 5235TIP3    H137340   0.384   0.554   2.628 -0.3051  1.7201  0.7883
 5235TIP3    H237341   0.337   0.498   2.761 -0.7405 -1.6851 -0.6963
 5236TIP3   OH237342   6.234   6.610   8.287  0.1083  0.5950  0.1836
 5236TIP3    H137343   6.285   6.530   8.272  0.3287  0.9850 -1.2581
 5236TIP3    H237344   6.275   6.676   8.232 -0.2801  1.6353  1.1027
 5237TIP3   OH237345   3.039   1.042   2.294  0.2752  0.8406 -0.0636
 5237TIP3    H137346   2.944   1.032   2.302  0.2581  1.7885  1.0692
 5237TIP3    H237347   3.061   0.991   2.216 -0.8694 -1.1477  0.8175
 5238TIP3   OH237348   2.710   2.608   2.934  0.0626 -0.3853  0.5894
 5238TIP3    H137349   2.689   2.684   2.879  0.5272 -0.5446  0.1873
 5238TIP3    H237350   2.644   2.543   2.909  1.9761 -1.5258 -1.9833
 5239TIP3   OH237351   3.314   6.006   2.089 -0.0972  0.0888 -0.6871
 5239TIP3    H137352   3.379   6.056   2.138  0.9869 -1.1602 -0.8118
 5239TIP3    H237353   3.351   5.997   2.001  0.9904 -3.0225 -0.0519
 5240TIP3   OH237354   2.128   1.611   2.896  0.0704 -0.3805  0.1887
 5240TIP3    H137355   2.069   1.557   2.948 -0.7327  1.1141  0.8817
 5240TIP3    H237356   2.070   1.669   2.847  0.9414  0.6074  0.3050
 5241TIP3   OH237357   0.527   2.476   2.743 -0.1439 -0.4418  1.3111
 5241TIP3    H137358   0.446   2.441   2.706 -1.1510  0.6224  2.4118
 5241TIP3    H237359   0.533   2.565   2.709  0.5851 -0.5105  1.2295
 5242TIP3   OH237360   4.159   6.459   0.658  0.2334 -0.0723 -0.4240
 5242TIP3    H137361   4.070   6.442   0.629  0.3374 -0.0376 -0.7724
 5242TIP3    H237362   4.153   6.465   0.754 -0.7282  3.1248 -0.5672
 5243TIP3   OH237363   3.889   0.330   8.742 -0.2699  0.8676 -0.5397
 5243TIP3    H137364   3.969   0.350   8.693 -0.5356  2.1770 -0.4662
 5243TIP3    H237365   3.819   0.350   8.680 -0.5658  0.5628 -0.3034
 5244TIP3   OH237366   6.741   4.903   8.395 -0.3781 -0.1204 -0.2727
 5244TIP3    H137367   6.741   4.844   8.471  1.9910 -0.4783 -0.4741
 5244TIP3    H237368   6.653   4.894   8.358 -0.7964 -1.8318  0.9880
 5245TIP3   OH237369   6.665   1.683   8.686  0.0006  0.6181 -0.1990
 5245TIP3    H137370   6.760   1.675   8.679 -0.0439  0.4053 -0.5924
 5245TIP3    H237371   6.647   1.774   8.665 -0.0083  0.3124 -1.6487
 5246TIP3   OH237372   3.136   0.125   7.904  0.3250  0.3875 -0.3082
 5246TIP3    H137373   3.070   0.183   7.942  1.0484  1.3599 -0.5035
 5246TIP3    H237374   3.118   0.126   7.810 -0.0177 -0.1830 -0.2577
 5247TIP3   OH237375   3.730   6.582   1.853 -0.5513  0.5048 -0.2631
 5247TIP3    H137376   3.656   6.528   1.880  0.3564 -0.6733 -0.0120
 5247TIP3    H237377   3.691   6.655   1.805 -1.8949  0.2187  0.3549
 5248TIP3   OH237378   5.426   5.821   2.178 -0.1455 -0.1048  0.2871
 5248TIP3    H137379   5.370   5.885   2.133  0.6473 -0.3328 -1.1011
 5248TIP3    H237380   5.374   5.792   2.253 -1.7904 -0.1004 -0.7922
 5249TIP3   OH237381   4.173   1.828   2.466  0.1804  0.2811 -0.2432
 5249TIP3    H137382   4.124   1.746   2.467  2.3603 -1.1193 -1.2627
 5249TIP3    H237383   4.123   1.886   2.524 -0.8576 -2.0928  1.4299
 5250TIP3   OH237384   5.772   2.227   1.161  0.1530  0.4022 -0.9175
 5250TIP3    H137385   5.841   2.192   1.217 -0.7659 -1.3410 -0.8216
 5250TIP3    H237386   5.779   2.322   1.171  0.9757  0.1836  0.9440
 5251TIP3   OH237387   4.301   4.132   1.815  0.1384  0.0615  0.1768
 5251TIP3    H137388   4.279   4.225   1.813 -0.1678  0.0741  1.9887
 5251TIP3    H237389   4.395   4.130   1.831 -0.0623  0.1160  1.5370
 5252TIP3   OH237390   4.593   1.831   2.341  0.1587  0.1067  0.0693
 5252TIP3    H137391   4.563   1.890   2.410  0.9427  0.3026  0.2530
 5252TIP3    H237392   4.517   1.777   2.320 -1.0297  2.1832 -1.1773
 5253TIP3   OH237393   0.138   2.369   7.808  0.3861 -0.1781 -0.1488
 5253TIP3    H137394   0.142   2.351   7.902  1.0861  2.3447  0.3750
 5253TIP3    H237395   0.052   2.335   7.781  0.3441 -1.3106  1.2868
 5254TIP3   OH237396   2.804   0.125   0.623 -0.1383  0.6191  0.2266
 5254TIP3    H137397   2.796   0.031   0.611  0.9658  0.4396  0.8196
 5254TIP3    H237398   2.794   0.161   0.534  0.2056 -0.1097 -0.1125
 5255TIP3   OH237399   5.414   6.775   2.169  0.1350 -0.3080  0.0764
 5255TIP3    H137400   5.370   6.694   2.195  1.6548 -1.6620 -1.3461
 5255TIP3    H237401   5.499   6.772   2.211  0.6028  0.0416 -0.8125
 5256TIP3   OH237402   6.226   2.366   0.387 -0.3835  0.7047  0.4713
 5256TIP3    H137403   6.176   2.419   0.325  0.6395  2.1670  0.8376
 5256TIP3    H237404   6.316   2.370   0.354  0.2721  1.8830  2.2132
 5257TIP3   OH237405   4.842   4.071   1.521 -0.3008 -0.1013 -0.6255
 5257TIP3    H137406   4.788   3.994   1.537 -2.8131  1.6395 -0.1502
 5257TIP3    H237407   4.822   4.095   1.430  0.0262  0.3287 -0.5852
 5258TIP3   OH237408   4.698   2.101   2.955  0.3794 -0.0082  0.2227
 5258TIP3    H137409   4.636   2.128   2.887  0.1869 -1.0533 -0.0290
 5258TIP3    H237410   4.674   2.011   2.976  1.0142 -0.0009  1.0347
 5259TIP3   OH237411   0.982   1.617   1.406  0.2310  0.7518 -0.3926
 5259TIP3    H137412   1.073   1.640   1.424  0.1115  1.2818 -0.4636
 5259TIP3    H237413   0.956   1.675   1.334  0.7728 -1.4298 -2.5207
 5260TIP3   OH237414   6.724   3.031   1.970 -0.1268 -0.7696  0.1734
 5260TIP3    H137415   6.708   3.104   1.910  0.5273  1.1663  2.1649
 5260TIP3    H237416   6.650   2.972   1.956  0.0642 -0.4939 -2.5378
 5261TIP3   OH237417   4.101   0.357   8.357 -0.0313  0.0025 -0.2109
 5261TIP3    H137418   4.099   0.370   8.262 -1.0143 -3.1515 -0.7625
 5261TIP3    H237419   4.022   0.306   8.375  2.0655 -2.9123  1.6005
 5262TIP3   OH237420   2.497   1.659   2.410 -0.4408  0.2944  0.6327
 5262TIP3    H137421   2.423   1.717   2.399 -1.5468 -0.7807  1.9935
 5262TIP3    H237422   2.469   1.596   2.476  1.7338 -0.0780  1.3021
 5263TIP3   OH237423   6.171   3.383   2.147  0.4899 -0.2299 -0.2297
 5263TIP3    H137424   6.193   3.469   2.110 -0.3690 -0.0558 -0.3497
 5263TIP3    H237425   6.189   3.321   2.076  2.3546 -0.3206  0.2665
 5264TIP3   OH237426   6.031   4.406   8.344 -0.8207  0.0295 -0.9782
 5264TIP3    H137427   6.055   4.321   8.307  1.8705  1.7185 -3.6315
 5264TIP3    H237428   6.087   4.415   8.421  0.8410  0.3476 -2.1615
 5265TIP3   OH237429   1.841   0.714   1.669 -0.2974  0.4656 -0.2776
 5265TIP3    H137430   1.828   0.781   1.602 -0.2581 -0.4409 -1.2105
 5265TIP3    H237431   1.916   0.664   1.639 -0.1808  0.1397  0.5336
 5266TIP3   OH237432   4.586   4.439   2.088 -0.0525  0.2535  0.0127
 5266TIP3    H137433   4.546   4.526   2.089 -0.3096  0.1691 -1.1892
 5266TIP3    H237434   4.614   4.426   1.997 -0.2031 -0.9978  0.1197
 5267TIP3   OH237435   0.413   1.712   8.496  0.7760 -0.1867  0.4187
 5267TIP3    H137436   0.457   1.631   8.471  0.2750 -0.5741  0.7800
 5267TIP3    H237437   0.474   1.782   8.471  1.0296 -0.6525 -0.2745
 5268TIP3   OH237438   2.888   5.429   1.748  0.1380  0.2215  0.2606
 5268TIP3    H137439   2.863   5.470   1.831  0.5226  0.8880  0.0519
 5268TIP3    H237440   2.813   5.443   1.691 -0.9430 -1.9062  1.0372
 5269TIP3   OH237441   1.036   1.082   2.440  0.5323 -0.2179  0.8166
 5269TIP3    H137442   0.962   1.055   2.496 -0.2841 -0.5834 -0.4093
 5269TIP3    H237443   1.070   1.161   2.482 -1.5578  0.8737  0.5741
 5270TIP3   OH237444   1.362   0.496   1.761  0.2566 -0.6239  0.5202
 5270TIP3    H137445   1.283   0.514   1.712  0.7617  0.3024  0.0166
 5270TIP3    H237446   1.339   0.423   1.819 -0.6629 -1.0042 -0.3053
 5271TIP3   OH237447   3.129   2.751   2.685  0.7666 -0.3386 -0.1270
 5271TIP3    H137448   3.223   2.772   2.688  0.5188  1.6118 -2.4939
 5271TIP3    H237449   3.126   2.663   2.649  1.6951 -0.2035 -0.5853
 5272TIP3   OH237450   5.092   5.163   0.316 -0.0028 -0.8759  0.4648
 5272TIP3    H137451   5.152   5.191   0.386  0.2758  0.1040 -0.1476
 5272TIP3    H237452   5.105   5.068   0.311 -1.0257 -1.2091  2.6596
 5273TIP3   OH237453   6.216   0.810   0.111 -0.5614  0.7329 -0.2026
 5273TIP3    H137454   6.206   0.885   0.170  0.7156  1.9305 -1.4506
 5273TIP3    H237455   6.263   0.745   0.163 -0.9372  1.1065  0.6252
 5274TIP3   OH237456   6.421   6.522   3.494 -0.3996 -0.5592  1.1408
 5274TIP3    H137457   6.506   6.504   3.535  1.2745  0.7876 -1.4273
 5274TIP3    H237458   6.384   6.593   3.546  1.0736  0.2840  1.1023
 5275TIP3   OH237459   1.712   6.685   0.059 -0.5020  0.0658  0.2288
 5275TIP3    H137460   1.656   6.763   0.062 -0.3002  0.2352 -0.3583
 5275TIP3    H237461   1.709   6.650   0.148 -2.0354 -0.2687  0.0728
 5276TIP3   OH237462   4.877   4.688   1.762 -0.5449 -0.4923 -0.0011
 5276TIP3    H137463   4.832   4.741   1.827  2.3712 -0.0748  1.8665
 5276TIP3    H237464   4.892   4.747   1.688 -2.8495 -0.6350 -0.6498
 5277TIP3   OH237465   0.354   5.835   3.440 -0.7820  0.2787  0.1942
 5277TIP3    H137466   0.410   5.912   3.431 -0.9364  0.4343  0.5505
 5277TIP3    H237467   0.408   5.772   3.489 -0.8127  0.3236  0.2869
 5278TIP3   OH237468   2.313   5.835   2.831 -0.6692  0.2619  0.0889
 5278TIP3    H137469   2.261   5.795   2.901 -0.0389 -0.5812  0.0973
 5278TIP3    H237470   2.386   5.774   2.818  1.5410  2.4061  1.5646
 5279TIP3   OH237471   3.617   2.063   8.373  0.3058  0.3940  0.1547
 5279TIP3    H137472   3.616   1.968   8.373  0.3704  0.3735 -1.1228
 5279TIP3    H237473   3.558   2.088   8.302  0.3652  1.3004  0.4067
 5280TIP3   OH237474   5.944   2.196   0.807  0.2033 -0.4967 -0.2103
 5280TIP3    H137475   5.968   2.118   0.756  0.7383 -0.0682 -0.6225
 5280TIP3    H237476   5.965   2.173   0.898  0.3011 -0.8534 -0.3213
 5281TIP3   OH237477   1.127   3.060   2.752 -0.2902  0.6084 -0.1369
 5281TIP3    H137478   1.156   3.049   2.843 -0.3720 -2.1725 -0.3537
 5281TIP3    H237479   1.038   3.026   2.751  0.8404 -2.7852 -1.8027
 5282TIP3   OH237480   1.135   1.053   8.361 -0.2435  0.1615 -0.0193
 5282TIP3    H137481   1.061   1.099   8.321 -1.5470 -1.0591  0.9006
 5282TIP3    H237482   1.130   1.074   8.454  2.4378  2.5195 -0.2611
 5283TIP3   OH237483   2.462   4.868   3.238  0.9427  0.3731  0.2838
 5283TIP3    H137484   2.541   4.896   3.283  0.3811  1.1243  0.8446
 5283TIP3    H237485   2.393   4.873   3.305  0.5232 -0.8735 -0.0218
 5284TIP3   OH237486   5.769   5.751   3.733  0.2087  0.2475 -0.4117
 5284TIP3    H137487   5.767   5.785   3.644  0.3832 -0.9948 -0.9122
 5284TIP3    H237488   5.855   5.774   3.766  0.1228  0.7631 -0.5406
 5285TIP3   OH237489   0.616   5.968   0.083 -0.5947  0.1234 -0.1386
 5285TIP3    H137490   0.601   5.972  -0.012 -0.0525 -0.6061 -0.2562
 5285TIP3    H237491   0.581   6.051   0.116  0.3444  0.9490 -1.1365
 5286TIP3   OH237492   4.188   2.705   0.924  0.0649  0.2842  0.4845
 5286TIP3    H137493   4.201   2.789   0.881 -0.3711 -0.2388 -0.7145
 5286TIP3    H237494   4.188   2.641   0.853 -2.1817 -0.4563  1.0779
 5287TIP3   OH237495   0.451   2.419   7.923 -0.9811  0.4897 -0.4813
 5287TIP3    H137496   0.394   2.497   7.922 -0.7891  0.6260 -0.8585
 5287TIP3    H237497   0.526   2.443   7.869  0.0818  0.7837  1.0606
 5288TIP3   OH237498   3.067   5.454   2.191  0.6225 -0.3373 -0.1109
 5288TIP3    H137499   3.061   5.544   2.157 -0.1607  0.3967  1.8360
 5288TIP3    H237500   3.120   5.462   2.270 -0.1132 -1.4683  0.5140
 5289TIP3   OH237501   5.086   3.971   1.530 -0.3282 -0.2625 -0.1007
 5289TIP3    H137502   5.003   4.006   1.561  0.8357  2.9687 -0.3057
 5289TIP3    H237503   5.072   3.956   1.436 -0.4866  0.9680 -0.2817
 5290TIP3   OH237504   4.622   6.491   3.490  0.1164 -0.5542 -0.2875
 5290TIP3    H137505   4.540   6.505   3.539  1.6219  0.4723  2.1017
 5290TIP3    H237506   4.650   6.579   3.465  1.9417 -0.5213  1.5678
 5291TIP3   OH237507   1.142   6.712   3.071  0.0120 -0.1271  0.5496
 5291TIP3    H137508   1.063   6.754   3.104  1.1285  0.6988  2.2968
 5291TIP3    H237509   1.133   6.620   3.099 -1.4509 -0.6850 -1.4752
 5292TIP3   OH237510   6.185   4.286   3.161  0.6824 -0.8570  0.6405
 5292TIP3    H137511   6.242   4.319   3.092 -0.6562  0.1255 -0.0597
 5292TIP3    H237512   6.131   4.361   3.185 -0.4423 -1.7759  1.1128
 5293TIP3   OH237513   6.691   6.411   3.147  0.1918 -0.5895 -0.2679
 5293TIP3    H137514   6.688   6.481   3.212  3.8687 -0.3866 -0.1430
 5293TIP3    H237515   6.692   6.330   3.198 -2.6605 -0.8136 -0.3824
 5294TIP3   OH237516   3.615   4.912   3.086  0.1236 -0.0878  0.4979
 5294TIP3    H137517   3.607   4.881   3.176 -0.9132 -0.8223  0.1682
 5294TIP3    H237518   3.530   4.952   3.066  0.8935  1.6225  0.3871
 5295TIP3   OH237519   2.514   2.869   0.670  0.3686 -0.1055  0.2898
 5295TIP3    H137520   2.438   2.876   0.612  0.3862  0.2209  0.3013
 5295TIP3    H237521   2.500   2.787   0.718  0.7508 -0.7786 -0.7236
 5296TIP3   OH237522   2.285   6.712   0.893  0.4386 -0.4090 -0.1067
 5296TIP3    H137523   2.279   6.640   0.830  1.0287 -0.2802 -0.3177
 5296TIP3    H237524   2.377   6.713   0.920  0.2692 -0.2235  0.4744
 5297TIP3   OH237525   6.780   4.910   2.635  0.3943  0.2737  0.0894
 5297TIP3    H137526   6.759   4.983   2.577  1.0233 -0.2140 -0.7849
 5297TIP3    H237527   6.698   4.890   2.680 -0.0643  0.7824 -0.5072
 5298TIP3   OH237528   0.871   4.058   8.314 -0.2867 -0.0397 -0.7799
 5298TIP3    H137529   0.889   4.050   8.408  0.9669 -2.4326 -1.1517
 5298TIP3    H237530   0.827   4.142   8.305  2.6290  1.8973  1.4896
 5299TIP3   OH237531   1.986   2.836   0.930 -0.0110 -0.1478  0.3168
 5299TIP3    H137532   2.073   2.845   0.891  0.0478  1.9458  0.7853
 5299TIP3    H237533   2.002   2.818   1.022 -0.1088 -1.4760  0.0836
 5300TIP3   OH237534   5.415   1.798   1.928 -0.3514 -0.0833  0.0060
 5300TIP3    H137535   5.474   1.872   1.911  0.9652 -1.0396  0.2387
 5300TIP3    H237536   5.327   1.834   1.914  0.2765  1.3617 -0.4651
 5301TIP3   OH237537   4.586   4.584   2.950  0.0790  0.0476 -0.3695
 5301TIP3    H137538   4.667   4.546   2.984  0.9602  0.2461 -2.1368
 5301TIP3    H237539   4.517   4.527   2.985  1.2817 -2.7557 -2.1636
 5302TIP3   OH237540   3.729   0.934   0.074  0.3652  0.2625  0.0317
 5302TIP3    H137541   3.813   0.940   0.120 -0.3110  1.8751  1.1373
 5302TIP3    H237542   3.685   0.860   0.114  1.3129 -0.7301 -0.6990
 5303TIP3   OH237543   3.283   2.217   2.427  0.7386 -0.3438  0.1705
 5303TIP3    H137544   3.277   2.126   2.455  0.2324 -0.4828 -0.3736
 5303TIP3    H237545   3.329   2.213   2.343  0.3546 -0.1436 -0.0541
 5304TIP3   OH237546   5.327   0.939   2.212 -0.2502 -0.0286 -0.3466
 5304TIP3    H137547   5.352   1.031   2.223  0.9309 -0.3600 -0.1482
 5304TIP3    H237548   5.401   0.899   2.166 -1.0993 -0.7124 -1.1632
 5305TIP3   OH237549   1.479   3.435   0.348  0.4217  0.4775  0.0597
 5305TIP3    H137550   1.497   3.520   0.387 -0.7830  1.4242 -1.3648
 5305TIP3    H237551   1.523   3.437   0.263 -1.0883  0.4123 -0.7633
 5306TIP3   OH237552   2.387   4.837   3.821  0.2549  0.0427 -0.1927
 5306TIP3    H137553   2.427   4.754   3.848 -0.3090 -0.8590 -1.9605
 5306TIP3    H237554   2.319   4.811   3.758 -1.6958  1.6799  1.1234
 5307TIP3   OH237555   4.415   0.521   2.167 -0.1992  0.1521 -0.0684
 5307TIP3    H137556   4.508   0.513   2.147 -0.0902 -1.2646  0.8722
 5307TIP3    H237557   4.405   0.480   2.253 -1.8210 -0.4649 -0.5124
 5308TIP3   OH237558   6.217   4.989   2.176  0.3617  0.2520 -0.4748
 5308TIP3    H137559   6.199   5.082   2.186 -1.3487 -0.2382  2.0025
 5308TIP3    H237560   6.169   4.947   2.248 -0.0605 -2.6945 -2.3002
 5309TIP3   OH237561   5.532   6.074   0.121 -0.1391 -0.0560  0.0870
 5309TIP3    H137562   5.522   6.023   0.202  0.3222  0.5347  0.5220
 5309TIP3    H237563   5.566   6.011   0.057 -1.4248 -0.7705  0.0668
 5310TIP3   OH237564   4.839   5.218   0.838  0.3014  0.4911  0.4193
 5310TIP3    H137565   4.904   5.275   0.877  0.3121  0.4966  0.3937
 5310TIP3    H237566   4.764   5.276   0.821  0.2124  0.4420  0.6407
 5311TIP3   OH237567   5.411   3.267   0.071 -0.0984  0.1178  0.2168
 5311TIP3    H137568   5.402   3.215  -0.009  0.8393  1.3410 -0.7361
 5311TIP3    H237569   5.452   3.349   0.041 -0.8998  1.1267  1.7521
 5312TIP3   OH237570   1.306   5.842   2.145  0.3251 -0.4852 -0.2090
 5312TIP3    H137571   1.334   5.889   2.066  1.0852  0.8301  0.7967
 5312TIP3    H237572   1.216   5.872   2.159 -0.1059 -1.3467 -0.9969
 5313TIP3   OH237573   5.774   5.936   0.676  0.2323 -0.4178 -0.0566
 5313TIP3    H137574   5.845   5.991   0.707 -0.7926  0.5065  0.7485
 5313TIP3    H237575   5.711   5.997   0.637 -0.2192 -1.1803 -0.5515
 5314TIP3   OH237576   2.783   4.069   3.273 -0.6011 -0.3379  0.2765
 5314TIP3    H137577   2.791   4.142   3.212  2.3454 -0.1964  0.6899
 5314TIP3    H237578   2.799   3.991   3.219 -0.9376 -0.4540  0.3425
 5315TIP3   OH237579   2.601   2.499   0.547  0.1884  0.5042  0.6179
 5315TIP3    H137580   2.517   2.486   0.503  1.1433  2.1194 -1.9950
 5315TIP3    H237581   2.654   2.424   0.521  0.6047  1.2289 -0.7256
 5316TIP3   OH237582   4.344   5.964   2.748  0.1343 -0.1679  0.3394
 5316TIP3    H137583   4.322   5.873   2.727 -0.9408  0.0151  0.6162
 5316TIP3    H237584   4.439   5.964   2.758  0.1774 -1.1983  0.0480
 5317TIP3   OH237585   6.111   4.409   1.303  0.3314  0.3974 -0.0925
 5317TIP3    H137586   6.047   4.400   1.373 -0.8044 -0.9192 -1.2422
 5317TIP3    H237587   6.166   4.483   1.330 -0.8981  0.7842  1.5038
 5318TIP3   OH237588   5.466   0.784   3.538 -0.2012  0.0431 -0.6438
 5318TIP3    H137589   5.390   0.810   3.589 -0.0097 -0.3903 -0.1269
 5318TIP3    H237590   5.472   0.689   3.552  0.3167  0.0467 -0.8396
 5319TIP3   OH237591   6.132   1.825   1.212  0.0040  0.2084  0.3760
 5319TIP3    H137592   6.162   1.740   1.179 -1.0981  0.4582 -1.4348
 5319TIP3    H237593   6.060   1.804   1.271 -1.6049 -0.1173 -1.5915
 5320TIP3   OH237594   5.212   0.262   1.610 -0.5803 -0.1854 -0.7887
 5320TIP3    H137595   5.270   0.245   1.685 -1.6548 -2.2718 -0.3713
 5320TIP3    H237596   5.180   0.352   1.624  1.5734  0.5847 -0.4153
 5321TIP3   OH237597   0.845   1.905   7.618  0.4314  0.2098 -0.3974
 5321TIP3    H137598   0.887   1.914   7.532  0.2066 -2.2774 -0.8627
 5321TIP3    H237599   0.759   1.869   7.598 -0.1093  0.7901  0.8269
 5322TIP3   OH237600   3.873   4.061   1.244  0.6182 -0.5302  0.0628
 5322TIP3    H137601   3.795   4.008   1.258  0.2163 -0.7868 -2.5979
 5322TIP3    H237602   3.865   4.134   1.307 -2.0991 -0.2054 -0.5621
 5323TIP3   OH237603   1.814   1.941   0.908 -0.2281 -0.2391 -0.1901
 5323TIP3    H137604   1.762   2.021   0.917  0.3172  0.2291 -0.9844
 5323TIP3    H237605   1.769   1.876   0.961 -1.0963  0.4051 -0.1188
 5324TIP3   OH237606   0.936   1.957   0.130 -0.1116  0.1799 -0.5267
 5324TIP3    H137607   0.859   2.010   0.150 -0.5777 -1.1134  1.4391
 5324TIP3    H237608   1.005   2.020   0.109 -1.6180  1.3685 -2.1968
 5325TIP3   OH237609   5.894   3.602   8.673  0.1112 -0.0690  0.1450
 5325TIP3    H137610   5.804   3.618   8.646 -0.9059 -0.5598  2.8598
 5325TIP3    H237611   5.890   3.601   8.769  3.3222  1.5087  0.4173
 5326TIP3   OH237612   3.173   1.428   8.622 -0.5194  0.8229 -0.6031
 5326TIP3    H137613   3.175   1.409   8.528  0.5248 -1.1722 -0.2443
 5326TIP3    H237614   3.115   1.362   8.659 -0.4921  1.2444  0.2178
 5327TIP3   OH237615   1.987   5.071   3.336 -0.5012  0.0222  0.0181
 5327TIP3    H137616   2.056   5.046   3.275 -1.2925  1.2562 -1.4675
 5327TIP3    H237617   1.908   5.078   3.281 -1.0690  2.0132  0.9914
 5328TIP3   OH237618   0.716   2.115   0.112 -0.2801 -0.0683 -0.4006
 5328TIP3    H137619   0.643   2.091   0.169 -0.4724 -1.2554 -1.1256
 5328TIP3    H237620   0.705   2.209   0.098 -1.2405 -0.0921  0.1073
 5329TIP3   OH237621   0.207   3.669   7.275  0.0917  0.0068  0.4372
 5329TIP3    H137622   0.296   3.678   7.240 -0.0554  2.4153  0.5261
 5329TIP3    H237623   0.206   3.724   7.353 -1.5287  0.1346  0.3656
 5330TIP3   OH237624   0.307   3.334   0.272  0.1635 -0.2106 -0.6857
 5330TIP3    H137625   0.227   3.381   0.294  0.3950 -0.0883 -0.0850
 5330TIP3    H237626   0.345   3.385   0.199 -1.2954 -1.3911 -2.3527
 5331TIP3   OH237627   3.568   5.859   0.832  0.0590  0.1427 -0.0854
 5331TIP3    H137628   3.490   5.808   0.812 -0.2242  0.3158  0.5576
 5331TIP3    H237629   3.600   5.887   0.746  0.6270 -1.6782 -0.5094
 5332TIP3   OH237630   1.835   0.458   3.267 -0.2336 -0.1950  0.4637
 5332TIP3    H137631   1.924   0.464   3.234 -0.8404  0.4468 -1.1804
 5332TIP3    H237632   1.841   0.487   3.358  1.4056 -1.3544  0.7732
 5333TIP3   OH237633   2.959   3.117   1.161  0.2627  0.4872  0.4327
 5333TIP3    H137634   3.003   3.202   1.153  0.4575  0.2882 -0.7501
 5333TIP3    H237635   2.958   3.082   1.072 -0.9959 -0.1641  0.6808
 5334TIP3   OH237636   2.212   5.490   8.487  0.0422 -0.6025  0.2116
 5334TIP3    H137637   2.214   5.499   8.392  0.5372 -1.5463  0.1232
 5334TIP3    H237638   2.259   5.409   8.505  0.2965 -0.2409  1.2888
 5335TIP3   OH237639   4.101   1.242   2.849 -0.0362 -0.3313 -0.3588
 5335TIP3    H137640   4.143   1.233   2.934 -0.7610  0.1935  0.0679
 5335TIP3    H237641   4.139   1.173   2.796 -0.0153 -1.0585  0.5767
 5336TIP3   OH237642   0.890   2.664   2.883  1.0258  0.0415 -0.7108
 5336TIP3    H137643   0.838   2.627   2.954  0.5362  0.4469 -0.8485
 5336TIP3    H237644   0.930   2.589   2.840  0.5128 -0.2833 -0.6283
 5337TIP3   OH237645   2.027   4.010   0.022  0.3025 -0.0888 -0.1747
 5337TIP3    H137646   2.089   3.963  -0.034  0.3846  1.3593 -1.3380
 5337TIP3    H237647   2.080   4.041   0.096  0.3868 -1.1676  0.2422
 5338TIP3   OH237648   4.610   0.757   8.424  0.2203  0.2805  0.2306
 5338TIP3    H137649   4.681   0.743   8.487 -0.9757  0.6094  1.7156
 5338TIP3    H237650   4.647   0.817   8.359  1.0102  1.2419  1.5220
 5339TIP3   OH237651   4.440   6.545   2.594 -0.0331  0.0827  0.4193
 5339TIP3    H137652   4.359   6.529   2.643 -1.0865 -1.3141 -1.6444
 5339TIP3    H237653   4.476   6.457   2.579  0.3707  0.4820 -1.0735
 5340TIP3   OH237654   0.432   2.170   8.687 -0.3293 -0.4096 -0.0152
 5340TIP3    H137655   0.507   2.207   8.642 -1.1379 -0.5086 -1.4930
 5340TIP3    H237656   0.377   2.245   8.709  0.3412 -0.3010  1.3852
 5341TIP3   OH237657   1.397   4.754   3.559 -0.7283 -0.1584 -0.4957
 5341TIP3    H137658   1.366   4.817   3.624 -1.3000 -1.7498  0.8485
 5341TIP3    H237659   1.431   4.681   3.611 -1.0970 -1.4403 -1.9812
 5342TIP3   OH237660   2.026   5.937   0.137 -0.7537 -0.5782 -0.1956
 5342TIP3    H137661   2.041   5.845   0.119 -3.4988 -1.1637  0.0476
 5342TIP3    H237662   1.992   5.938   0.227  0.4293  0.8466  0.2788
 5343TIP3   OH237663   3.289   3.143   0.702 -0.6221 -0.2006 -0.0542
 5343TIP3    H137664   3.256   3.195   0.628  0.5284  1.9865  0.8910
 5343TIP3    H237665   3.222   3.153   0.770 -0.5399 -0.2337  0.0314
 5344TIP3   OH237666   2.937   1.687   3.211  0.7601 -0.2157  0.1435
 5344TIP3    H137667   3.007   1.622   3.218  1.1720  0.3874  2.5466
 5344TIP3    H237668   2.982   1.770   3.203  0.2846  0.0281 -0.0255
 5345TIP3   OH237669   2.152   2.502   2.099 -0.3245 -0.3540 -0.0347
 5345TIP3    H137670   2.181   2.436   2.163  0.4014 -0.6936 -0.7001
 5345TIP3    H237671   2.195   2.477   2.018 -1.2186  0.0924 -0.6634
 5346TIP3   OH237672   3.435   2.075   1.805  0.4687 -0.1262 -0.5253
 5346TIP3    H137673   3.449   2.022   1.884  3.0487  1.7855  0.4706
 5346TIP3    H237674   3.503   2.045   1.744 -0.2760 -0.2896 -1.2820
 5347TIP3   OH237675   2.735   3.901   8.001  0.0344  0.4167  0.2891
 5347TIP3    H137676   2.669   3.940   7.944  2.2022  4.9658  0.4527
 5347TIP3    H237677   2.685   3.843   8.058 -2.9040 -0.6749 -3.0266
 5348TIP3   OH237678   4.048   3.819   8.660 -0.1563 -0.4065 -0.5256
 5348TIP3    H137679   4.078   3.782   8.577  0.9207 -0.1377 -0.2743
 5348TIP3    H237680   4.039   3.913   8.642 -1.2598 -0.5444 -0.7092
 5349TIP3   OH237681   5.546   5.069   0.391 -0.3284  0.0194 -0.2888
 5349TIP3    H137682   5.530   5.085   0.298 -0.1522  1.1874 -0.1396
 5349TIP3    H237683   5.641   5.057   0.397 -0.5700 -2.4618 -0.5637
 5350TIP3   OH237684   4.482   5.094   8.491 -0.8763 -0.1318 -0.0408
 5350TIP3    H137685   4.391   5.071   8.471 -0.3112 -2.5572 -0.0987
 5350TIP3    H237686   4.527   5.010   8.499  1.0360  0.9658  1.6657
 5351TIP3   OH237687   5.575   4.528   1.640 -0.2057  1.0358 -0.0776
 5351TIP3    H137688   5.532   4.559   1.719 -1.0710 -0.6931  0.1584
 5351TIP3    H237689   5.656   4.487   1.671  0.0008  1.3336 -0.2121
 5352TIP3   OH237690   6.615   1.312   2.249  0.5172 -0.0385  0.0764
 5352TIP3    H137691   6.607   1.328   2.155 -1.4393  0.0422  0.2063
 5352TIP3    H237692   6.575   1.226   2.262  0.3133  0.1689  0.8978
 5353TIP3   OH237693   6.775   4.068   1.223  0.3610 -0.2885 -0.2776
 5353TIP3    H137694   6.750   4.151   1.264 -0.4120 -0.2287 -0.8347
 5353TIP3    H237695   6.696   4.040   1.176  0.3300 -1.8002  0.6352
 5354TIP3   OH237696   1.655   6.250   1.496  0.0279  0.0942  0.1402
 5354TIP3    H137697   1.645   6.203   1.413 -0.8619 -1.0212  0.8498
 5354TIP3    H237698   1.692   6.186   1.556 -0.2401  0.6070  0.8678
 5355TIP3   OH237699   3.796   5.400   1.837 -0.3450  0.2598  0.3678
 5355TIP3    H137700   3.889   5.407   1.815 -0.1928 -0.9401  0.5733
 5355TIP3    H237701   3.750   5.422   1.757  0.1362  0.0546  0.0327
 5356TIP3   OH237702   3.216   4.340   0.590  0.2959  0.0805  0.2502
 5356TIP3    H137703   3.259   4.322   0.674 -0.2660  0.9354  0.7345
 5356TIP3    H237704   3.133   4.293   0.595  0.2712  0.1145  0.1601
 5357TIP3   OH237705   0.870   5.095   7.870  1.0709 -0.3433 -0.0296
 5357TIP3    H137706   0.834   5.158   7.809  0.6983  0.5384  1.0628
 5357TIP3    H237707   0.855   5.010   7.829 -1.4255  0.0426 -0.0909
 5358TIP3   OH237708   4.752   4.529   8.203 -0.3324 -0.1218 -0.0375
 5358TIP3    H137709   4.671   4.486   8.177 -0.3630  1.0679 -2.1197
 5358TIP3    H237710   4.820   4.463   8.193 -0.7724 -0.5504 -0.2161
 5359TIP3   OH237711   6.649   2.348   3.462  0.3697  0.0120 -0.2159
 5359TIP3    H137712   6.710   2.284   3.499  0.1252  0.5286  1.1641
 5359TIP3    H237713   6.602   2.382   3.538  0.9510  2.3081 -0.8074
 5360TIP3   OH237714   1.884   0.278   0.099 -0.0748 -0.4403  0.8675
 5360TIP3    H137715   1.874   0.191   0.060  0.6509  0.2613 -1.0349
 5360TIP3    H237716   1.798   0.318   0.088  0.3957  0.1283 -1.1262
 5361TIP3   OH237717   1.178   4.450   2.934  0.1571 -0.3596  0.0274
 5361TIP3    H137718   1.089   4.461   2.899 -0.4715 -0.4678  1.5222
 5361TIP3    H237719   1.213   4.375   2.886 -0.4318 -0.1148 -0.8088
 5362TIP3   OH237720   3.703   1.302   2.607 -0.4434  0.2173 -0.2966
 5362TIP3    H137721   3.698   1.303   2.702 -1.5814 -2.2067 -0.2537
 5362TIP3    H237722   3.672   1.389   2.580 -0.9283  0.6332  1.5147
 5363TIP3   OH237723   3.735   0.311   1.327  0.5514 -0.3887 -0.0448
 5363TIP3    H137724   3.799   0.263   1.379  1.0646 -1.5773 -1.7017
 5363TIP3    H237725   3.787   0.365   1.268  0.0687 -1.1569 -1.2167
 5364TIP3   OH237726   4.771   5.373   1.898 -0.3462 -0.5156  0.2598
 5364TIP3    H137727   4.780   5.311   1.825  1.5203 -0.6342  0.5271
 5364TIP3    H237728   4.684   5.356   1.933 -0.4370 -1.9896 -0.5705
 5365TIP3   OH237729   1.148   4.953   2.977  0.3831  0.4122  0.4765
 5365TIP3    H137730   1.185   4.866   2.995  0.5733  0.3028 -0.3988
 5365TIP3    H237731   1.210   4.993   2.916  0.0435  0.9874  0.5007
 5366TIP3   OH237732   1.375   3.454   1.817  0.3968 -0.4248  0.2110
 5366TIP3    H137733   1.288   3.492   1.830  0.8829  0.8730 -0.1433
 5366TIP3    H237734   1.383   3.388   1.886 -0.1244  0.8012  1.5083
 5367TIP3   OH237735   6.140   2.088   1.819  0.5727 -0.6395  0.4309
 5367TIP3    H137736   6.155   2.004   1.775  1.2859 -0.2668 -0.0571
 5367TIP3    H237737   6.225   2.133   1.813 -0.4551  1.2192 -1.6472
 5368TIP3   OH237738   5.159   4.437   8.770  0.0282 -0.0015 -0.1653
 5368TIP3    H137739   5.190   4.446   8.860 -0.4917  0.1524  0.0013
 5368TIP3    H237740   5.238   4.445   8.717  0.3723 -0.3234  0.2851
 5369TIP3   OH237741   2.824   4.944   0.171  0.3658  0.2135  0.3617
 5369TIP3    H137742   2.822   5.020   0.113 -1.7686 -0.8508 -1.1106
 5369TIP3    H237743   2.743   4.951   0.222 -0.0179 -1.1897 -0.0159
 5370TIP3   OH237744   5.330   6.023   0.782 -0.1948  0.0589  0.2153
 5370TIP3    H137745   5.402   5.986   0.832  0.6845  0.9051 -0.3976
 5370TIP3    H237746   5.341   6.118   0.789 -1.3517  0.2110  0.2563
 5371TIP3   OH237747   0.863   5.761   8.519 -0.8073 -0.4613 -0.5990
 5371TIP3    H137748   0.827   5.732   8.435 -0.8791 -0.2013 -0.6593
 5371TIP3    H237749   0.898   5.681   8.559  1.0764 -0.2795 -1.7597
 5372TIP3   OH237750   5.318   0.231   0.768  0.2337 -0.8311  0.1738
 5372TIP3    H137751   5.271   0.282   0.834  0.0715 -0.8297  0.0572
 5372TIP3    H237752   5.264   0.153   0.755 -0.2410 -0.3863 -0.6541
 5373TIP3   OH237753   6.520   2.855   3.415  0.2090 -0.3923 -0.4802
 5373TIP3    H137754   6.532   2.771   3.370 -0.8026 -1.4976  1.1675
 5373TIP3    H237755   6.472   2.832   3.495  0.7394  1.6486  0.4929
 5374TIP3   OH237756   6.764   3.348   8.370 -0.8465 -0.2130 -0.1989
 5374TIP3    H137757   6.774   3.344   8.465 -1.1402 -1.3857 -0.1946
 5374TIP3    H237758   6.770   3.441   8.349  0.7161 -0.0398  0.7964
 5375TIP3   OH237759   1.817   5.631   8.541 -0.5644 -0.5185 -0.6902
 5375TIP3    H137760   1.909   5.647   8.522 -1.1630  3.0777 -1.2659
 5375TIP3    H237761   1.778   5.610   8.456 -0.6296  0.1693 -0.8354
 5376TIP3   OH237762   2.273   4.751   4.067 -0.1146  0.4067 -0.0133
 5376TIP3    H137763   2.299   4.836   4.032 -1.5256  0.5335 -0.8339
 5376TIP3    H237764   2.191   4.730   4.022  0.5360 -1.7113 -0.3276
 5377TIP3   OH237765   5.700   6.488   1.543  0.4041 -0.3770 -0.2116
 5377TIP3    H137766   5.685   6.482   1.449  0.7747 -1.0168 -0.2378
 5377TIP3    H237767   5.638   6.426   1.581  0.7733 -0.6747 -0.0921
 5378TIP3   OH237768   4.891   4.510   8.541  0.0377  0.6067  0.0067
 5378TIP3    H137769   4.909   4.597   8.507  1.1616  0.0678 -0.8481
 5378TIP3    H237770   4.938   4.451   8.482 -0.8096 -0.5901  0.4853
 5379TIP3   OH237771   3.109   4.248   1.251  0.0838  0.6253  0.0273
 5379TIP3    H137772   3.039   4.255   1.315 -0.0278 -0.1648 -0.0045
 5379TIP3    H237773   3.078   4.298   1.175  0.1880  1.5050  0.5457
 5380TIP3   OH237774   1.586   0.829   7.924 -0.2766  0.6649 -0.5476
 5380TIP3    H137775   1.581   0.921   7.948  1.8986  1.0805 -1.4231
 5380TIP3    H237776   1.508   0.813   7.870 -1.6745  1.4363  1.1490
 5381TIP3   OH237777   2.280   5.617   0.521  0.0704 -0.1103  0.0467
 5381TIP3    H137778   2.202   5.668   0.543  0.8235  0.5725  1.1932
 5381TIP3    H237779   2.322   5.667   0.451 -1.1943 -1.1791 -1.5518
 5382TIP3   OH237780   1.070   4.214   3.508  0.4888 -0.1854 -0.0361
 5382TIP3    H137781   1.058   4.309   3.497 -0.4976 -0.1601  1.0217
 5382TIP3    H237782   1.157   4.196   3.473  0.5665  1.0622 -0.5366
 5383TIP3   OH237783   2.006   1.164   3.048  0.1232  0.6810 -0.3402
 5383TIP3    H137784   1.943   1.168   3.120  0.7389  1.2485  0.1780
 5383TIP3    H237785   2.003   1.073   3.018  1.1111 -0.0260  1.5622
 5384TIP3   OH237786   6.110   3.099   3.192 -0.0037  0.1505  0.4646
 5384TIP3    H137787   6.166   3.177   3.194 -0.9713  0.8542  0.8651
 5384TIP3    H237788   6.075   3.097   3.104 -0.4344  0.5120  0.6231
 5385TIP3   OH237789   5.239   4.593   2.716 -0.6159  0.2683 -0.1763
 5385TIP3    H137790   5.197   4.632   2.639 -0.5070  1.3692  0.2931
 5385TIP3    H237791   5.333   4.605   2.700 -0.5345 -0.7676 -0.5062
 5386TIP3   OH237792   0.893   0.917   7.863 -0.1507 -0.2371  0.3886
 5386TIP3    H137793   0.800   0.938   7.853 -0.6482 -2.8664 -1.8457
 5386TIP3    H237794   0.903   0.893   7.955 -1.1284  2.1677  1.1860
 5387TIP3   OH237795   2.888   4.583   8.740 -0.1144 -0.5232 -0.2795
 5387TIP3    H137796   2.953   4.578   8.671  2.2242 -1.7352  1.8593
 5387TIP3    H237797   2.845   4.498   8.739 -0.7994 -0.1796 -0.8605
 5388TIP3   OH237798   5.494   4.306   0.963  0.3851 -1.2242 -0.0704
 5388TIP3    H137799   5.478   4.269   0.877 -0.0632  0.7325 -0.8700
 5388TIP3    H237800   5.418   4.278   1.015  0.2434 -1.7284 -0.5369
 5389TIP3   OH237801   5.288   1.731   8.320  0.2789 -0.8943 -0.1411
 5389TIP3    H137802   5.323   1.798   8.261 -0.7056  0.5114  0.8220
 5389TIP3    H237803   5.241   1.671   8.262  1.1765 -0.7722 -1.0186
 5390TIP3   OH237804   3.021   1.306   1.936 -0.4513  0.3306  0.6487
 5390TIP3    H137805   3.002   1.394   1.968 -0.9174  0.8006 -0.8177
 5390TIP3    H237806   2.945   1.283   1.882  0.9914  0.3111 -1.5178
 5391TIP3   OH237807   1.855   4.492   2.229 -0.1967 -0.6573  0.2742
 5391TIP3    H137808   1.803   4.429   2.178 -0.8825 -0.1208  0.3045
 5391TIP3    H237809   1.834   4.577   2.191 -3.4463  0.2454  3.5617
 5392TIP3   OH237810   1.363   5.541   8.666 -0.3360  0.3185  0.1956
 5392TIP3    H137811   1.441   5.595   8.653 -0.6600  0.8384  0.4072
 5392TIP3    H237812   1.335   5.517   8.577 -0.9750  1.6271  0.0233
 5393TIP3   OH237813   6.289   3.053   8.059  0.7802  0.0656 -0.2261
 5393TIP3    H137814   6.270   3.139   8.022  0.5442  1.2108  2.3678
 5393TIP3    H237815   6.373   3.029   8.020  1.3111  1.9095 -0.3362
 5394TIP3   OH237816   1.694   2.526   0.383  0.9247 -0.5575  0.3148
 5394TIP3    H137817   1.762   2.461   0.362  0.5428 -0.9391  0.2537
 5394TIP3    H237818   1.634   2.480   0.441  0.1116 -0.5759 -0.5205
 5395TIP3   OH237819   1.741   6.364   2.334  0.5174 -0.0094  0.0495
 5395TIP3    H137820   1.735   6.327   2.422 -0.3315 -0.4178 -0.1746
 5395TIP3    H237821   1.651   6.381   2.309  0.7587  0.1072 -0.7471
 5396TIP3   OH237822   5.123   5.575   8.718 -0.2533  0.3130 -0.2679
 5396TIP3    H137823   5.128   5.628   8.638  0.0699 -0.0850 -0.5111
 5396TIP3    H237824   5.029   5.572   8.739 -0.1137  3.6026  1.5086
 5397TIP3   OH237825   5.443   4.289   2.674 -0.9431 -0.1776 -0.4799
 5397TIP3    H137826   5.428   4.195   2.672  0.7753 -0.6198  2.4019
 5397TIP3    H237827   5.417   4.316   2.762 -1.4570  2.0982 -1.2514
 5398TIP3   OH237828   5.795   6.302   1.815  0.0814 -0.0854 -0.1235
 5398TIP3    H137829   5.842   6.316   1.733  0.8029 -0.8466  0.1400
 5398TIP3    H237830   5.854   6.334   1.882  0.1881 -0.9471  0.2052
 5399TIP3   OH237831   0.482   5.704   3.123 -0.3657  0.1377  0.0992
 5399TIP3    H137832   0.482   5.614   3.154 -2.4367  0.6700  1.9138
 5399TIP3    H237833   0.491   5.757   3.202 -1.4396  1.5224 -0.6450
 5400TIP3   OH237834   6.374   4.045   7.820 -0.0870 -0.4529  0.1438
 5400TIP3    H137835   6.365   4.139   7.829  0.8171 -0.4462  1.2046
 5400TIP3    H237836   6.289   4.015   7.787  0.2372  0.9329 -2.0753
 5401TIP3   OH237837   3.058   4.127   7.963  0.1818 -0.2260 -0.3205
 5401TIP3    H137838   2.999   4.202   7.951  0.8715  0.2337 -0.8601
 5401TIP3    H237839   3.074   4.125   8.058 -1.1494 -0.7159 -0.0775
 5402TIP3   OH237840   5.293   4.278   3.522  0.2037  0.0581 -0.7746
 5402TIP3    H137841   5.217   4.296   3.468  0.3958  1.8119 -0.5257
 5402TIP3    H237842   5.368   4.286   3.462  0.2726 -0.3896 -0.7510
 5403TIP3   OH237843   0.017   5.386   3.992 -0.1519 -0.4033  0.0919
 5403TIP3    H137844   0.059   5.421   4.071  3.6733 -2.0294 -0.9860
 5403TIP3    H237845  -0.076   5.392   4.010  0.4869 -0.5271  4.6802
 5404TIP3   OH237846   5.027   1.015   1.815 -0.4854  0.1913 -0.2509
 5404TIP3    H137847   4.998   0.932   1.777  0.3208  0.3427 -1.2430
 5404TIP3    H237848   4.950   1.072   1.813 -0.8567 -0.3073 -0.2102
 5405TIP3   OH237849   4.561   0.466   0.431  0.3899 -0.8181 -0.2908
 5405TIP3    H137850   4.635   0.525   0.445  0.5748 -1.0496 -0.2695
 5405TIP3    H237851   4.599   0.378   0.442  0.1800 -0.9469 -0.6052
 5406TIP3   OH237852   0.400   1.962   0.041  0.5631 -0.1276  0.1495
 5406TIP3    H137853   0.431   2.022  -0.027  0.1523  0.1040  0.1607
 5406TIP3    H237854   0.426   2.003   0.123 -0.5335  0.5150  0.1913
 5407TIP3   OH237855   2.555   1.738   1.192  0.0772 -0.2107 -0.0539
 5407TIP3    H137856   2.464   1.725   1.167  0.3752  0.0918 -1.3761
 5407TIP3    H237857   2.552   1.802   1.264 -0.6620  0.9857 -1.1214
 5408TIP3   OH237858   2.286   1.217   3.679  0.1692 -0.4613  0.4882
 5408TIP3    H137859   2.348   1.212   3.751 -0.7944 -1.2338  1.2843
 5408TIP3    H237860   2.340   1.210   3.600  1.2529  0.5618  1.1010
 5409TIP3   OH237861   0.333   2.442   8.523  0.2388  0.6020 -0.4680
 5409TIP3    H137862   0.411   2.485   8.490  0.9112 -1.2529 -1.4422
 5409TIP3    H237863   0.262   2.473   8.467  0.1141  2.7102  0.7629
 5410TIP3   OH237864   4.356   6.532   3.649  0.7990 -0.1773 -0.5577
 5410TIP3    H137865   4.270   6.565   3.623  0.5897 -0.7948 -0.6586
 5410TIP3    H237866   4.352   6.527   3.744  0.2562 -1.4563 -0.6390
 5411TIP3   OH237867   4.539   6.415   8.196  0.0650  0.2412  0.0782
 5411TIP3    H137868   4.618   6.384   8.239  0.9621  0.0583 -1.6247
 5411TIP3    H237869   4.467   6.372   8.244  0.7777  2.0064  3.0099
 5412TIP3   OH237870   4.948   6.344   3.391  0.2977  0.0259 -0.9327
 5412TIP3    H137871   4.901   6.310   3.468  1.1208 -0.2249 -0.5303
 5412TIP3    H237872   4.955   6.438   3.408 -0.1847  0.0897 -1.0670
 5413TIP3   OH237873   4.215   3.020   2.041  0.0607 -0.2653  0.1120
 5413TIP3    H137874   4.142   3.074   2.010  0.4574 -0.6317 -1.5487
 5413TIP3    H237875   4.236   3.056   2.127 -1.3882  0.5203  0.1752
 5414TIP3   OH237876   6.275   0.878   8.623  0.1375 -0.3487  0.1119
 5414TIP3    H137877   6.259   0.821   8.698  2.6217  0.4378  1.3789
 5414TIP3    H237878   6.329   0.949   8.659  0.2681  0.7912 -2.1629
 5415TIP3   OH237879   4.451   0.965   0.899  0.3852  0.0220 -0.4699
 5415TIP3    H137880   4.395   0.929   0.830  0.4939 -0.9888 -0.0563
 5415TIP3    H237881   4.402   1.040   0.933  1.0936  1.6499 -2.7749
 5416TIP3   OH237882   0.541   5.554   0.865 -0.2957  0.0393  0.6298
 5416TIP3    H137883   0.562   5.573   0.774 -1.9982 -0.8784  0.0091
 5416TIP3    H237884   0.534   5.459   0.869 -1.3924  0.1309  1.4254
 5417TIP3   OH237885   4.639   6.637   3.165 -0.2806  0.1683 -0.2384
 5417TIP3    H137886   4.683   6.552   3.176 -0.2848  0.2357  0.3640
 5417TIP3    H237887   4.607   6.658   3.253 -0.2909  0.7866 -0.3877
 5418TIP3   OH237888   6.689   2.795   1.161  0.4446  0.3948  0.3048
 5418TIP3    H137889   6.598   2.817   1.180  0.3190  0.7547 -0.6305
 5418TIP3    H237890   6.691   2.781   1.066  0.9333 -1.7045  0.5882
 5419TIP3   OH237891   0.653   5.084   2.060  0.6235 -0.0329  0.3946
 5419TIP3    H137892   0.659   5.114   2.151  1.3959 -1.1038  0.7105
 5419TIP3    H237893   0.729   5.122   2.017  0.6910 -0.1703  0.3920
 5420TIP3   OH237894   1.029   5.562   8.132  0.0256 -0.1334  0.1131
 5420TIP3    H137895   1.003   5.654   8.125  0.0001 -0.2761 -3.1157
 5420TIP3    H237896   1.113   5.557   8.086  0.0520 -1.7238  0.2721
 5421TIP3   OH237897   6.250   1.798   2.217 -0.0894 -0.0547  0.2484
 5421TIP3    H137898   6.334   1.827   2.252 -0.0469 -0.2196  0.2857
 5421TIP3    H237899   6.185   1.844   2.270 -0.0244  0.5288 -0.1629
 5422TIP3   OH237900   3.203   3.033   8.751  0.0503 -0.0184 -0.3433
 5422TIP3    H137901   3.182   3.120   8.716 -1.0464  0.1165  0.6117
 5422TIP3    H237902   3.288   3.012   8.711  0.3156  1.4632 -0.6371
 5423TIP3   OH237903   5.177   4.904   1.800  0.2026  0.2330  0.0209
 5423TIP3    H137904   5.125   4.942   1.871  1.6428  0.5795  0.9350
 5423TIP3    H237905   5.157   4.958   1.724 -2.5271 -1.0521 -0.3019
 5424TIP3   OH237906   6.121   4.196   2.318 -0.3669 -0.1035  0.1252
 5424TIP3    H137907   6.112   4.137   2.243  0.0323  0.7825 -0.6469
 5424TIP3    H237908   6.051   4.171   2.377 -0.3739 -1.1643 -0.3132
 5425TIP3   OH237909   6.112   3.214   2.953  0.3194 -0.0030  0.3657
 5425TIP3    H137910   6.104   3.292   2.898  1.1248 -1.8727 -2.6720
 5425TIP3    H237911   6.153   3.149   2.896 -1.1502 -2.9620  2.4169
 5426TIP3   OH237912   3.982   5.339   0.497  0.5018  0.3308 -0.2311
 5426TIP3    H137913   3.920   5.408   0.474  0.1429  0.1857  0.2800
 5426TIP3    H237914   3.966   5.323   0.590 -0.5827 -1.5883 -0.7012
 5427TIP3   OH237915   1.535   4.812   1.771 -0.0433 -0.5056  0.2255
 5427TIP3    H137916   1.556   4.719   1.765 -0.7523 -0.6678  0.2483
 5427TIP3    H237917   1.564   4.838   1.859  1.7301 -0.2897 -0.3650
 5428TIP3   OH237918   0.014   0.795   1.102  0.1969  0.4126 -0.5198
 5428TIP3    H137919  -0.021   0.779   1.189  0.0520  1.9526 -0.2566
 5428TIP3    H237920   0.103   0.760   1.105 -0.5084 -1.5015 -0.4850
 5429TIP3   OH237921   4.333   3.374   0.015 -0.8350 -0.0662  0.0263
 5429TIP3    H137922   4.299   3.462   0.034 -0.8094  0.2522 -1.2748
 5429TIP3    H237923   4.276   3.315   0.064 -0.9155  0.6663  0.8349
 5430TIP3   OH237924   0.174   2.385   1.460  0.3683  0.0729  0.6796
 5430TIP3    H137925   0.269   2.380   1.462  0.3634  0.1014  1.8523
 5430TIP3    H237926   0.155   2.477   1.441  0.5627 -0.1031 -0.3924
 5431TIP3   OH237927   5.268   3.881   0.688  0.0413  0.1920  0.3227
 5431TIP3    H137928   5.277   3.936   0.610  0.4065 -0.3281 -0.0063
 5431TIP3    H237929   5.258   3.792   0.654 -2.8592  0.2522  0.7391
 5432TIP3   OH237930   6.350   4.403   8.336 -0.4100 -0.6082 -0.2403
 5432TIP3    H137931   6.358   4.327   8.395 -1.2673 -0.0053  0.6756
 5432TIP3    H237932   6.390   4.475   8.385 -1.5863  0.0111 -0.1614
 5433TIP3   OH237933   0.622   4.606   8.583  0.1724  0.7332 -0.1417
 5433TIP3    H137934   0.668   4.529   8.552 -1.0487 -0.0367 -0.1149
 5433TIP3    H237935   0.588   4.647   8.503 -3.5282 -1.6014 -0.0416
 5434TIP3   OH237936   5.947   5.201   8.144  0.2551  0.6051  0.4458
 5434TIP3    H137937   5.886   5.128   8.139 -1.8848  2.3485 -0.9114
 5434TIP3    H237938   5.979   5.213   8.055  1.0268  0.9716  0.7626
 5435TIP3   OH237939   1.489   4.836   3.090  0.6721  0.3533  0.0492
 5435TIP3    H137940   1.558   4.796   3.143 -0.8153 -2.6051 -0.0246
 5435TIP3    H237941   1.461   4.766   3.031 -1.2288  1.9813 -1.0898
 5436TIP3   OH237942   1.642   0.819   8.632  0.0780 -0.1766  0.4122
 5436TIP3    H137943   1.598   0.895   8.594  3.9242  1.9879 -0.1100
 5436TIP3    H237944   1.605   0.812   8.720 -1.0241  1.7111  0.1648
 5437TIP3   OH237945   2.611   4.684   1.759 -0.4852 -0.1409  0.7418
 5437TIP3    H137946   2.700   4.719   1.753 -1.0032  1.1371  0.0393
 5437TIP3    H237947   2.603   4.654   1.849  0.6057 -0.1479  0.8573
 5438TIP3   OH237948   3.223   1.161   1.431 -0.0341  0.0512  0.2740
 5438TIP3    H137949   3.213   1.225   1.501  3.0904  0.6016  0.3386
 5438TIP3    H237950   3.216   1.211   1.350  3.2029  0.7565  0.3260
 5439TIP3   OH237951   1.027   2.183   0.021  0.1905  0.2789 -0.4030
 5439TIP3    H137952   0.958   2.249   0.015 -0.8643 -0.8845 -1.4496
 5439TIP3    H237953   1.014   2.127  -0.055  2.9047  0.5777 -1.2246
 5440TIP3   OH237954   1.634   4.267   1.657 -0.3099  0.2712 -0.0237
 5440TIP3    H137955   1.552   4.260   1.704 -0.9246 -0.6274 -1.1737
 5440TIP3    H237956   1.683   4.188   1.681 -0.6488 -0.2169 -0.9105
 5441TIP3   OH237957   1.418   4.134   1.762 -0.0652 -0.3306  0.2528
 5441TIP3    H137958   1.452   4.080   1.833  0.2039  0.7204  0.9451
 5441TIP3    H237959   1.365   4.075   1.710  1.5274 -1.6489  0.0589
 5442TIP3   OH237960   4.712   5.563   2.289  0.6125  0.2831 -0.2291
 5442TIP3    H137961   4.782   5.504   2.262  0.8825 -0.7385  2.3587
 5442TIP3    H237962   4.756   5.629   2.343  0.0631  1.9429 -1.6972
 5443TIP3   OH237963   0.718   2.723   2.156 -0.5038 -0.3396 -0.8092
 5443TIP3    H137964   0.705   2.800   2.211 -0.5315 -1.2896  0.5591
 5443TIP3    H237965   0.630   2.689   2.141 -0.4285 -0.5783 -0.7128
 5444TIP3   OH237966   5.638   2.800   8.774  0.3849 -0.1600  0.0327
 5444TIP3    H137967   5.690   2.878   8.750 -1.2189  0.5318 -1.4260
 5444TIP3    H237968   5.625   2.808   8.868  2.7030 -0.2482  0.4127
 5445TIP3   OH237969   0.724   4.828   8.725  0.2926 -0.5810 -0.2319
 5445TIP3    H137970   0.751   4.912   8.688  4.2782 -1.5287  0.0692
 5445TIP3    H237971   0.718   4.769   8.650  1.4253 -0.8870 -0.0998
 5446TIP3   OH237972   5.118   6.168   8.593 -0.7273  0.1394 -0.3329
 5446TIP3    H137973   5.121   6.095   8.531  0.3086 -0.5113  0.4514
 5446TIP3    H237974   5.151   6.131   8.675 -0.9709  1.2842  0.3002
 5447TIP3   OH237975   0.738   0.056   8.021  0.3077 -0.2655 -0.3025
 5447TIP3    H137976   0.811   0.106   8.057  1.1414  0.7510 -3.1738
 5447TIP3    H237977   0.670   0.122   8.004 -0.8257 -1.0085  1.0532
 5448TIP3   OH237978   5.812   5.015   3.116  0.0710 -0.1731  0.4809
 5448TIP3    H137979   5.861   4.949   3.165 -0.2865  0.4083  1.6490
 5448TIP3    H237980   5.824   5.096   3.165 -0.1564  0.4690 -0.4954
 5449TIP3   OH237981   0.481   2.437   1.486 -0.0574 -0.1093 -0.3358
 5449TIP3    H137982   0.547   2.395   1.540 -1.2401 -1.4617  0.1247
 5449TIP3    H237983   0.421   2.478   1.548  1.0383  2.3233 -0.7726
 5450TIP3   OH237984   5.107   2.144   0.432 -0.8997 -0.4093 -0.2513
 5450TIP3    H137985   5.080   2.230   0.463  0.7750 -0.3187  1.1207
 5450TIP3    H237986   5.133   2.158   0.341 -2.8646  0.0054 -0.7957
 5451TIP3   OH237987   3.099   3.281   2.444  0.2591 -0.3926  0.3855
 5451TIP3    H137988   3.007   3.290   2.467  0.5302  1.6289  0.8878
 5451TIP3    H237989   3.118   3.358   2.391  2.2692  0.7149  2.5290
 5452TIP3   OH237990   1.843   5.788   4.020  0.3636  0.0068 -0.4486
 5452TIP3    H137991   1.777   5.856   4.036  1.8860  1.1345  1.5924
 5452TIP3    H237992   1.808   5.737   3.947 -2.1202  1.3311 -0.2963
 5453TIP3   OH237993   2.429   1.456   1.775  0.3795  0.1822 -0.1477
 5453TIP3    H137994   2.345   1.494   1.752  1.0350  0.9911 -1.2901
 5453TIP3    H237995   2.494   1.512   1.732  1.5733  0.2291  1.5849
 5454TIP3   OH237996   4.042   5.524   0.792  0.2482 -0.3020 -0.1187
 5454TIP3    H137997   4.010   5.489   0.875  0.1225  1.5317  0.6603
 5454TIP3    H237998   4.112   5.585   0.817  0.2852  0.1994 -1.3645
 5455TIP3   OH237999   5.023   1.997   2.010 -0.2089 -0.2830 -0.1293
 5455TIP3    H138000   4.938   1.999   1.965 -0.0594 -1.5425 -0.5037
 5455TIP3    H238001   5.086   1.972   1.942  0.4038  0.2398  0.2365
 5456TIP3   OH238002   5.526   5.001   0.682 -0.2765 -0.1404 -0.4636
 5456TIP3    H138003   5.612   4.969   0.711 -0.7777 -1.8444 -0.7660
 5456TIP3    H238004   5.546   5.058   0.608  0.7271  1.1804  0.7723
 5457TIP3   OH238005   1.275   3.006   3.858  0.4739 -0.2360 -0.1366
 5457TIP3    H138006   1.215   2.980   3.928 -0.9622  2.3685 -0.2259
 5457TIP3    H238007   1.355   2.958   3.875  0.0789  0.0265  3.1193
 5458TIP3   OH238008   5.080   6.093   0.488 -0.0814  0.2913  0.0646
 5458TIP3    H138009   5.053   6.149   0.416  2.1804  3.1533  1.2580
 5458TIP3    H238010   5.011   6.104   0.554  0.6500  2.3191  0.5485
 5459TIP3   OH238011   0.477   6.097   3.444  0.2278  0.4888 -0.2196
 5459TIP3    H138012   0.382   6.091   3.452  0.2980  0.0649  0.4498
 5459TIP3    H238013   0.506   6.135   3.527  0.7278 -0.4992  0.0823
 5460TIP3   OH238014   3.923   4.316   1.408 -0.0120  0.0901 -0.4461
 5460TIP3    H138015   3.887   4.403   1.426  1.2583  0.4906  0.2987
 5460TIP3    H238016   3.990   4.303   1.476 -0.5247 -1.6859 -0.2262
 5461TIP3   OH238017   6.716   0.891   2.578 -0.1998  0.1513  0.7521
 5461TIP3    H138018   6.710   0.834   2.655  0.1322 -0.3608  0.4085
 5461TIP3    H238019   6.735   0.831   2.506  1.2085  0.8068  0.5423
 5462TIP3   OH238020   5.967   0.327   1.285  0.4995  0.9002  0.5983
 5462TIP3    H138021   5.884   0.282   1.299 -0.1980  1.0558 -2.3622
 5462TIP3    H238022   5.943   0.415   1.258  1.4653  0.5138 -1.7980
 5463TIP3   OH238023   3.617   4.075   2.512  0.0965  0.3335  0.3597
 5463TIP3    H138024   3.639   4.118   2.595 -1.8924 -0.5480  1.4147
 5463TIP3    H238025   3.590   3.987   2.538  0.0701 -0.1769 -1.3195
 5464TIP3   OH238026   1.765   3.623   1.282  0.3585  0.2889 -0.3646
 5464TIP3    H138027   1.841   3.659   1.235  0.5669 -0.8820 -0.9528
 5464TIP3    H238028   1.695   3.621   1.217  0.1865  0.1603 -0.1767
 5465TIP3   OH238029   2.920   1.197   3.652  0.3986 -0.3018 -0.3813
 5465TIP3    H138030   2.972   1.277   3.660 -0.4330  0.1720  0.5588
 5465TIP3    H238031   2.858   1.202   3.725 -0.4970 -1.1951 -1.0601
 5466TIP3   OH238032   0.989   1.158   1.745 -0.1657  0.5198  0.1563
 5466TIP3    H138033   0.978   1.245   1.708 -1.8410  1.3396  2.3624
 5466TIP3    H238034   1.001   1.101   1.670 -1.5742  2.3099 -1.5182
 5467TIP3   OH238035   3.652   6.694   8.105 -0.5116  0.3641  0.2660
 5467TIP3    H138036   3.724   6.748   8.137 -0.5023  0.4905  0.0293
 5467TIP3    H238037   3.611   6.746   8.035 -0.9662  0.3860  0.5412
 5468TIP3   OH238038   3.981   5.588   2.956 -0.0129  0.1273  0.6176
 5468TIP3    H138039   4.043   5.540   2.901  1.0161  0.0222  1.8490
 5468TIP3    H238040   3.896   5.550   2.933  0.5812 -1.0820  0.3180
 5469TIP3   OH238041   2.909   5.467   3.527 -0.6280  0.1920 -0.0474
 5469TIP3    H138042   2.854   5.416   3.586 -0.4504  1.8146  1.6385
 5469TIP3    H238043   2.851   5.536   3.494 -0.0876  0.8500  0.3401
 5470TIP3   OH238044   4.042   6.573   8.447 -0.5416 -0.4787  0.3985
 5470TIP3    H138045   3.996   6.554   8.529 -0.3294 -0.2008  0.5862
 5470TIP3    H238046   4.131   6.596   8.474 -1.1182  2.2037  0.3725
 5471TIP3   OH238047   4.118   1.512   8.012  0.3098  0.1616 -0.8066
 5471TIP3    H138048   4.161   1.506   8.097 -2.5209 -4.1321  0.6198
 5471TIP3    H238049   4.180   1.470   7.952  0.2660 -1.4050  0.1958
 5472TIP3   OH238050   0.937   6.231   2.050 -0.5929 -0.8930 -0.5329
 5472TIP3    H138051   1.025   6.234   2.089 -0.5303  0.5183 -0.7490
 5472TIP3    H238052   0.885   6.182   2.114  0.0710 -0.7120  0.1664
 5473TIP3   OH238053   6.543   6.309   1.688 -0.1961 -0.8696 -0.3782
 5473TIP3    H138054   6.626   6.311   1.736 -0.3040  0.5059 -0.2275
 5473TIP3    H238055   6.561   6.353   1.605 -1.1707  1.0111  0.3549
 5474TIP3   OH238056   1.079   0.091   4.124 -0.3289 -0.0798  0.4703
 5474TIP3    H138057   1.082   0.010   4.073 -0.6198 -0.0011  0.3222
 5474TIP3    H238058   1.151   0.084   4.186  0.5273  0.1716 -0.4776
 5475TIP3   OH238059   1.895   5.865   8.315  0.0039  0.3857  0.4143
 5475TIP3    H138060   1.961   5.816   8.365 -0.4920 -1.9087 -1.0136
 5475TIP3    H238061   1.856   5.799   8.257 -1.1557  2.4037 -1.2136
 5476TIP3   OH238062   2.961   4.267   0.565 -0.3038 -0.3898  0.0918
 5476TIP3    H138063   2.880   4.311   0.587  0.0448  0.9580 -1.1406
 5476TIP3    H238064   2.945   4.228   0.479  0.2051 -0.4947  0.0382
 5477TIP3   OH238065   5.278   2.438   0.600 -0.1702  0.4291 -0.0389
 5477TIP3    H138066   5.294   2.398   0.686  0.0634 -1.6492 -0.9963
 5477TIP3    H238067   5.197   2.397   0.570  0.2793  0.3891 -1.2271
 5478TIP3   OH238068   5.402   4.439   3.760 -0.5362  0.6643  0.3827
 5478TIP3    H138069   5.347   4.367   3.729 -1.3230  1.9170 -1.2578
 5478TIP3    H238070   5.468   4.397   3.815 -1.2012 -1.2575 -0.2232
 5479TIP3   OH238071   3.583   6.520   7.899  0.3632  0.4113 -0.2433
 5479TIP3    H138072   3.647   6.572   7.948 -0.0165  1.3839 -0.7491
 5479TIP3    H238073   3.597   6.430   7.929 -0.7197  1.1011  2.5914
 5480TIP3   OH238074   3.927   5.965   3.484 -0.2471  0.1492 -0.8110
 5480TIP3    H138075   3.905   6.057   3.471 -0.7724  0.1297 -0.0783
 5480TIP3    H238076   3.986   5.964   3.559 -0.9270 -0.1841 -0.2648
 5481TIP3   OH238077   4.536   1.784   3.304  0.3063 -0.3328 -0.3686
 5481TIP3    H138078   4.610   1.837   3.273 -0.4951  0.2030 -1.4737
 5481TIP3    H238079   4.486   1.844   3.360 -0.0712 -0.2039 -0.8287
 5482TIP3   OH238080   5.168   3.604   0.258  0.3968  0.1105  0.0039
 5482TIP3    H138081   5.104   3.659   0.303 -0.4238 -0.0472 -0.9260
 5482TIP3    H238082   5.214   3.665   0.199 -1.7746 -0.3958 -2.4150
 5483TIP3   OH238083   1.709   5.073   1.447 -0.5611 -0.5632  0.2449
 5483TIP3    H138084   1.747   5.157   1.422 -2.3149  0.2097  0.0283
 5483TIP3    H238085   1.693   5.081   1.541 -0.2871 -0.8323  0.3141
 5484TIP3   OH238086   2.623   6.096   1.767 -0.6075 -0.7560 -0.1020
 5484TIP3    H138087   2.553   6.160   1.755 -1.0075 -1.1866 -0.1425
 5484TIP3    H238088   2.644   6.100   1.860  0.5282  0.5975 -0.3992
 5485TIP3   OH238089   1.740   6.570   1.063 -0.0247  0.3545  0.0295
 5485TIP3    H138090   1.669   6.514   1.093  0.4382  0.6096  1.7349
 5485TIP3    H238091   1.748   6.552   0.969 -1.1764 -0.9450  0.1564
 5486TIP3   OH238092   0.804   5.355   1.451  0.4195  0.0295 -0.3345
 5486TIP3    H138093   0.890   5.382   1.482  0.3632 -0.1951  0.0184
 5486TIP3    H238094   0.751   5.350   1.530 -0.3563  1.7086 -0.6965
 5487TIP3   OH238095   6.339   0.783   1.270 -0.0352  0.0645 -0.3242
 5487TIP3    H138096   6.299   0.869   1.259 -1.2980 -0.2133  1.6354
 5487TIP3    H238097   6.392   0.791   1.349 -2.8916 -1.7639  1.9839
 5488TIP3   OH238098   3.039   5.665   8.768  0.7843 -0.0711 -0.5532
 5488TIP3    H138099   3.056   5.632   8.857  0.2245  2.7767  0.7285
 5488TIP3    H238100   2.951   5.634   8.747  1.1765 -1.3193 -0.4146
 5489TIP3   OH238101   1.570   2.593   2.444 -0.4298 -0.6325 -0.0582
 5489TIP3    H138102   1.569   2.605   2.349  1.4933  0.5636  0.0178
 5489TIP3    H238103   1.658   2.559   2.463 -0.1083  0.9004  1.4500
 5490TIP3   OH238104   6.018   1.995   0.628 -0.0396 -0.0299  0.6820
 5490TIP3    H138105   5.995   1.904   0.608  2.5345 -0.4811 -0.6681
 5490TIP3    H238106   5.984   2.044   0.553  0.3378 -0.1903  0.4008
 5491TIP3   OH238107   5.204   2.341   3.145  0.2318  0.4914  0.0652
 5491TIP3    H138108   5.186   2.427   3.107  0.5197  0.7132  0.4138
 5491TIP3    H238109   5.284   2.355   3.197  0.3399 -0.0126  0.0343
 5492TIP3   OH238110   4.051   4.494   2.428  0.4834 -0.0661 -0.0825
 5492TIP3    H138111   4.136   4.450   2.418  0.3554 -0.3433  0.0383
 5492TIP3    H238112   4.025   4.517   2.339  2.1236  2.7809  0.0492
 5493TIP3   OH238113   5.309   4.840   0.667 -0.3091  0.0221 -0.0378
 5493TIP3    H138114   5.285   4.861   0.577 -0.3965  0.8012  0.1587
 5493TIP3    H238115   5.373   4.908   0.691 -1.2107  0.5658  0.8972
 5494TIP3   OH238116   3.532   4.975   0.909  0.4761 -0.3261  1.0060
 5494TIP3    H138117   3.618   4.981   0.868  0.2487  0.2012  0.5925
 5494TIP3    H238118   3.550   4.968   1.003  0.9473  0.5861  0.9929
 5495TIP3   OH238119   2.149   5.655   1.658  0.4159  0.5115 -0.2911
 5495TIP3    H138120   2.167   5.699   1.575  2.9242 -1.4379 -0.9215
 5495TIP3    H238121   2.191   5.711   1.724  0.8139  0.6874 -0.6876
 5496TIP3   OH238122   6.586   2.865   0.527 -0.3848 -0.6372  0.0536
 5496TIP3    H138123   6.498   2.904   0.533  0.1775  0.6713 -0.0729
 5496TIP3    H238124   6.645   2.939   0.515  0.7288 -1.5274 -0.1164
 5497TIP3   OH238125   1.095   0.554   0.938  0.6809  0.2524 -0.5684
 5497TIP3    H138126   1.082   0.589   0.850  0.5426 -0.8660 -1.0081
 5497TIP3    H238127   1.145   0.474   0.925 -0.8309 -0.8742  0.1958
 5498TIP3   OH238128   6.542   0.707   0.086 -0.0843  0.3163  0.1648
 5498TIP3    H138129   6.482   0.647   0.130  0.4950 -0.0598  0.4641
 5498TIP3    H238130   6.551   0.781   0.147 -0.8511  0.7477 -0.2346
 5499TIP3   OH238131   3.964   4.751   1.915  0.3406 -0.4908 -0.3046
 5499TIP3    H138132   3.898   4.820   1.912  0.9240  0.0782 -0.1702
 5499TIP3    H238133   3.974   4.724   1.824  0.6572  0.1383 -0.4646
 5500TIP3   OH238134   5.211   1.737   0.430  0.2022  0.1130  0.3213
 5500TIP3    H138135   5.178   1.767   0.515 -1.2097  0.3371 -0.2803
 5500TIP3    H238136   5.141   1.756   0.368  0.3640 -1.8557 -0.5740
 5501TIP3   OH238137   1.250   4.346   0.889 -0.1174  0.3382  0.1762
 5501TIP3    H138138   1.252   4.414   0.956 -0.3500  3.9058 -3.0806
 5501TIP3    H238139   1.319   4.372   0.827 -1.3432 -1.4240 -2.0831
 5502TIP3   OH238140   0.352   0.257   3.349 -0.4989 -0.2487  0.1047
 5502TIP3    H138141   0.354   0.302   3.433  2.0078  0.6097 -0.3300
 5502TIP3    H238142   0.324   0.168   3.370 -1.2674  0.3159  1.6139
 5503TIP3   OH238143   2.043   5.882   1.923  0.1941  0.3827 -0.0128
 5503TIP3    H138144   2.085   5.857   2.005  0.3853 -0.5388 -0.3800
 5503TIP3    H238145   1.979   5.948   1.948 -0.2365 -0.3901  0.9940
 5504TIP3   OH238146   4.259   0.674   2.447  0.2322 -0.5265 -0.2047
 5504TIP3    H138147   4.244   0.688   2.541  0.4466 -0.1811 -0.2194
 5504TIP3    H238148   4.264   0.579   2.437  1.4830 -0.5429  0.3473
 5505TIP3   OH238149   4.850   5.442   3.093 -0.3494  0.3160 -0.1675
 5505TIP3    H138150   4.934   5.477   3.064 -1.5608  1.0704 -3.1972
 5505TIP3    H238151   4.845   5.464   3.186  2.2683  1.2972 -0.1889
 5506TIP3   OH238152   2.819   1.882   0.784  0.2190  0.3565  0.4874
 5506TIP3    H138153   2.742   1.843   0.742  0.1693  1.1493 -0.1988
 5506TIP3    H238154   2.839   1.824   0.857  0.3398 -1.1216 -0.6642
 5507TIP3   OH238155   5.583   3.704   2.535 -0.5145  0.2001  0.0806
 5507TIP3    H138156   5.538   3.620   2.544  1.7510 -0.9095  1.9719
 5507TIP3    H238157   5.583   3.741   2.624  2.0945  0.1976  0.1480
 5508TIP3   OH238158   4.528   5.585   1.041 -0.2972 -0.6498 -0.2662
 5508TIP3    H138159   4.487   5.558   0.958  1.4251 -3.2680 -0.3885
 5508TIP3    H238160   4.617   5.611   1.017  0.5547 -2.3986  0.8195
 5509TIP3   OH238161   2.487   5.021   2.359  0.1279  0.3959  0.1313
 5509TIP3    H138162   2.493   5.110   2.393  1.4173  0.9259 -1.3830
 5509TIP3    H238163   2.405   5.020   2.309  0.2721  0.8409 -0.1194
 5510TIP3   OH238164   1.387   1.811   7.475 -0.0295 -0.2839  0.5632
 5510TIP3    H138165   1.322   1.804   7.404  2.0758 -2.3092 -1.3480
 5510TIP3    H238166   1.348   1.762   7.547 -1.1413 -0.4099 -0.0861
 5511TIP3   OH238167   0.774   5.914   3.038  0.6486 -0.1047  0.2948
 5511TIP3    H138168   0.797   5.859   3.114  1.7249  2.0118  1.6052
 5511TIP3    H238169   0.710   5.976   3.073 -1.6290 -1.3207 -1.5089
 5512TIP3   OH238170   4.967   5.907   0.034 -0.3056 -0.3005  0.1879
 5512TIP3    H138171   4.904   5.962   0.079  0.2966  1.6373 -1.2189
 5512TIP3    H238172   5.052   5.947   0.052  0.1589 -0.7736 -0.8191
 5513TIP3   OH238173   4.856   4.943   0.766  0.5660 -0.9330 -0.0270
 5513TIP3    H138174   4.870   5.027   0.811  0.4583 -1.7232  1.5656
 5513TIP3    H238175   4.896   4.955   0.680 -1.0922  1.3669 -0.5725
 5514TIP3   OH238176   2.916   2.934   2.704 -0.8452 -0.0517  0.1790
 5514TIP3    H138177   2.969   2.856   2.689 -0.1167  0.0692  1.8875
 5514TIP3    H238178   2.978   2.999   2.738 -1.6367  0.9280 -0.1933
 5515TIP3   OH238179   1.566   2.069   3.130  0.7336  0.2582 -0.1106
 5515TIP3    H138180   1.637   2.104   3.076 -1.0946  0.6729 -2.4162
 5515TIP3    H238181   1.608   2.004   3.186  2.8692  0.2583 -1.5847
 5516TIP3   OH238182   0.238   2.645   3.411  0.2739 -0.5589 -0.2191
 5516TIP3    H138183   0.256   2.675   3.500  1.4893 -1.2788 -0.2035
 5516TIP3    H238184   0.273   2.714   3.355 -1.6202  0.5053 -0.1633
 5517TIP3   OH238185   0.184   1.939   8.590 -0.0241  0.0337  0.0725
 5517TIP3    H138186   0.272   1.903   8.591  0.3200  0.8745  0.9853
 5517TIP3    H238187   0.195   2.032   8.569 -0.6998  0.1130  0.0217
 5518TIP3   OH238188   2.828   1.415   2.508  0.2091 -0.0646  0.0553
 5518TIP3    H138189   2.813   1.443   2.418 -1.3673  0.4494  0.4581
 5518TIP3    H238190   2.744   1.381   2.537  1.0148 -1.4196  0.9407
 5519TIP3   OH238191   2.274   6.219   2.567 -0.4892  0.4577 -0.0985
 5519TIP3    H138192   2.303   6.180   2.649 -2.1384 -0.8026 -0.0473
 5519TIP3    H238193   2.181   6.195   2.561 -0.7255  1.6151 -1.7050
 5520TIP3   OH238194   2.633   0.183   4.046  0.8481 -0.1341  0.4894
 5520TIP3    H138195   2.691   0.183   4.122  1.8938 -0.5681 -0.2806
 5520TIP3    H238196   2.687   0.217   3.975  0.6523 -1.9093 -0.5763
 5521TIP3   OH238197   5.900   4.739   0.269  0.2983  0.8439  0.1110
 5521TIP3    H138198   5.896   4.646   0.295  0.6284  0.8225  0.0886
 5521TIP3    H238199   5.991   4.752   0.242 -0.1491  0.7340 -1.5472
 5522TIP3   OH238200   6.523   0.160   1.301 -0.6479 -0.1625 -0.3039
 5522TIP3    H138201   6.606   0.192   1.336  0.9661 -2.1677 -1.9818
 5522TIP3    H238202   6.478   0.238   1.268  1.4852  0.8110 -1.1015
 5523TIP3   OH238203   1.869   5.505   0.260 -0.3458 -0.3804  0.0174
 5523TIP3    H138204   1.867   5.554   0.177  1.0291 -1.5524 -0.7551
 5523TIP3    H238205   1.779   5.508   0.291 -0.8564  0.2776 -1.4215
 5524TIP3   OH238206   6.631   2.302   1.936 -0.5367  0.4640  0.3905
 5524TIP3    H138207   6.619   2.357   1.859 -1.4751  1.6362  1.3303
 5524TIP3    H238208   6.557   2.323   1.992 -0.7419 -1.5312  0.9464
 5525TIP3   OH238209   0.670   0.094   1.176 -0.2391 -0.2311 -0.2611
 5525TIP3    H138210   0.739   0.159   1.191 -0.8504  0.3549  0.0864
 5525TIP3    H238211   0.660   0.051   1.261 -0.5364 -0.0833 -0.2229
 5526TIP3   OH238212   5.368   5.753   3.368  0.1615 -0.4879 -0.0317
 5526TIP3    H138213   5.372   5.791   3.456 -1.2645 -2.7061  1.0603
 5526TIP3    H238214   5.452   5.708   3.358  0.6702  0.4747 -0.1636
 5527TIP3   OH238215   1.586   3.349   0.646  0.5506  0.7943 -0.3125
 5527TIP3    H138216   1.664   3.382   0.602  0.7425  0.1416 -0.4655
 5527TIP3    H238217   1.515   3.407   0.617  0.9998  1.5108 -0.0240
 5528TIP3   OH238218   4.242   0.866   3.713  0.2859  0.0163  0.2447
 5528TIP3    H138219   4.154   0.869   3.677  0.9546  2.4930 -1.4642
 5528TIP3    H238220   4.291   0.810   3.652 -0.2620 -2.2838  1.8052
 5529TIP3   OH238221   0.286   4.157   2.733 -0.5116  0.2182  0.0003
 5529TIP3    H138222   0.294   4.145   2.638  0.2796  2.5631 -0.3070
 5529TIP3    H238223   0.352   4.223   2.754 -1.2837  0.4060  2.0454
 5530TIP3   OH238224   4.633   0.474   1.583 -0.7639  0.0796  0.2247
 5530TIP3    H138225   4.688   0.397   1.567  1.2476  1.6535 -0.9860
 5530TIP3    H238226   4.612   0.470   1.676  2.4854 -0.0235  1.0769
 5531TIP3   OH238227   5.713   4.801   1.739  0.7640 -0.2857 -0.1180
 5531TIP3    H138228   5.683   4.710   1.731 -2.3088  0.6349 -0.5839
 5531TIP3    H238229   5.633   4.853   1.729  2.3906  2.4879  0.2951
 5532TIP3   OH238230   1.159   3.407   3.398  1.0423  0.0532  0.5513
 5532TIP3    H138231   1.080   3.374   3.440 -0.1617 -1.3193 -2.4976
 5532TIP3    H238232   1.200   3.463   3.464 -2.2945  0.5911  2.3854
 5533TIP3   OH238233   5.965   5.041   2.780  0.5049 -0.2597 -0.0686
 5533TIP3    H138234   5.891   4.992   2.743  0.0693  0.7461 -0.5752
 5533TIP3    H238235   6.025   4.974   2.812 -0.3286 -1.1093 -0.2458
 5534TIP3   OH238236   4.978   0.142   1.504 -0.2635  0.4799 -0.5773
 5534TIP3    H138237   5.044   0.202   1.540  1.7259 -0.5349 -2.2839
 5534TIP3    H238238   5.021   0.103   1.428 -2.1487 -1.7529 -0.5986
 5535TIP3   OH238239   0.773   0.543   0.393 -0.1272 -0.1457 -0.0805
 5535TIP3    H138240   0.850   0.597   0.409 -0.6922  0.2843  1.4124
 5535TIP3    H238241   0.703   0.586   0.444 -0.9374 -1.4489 -0.0470
 5536TIP3   OH238242   4.721   6.097   3.464 -0.1019 -0.1410 -0.7542
 5536TIP3    H138243   4.661   6.025   3.482 -0.7776  0.5975  0.0981
 5536TIP3    H238244   4.804   6.072   3.504 -0.8389  0.3118  1.1595
 5537TIP3   OH238245   3.208   0.956   8.634  0.0945  0.1753  0.7484
 5537TIP3    H138246   3.209   0.919   8.722  0.3827  1.6120  1.3878
 5537TIP3    H238247   3.279   1.021   8.634  3.4893 -3.0945 -2.1031
 5538TIP3   OH238248   5.009   4.382   8.144  0.1610 -0.6770 -0.1853
 5538TIP3    H138249   4.929   4.343   8.110 -0.6433  1.0440 -0.3872
 5538TIP3    H238250   5.079   4.346   8.090 -0.7522 -0.3688 -1.6364
 5539TIP3   OH238251   5.424   0.032   2.450  1.0960 -0.2994 -0.0552
 5539TIP3    H138252   5.452   0.073   2.368 -2.0122  1.5033 -0.3488
 5539TIP3    H238253   5.373  -0.044   2.422  1.0227 -0.3670  0.2664
 5540TIP3   OH238254   2.080   4.721   2.141 -0.6612 -0.8426  0.5726
 5540TIP3    H138255   2.057   4.692   2.230 -0.5366 -0.9426  0.5727
 5540TIP3    H238256   2.058   4.647   2.085  0.3886 -1.2464  0.6669
 5541TIP3   OH238257   3.421   4.893   0.520  0.0698 -0.0760  0.6392
 5541TIP3    H138258   3.373   4.816   0.550  0.0670 -0.2165  0.2772
 5541TIP3    H238259   3.417   4.954   0.594 -0.6369 -0.1006  0.6310
 5542TIP3   OH238260   4.267   4.324   2.066  0.3892  0.0707 -0.2211
 5542TIP3    H138261   4.350   4.364   2.040 -0.7135  0.9679 -2.6176
 5542TIP3    H238262   4.205   4.349   1.997 -2.1620  0.3433  2.0055
 5543TIP3   OH238263   6.561   1.437   1.006 -0.4320  0.0981  0.1581
 5543TIP3    H138264   6.508   1.406   1.080  0.6315  0.4855  1.1135
 5543TIP3    H238265   6.592   1.357   0.964 -0.2854 -0.1405  0.7055
 5544TIP3   OH238266   0.776   2.536   0.598  0.5318  0.8482  0.0459
 5544TIP3    H138267   0.767   2.631   0.599 -0.0353  0.8026  1.7031
 5544TIP3    H238268   0.777   2.511   0.690 -0.8112 -0.8947 -0.3716
 5545TIP3   OH238269   2.804   3.168   1.510 -0.0942  0.1950  0.1251
 5545TIP3    H138270   2.859   3.229   1.560  1.5401  1.0925 -2.5286
 5545TIP3    H238271   2.730   3.221   1.482  0.9019  0.8306 -1.4680
 5546TIP3   OH238272   2.911   0.180   2.986  0.2637 -0.2070 -0.1750
 5546TIP3    H138273   2.835   0.130   2.957  0.7008 -2.3351  1.9663
 5546TIP3    H238274   2.898   0.189   3.081  1.6543  1.2710 -0.0900
 5547TIP3   OH238275   3.828   5.384   2.847  1.1792 -0.0374 -0.1171
 5547TIP3    H138276   3.801   5.296   2.874 -1.0294  0.7445  0.4374
 5547TIP3    H238277   3.855   5.374   2.756 -0.0689 -1.1182 -0.3922
 5548TIP3   OH238278   1.265   1.124   2.039  0.2323 -0.2601 -0.0603
 5548TIP3    H138279   1.304   1.185   1.976 -0.9044 -1.0431 -1.5648
 5548TIP3    H238280   1.250   1.177   2.117  0.8684  0.9510 -0.7269
 5549TIP3   OH238281   6.064   3.428   0.610  0.6593 -0.9085 -0.0340
 5549TIP3    H138282   6.112   3.377   0.675  0.1513 -1.6141 -0.1936
 5549TIP3    H238283   6.001   3.366   0.572  1.6741 -0.8362 -1.9885
 5550TIP3   OH238284   3.902   5.903   8.168  0.5019 -0.3530 -0.4451
 5550TIP3    H138285   3.951   5.847   8.107  2.6179 -0.3165  1.1069
 5550TIP3    H238286   3.838   5.949   8.113  1.0750 -1.6640 -2.3083
 5551TIP3   OH238287   3.244   4.392   0.903 -0.6746  0.1444  0.0449
 5551TIP3    H138288   3.211   4.458   0.964 -0.2043  0.2182  0.2260
 5551TIP3    H238289   3.339   4.394   0.915 -0.6129 -0.1557 -0.3700
 5552TIP3   OH238290   0.526   1.893   2.351 -0.5845 -0.1054  0.6356
 5552TIP3    H138291   0.585   1.898   2.275  0.0924 -1.4385  1.0526
 5552TIP3    H238292   0.444   1.859   2.315  0.2387 -2.3480  0.7121
 5553TIP3   OH238293   1.290   3.117   0.109 -0.7749 -0.0658  0.2551
 5553TIP3    H138294   1.222   3.158   0.056 -0.8688  0.0604  0.4694
 5553TIP3    H238295   1.304   3.031   0.069  0.5533  0.7542 -1.1674
 5554TIP3   OH238296   3.998   0.717   2.940  0.4819 -0.0713 -0.2942
 5554TIP3    H138297   3.906   0.738   2.919  0.1713 -1.5450 -0.5387
 5554TIP3    H238298   3.992   0.651   3.009  1.4305  1.2451  1.0913
 5555TIP3   OH238299   3.341   4.783   0.810 -0.0865 -0.2291 -0.8728
 5555TIP3    H138300   3.426   4.825   0.799  0.7366 -0.9879  1.8866
 5555TIP3    H238301   3.338   4.716   0.742  0.9015  0.6813 -1.8582
 5556TIP3   OH238302   1.397   2.006   8.007 -0.3401 -0.4658 -0.5363
 5556TIP3    H138303   1.446   1.948   7.949  1.9731  1.7974 -1.0574
 5556TIP3    H238304   1.392   2.089   7.959 -2.1606  0.2349  0.7682
 5557TIP3   OH238305   3.927   4.013   2.884  0.0752 -0.4095  0.1662
 5557TIP3    H138306   3.938   4.060   2.802 -0.8641 -2.1840 -1.0365
 5557TIP3    H238307   3.995   4.048   2.941  0.4074  1.2440 -1.1588
 5558TIP3   OH238308   4.847   1.972   1.166 -0.2447 -0.0926  0.6409
 5558TIP3    H138309   4.898   1.947   1.089 -0.6295  1.2731 -0.0932
 5558TIP3    H238310   4.758   1.987   1.132 -0.4792  0.2573  1.3923
 5559TIP3   OH238311   4.594   1.957   1.581  0.3914  0.6166 -0.2561
 5559TIP3    H138312   4.647   2.031   1.549  1.8697  0.4052  1.5494
 5559TIP3    H238313   4.654   1.907   1.635 -0.8894 -1.3478 -0.5631
 5560TIP3   OH238314   4.081   4.073   0.346 -0.1044  0.4034 -0.2067
 5560TIP3    H138315   4.006   4.014   0.335 -0.1344  0.6532 -1.5781
 5560TIP3    H238316   4.119   4.079   0.258  1.2615  0.6432  0.3869
 5561TIP3   OH238317   5.964   6.711   0.086  0.2638 -0.1943 -0.1764
 5561TIP3    H138318   6.044   6.682   0.129 -1.0577 -2.1065  1.1530
 5561TIP3    H238319   5.920   6.630   0.060 -1.2315  0.8024 -0.9194
 5562TIP3   OH238320   5.425   6.804   3.649 -0.4180  0.5342 -0.0563
 5562TIP3    H138321   5.493   6.841   3.704  0.4347 -0.4728 -0.4079
 5562TIP3    H238322   5.363   6.877   3.635  0.4858  1.4098  0.3949
 5563TIP3   OH238323   5.518   4.993   0.002 -0.2956 -0.2435 -0.0497
 5563TIP3    H138324   5.457   4.932  -0.039 -0.5052 -1.9449  2.5476
 5563TIP3    H238325   5.463   5.044   0.062  0.4534 -0.1468  0.5766
 5564TIP3   OH238326   0.945   2.215   3.032  0.2726  0.8070 -0.0831
 5564TIP3    H138327   0.908   2.302   3.017  3.3432  2.2370 -0.1482
 5564TIP3    H238328   1.034   2.232   3.063  0.2552 -2.3189  2.1632
 5565TIP3   OH238329   0.572   2.033   1.712  0.4126  0.4948  0.3394
 5565TIP3    H138330   0.587   1.943   1.740 -1.0990  0.1976  0.2603
 5565TIP3    H238331   0.491   2.030   1.662  1.0768  1.6698 -0.8946
 5566TIP3   OH238332   6.675   2.108   8.137  0.6397  0.2900 -0.3261
 5566TIP3    H138333   6.621   2.044   8.184  0.8944  0.7905  0.6911
 5566TIP3    H238334   6.697   2.065   8.054 -0.3613 -0.3653 -0.2648
 5567TIP3   OH238335   0.762   5.438   3.190  0.2701  0.0889 -0.2270
 5567TIP3    H138336   0.783   5.434   3.097 -0.6246  0.6284 -0.4642
 5567TIP3    H238337   0.847   5.450   3.233  0.5199  2.1467 -1.1446
 5568TIP3   OH238338   4.404   3.484   8.427  0.3353 -0.0506  0.7939
 5568TIP3    H138339   4.439   3.415   8.483 -0.0423 -1.8292 -1.0769
 5568TIP3    H238340   4.345   3.534   8.484 -1.1575 -2.6588  1.6728
 5569TIP3   OH238341   0.255   6.470   8.516  0.2337 -0.2880  0.1388
 5569TIP3    H138342   0.330   6.418   8.488  0.3932 -0.5660  1.0360
 5569TIP3    H238343   0.179   6.415   8.495  0.4201 -1.1262  1.4863
 5570TIP3   OH238344   0.991   2.414   2.796  0.2751  0.1996  0.6702
 5570TIP3    H138345   1.084   2.440   2.794  0.2167  0.3874 -0.7339
 5570TIP3    H238346   0.993   2.320   2.782  0.2578  0.2041  0.6381
 5571TIP3   OH238347   4.680   2.139   0.387  0.4263 -0.0094  0.5190
 5571TIP3    H138348   4.700   2.047   0.370 -0.2490 -0.3281  1.3769
 5571TIP3    H238349   4.591   2.138   0.423  0.7547  0.8875  1.3987
 5572TIP3   OH238350   2.536   6.432   1.524  0.3307  0.1731  0.3503
 5572TIP3    H138351   2.542   6.521   1.558 -3.9042  1.2914 -1.1830
 5572TIP3    H238352   2.471   6.389   1.580  0.2430 -1.0215 -0.6196
 5573TIP3   OH238353   3.402   6.155   0.864  0.5931 -0.3929 -0.2678
 5573TIP3    H138354   3.405   6.141   0.770  2.8844 -0.2604 -0.2734
 5573TIP3    H238355   3.443   6.241   0.877 -0.9550  0.2389  0.7740
 5574TIP3   OH238356   5.272   3.734   0.025  0.4790  0.1931  0.1237
 5574TIP3    H138357   5.353   3.727  -0.025 -0.3961 -1.3855 -1.1909
 5574TIP3    H238358   5.218   3.796  -0.025  0.5580  0.5779  0.5167
 5575TIP3   OH238359   0.068   5.691   8.683 -0.4489 -1.0866  0.0971
 5575TIP3    H138360   0.067   5.633   8.607 -1.9608 -0.1730 -0.6265
 5575TIP3    H238361  -0.021   5.685   8.719 -0.5965  0.6055  0.1034
 5576TIP3   OH238362   0.614   4.399   2.372 -0.5591 -0.1047  0.1924
 5576TIP3    H138363   0.580   4.346   2.301 -0.4915  0.1359 -0.0200
 5576TIP3    H238364   0.556   4.475   2.376 -0.7442 -0.2614  0.5906
 5577TIP3   OH238365   1.432   1.812   2.927 -0.9633  0.3695  0.1339
 5577TIP3    H138366   1.366   1.874   2.957 -0.4882  0.6032  0.7105
 5577TIP3    H238367   1.505   1.867   2.896  0.2408  0.1346  2.3743
 5578TIP3   OH238368   5.980   3.254   2.281 -0.0519 -0.9097  0.2293
 5578TIP3    H138369   6.037   3.313   2.231 -1.4765  2.3856  2.1774
 5578TIP3    H238370   6.032   3.175   2.294  2.2583  0.1210 -1.9813
 5579TIP3   OH238371   5.685   5.303   8.520 -0.4626 -0.2449 -0.3703
 5579TIP3    H138372   5.605   5.249   8.517 -1.4991  1.1139  1.1059
 5579TIP3    H238373   5.709   5.304   8.612 -0.5498  1.8713 -0.3252
 5580TIP3   OH238374   3.723   5.274   8.303  0.3278 -0.3217 -0.8767
 5580TIP3    H138375   3.739   5.346   8.363  0.7946 -2.0373  1.1750
 5580TIP3    H238376   3.785   5.288   8.232  1.8329  0.2310  0.4687
 5581TIP3   OH238377   0.987   3.915   0.854 -0.1528 -0.0942  0.1185
 5581TIP3    H138378   1.007   3.831   0.812  0.9823 -0.0045  0.4370
 5581TIP3    H238379   1.037   3.979   0.803  0.3315  0.1609  0.9057
 5582TIP3   OH238380   2.165   2.656   2.481  0.1587 -0.3751  0.4142
 5582TIP3    H138381   2.213   2.732   2.448 -2.4256  1.4747  0.7064
 5582TIP3    H238382   2.080   2.659   2.437 -1.8207 -0.2846  3.9101
 5583TIP3   OH238383   6.264   3.605   8.643  0.4280  0.6303 -0.4408
 5583TIP3    H138384   6.220   3.647   8.569 -2.3148 -1.2168  0.0169
 5583TIP3    H238385   6.276   3.514   8.616 -3.1684 -0.8435  2.2142
 5584TIP3   OH238386   2.914   0.484   1.968 -0.4442 -0.5531 -0.1499
 5584TIP3    H138387   2.834   0.430   1.971 -1.9783  1.6264  0.3463
 5584TIP3    H238388   2.891   0.558   1.913  1.4522 -0.1104 -0.4156
 5585TIP3   OH238389   3.916   6.374   0.588 -0.2923  0.0698 -0.1872
 5585TIP3    H138390   3.889   6.378   0.496  0.2705 -1.8754 -0.4775
 5585TIP3    H238391   3.879   6.291   0.620  1.9176 -0.7262  0.5067
 5586TIP3   OH238392   2.211   0.916   0.566  0.2844  0.0234 -0.0547
 5586TIP3    H138393   2.144   0.968   0.523  0.5076 -0.1993 -0.6831
 5586TIP3    H238394   2.285   0.915   0.505  0.9385  0.4097  0.6984
 5587TIP3   OH238395   0.355   4.929   1.432 -0.2416  0.1188 -0.3490
 5587TIP3    H138396   0.365   4.838   1.461 -2.0362  0.4950  1.7402
 5587TIP3    H238397   0.350   4.923   1.337 -1.7844 -2.1694 -0.2234
 5588TIP3   OH238398   2.066   4.958   2.728 -0.8419  0.0721  0.3540
 5588TIP3    H138399   2.004   4.903   2.776 -0.1969  0.7811  2.0946
 5588TIP3    H238400   2.031   5.046   2.736 -0.4544  0.2689 -0.0586
 5589TIP3   OH238401   4.425   0.094   2.201  0.2207  0.2701  0.2318
 5589TIP3    H138402   4.387   0.007   2.216 -1.5264  0.9782  0.1824
 5589TIP3    H238403   4.427   0.135   2.287 -2.5676  1.5160 -0.1798
 5590TIP3   OH238404   1.538   1.172   3.300 -0.0594  0.5923  0.1506
 5590TIP3    H138405   1.463   1.222   3.269 -0.5150 -0.7253 -0.9901
 5590TIP3    H238406   1.527   1.168   3.395 -0.4361  1.9256  0.1831
 5591TIP3   OH238407   1.438   0.053   1.464  0.4082 -0.5423 -0.1206
 5591TIP3    H138408   1.371   0.121   1.469 -0.0845 -1.1278  2.8896
 5591TIP3    H238409   1.520   0.100   1.449  0.0602  0.7518  1.7902
 5592TIP3   OH238410   6.160   5.624   2.530  0.1595  0.5756  0.4620
 5592TIP3    H138411   6.122   5.659   2.611 -0.7376  0.1605  0.2412
 5592TIP3    H238412   6.092   5.638   2.464  0.3997 -0.1633  0.0458
 5593TIP3   OH238413   3.168   3.642   7.830  0.3883 -0.3216 -0.3498
 5593TIP3    H138414   3.110   3.714   7.856 -0.9247 -1.2161 -0.7411
 5593TIP3    H238415   3.132   3.610   7.747  1.9226 -0.3960 -1.0409
 5594TIP3   OH238416   1.372   0.367   2.676 -0.1858  0.3941  0.0606
 5594TIP3    H138417   1.413   0.325   2.600  0.1214  0.5756  0.1224
 5594TIP3    H238418   1.442   0.423   2.713 -0.8924  1.8140 -0.6642
 5595TIP3   OH238419   3.678   6.817   0.023  0.0378 -0.2697  0.1933
 5595TIP3    H138420   3.640   6.905   0.023 -1.2267 -0.8031  0.2430
 5595TIP3    H238421   3.748   6.822  -0.042 -0.1284  0.7251  0.0702
 5596TIP3   OH238422   0.333   4.749   3.114 -0.6326 -0.0238  0.2884
 5596TIP3    H138423   0.400   4.802   3.155 -1.7900  0.3388  1.8122
 5596TIP3    H238424   0.261   4.810   3.096 -1.2091 -0.6902  0.2435
 5597TIP3   OH238425   5.259   3.807   1.679  0.4429 -0.1357 -0.6070
 5597TIP3    H138426   5.222   3.861   1.609  2.2059  2.0650  0.0759
 5597TIP3    H238427   5.205   3.827   1.756 -0.1767 -0.9623 -0.8059
 5598TIP3   OH238428   4.985   0.388   1.280 -0.3087  0.0436  0.0016
 5598TIP3    H138429   5.017   0.472   1.247 -2.2810  1.3392  1.2343
 5598TIP3    H238430   5.065   0.342   1.308  0.8596  1.2482 -1.2156
 5599TIP3   OH238431   0.094   4.223   2.238  0.4549  0.1178 -0.2127
 5599TIP3    H138432   0.026   4.200   2.175  0.8203  0.3126 -0.6784
 5599TIP3    H238433   0.136   4.301   2.201  0.8781  0.0477  0.1125
 5600TIP3   OH238434   1.838   0.741   8.208 -0.2781 -0.0260  0.1541
 5600TIP3    H138435   1.842   0.653   8.171 -0.2047 -0.2559  0.7084
 5600TIP3    H238436   1.922   0.752   8.253 -1.3831 -0.7839  2.5725
 5601TIP3   OH238437   3.343   6.307   8.003  0.1360  0.0190 -0.4107
 5601TIP3    H138438   3.267   6.254   8.024  0.8203 -1.6205 -1.7972
 5601TIP3    H238439   3.308   6.379   7.950 -0.6165  0.1353  0.2276
 5602TIP3   OH238440   6.081   1.416   1.513  0.4324  0.1202  0.3864
 5602TIP3    H138441   5.994   1.454   1.527 -0.3624 -1.8863  1.2533
 5602TIP3    H238442   6.125   1.425   1.597  1.5671  2.1618 -0.3486
 5603TIP3   OH238443   1.434   0.262   2.449 -0.9208  0.2548  0.5471
 5603TIP3    H138444   1.436   0.286   2.356 -1.0279 -0.2339  0.4164
 5603TIP3    H238445   1.405   0.170   2.450 -1.6056  0.4656  1.1025
 5604TIP3   OH238446   6.227   3.913   0.720  0.6112  0.3994 -0.7936
 5604TIP3    H138447   6.271   3.919   0.805  0.4639 -0.1417 -0.6752
 5604TIP3    H238448   6.159   3.847   0.733 -1.3521  2.3614 -0.4858
 5605TIP3   OH238449   6.746   4.531   0.663  0.0020  0.4040 -0.3501
 5605TIP3    H138450   6.766   4.526   0.756 -1.5941  1.4416  0.0936
 5605TIP3    H238451   6.666   4.480   0.652 -0.0910  0.6852 -1.0637
 5606TIP3   OH238452   0.074   3.456   0.375 -0.4282  0.0989  0.5383
 5606TIP3    H138453   0.003   3.415   0.424 -0.6878  1.1269  1.0587
 5606TIP3    H238454   0.086   3.541   0.418  1.8417 -0.4758  1.1458
 5607TIP3   OH238455   4.966   1.804   2.644  0.2019 -0.2668 -0.6312
 5607TIP3    H138456   4.927   1.738   2.701  1.3134 -1.1393 -0.8313
 5607TIP3    H238457   4.997   1.872   2.704  0.2493 -0.5766 -0.2983
 5608TIP3   OH238458   2.992   0.861   0.563 -0.0617  0.0936  0.6015
 5608TIP3    H138459   2.916   0.836   0.510 -0.0285 -0.7332  0.9252
 5608TIP3    H238460   2.955   0.894   0.644 -0.1241  1.7143 -0.0547
 5609TIP3   OH238461   6.386   5.406   2.102 -0.1432 -0.1856  0.0153
 5609TIP3    H138462   6.367   5.415   2.195  3.0533  0.2169  0.7373
 5609TIP3    H238463   6.351   5.319   2.079  0.9665 -1.2947  2.1884
 5610TIP3   OH238464   5.949   0.796   0.847 -0.1811  0.3386  0.9834
 5610TIP3    H138465   5.900   0.797   0.765  0.6473 -0.5072  0.4591
 5610TIP3    H238466   5.882   0.794   0.915 -0.8752  1.0786  0.3390
 5611TIP3   OH238467   4.030   6.049   1.691 -0.0908 -0.2807 -0.2362
 5611TIP3    H138468   4.117   6.077   1.718 -0.6809 -0.8874  2.5402
 5611TIP3    H238469   4.041   5.956   1.668  0.0346 -0.2741 -0.2022
 5612TIP3   OH238470   3.789   4.269   2.196 -0.1848  0.5869  0.6839
 5612TIP3    H138471   3.785   4.324   2.273  0.2460  0.1172  1.0495
 5612TIP3    H238472   3.702   4.230   2.190 -0.5282  1.3853  0.3542
 5613TIP3   OH238473   0.498   0.577   0.779 -0.5889  0.4440 -0.2385
 5613TIP3    H138474   0.500   0.599   0.686  0.2267  0.6117 -0.1868
 5613TIP3    H238475   0.430   0.510   0.786  1.5465 -2.0440 -1.5190
 5614TIP3   OH238476   5.345   6.443   1.318 -0.0645 -0.4113 -0.4589
 5614TIP3    H138477   5.269   6.386   1.332  0.0716 -0.2569  1.1072
 5614TIP3    H238478   5.315   6.510   1.257 -0.9074 -0.8743 -0.5584
 5615TIP3   OH238479   1.874   3.640   2.082 -0.3078  0.2208  0.5667
 5615TIP3    H138480   1.913   3.556   2.058  0.0947  0.8402 -1.1215
 5615TIP3    H238481   1.892   3.649   2.175  1.0939 -0.8284  0.4355
 5616TIP3   OH238482   4.438   3.296   2.679  0.5767  0.2648 -0.1999
 5616TIP3    H138483   4.355   3.253   2.697 -0.6276  0.5668 -4.0767
 5616TIP3    H238484   4.503   3.226   2.689  0.2597  0.3612  4.3421
 5617TIP3   OH238485   1.815   0.221   2.571  0.2555  0.4318 -0.5061
 5617TIP3    H138486   1.799   0.311   2.598 -1.2885 -0.0871  0.4073
 5617TIP3    H238487   1.786   0.167   2.645 -0.0887 -0.8673 -1.5350
 5618TIP3   OH238488   2.500   5.256   1.800 -0.0135  0.5002 -0.3289
 5618TIP3    H138489   2.469   5.346   1.785  0.8660  0.7200 -0.9655
 5618TIP3    H238490   2.462   5.231   1.883  0.7005  1.9244  0.4778
 5619TIP3   OH238491   1.163   1.853   3.502  0.4261  0.2869  0.3771
 5619TIP3    H138492   1.253   1.863   3.469  1.0167 -1.1563  1.4217
 5619TIP3    H238493   1.111   1.911   3.447  1.7730  0.0303 -1.2666
 5620TIP3   OH238494   1.315   4.689   2.909 -0.1253 -1.2151 -0.5755
 5620TIP3    H138495   1.352   4.711   2.823 -1.1633 -1.1193 -1.0052
 5620TIP3    H238496   1.264   4.609   2.892  0.0358 -1.4546  0.0553
 5621TIP3   OH238497   6.677   0.467   3.439 -0.5556  0.0906 -0.2116
 5621TIP3    H138498   6.676   0.562   3.433  1.8660  0.0958 -4.7800
 5621TIP3    H238499   6.584   0.442   3.445 -1.2519  2.6236  0.8956
 5622TIP3   OH238500   0.642   5.038   8.277  0.2114  0.3129 -0.0615
 5622TIP3    H138501   0.588   5.002   8.207 -0.6165  0.1877  0.6240
 5622TIP3    H238502   0.726   5.056   8.236 -0.1805 -0.0006 -1.0221
 5623TIP3   OH238503   3.556   6.569   0.536 -0.5441  0.1057  0.1532
 5623TIP3    H138504   3.579   6.596   0.624  0.1280 -0.7797  0.2699
 5623TIP3    H238505   3.619   6.614   0.480 -0.7661  0.4163  0.1519
 5624TIP3   OH238506   4.882   0.313   1.882 -0.1159 -0.4594  0.9395
 5624TIP3    H138507   4.793   0.328   1.915 -1.3637 -2.7280 -1.1049
 5624TIP3    H238508   4.909   0.231   1.924 -0.8761 -2.2101 -1.7394
 5625TIP3   OH238509   3.137   3.659   1.556 -0.2633  0.4218  0.2266
 5625TIP3    H138510   3.198   3.586   1.556  0.2628  0.7310 -2.8166
 5625TIP3    H238511   3.080   3.644   1.481 -0.7937  2.6259  0.0901
 5626TIP3   OH238512   2.889   2.389   2.873 -0.2584 -0.5225 -0.1009
 5626TIP3    H138513   2.849   2.474   2.889  0.8723  0.3625 -1.7618
 5626TIP3    H238514   2.842   2.353   2.798  1.2498  0.0353 -1.3628
 5627TIP3   OH238515   2.849   5.789   0.751 -0.2619  0.2049  0.0074
 5627TIP3    H138516   2.763   5.752   0.771  0.2045 -1.4995 -0.9080
 5627TIP3    H238517   2.899   5.715   0.716  2.2407  0.6626  2.3105
 5628TIP3   OH238518   5.956   2.228   0.522 -0.3603 -0.1264  0.2353
 5628TIP3    H138519   5.903   2.300   0.487  0.4777  0.3581 -0.0587
 5628TIP3    H238520   5.962   2.247   0.616 -1.0216 -0.3983  0.3412
 5629TIP3   OH238521   4.852   4.128   1.246  0.6525 -0.3925  0.3381
 5629TIP3    H138522   4.907   4.204   1.264  0.6222 -0.5100  0.9598
 5629TIP3    H238523   4.769   4.166   1.217  0.2474 -0.1302  1.7303
 5630TIP3   OH238524   1.696   4.198   0.265  0.2998 -0.2159 -0.3471
 5630TIP3    H138525   1.679   4.292   0.267  1.4788  0.0583 -1.4563
 5630TIP3    H238526   1.791   4.191   0.270  0.1990 -1.3777  0.1737
 5631TIP3   OH238527   6.395   2.472   0.216 -0.5261  0.3408  0.3936
 5631TIP3    H138528   6.477   2.458   0.169 -0.2730  1.0844  0.6101
 5631TIP3    H238529   6.338   2.402   0.184 -0.2130  0.5547 -0.6807
 5632TIP3   OH238530   4.705   1.753   1.781 -0.3765  0.1502 -0.0717
 5632TIP3    H138531   4.708   1.674   1.728 -2.2706  0.9234 -1.4696
 5632TIP3    H238532   4.649   1.731   1.855  0.2314 -0.2001  0.2914
 5633TIP3   OH238533   6.841   6.583   2.117 -0.2226  0.1376  0.4099
 5633TIP3    H138534   6.933   6.557   2.107 -0.8462 -2.6304  0.8525
 5633TIP3    H238535   6.799   6.505   2.155 -2.3641  2.0443  2.2177
 5634TIP3   OH238536   6.367   2.810   8.154  0.5866  0.3183  0.1700
 5634TIP3    H138537   6.331   2.897   8.135 -0.1147 -0.1170 -0.5689
 5634TIP3    H238538   6.400   2.780   8.069  1.0957 -0.0215  0.4866
 5635TIP3   OH238539   6.072   2.643   8.440  0.1473  0.8188 -0.0200
 5635TIP3    H138540   6.027   2.666   8.358  1.1075  2.1637 -0.2001
 5635TIP3    H238541   6.157   2.687   8.434  0.5550  0.2629  1.3490
 5636TIP3   OH238542   4.070   2.109   0.419  0.0527  0.7274 -1.0691
 5636TIP3    H138543   4.078   2.041   0.352 -0.7256  0.2339 -0.6861
 5636TIP3    H238544   3.985   2.150   0.402 -0.7799 -0.2764  0.3576
 5637TIP3   OH238545   0.442   6.041   8.666 -0.5474 -0.2165 -0.1374
 5637TIP3    H138546   0.412   6.108   8.605 -0.7676  0.1293  0.3394
 5637TIP3    H238547   0.382   6.048   8.741 -1.4790 -1.8965 -0.6745
 5638TIP3   OH238548   0.713   5.157   2.295  0.3818 -0.0802 -0.1263
 5638TIP3    H138549   0.717   5.253   2.295  1.7237 -0.1079  1.2569
 5638TIP3    H238550   0.685   5.134   2.384  0.8903 -0.9944 -0.1896
 5639TIP3   OH238551   3.327   4.206   1.721 -0.1090 -0.0128  0.4544
 5639TIP3    H138552   3.326   4.148   1.644  0.0034 -1.7055  1.6715
 5639TIP3    H238553   3.420   4.211   1.745 -0.0641  1.0809  0.0847
 5640TIP3   OH238554   1.976   0.124   1.179 -0.1565  0.0546  0.1796
 5640TIP3    H138555   2.051   0.141   1.236 -0.2989 -0.0812  0.4090
 5640TIP3    H238556   1.978   0.030   1.164  0.3463  0.2000 -0.6935
 5641TIP3   OH238557   2.590   3.055   8.367 -0.2839  0.2220  0.3748
 5641TIP3    H138558   2.512   3.033   8.417 -2.1327  0.9929 -2.0104
 5641TIP3    H238559   2.623   2.971   8.335 -2.3163  0.0871 -1.5811
 5642TIP3   OH238560   5.723   3.033   8.642 -0.2913 -0.6743 -0.1075
 5642TIP3    H138561   5.711   3.123   8.673 -0.4297 -0.9302  0.6125
 5642TIP3    H238562   5.680   3.031   8.556  0.6292  0.2126 -0.6053
 5643TIP3   OH238563   2.691   1.245   3.430 -0.3900  0.2384 -0.0971
 5643TIP3    H138564   2.767   1.267   3.376  0.2792 -1.3332  0.1505
 5643TIP3    H238565   2.695   1.307   3.503 -1.0239  2.0595 -1.5373
 5644TIP3   OH238566   5.006   4.653   2.554 -0.3907 -0.5837 -0.2197
 5644TIP3    H138567   4.955   4.643   2.474 -0.9953 -1.9483  0.2909
 5644TIP3    H238568   4.940   4.658   2.623  0.1417 -0.4156  0.2854
 5645TIP3   OH238569   3.526   4.074   1.516  0.3611  1.2528 -0.1080
 5645TIP3    H138570   3.459   4.012   1.546 -1.0947  2.2626 -1.1049
 5645TIP3    H238571   3.594   4.070   1.583  0.2431 -1.2567 -0.0526
 5646TIP3   OH238572   4.180   0.185   2.826 -0.0825  0.4628  0.3238
 5646TIP3    H138573   4.218   0.098   2.843  1.5171  1.2766  1.1714
 5646TIP3    H238574   4.099   0.167   2.779  0.4068 -1.4749  0.1341
 5647TIP3   OH238575   0.305   4.246   0.122  0.9430 -0.6402 -0.1381
 5647TIP3    H138576   0.296   4.248   0.217  0.8086 -0.2080 -0.1605
 5647TIP3    H238577   0.291   4.154   0.099 -2.8427 -0.2225 -0.1173
 5648TIP3   OH238578   1.256   4.791   1.219 -0.0795  0.0709 -0.2064
 5648TIP3    H138579   1.214   4.850   1.156  0.0257 -0.5639 -0.8810
 5648TIP3    H238580   1.229   4.825   1.305 -0.0304  1.0921 -0.5795
 5649TIP3   OH238581   2.036   3.197   2.547 -0.1101 -0.0054 -0.1317
 5649TIP3    H138582   2.061   3.107   2.565 -0.4445 -0.2353 -0.7971
 5649TIP3    H238583   2.120   3.243   2.535  0.1167  0.0700  1.4893
 5650TIP3   OH238584   5.543   1.469   0.919  0.1055 -0.1760 -0.1750
 5650TIP3    H138585   5.566   1.523   0.843  2.2567  2.2597  1.9863
 5650TIP3    H238586   5.454   1.497   0.942  0.3582  0.8234 -0.3844
 5651TIP3   OH238587   5.282   3.332   0.769 -0.2473  0.7954  0.1186
 5651TIP3    H138588   5.244   3.405   0.818  2.4983  0.8796  2.3968
 5651TIP3    H238589   5.283   3.260   0.832  1.9872  0.4514 -0.2177
 5652TIP3   OH238590   0.766   3.339   1.156 -0.3800  0.1575  0.1572
 5652TIP3    H138591   0.727   3.306   1.238 -0.4621 -0.4709 -0.1307
 5652TIP3    H238592   0.804   3.262   1.115  0.3958  0.6178  0.0027
 5653TIP3   OH238593   3.166   2.722   0.548 -0.1873 -0.1988 -0.1399
 5653TIP3    H138594   3.122   2.702   0.465  0.9260  1.6687 -1.2638
 5653TIP3    H238595   3.129   2.806   0.575 -0.7751 -0.9484  1.4755
 5654TIP3   OH238596   0.504   3.778   8.659 -0.1556 -0.0898 -0.0960
 5654TIP3    H138597   0.529   3.761   8.750  0.1101  2.5316  0.3944
 5654TIP3    H238598   0.410   3.760   8.657 -0.1780 -0.1178  0.7110
 5655TIP3   OH238599   1.159   2.808   1.317 -0.1216 -0.0028 -0.1551
 5655TIP3    H138600   1.080   2.800   1.263 -0.0224 -2.3165 -0.0489
 5655TIP3    H238601   1.126   2.826   1.405 -0.5688 -1.2113 -0.0625
 5656TIP3   OH238602   5.635   2.967   2.775  0.0603  0.0209  0.2717
 5656TIP3    H138603   5.690   3.043   2.795 -3.1229  2.7283 -0.3282
 5656TIP3    H238604   5.588   2.992   2.695 -2.0058 -2.0279  0.7360
 5657TIP3   OH238605   0.381   3.254   1.300 -0.1160 -0.0124 -0.1184
 5657TIP3    H138606   0.406   3.337   1.340 -1.7340  0.5954 -0.3230
 5657TIP3    H238607   0.452   3.236   1.237  0.9574  0.4775  0.9142
 5658TIP3   OH238608   3.744   1.030   3.343  0.7371 -0.2832  0.2556
 5658TIP3    H138609   3.732   1.119   3.376 -1.5429 -0.2495 -0.5318
 5658TIP3    H238610   3.739   0.975   3.420 -2.1719 -0.0225  0.3416
 5659TIP3   OH238611   4.338   2.295   2.539 -0.0158 -0.4494 -0.0833
 5659TIP3    H138612   4.355   2.315   2.447 -1.1989 -0.0354 -0.2314
 5659TIP3    H238613   4.335   2.380   2.582 -1.1775 -0.5248  0.0096
 5660TIP3   OH238614   3.556   3.602   2.139 -0.5108  0.1053  0.3966
 5660TIP3    H138615   3.533   3.518   2.178  1.8751  0.1579  2.1183
 5660TIP3    H238616   3.472   3.647   2.126 -1.6056 -1.0396  2.9414
 5661TIP3   OH238617   2.540   5.828   7.981 -0.3293  0.2496 -0.0824
 5661TIP3    H138618   2.516   5.910   8.026  0.8777  0.5213  0.1072
 5661TIP3    H238619   2.495   5.833   7.897  1.3357  2.1151 -0.9419
 5662TIP3   OH238620   6.614   2.912   1.491 -0.5293  0.2169 -0.2261
 5662TIP3    H138621   6.547   2.852   1.522  1.3563 -2.4420 -0.9440
 5662TIP3    H238622   6.593   2.926   1.399 -0.9874  0.7247 -0.0509
 5663TIP3   OH238623   6.429   4.544   8.546  0.4599  0.0968 -0.0442
 5663TIP3    H138624   6.369   4.609   8.581  2.6081  1.9086  0.4986
 5663TIP3    H238625   6.488   4.524   8.620 -0.0334 -2.4191 -0.2200
 5664TIP3   OH238626   3.549   6.254   8.692 -0.1293 -0.1923  0.2831
 5664TIP3    H138627   3.637   6.264   8.656 -0.0306  0.0580  0.5834
 5664TIP3    H238628   3.490   6.265   8.617  0.0803  0.0934  0.1574
 5665TIP3   OH238629   5.946   1.945   1.595  0.3593 -0.3462 -0.4720
 5665TIP3    H138630   5.902   1.909   1.518 -0.4469 -0.6099  0.1016
 5665TIP3    H238631   6.019   1.885   1.611  1.0234  0.1564 -1.4901
 5666TIP3   OH238632   5.872   4.777   7.876  0.2105 -0.5407  0.2781
 5666TIP3    H138633   5.918   4.728   7.808  1.2212  1.6928 -0.7854
 5666TIP3    H238634   5.788   4.800   7.838  0.3540 -0.1763  0.1764
 5667TIP3   OH238635   4.440   1.443   8.092  0.4449  0.6906  0.3332
 5667TIP3    H138636   4.410   1.409   8.008  2.1291 -0.2925  0.0735
 5667TIP3    H238637   4.440   1.366   8.150  0.9648  0.9765  0.7226
 5668TIP3   OH238638   1.518   3.920   1.092 -0.0144 -0.5584  0.1065
 5668TIP3    H138639   1.464   3.919   1.171 -1.4139  0.2111 -0.7898
 5668TIP3    H238640   1.518   4.012   1.065 -0.3043 -0.9394 -1.2695
 5669TIP3   OH238641   0.979   6.081   0.026 -0.1272 -0.1567 -0.4242
 5669TIP3    H138642   1.006   6.047  -0.059  0.7745 -0.6875  0.0571
 5669TIP3    H238643   1.057   6.125   0.060  0.1393 -1.5939  0.9359
 5670TIP3   OH238644   6.183   3.175   0.686  0.3709  0.4000 -0.1405
 5670TIP3    H138645   6.273   3.147   0.669 -0.1051 -0.5188 -1.2113
 5670TIP3    H238646   6.148   3.197   0.600 -0.3619  0.9811  0.3003
 5671TIP3   OH238647   2.562   3.618   2.045 -0.6821  0.4044  0.8658
 5671TIP3    H138648   2.557   3.712   2.027  1.7569  0.4426  0.1077
 5671TIP3    H238649   2.609   3.612   2.129 -0.1990 -0.1539  0.5623
 5672TIP3   OH238650   1.273   6.556   8.687  0.4162  0.0155 -0.2595
 5672TIP3    H138651   1.314   6.642   8.675  3.0576 -1.3983 -2.3260
 5672TIP3    H238652   1.326   6.496   8.634 -1.5518 -2.8617  0.7833
 5673TIP3   OH238653   3.400   6.072   1.607  0.1357 -0.2599 -0.0737
 5673TIP3    H138654   3.456   6.098   1.534 -2.4004  1.5059 -1.5573
 5673TIP3    H238655   3.419   6.134   1.676 -0.5088  0.8697 -0.8758
 5674TIP3   OH238656   4.516   5.894   0.299  0.1642 -0.2409 -1.0229
 5674TIP3    H138657   4.476   5.820   0.345  0.0291  0.1644 -0.4741
 5674TIP3    H238658   4.603   5.901   0.339  0.2434 -0.2118 -1.1999
 5675TIP3   OH238659   4.320   6.274   3.594 -0.3548 -0.2054 -0.0274
 5675TIP3    H138660   4.319   6.364   3.626 -0.4063 -0.2628  0.1349
 5675TIP3    H238661   4.238   6.266   3.545  0.6073  0.4781 -1.8534
 5676TIP3   OH238662   5.204   3.477   1.551  0.7440 -0.2349 -0.5101
 5676TIP3    H138663   5.112   3.501   1.541  0.7645 -0.1487 -0.4923
 5676TIP3    H238664   5.252   3.553   1.519  0.8092 -0.6643 -1.4891
 5677TIP3   OH238665   5.084   3.795   3.500  0.5190 -0.0537  0.2481
 5677TIP3    H138666   5.067   3.887   3.520  2.0145  0.3761 -0.3323
 5677TIP3    H238667   5.103   3.793   3.406 -0.1581 -1.0695  0.1138
 5678TIP3   OH238668   6.353   5.355   2.360  0.6990  0.1928 -0.6695
 5678TIP3    H138669   6.339   5.371   2.453 -0.4827  0.0023 -0.7919
 5678TIP3    H238670   6.351   5.259   2.351  1.6559  0.1782 -0.7749
 5679TIP3   OH238671   1.756   1.537   0.852 -0.0555  0.1152 -0.0131
 5679TIP3    H138672   1.788   1.541   0.762 -0.0390 -0.2052 -0.0215
 5679TIP3    H238673   1.716   1.623   0.867  0.5786  0.4289 -0.0854
 5680TIP3   OH238674   4.314   2.912   8.412  0.3643 -0.3745  0.8330
 5680TIP3    H138675   4.387   2.973   8.426  1.3260 -0.6928 -2.0654
 5680TIP3    H238676   4.333   2.872   8.327 -3.2722 -0.3879 -0.1203
 5681TIP3   OH238677   0.568   5.482   1.495  0.1898 -0.1511  0.4225
 5681TIP3    H138678   0.526   5.397   1.504 -0.8161  0.2750 -0.0265
 5681TIP3    H238679   0.603   5.483   1.406  0.6285 -0.2829  0.5948
 5682TIP3   OH238680   5.220   5.083   2.370  0.0152 -0.4281  0.4666
 5682TIP3    H138681   5.221   4.990   2.391 -0.7804 -0.3345  0.9390
 5682TIP3    H238682   5.309   5.113   2.391  0.3264 -1.1144  0.1383
 5683TIP3   OH238683   0.959   4.245   3.022 -0.0058  0.2711 -0.0975
 5683TIP3    H138684   0.883   4.300   3.002  0.1776  0.2197 -0.9758
 5683TIP3    H238685   0.952   4.227   3.116 -0.2325  1.5383  0.1434
 5684TIP3   OH238686   1.033   5.143   8.741  0.0734  0.2499  0.1325
 5684TIP3    H138687   1.048   5.113   8.830 -1.2930 -0.2417  0.2130
 5684TIP3    H238688   1.068   5.232   8.739 -2.2040  1.2803  1.9344
 5685TIP3   OH238689   5.687   6.509   2.697 -0.1444  0.3402 -0.3980
 5685TIP3    H138690   5.686   6.489   2.790 -1.7038 -0.4305 -0.5426
 5685TIP3    H238691   5.716   6.600   2.692  0.8186  0.1152  0.7541
 5686TIP3   OH238692   3.971   2.600   0.423 -0.7674  0.1744 -0.2660
 5686TIP3    H138693   3.990   2.541   0.496 -0.3243  1.5158  0.7457
 5686TIP3    H238694   3.881   2.579   0.398 -0.4916 -1.1867 -0.2096
 5687TIP3   OH238695   1.108   1.510   0.697  0.5176 -0.2542  0.3690
 5687TIP3    H138696   1.134   1.595   0.735 -0.8212 -0.3308  1.5500
 5687TIP3    H238697   1.114   1.523   0.603  1.1602  0.8828  0.5437
 5688TIP3   OH238698   6.213   3.838   2.430 -0.1513 -0.1785 -0.0915
 5688TIP3    H138699   6.248   3.877   2.350  0.8043  0.5774  0.6766
 5688TIP3    H238700   6.156   3.767   2.399 -2.6714  2.2973 -1.5844
 5689TIP3   OH238701   5.600   0.904   1.792  0.1432 -0.2363 -0.0781
 5689TIP3    H138702   5.550   0.904   1.710  0.7686  0.5376 -0.4732
 5689TIP3    H238703   5.689   0.880   1.766  1.1274  2.9706 -0.1886
 5690TIP3   OH238704   3.987   3.767   3.567  0.8030  0.1736 -0.0725
 5690TIP3    H138705   4.057   3.730   3.620  1.1110 -1.0870 -1.3088
 5690TIP3    H238706   3.920   3.793   3.631  1.0254 -1.5543  0.9154
 5691TIP3   OH238707   0.570   3.379   2.935  1.0560  0.2099 -0.0991
 5691TIP3    H138708   0.515   3.449   2.970  3.4341  2.8922 -1.3484
 5691TIP3    H238709   0.592   3.326   3.011  0.9886  2.1867  1.3884
 5692TIP3   OH238710   3.005   2.025   0.644 -0.5809 -0.1906  0.4304
 5692TIP3    H138711   3.034   2.087   0.710  1.7658 -0.4980 -0.2224
 5692TIP3    H238712   2.939   1.971   0.688 -1.5644  1.7422  1.4476
 5693TIP3   OH238713   5.882   1.386   1.964  0.2524  0.0071 -0.0730
 5693TIP3    H138714   5.858   1.472   1.930 -3.8723 -1.6501 -2.0361
 5693TIP3    H238715   5.885   1.398   2.059  0.8889  2.4729 -0.3441
 5694TIP3   OH238716   4.598   5.533   3.177 -0.1581 -0.8040  0.0280
 5694TIP3    H138717   4.572   5.620   3.147  0.1300 -0.8717 -0.4318
 5694TIP3    H238718   4.683   5.518   3.135  0.2742 -0.8937  0.9056
 5695TIP3   OH238719   1.759   6.075   3.590 -0.2252  0.1851 -0.4706
 5695TIP3    H138720   1.748   6.161   3.630  3.0331  1.3908 -1.8104
 5695TIP3    H238721   1.696   6.074   3.518 -0.6484  1.2460 -0.1412
 5696TIP3   OH238722   1.203   1.317   0.851 -0.1020  0.3161 -0.0782
 5696TIP3    H138723   1.295   1.317   0.824  0.1746 -0.8448  0.8096
 5696TIP3    H238724   1.161   1.379   0.791  1.2217  0.7452 -0.5978
 5697TIP3   OH238725   4.007   6.388   2.112  0.5026 -0.0278 -0.0282
 5697TIP3    H138726   4.010   6.341   2.028 -2.8610 -0.3697 -0.0822
 5697TIP3    H238727   4.001   6.480   2.087 -0.1064 -0.1037 -0.1869
 5698TIP3   OH238728   3.689   5.010   7.686 -0.0286  0.0233  0.1750
 5698TIP3    H138729   3.631   5.081   7.714  0.0939 -0.1934  1.0254
 5698TIP3    H238730   3.642   4.930   7.710 -1.5101 -0.3585 -3.3622
 5699TIP3   OH238731   4.961   3.863   1.233 -0.5652 -0.7334  0.3914
 5699TIP3    H138732   4.908   3.943   1.228 -0.3260 -0.5930  0.0417
 5699TIP3    H238733   4.910   3.797   1.187 -0.3153 -0.5275 -0.1902
 5700TIP3   OH238734   0.399   3.633   3.422  0.1447  0.1405 -0.6071
 5700TIP3    H138735   0.435   3.698   3.481  0.0580 -0.7089  0.4112
 5700TIP3    H238736   0.463   3.561   3.423 -0.8053 -0.7186  0.0054
 5701TIP3   OH238737   2.224   1.145   8.446  0.1878 -0.1903  0.3557
 5701TIP3    H138738   2.297   1.085   8.432 -1.9937 -2.5149 -2.3081
 5701TIP3    H238739   2.176   1.108   8.520  1.4069  1.1578  1.8968
 5702TIP3   OH238740   5.551   1.864   0.877 -0.0124 -0.2663  0.5353
 5702TIP3    H138741   5.557   1.797   0.810 -1.1056  0.7891 -0.6705
 5702TIP3    H238742   5.631   1.916   0.867 -0.1225 -0.1780  0.1234
 5703TIP3   OH238743   0.242   0.260   2.803 -0.7815  0.5705  0.3583
 5703TIP3    H138744   0.240   0.258   2.899 -1.1324 -2.3916  0.4077
 5703TIP3    H238745   0.335   0.255   2.781 -0.6123  2.5366  0.4662
 5704TIP3   OH238746   4.423   1.980   2.046  0.0740  0.0260  0.0744
 5704TIP3    H138747   4.352   2.041   2.066 -1.1943 -0.1836 -3.1214
 5704TIP3    H238748   4.502   2.023   2.077 -0.9933  2.3659 -0.2188
 5705TIP3   OH238749   5.086   6.105   3.438  0.0860 -0.2567  0.3175
 5705TIP3    H138750   5.081   6.079   3.530  2.7044  0.8180  0.8649
 5705TIP3    H238751   5.069   6.199   3.438 -0.0398 -0.2735 -0.3255
 5706TIP3   OH238752   4.194   6.422   2.754 -0.7818  0.3633 -0.3594
 5706TIP3    H138753   4.155   6.343   2.717 -1.0833  0.1712  0.3658
 5706TIP3    H238754   4.171   6.420   2.847 -1.7691  1.8791 -0.5378
 5707TIP3   OH238755   1.059   2.674   0.311  0.2232 -0.5326 -0.4570
 5707TIP3    H138756   0.966   2.652   0.318  0.5315 -3.0073 -2.4463
 5707TIP3    H238757   1.082   2.649   0.221  3.0083 -0.8763  0.2875
 5708TIP3   OH238758   3.955   2.887   2.075  0.2185 -0.0097  0.1223
 5708TIP3    H138759   3.985   2.939   2.000  1.9568 -0.0733  0.7229
 5708TIP3    H238760   4.029   2.829   2.095 -0.8980 -1.2628  0.7690
 5709TIP3   OH238761   2.893   2.933   1.910  0.0573  0.0348 -0.3601
 5709TIP3    H138762   2.805   2.972   1.906 -1.0175 -2.3125 -1.7775
 5709TIP3    H238763   2.892   2.866   1.843  2.0739 -1.8403  1.3521
 5710TIP3   OH238764   0.224   5.898   3.206 -0.6705 -0.1550  0.0059
 5710TIP3    H138765   0.173   5.860   3.135 -1.4401 -1.1639  1.0664
 5710TIP3    H238766   0.252   5.823   3.259  1.8304  0.3723 -0.4488
 5711TIP3   OH238767   4.722   6.164   0.921 -0.2522 -0.0973 -0.3895
 5711TIP3    H138768   4.650   6.218   0.890  0.3427  1.7505  1.2042
 5711TIP3    H238769   4.782   6.226   0.963  1.6403 -1.7235 -0.5174
 5712TIP3   OH238770   2.722   0.944   1.755 -0.1302  0.3328 -0.4442
 5712TIP3    H138771   2.665   1.013   1.790 -1.8145 -0.3607 -1.6888
 5712TIP3    H238772   2.714   0.951   1.660  1.5409 -0.0975 -0.6612
 5713TIP3   OH238773   3.695   2.905   1.963 -0.2883  0.5701 -0.7349
 5713TIP3    H138774   3.636   2.867   2.029  0.4869  0.2731 -0.2032
 5713TIP3    H238775   3.776   2.922   2.011  0.9070 -1.2672 -1.9765
 5714TIP3   OH238776   3.952   3.146   3.455 -0.0677 -0.1031  0.2511
 5714TIP3    H138777   3.911   3.114   3.375 -0.7832 -1.0870  0.9914
 5714TIP3    H238778   4.022   3.083   3.473  0.9724  0.8384 -0.2813
 5715TIP3   OH238779   6.459   6.623   1.003  0.4557  0.0642  0.0506
 5715TIP3    H138780   6.466   6.667   0.919 -0.8932 -1.0814 -0.7042
 5715TIP3    H238781   6.476   6.692   1.068 -1.2901  1.6588 -1.0675
 5716TIP3   OH238782   4.469   2.684   1.867  0.5434  0.2735  0.0586
 5716TIP3    H138783   4.492   2.675   1.775  1.8300 -0.8539  0.4571
 5716TIP3    H238784   4.453   2.778   1.879 -2.5366  0.1127 -1.9154
 5717TIP3   OH238785   1.582   4.658   0.626  0.5078  0.5694 -0.9491
 5717TIP3    H138786   1.572   4.739   0.576  1.7962  1.8849  0.7826
 5717TIP3    H238787   1.620   4.686   0.709  0.2634 -1.7475  0.0201
 5718TIP3   OH238788   0.583   2.550   0.412 -0.2144  0.5590 -0.0914
 5718TIP3    H138789   0.556   2.640   0.430 -0.6255  0.4954 -0.3782
 5718TIP3    H238790   0.651   2.532   0.477  0.0188  1.1464 -0.1649
 5719TIP3   OH238791   4.645   5.474   3.809  0.3155 -0.3970 -0.2770
 5719TIP3    H138792   4.715   5.522   3.854  1.3498 -0.8658 -1.3402
 5719TIP3    H238793   4.615   5.534   3.741 -3.2373  1.4989  2.6227
 5720TIP3   OH238794   4.103   1.932   1.190  0.5519 -0.1835 -0.5648
 5720TIP3    H138795   4.123   2.025   1.182 -0.7029  0.2748  1.0098
 5720TIP3    H238796   4.056   1.910   1.109  1.3779  0.3811 -1.2143
 5721TIP3   OH238797   1.376   2.945   8.370  0.2984  0.0226 -0.3928
 5721TIP3    H138798   1.397   2.917   8.282  0.2671 -1.0094 -0.0828
 5721TIP3    H238799   1.326   3.026   8.358 -0.3691 -0.5138 -1.3535
 5722TIP3   OH238800   2.499   2.291   0.816  0.1247  0.0478  0.2950
 5722TIP3    H138801   2.422   2.296   0.871  0.5652  0.0661  0.9175
 5722TIP3    H238802   2.465   2.278   0.727 -0.5318 -2.2857  0.8349
 5723TIP3   OH238803   5.718   6.056   1.010  0.0388  0.1364 -0.1828
 5723TIP3    H138804   5.646   6.039   1.072 -0.2549  0.2988 -0.4725
 5723TIP3    H238805   5.698   6.143   0.974 -0.3708 -0.3941 -1.2838
 5724TIP3   OH238806   6.105   5.652   1.597 -0.4509 -0.1964  0.4135
 5724TIP3    H138807   6.095   5.742   1.627  1.8068  0.0053  0.6760
 5724TIP3    H238808   6.096   5.599   1.677 -3.2527 -0.4062  0.0668
 5725TIP3   OH238809   3.119   6.364   1.914 -0.6947 -0.0436 -0.2968
 5725TIP3    H138810   3.141   6.281   1.957  1.0236  0.5389  0.0321
 5725TIP3    H238811   3.120   6.429   1.984 -0.4704  0.4944 -0.7915
 5726TIP3   OH238812   5.572   5.127   1.996 -0.1117 -0.2716 -0.7562
 5726TIP3    H138813   5.510   5.080   1.941  0.4883 -0.4005 -1.3381
 5726TIP3    H238814   5.624   5.178   1.934  0.2152  0.0039 -0.2563
 5727TIP3   OH238815   6.051   2.980   2.318  0.3999  0.5946  0.2712
 5727TIP3    H138816   5.965   2.977   2.361  0.3168 -2.6105  0.1274
 5727TIP3    H238817   6.031   2.968   2.225  0.9680  0.2911  0.1867
 5728TIP3   OH238818   2.342   1.129   1.604  0.1649 -0.9192  0.1424
 5728TIP3    H138819   2.308   1.045   1.634 -2.6697 -0.4425 -1.3858
 5728TIP3    H238820   2.399   1.106   1.530 -0.6913 -1.5363 -0.3503
 5729TIP3   OH238821   2.229   1.291   2.720 -0.4672 -0.4820  0.3184
 5729TIP3    H138822   2.177   1.361   2.681 -1.2190 -0.4871  1.2841
 5729TIP3    H238823   2.168   1.218   2.729 -0.6893 -0.0740  2.6409
 5730TIP3   OH238824   6.416   2.369   3.220 -0.1968 -0.3759 -0.2157
 5730TIP3    H138825   6.472   2.430   3.269 -0.1443  0.4791 -1.3170
 5730TIP3    H238826   6.411   2.292   3.276  0.3127  0.3644  0.8931
 5731TIP3   OH238827   1.961   1.760   2.393  0.4205  0.4827  0.0490
 5731TIP3    H138828   1.884   1.795   2.348 -0.0446  0.5969  0.9098
 5731TIP3    H238829   1.925   1.697   2.455  1.1362 -0.4113 -0.4384
 5732TIP3   OH238830   3.940   5.449   0.157  0.6972  0.3144  0.1423
 5732TIP3    H138831   3.970   5.516   0.219  1.2578 -0.3179  0.5705
 5732TIP3    H238832   3.947   5.367   0.206 -1.1609  0.0531  0.0626
 5733TIP3   OH238833   3.469   1.836   8.104  0.3583  0.2108  0.2467
 5733TIP3    H138834   3.491   1.832   8.197  2.4943 -0.9178 -0.2477
 5733TIP3    H238835   3.429   1.751   8.085 -0.4339  0.5822  0.1807
 5734TIP3   OH238836   4.145   5.288   2.578 -0.1217  0.1237  0.2155
 5734TIP3    H138837   4.116   5.217   2.636 -0.7590  0.6003  0.4926
 5734TIP3    H238838   4.176   5.243   2.499 -1.5101 -0.4391 -0.0480
 5735TIP3   OH238839   4.197   5.460   2.788 -0.3396 -0.5269  0.1768
 5735TIP3    H138840   4.265   5.393   2.796 -1.2907 -1.5114  0.2153
 5735TIP3    H238841   4.139   5.427   2.719 -0.8194  0.2686  0.1885
 5736TIP3   OH238842   3.105   5.793   2.194 -0.1315 -0.0930 -0.0028
 5736TIP3    H138843   3.035   5.846   2.231  0.4105 -0.6666  1.9229
 5736TIP3    H238844   3.177   5.855   2.180 -0.4116  0.1648 -0.3045
 5737TIP3   OH238845   1.245   2.421   1.727 -0.1773 -0.5363 -0.1262
 5737TIP3    H138846   1.226   2.515   1.734 -0.7965 -0.7042  0.4762
 5737TIP3    H238847   1.248   2.405   1.633  2.4106  0.5715 -0.3399
 5738TIP3   OH238848   1.960   1.424   3.037 -0.4117  0.6805  0.0427
 5738TIP3    H138849   1.885   1.403   2.981 -0.9446 -1.7407  1.4841
 5738TIP3    H238850   2.008   1.341   3.044  1.7754  1.8762  0.1258
 5739TIP3   OH238851   0.164   4.980   1.612  0.2562 -0.1743 -0.0004
 5739TIP3    H138852   0.241   4.982   1.555 -0.2698  1.0579 -0.7333
 5739TIP3    H238853   0.131   4.891   1.605  0.0584  0.0056 -1.8753
 5740TIP3   OH238854   3.477   2.416   0.245 -0.1928  0.1021  0.0065
 5740TIP3    H138855   3.474   2.333   0.197 -0.2993  0.1837 -0.1301
 5740TIP3    H238856   3.400   2.464   0.214 -1.4235 -0.6701  1.7675
 5741TIP3   OH238857   5.607   6.040   2.070  0.1131 -0.5565  0.2621
 5741TIP3    H138858   5.623   6.084   2.154 -0.2368  0.2752 -0.0950
 5741TIP3    H238859   5.520   6.069   2.043  0.5384 -0.1781 -0.7664
 5742TIP3   OH238860   5.630   4.510   0.818  0.0691 -0.0127 -0.1161
 5742TIP3    H138861   5.654   4.440   0.756  0.4357  0.6313 -0.7165
 5742TIP3    H238862   5.563   4.471   0.874 -2.3270  0.2005 -2.6545
 5743TIP3   OH238863   2.850   6.376   0.014  0.2423 -0.5475  0.1297
 5743TIP3    H138864   2.782   6.316  -0.017  0.0174 -1.4850  2.2791
 5743TIP3    H238865   2.891   6.330   0.087  1.3425  1.1519  0.6317
 5744TIP3   OH238866   0.808   6.690   2.418 -0.1355  0.1789  0.7157
 5744TIP3    H138867   0.855   6.637   2.352  1.3571  0.4650  1.5040
 5744TIP3    H238868   0.827   6.647   2.501 -3.2840 -1.1080  0.9133
 5745TIP3   OH238869   5.305   4.784   1.223  0.1641  0.1931 -0.6982
 5745TIP3    H138870   5.213   4.793   1.247  0.2075  0.6230 -0.6864
 5745TIP3    H238871   5.353   4.810   1.302  0.3126  1.9845 -1.3402
 5746TIP3   OH238872   2.865   2.077   8.534 -0.1015 -0.3566 -0.7392
 5746TIP3    H138873   2.787   2.023   8.537 -0.7310  0.3648 -2.8436
 5746TIP3    H238874   2.883   2.090   8.441  1.7696  0.5824 -0.3114
 5747TIP3   OH238875   1.349   5.976   1.776  0.4894 -0.1723 -0.2702
 5747TIP3    H138876   1.345   6.043   1.844  1.2842 -1.4185  1.0550
 5747TIP3    H238877   1.439   5.979   1.744 -0.2473  1.4382 -2.4210
 5748TIP3   OH238878   0.478   4.591   0.052 -0.1322 -0.0020 -0.5560
 5748TIP3    H138879   0.493   4.583  -0.043 -2.2916 -1.8402 -0.8316
 5748TIP3    H238880   0.537   4.526   0.090 -0.5219 -0.5170 -0.8127
 5749TIP3   OH238881   4.009   4.382   0.004  0.1309 -0.3203 -0.2426
 5749TIP3    H138882   4.020   4.312  -0.061  1.2749 -0.2170 -0.1634
 5749TIP3    H238883   3.936   4.434  -0.030  0.6616 -0.3035 -1.4249
 5750TIP3   OH238884   5.536   6.288   2.701 -0.2926 -0.4901 -0.2911
 5750TIP3    H138885   5.461   6.342   2.674 -0.1732  0.7966  1.7437
 5750TIP3    H238886   5.599   6.351   2.737  0.1442 -1.8837  1.5514
 5751TIP3   OH238887   5.178   4.544   1.257 -0.6602 -0.4238  0.6007
 5751TIP3    H138888   5.240   4.480   1.222 -1.0029  0.1035 -1.1054
 5751TIP3    H238889   5.218   4.629   1.239 -1.6121 -0.0911 -0.0502
 5752TIP3   OH238890   0.905   6.319   3.716  0.2496 -0.5851  0.0971
 5752TIP3    H138891   0.914   6.282   3.804  1.1106  0.0426  0.2871
 5752TIP3    H238892   0.941   6.407   3.723  1.2603 -0.8729 -1.1076
 5753TIP3   OH238893   2.647   0.051   1.545 -0.1204  0.1608 -0.0210
 5753TIP3    H138894   2.728   0.097   1.525  0.3701 -0.1911  1.1223
 5753TIP3    H238895   2.639   0.056   1.640 -1.1882 -0.2349 -0.0799
 5754TIP3   OH238896   2.033   0.839   2.981  0.3808  0.0878 -0.2550
 5754TIP3    H138897   1.985   0.795   2.911  1.8244  0.7120 -1.7034
 5754TIP3    H238898   1.970   0.848   3.052 -0.1341 -3.8659 -0.0223
 5755TIP3   OH238899   6.181   3.628   1.133 -0.3871 -0.0838  0.1119
 5755TIP3    H138900   6.121   3.693   1.096  1.1690  1.5011  0.2552
 5755TIP3    H238901   6.150   3.616   1.223 -0.0931  1.3159  0.4367
 5756TIP3   OH238902   2.632   2.004   1.009  0.9282 -0.2997 -0.1871
 5756TIP3    H138903   2.656   1.966   1.093  0.8229 -0.5245 -0.2585
 5756TIP3    H238904   2.705   1.983   0.951  0.6651 -0.7948 -0.3469
 5757TIP3   OH238905   5.286   0.558   2.942 -0.3293 -0.2706 -0.1021
 5757TIP3    H138906   5.234   0.632   2.910 -0.4693 -0.2986  0.0609
 5757TIP3    H238907   5.307   0.508   2.863  1.9771  1.3147 -0.6160
 5758TIP3   OH238908   2.529   1.448   2.048 -1.0601 -0.5823 -0.2766
 5758TIP3    H138909   2.473   1.440   1.971 -1.5029  2.1174 -0.3291
 5758TIP3    H238910   2.554   1.541   2.051  2.0664 -1.3289  0.7123
 5759TIP3   OH238911   4.311   3.830   0.501 -0.5686  0.8284  0.2223
 5759TIP3    H138912   4.400   3.841   0.536 -1.1034  1.4578  1.4281
 5759TIP3    H238913   4.255   3.876   0.564 -1.7266  0.6430 -0.6555
 5760TIP3   OH238914   1.809   6.578   3.013 -0.5536  0.6971 -0.2353
 5760TIP3    H138915   1.723   6.555   3.047 -0.2549 -0.0075  0.0573
 5760TIP3    H238916   1.863   6.592   3.091 -0.5448  1.7123 -0.4109
 5761TIP3   OH238917   6.105   3.879   8.793 -0.1785  0.4064  0.5991
 5761TIP3    H138918   6.163   3.950   8.765  0.1330 -0.3436 -0.7196
 5761TIP3    H238919   6.060   3.914   8.870  0.0401  1.9984  0.0363
 5762TIP3   OH238920   6.569   2.778   3.760  0.1570 -0.0647 -0.0676
 5762TIP3    H138921   6.563   2.683   3.760  0.0298 -0.0601  0.3853
 5762TIP3    H238922   6.648   2.797   3.709  0.5082 -0.4357  0.3335
 5763TIP3   OH238923   2.220   3.066   1.737  0.1190  0.4455  0.4178
 5763TIP3    H138924   2.225   3.160   1.722 -0.3344  0.6581  1.4998
 5763TIP3    H238925   2.311   3.037   1.741  0.2590  0.7668 -0.2958
 5764TIP3   OH238926   5.468   3.246   8.024  0.8546  0.7046 -0.1260
 5764TIP3    H138927   5.408   3.224   7.954  0.8870  0.0545  0.0349
 5764TIP3    H238928   5.518   3.321   7.992  0.5771  0.6787 -0.6187
 5765TIP3   OH238929   4.607   0.344   2.798 -0.0285 -0.2180  0.1206
 5765TIP3    H138930   4.523   0.367   2.837  0.0884  0.7088 -0.1460
 5765TIP3    H238931   4.655   0.426   2.795  0.1169 -0.3234 -1.5823
 5766TIP3   OH238932   4.274   5.407   8.583 -0.2920 -0.0436  0.0464
 5766TIP3    H138933   4.349   5.453   8.623 -0.2348 -1.5688  1.7736
 5766TIP3    H238934   4.197   5.449   8.621 -0.2445 -2.1201  2.7127
 5767TIP3   OH238935   1.798   3.074   4.105 -0.1997  0.3225 -0.4028
 5767TIP3    H138936   1.775   3.045   4.017 -1.4407 -2.5270  0.7284
 5767TIP3    H238937   1.714   3.084   4.150  0.3320  3.0676  0.1759
 5768TIP3   OH238938   1.455   2.457   1.894  0.1074  0.4064  0.4477
 5768TIP3    H138939   1.540   2.429   1.860  0.4494  1.8209  0.0419
 5768TIP3    H238940   1.394   2.439   1.822  0.5719  1.9626 -0.3985
 5769TIP3   OH238941   3.791   4.931   1.851  0.1900  0.1692 -0.1922
 5769TIP3    H138942   3.729   4.978   1.906 -1.0297 -1.0046 -0.5129
 5769TIP3    H238943   3.854   4.997   1.823 -0.0299  1.0875  1.3747
 5770TIP3   OH238944   0.532   3.305   7.558  0.1066 -0.1293  0.3661
 5770TIP3    H138945   0.473   3.239   7.594 -0.0986  0.5133  1.2521
 5770TIP3    H238946   0.589   3.329   7.631  0.3445  0.4835 -0.0109
 5771TIP3   OH238947   1.070   2.928   0.148  0.4576  0.6194  0.8166
 5771TIP3    H138948   1.087   2.849   0.098 -3.6305  0.4554 -0.7469
 5771TIP3    H238949   1.075   2.901   0.240  2.9634 -0.3742  0.4606
 5772TIP3   OH238950   1.858   2.720   0.303 -0.1436 -0.0605 -0.1849
 5772TIP3    H138951   1.828   2.784   0.369  1.5264 -0.5975  1.1805
 5772TIP3    H238952   1.797   2.647   0.311 -2.1394  1.2962 -1.8293
 5773TIP3   OH238953   2.959   3.848   2.798  0.9800 -0.5158  0.1764
 5773TIP3    H138954   3.026   3.792   2.758  1.3636 -1.0305  1.4867
 5773TIP3    H238955   2.883   3.839   2.740  1.4823 -1.3050 -0.3811
 5774TIP3   OH238956   6.533   1.903   1.333  0.3614 -0.0380 -0.2487
 5774TIP3    H138957   6.594   1.943   1.272  0.6067  0.3306  0.2275
 5774TIP3    H238958   6.559   1.811   1.337  0.0303 -0.1747 -1.0663
 5775TIP3   OH238959   2.804   1.211   1.815 -0.0021 -0.2055 -0.2973
 5775TIP3    H138960   2.845   1.125   1.821 -0.0512 -0.1078  2.7550
 5775TIP3    H238961   2.713   1.196   1.840  0.0737  0.7629  0.6294
 5776TIP3   OH238962   6.442   1.166   0.680 -0.5981 -0.0987  0.1440
 5776TIP3    H138963   6.491   1.197   0.757  0.4845  0.2860 -0.6730
 5776TIP3    H238964   6.465   1.074   0.673 -1.4258 -0.3679  0.8022
 5777TIP3   OH238965   5.770   3.205   2.116  0.7377 -0.2821  0.2864
 5777TIP3    H138966   5.815   3.249   2.189  0.9838 -1.3676  0.8054
 5777TIP3    H238967   5.833   3.142   2.083  0.4236 -0.1840 -0.5203
 5778TIP3   OH238968   0.215   6.648   3.216  0.5375  0.9000 -0.5906
 5778TIP3    H138969   0.259   6.563   3.226  0.1128  0.9416  2.6606
 5778TIP3    H238970   0.171   6.642   3.131  2.0164 -1.3829 -1.3036
 5779TIP3   OH238971   0.473   6.672   2.299  0.1760 -0.2148 -0.0931
 5779TIP3    H138972   0.545   6.695   2.358 -0.4777  0.0944  0.5910
 5779TIP3    H238973   0.509   6.689   2.212  0.2527  1.9777  0.3047
 5780TIP3   OH238974   6.143   5.537   3.643 -0.4563  0.1802  0.3793
 5780TIP3    H138975   6.100   5.613   3.603  0.1141  0.1120 -0.3946
 5780TIP3    H238976   6.098   5.461   3.605  0.5287  0.0993 -0.7088
 5781TIP3   OH238977   0.530   5.621   3.554  0.2533 -0.0068  0.5234
 5781TIP3    H138978   0.529   5.526   3.557 -2.1190 -0.0522  0.0922
 5781TIP3    H238979   0.580   5.648   3.631 -0.3605 -1.5734  1.4985
 5782TIP3   OH238980   5.389   3.731   3.000  0.0831  0.1180 -0.2527
 5782TIP3    H138981   5.363   3.766   3.085  1.3101  0.9655 -0.2009
 5782TIP3    H238982   5.333   3.654   2.987  0.9393 -0.9675  2.0446
 5783TIP3   OH238983   0.749   4.817   2.111 -0.3149 -0.2686 -0.1862
 5783TIP3    H138984   0.776   4.778   2.194  2.8082  1.4088 -0.2474
 5783TIP3    H238985   0.698   4.894   2.137 -0.3325 -0.3863  0.1372
 5784TIP3   OH238986   5.861   5.019   1.619 -0.0304  0.5428  0.0373
 5784TIP3    H138987   5.809   5.057   1.548 -0.0455  0.5149  0.0332
 5784TIP3    H238988   5.814   4.938   1.642 -0.4437  0.9364  0.5972
 5785TIP3   OH238989   3.079   2.678   0.270  0.1457  0.0379  0.0004
 5785TIP3    H138990   3.088   2.588   0.239 -0.0678  0.1052 -0.2600
 5785TIP3    H238991   3.108   2.732   0.196  0.4447  0.1813  0.2175
 5786TIP3   OH238992   4.830   2.779   7.921 -0.7480 -0.8484 -0.1763
 5786TIP3    H138993   4.923   2.778   7.944 -1.1896 -1.7605  1.8065
 5786TIP3    H238994   4.808   2.871   7.911 -0.1032 -0.4668  1.5818
 5787TIP3   OH238995   4.788   2.296   0.625  0.2369 -0.7564  0.2851
 5787TIP3    H138996   4.769   2.266   0.536  0.4324 -0.9840  0.3190
 5787TIP3    H238997   4.857   2.237   0.656  0.2233 -0.6294  0.5595
 5788TIP3   OH238998   1.163   2.228   1.125  0.0931 -0.2697 -0.3743
 5788TIP3    H138999   1.191   2.148   1.170  1.6909 -0.3564 -1.4167
 5788TIP3    H239000   1.162   2.204   1.032 -0.4087  0.6514 -0.6217
 5789TIP3   OH239001   0.800   5.312   0.902  0.1855  0.1454 -0.2538
 5789TIP3    H139002   0.810   5.240   0.965 -0.5095 -0.4339 -0.7863
 5789TIP3    H239003   0.821   5.391   0.953 -0.1956 -0.3202  0.6571
 5790TIP3   OH239004   3.363   2.697   1.936  0.1931 -0.8565  0.3640
 5790TIP3    H139005   3.289   2.750   1.905  0.3757 -0.8786 -0.1182
 5790TIP3    H239006   3.417   2.684   1.858  0.7142 -0.8264  0.7169
 5791TIP3   OH239007   5.698   6.743   8.645 -0.5132 -0.3324  0.3538
 5791TIP3    H139008   5.772   6.753   8.585 -1.0035  1.3258 -0.0289
 5791TIP3    H239009   5.646   6.672   8.607  0.9654 -1.7061  0.7642
 5792TIP3   OH239010   1.502   3.651   1.600 -0.3029  0.3915  0.4613
 5792TIP3    H139011   1.584   3.697   1.586 -2.2860  3.9082 -0.8598
 5792TIP3    H239012   1.462   3.696   1.675 -2.3333  0.9956 -0.8878
 5793TIP3   OH239013   0.493   6.663   0.969  0.1907 -0.3573  0.7724
 5793TIP3    H139014   0.497   6.622   1.055 -0.0821 -0.2809  0.8225
 5793TIP3    H239015   0.486   6.589   0.908 -1.2892 -0.3671  0.9252
 5794TIP3   OH239016   6.041   2.471   0.751 -0.4357  0.7552  0.5495
 5794TIP3    H139017   6.051   2.560   0.785  0.8976  0.5932  0.6512
 5794TIP3    H239018   5.996   2.423   0.821 -0.8049  1.2477  0.6523
 5795TIP3   OH239019   0.631   6.849   0.744 -0.0868  0.1654  0.6929
 5795TIP3    H139020   0.608   6.809   0.828  0.4130  2.1120  1.8169
 5795TIP3    H239021   0.560   6.911   0.727  0.2363  0.3805  0.0959
 5796TIP3   OH239022   1.133   6.331   8.341  0.3301  0.5787  0.3542
 5796TIP3    H139023   1.042   6.336   8.309  0.4383 -2.0432 -0.5889
 5796TIP3    H239024   1.124   6.310   8.434 -0.0272  0.7056  0.3511
 5797TIP3   OH239025   6.642   3.886   7.854  0.1894 -0.2472  0.2895
 5797TIP3    H139026   6.666   3.806   7.809 -0.1798 -2.2051  3.2802
 5797TIP3    H239027   6.569   3.922   7.803  0.6870 -1.5118 -1.3799
 5798TIP3   OH239028   2.017   6.327   0.327  0.0229  0.1390 -0.2947
 5798TIP3    H139029   2.036   6.244   0.371 -1.4839 -0.4515 -0.6886
 5798TIP3    H239030   2.051   6.394   0.386 -0.7585 -0.6725  1.1320
 5799TIP3   OH239031   5.432   3.632   3.751 -0.0582 -0.0121 -0.1596
 5799TIP3    H139032   5.429   3.539   3.773 -1.4759  0.3303  1.2368
 5799TIP3    H239033   5.344   3.652   3.719 -0.7998  1.5226  2.5914
 5800TIP3   OH239034   0.229   0.465   8.492  0.2854  0.5037 -0.0998
 5800TIP3    H139035   0.308   0.489   8.443  0.9207  1.1341  1.1648
 5800TIP3    H239036   0.167   0.536   8.474 -0.3810 -0.4647 -1.8512
 5801TIP3   OH239037   4.223   2.322   3.188  0.4775  0.0697  0.6292
 5801TIP3    H139038   4.291   2.389   3.189  2.0527 -1.4226 -0.1760
 5801TIP3    H239039   4.175   2.334   3.269  0.2568  2.5709  0.2049
 5802TIP3   OH239040   3.006   6.208   2.771 -0.4066 -0.3008  0.0879
 5802TIP3    H139041   2.932   6.267   2.754  1.3461  1.4735 -2.1657
 5802TIP3    H239042   2.973   6.121   2.747 -1.3527  0.6695 -2.5271
 5803TIP3   OH239043   1.884   2.941   2.670 -0.4803  0.0345  1.2485
 5803TIP3    H139044   1.898   2.850   2.698 -0.1803 -0.5384 -0.6463
 5803TIP3    H239045   1.963   2.963   2.621 -0.7240  1.1950  1.3539
 5804TIP3   OH239046   6.265   4.746   8.598  0.0638 -0.1577  0.0708
 5804TIP3    H139047   6.325   4.798   8.651  1.0110 -1.5594  0.4251
 5804TIP3    H239048   6.208   4.811   8.556  2.6456  1.3673 -1.3591
 5805TIP3   OH239049   2.051   0.404   2.807 -0.3623  0.0373  0.2626
 5805TIP3    H139050   1.978   0.445   2.852  0.3213 -0.7156  2.1285
 5805TIP3    H239051   2.113   0.475   2.792 -0.5453  0.2705  0.6072
 5806TIP3   OH239052   4.143   4.859   1.329 -0.2968 -0.5291  0.9264
 5806TIP3    H139053   4.171   4.941   1.288  0.2914 -1.8841 -1.5988
 5806TIP3    H239054   4.052   4.848   1.302 -0.3302 -0.7602  1.1316
 5807TIP3   OH239055   0.357   0.119   8.568  0.4411  0.0783  0.1459
 5807TIP3    H139056   0.270   0.086   8.589  0.0042  0.4182 -1.0301
 5807TIP3    H239057   0.385   0.069   8.492  0.8591  0.6326 -0.0772
 5808TIP3   OH239058   5.454   6.642   0.756  0.4552  0.0770 -0.9534
 5808TIP3    H139059   5.532   6.619   0.705  0.6436 -1.0304 -0.2018
 5808TIP3    H239060   5.477   6.620   0.846 -0.8404 -0.5976 -0.7675
 5809TIP3   OH239061   3.523   3.909   8.764  0.1509 -0.0622 -0.3017
 5809TIP3    H139062   3.552   3.998   8.745  0.6885 -0.3072 -0.6469
 5809TIP3    H239063   3.578   3.853   8.710 -0.2837 -0.6021 -0.2023
 5810TIP3   OH239064   3.748   4.982   0.492 -1.2525 -0.1196 -0.2847
 5810TIP3    H139065   3.734   4.912   0.428 -1.3916 -0.5536  0.2108
 5810TIP3    H239066   3.683   5.049   0.469 -1.4317 -0.3585 -0.4798
 5811TIP3   OH239067   0.886   3.428   1.471  0.7270 -0.0466  0.0243
 5811TIP3    H139068   0.842   3.507   1.439  0.9324  0.0397 -0.0458
 5811TIP3    H239069   0.969   3.426   1.424  0.2715 -0.8804 -0.7896
 5812TIP3   OH239070   6.706   3.168   0.379  0.3975 -0.0141  0.2050
 5812TIP3    H139071   6.700   3.232   0.450 -0.8726  0.7536 -0.5673
 5812TIP3    H239072   6.689   3.219   0.299 -2.0271 -1.5106 -0.3299
 5813TIP3   OH239073   6.016   6.364   2.946 -0.6095  0.3544 -0.3940
 5813TIP3    H139074   5.984   6.421   3.016 -0.5717 -0.3599  0.2180
 5813TIP3    H239075   6.068   6.298   2.991 -0.0635  0.2476 -1.1682
 5814TIP3   OH239076   6.426   3.553   2.277  0.0396  0.8434  0.4026
 5814TIP3    H139077   6.478   3.473   2.267 -0.0919  0.5094  2.0980
 5814TIP3    H239078   6.491   3.623   2.288  0.1476  0.7695  0.2264
 5815TIP3   OH239079   0.286   4.829   1.158  0.1714 -0.0111  0.0441
 5815TIP3    H139080   0.193   4.822   1.140  0.2494  0.0368 -0.3757
 5815TIP3    H239081   0.328   4.779   1.088  0.4876  0.4397 -0.0936
 5816TIP3   OH239082   3.058   4.855   1.319 -0.0596 -0.2639 -0.4321
 5816TIP3    H139083   2.981   4.877   1.267  0.5126 -0.3718 -1.3325
 5816TIP3    H239084   3.070   4.761   1.307  0.6706 -0.1129 -0.9257
 5817TIP3   OH239085   2.653   4.264   3.087  0.1827  0.0012  0.0413
 5817TIP3    H139086   2.617   4.222   3.009 -0.0596  0.4424 -0.0886
 5817TIP3    H239087   2.661   4.356   3.064  0.9964 -0.0106  0.2195
 5818TIP3   OH239088   0.107   5.329   1.469 -0.3455  0.6961 -0.1214
 5818TIP3    H139089   0.061   5.404   1.431 -1.9642  0.1031  0.5746
 5818TIP3    H239090   0.040   5.261   1.475  0.3256  0.1495  1.9662
 5819TIP3   OH239091   5.630   6.308   0.876 -0.4080  0.1046 -0.3070
 5819TIP3    H139092   5.675   6.377   0.926 -0.1754 -1.1329  1.2581
 5819TIP3    H239093   5.694   6.278   0.812 -0.1124  0.5280 -0.2112
 5820TIP3   OH239094   0.254   3.481   7.972 -0.0759 -0.0954 -0.0513
 5820TIP3    H139095   0.336   3.504   8.016  0.0289 -0.6929  0.0731
 5820TIP3    H239096   0.277   3.407   7.916 -0.6563 -0.6542  0.4281
 5821TIP3   OH239097   3.264   0.923   1.100 -0.0185  0.3300  0.1446
 5821TIP3    H139098   3.240   0.934   1.192  0.9077 -1.3981  0.6512
 5821TIP3    H239099   3.183   0.896   1.057  0.0716 -1.6663  1.0649
 5822TIP3   OH239100   0.740   4.107   2.771  0.4252 -0.4391 -0.0946
 5822TIP3    H139101   0.729   4.096   2.865  3.0724  0.0688  0.3502
 5822TIP3    H239102   0.667   4.163   2.745 -1.6700 -2.4137  1.1755
 5823TIP3   OH239103   3.216   1.306   1.173 -0.6383 -0.1259 -0.2287
 5823TIP3    H139104   3.179   1.263   1.096 -2.1268 -0.1306  0.4512
 5823TIP3    H239105   3.140   1.344   1.218  0.4071  1.5605  0.2051
 5824TIP3   OH239106   4.125   5.652   1.553 -0.0461 -0.4960  0.0566
 5824TIP3    H139107   4.125   5.675   1.460  0.0988  0.6965  0.3280
 5824TIP3    H239108   4.047   5.696   1.588 -0.2248 -1.1200  0.4698
 5825TIP3   OH239109   1.484   4.827   2.737 -0.6398 -0.3121 -0.4374
 5825TIP3    H139110   1.573   4.805   2.763  0.1515  0.8378 -1.9579
 5825TIP3    H239111   1.481   4.923   2.743 -2.2943 -0.4037  1.0535
 5826TIP3   OH239112   1.382   1.292   1.850  0.4553  0.3599  0.7888
 5826TIP3    H139113   1.475   1.285   1.828  0.3401 -2.1914  0.8117
 5826TIP3    H239114   1.339   1.311   1.767  0.8389 -0.1232  0.4811
 5827TIP3   OH239115   1.935   5.023   1.705  0.2583 -0.4909 -0.0553
 5827TIP3    H139116   1.957   4.959   1.772 -1.2908 -0.0046  0.9834
 5827TIP3    H239117   2.002   5.091   1.713  1.1260 -1.3170 -0.2423
 5828TIP3   OH239118   5.383   0.946   8.699  0.1717  0.3006  0.0610
 5828TIP3    H139119   5.467   0.933   8.744 -1.0413 -3.3788  1.6741
 5828TIP3    H239120   5.391   0.898   8.617 -0.5984 -0.8987  0.6575
 5829TIP3   OH239121   2.759   2.142   1.935  0.3977 -0.1607  0.7782
 5829TIP3    H139122   2.783   2.083   1.863 -0.2505  0.5207 -0.0116
 5829TIP3    H239123   2.829   2.208   1.937 -0.2897  0.6080 -0.1351
 5830TIP3   OH239124   1.079   4.519   2.137  0.4951 -0.2745 -0.6800
 5830TIP3    H139125   1.011   4.456   2.160  0.4873 -0.1313 -0.2930
 5830TIP3    H239126   1.161   4.474   2.160  0.5606 -0.6127 -1.5444
 5831TIP3   OH239127   6.148   1.215   8.780  0.0110 -0.2747  0.5107
 5831TIP3    H139128   6.082   1.187   8.717  0.5664  0.7126 -0.5546
 5831TIP3    H239129   6.105   1.284   8.830 -0.1126 -0.3828  0.5545
 5832TIP3   OH239130   0.670   4.167   8.603 -0.5431  0.3912 -0.5473
 5832TIP3    H139131   0.671   4.220   8.683 -0.1957  0.5079 -0.6301
 5832TIP3    H239132   0.670   4.230   8.532  1.1720  0.2942 -0.6634
 5833TIP3   OH239133   5.532   0.815   2.429 -0.3245  0.6886 -0.5913
 5833TIP3    H139134   5.514   0.832   2.336 -0.2042  0.1536 -0.7164
 5833TIP3    H239135   5.572   0.728   2.430  1.6501  1.5487 -0.2598
 5834TIP3   OH239136   4.731   2.286   1.656  0.0003 -0.0975  0.6946
 5834TIP3    H139137   4.666   2.319   1.717 -1.2809 -0.4819 -0.4100
 5834TIP3    H239138   4.764   2.205   1.696 -0.9859 -0.4614  0.7785
 5835TIP3   OH239139   1.994   0.644   8.696 -0.1199  0.5289 -0.0783
 5835TIP3    H139140   1.958   0.571   8.646  0.9334 -0.0343 -0.0268
 5835TIP3    H239141   2.089   0.636   8.686  0.0129  2.0419 -0.2862
 5836TIP3   OH239142   3.376   0.311   8.010  0.3209  0.3107 -0.5192
 5836TIP3    H139143   3.360   0.393   7.963 -0.4919  1.5383  1.7608
 5836TIP3    H239144   3.301   0.256   7.989  0.3052  0.5696 -1.1766
 5837TIP3   OH239145   3.686   1.292   3.418  0.5407 -0.5157  0.1671
 5837TIP3    H139146   3.703   1.317   3.509 -0.1648 -1.7198  0.6500
 5837TIP3    H239147   3.619   1.354   3.389  0.0628 -0.7284  0.7866
 5838TIP3   OH239148   4.641   1.980   2.650  0.1576 -0.3644  0.1443
 5838TIP3    H139149   4.558   1.977   2.602  0.4975 -1.0289 -0.4260
 5838TIP3    H239150   4.636   1.906   2.711 -0.6710  1.0447  1.8486
 5839TIP3   OH239151   0.542   6.454   8.777  0.0683 -0.3201  0.0723
 5839TIP3    H139152   0.617   6.394   8.771  0.7090  0.4957 -0.2996
 5839TIP3    H239153   0.505   6.455   8.689 -0.0436 -0.2896  0.1197
 5840TIP3   OH239154   3.266   5.555   8.078  0.1473 -1.2588  0.1451
 5840TIP3    H139155   3.298   5.610   8.007 -0.4086 -0.6279  0.3694
 5840TIP3    H239156   3.311   5.472   8.066  0.9546 -0.7808 -0.2398
 5841TIP3   OH239157   4.981   2.819   0.275  0.0507  0.2101  0.0969
 5841TIP3    H139158   5.041   2.880   0.231 -1.2977  1.4086 -0.1794
 5841TIP3    H239159   4.977   2.743   0.217  0.2901  0.6735 -0.5373
 5842TIP3   OH239160   2.482   1.738   8.509  0.0454 -0.2838 -0.4805
 5842TIP3    H139161   2.544   1.798   8.466 -1.5288  1.1139 -0.9136
 5842TIP3    H239162   2.406   1.737   8.451 -1.1497 -0.3426  1.0343
 5843TIP3   OH239163   1.537   1.664   1.572 -0.2888 -0.0090 -0.5837
 5843TIP3    H139164   1.548   1.680   1.666  1.9360  0.5698 -0.8862
 5843TIP3    H239165   1.541   1.569   1.563  2.8285  0.0254 -0.3614
 5844TIP3   OH239166   0.235   3.506   2.010 -0.2736 -0.0113  0.1079
 5844TIP3    H139167   0.206   3.570   1.946 -2.1182 -1.7931 -0.9747
 5844TIP3    H239168   0.222   3.421   1.967  0.1721 -1.2001  2.1630
 5845TIP3   OH239169   4.190   4.014   0.664  0.0181  0.8861 -0.1369
 5845TIP3    H139170   4.102   3.976   0.658  0.1639  0.6697 -1.2052
 5845TIP3    H239171   4.178   4.105   0.640 -0.1442  1.2575  1.2638
 5846TIP3   OH239172   3.843   2.451   1.022  0.2718  0.1604 -0.0891
 5846TIP3    H139173   3.863   2.527   1.077  0.2553 -0.9207  1.4806
 5846TIP3    H239174   3.920   2.442   0.965  0.5980  0.9106  0.2195
 5847TIP3   OH239175   3.600   5.485   3.369 -0.0770  0.4940  0.1014
 5847TIP3    H139176   3.644   5.519   3.291 -0.2165  1.9019  0.6139
 5847TIP3    H239177   3.612   5.553   3.435  0.3183 -0.8091  1.4263
 5848TIP3   OH239178   6.219   4.635   1.914 -0.4617  0.6924  0.0421
 5848TIP3    H139179   6.288   4.609   1.975 -1.6426  1.5470  1.8225
 5848TIP3    H239180   6.212   4.730   1.924 -2.3650  0.5450  0.4614
 5849TIP3   OH239181   2.431   2.489   1.088 -0.2642  0.2702  0.3292
 5849TIP3    H139182   2.469   2.403   1.108  1.7382  0.4425 -2.2510
 5849TIP3    H239183   2.352   2.469   1.039  0.6491 -0.1712 -1.0258
 5850TIP3   OH239184   3.328   1.308   0.374 -0.0553  0.0300 -0.3494
 5850TIP3    H139185   3.291   1.244   0.312  1.8933 -0.2315 -1.3597
 5850TIP3    H239186   3.412   1.269   0.399 -0.1152  0.8953  1.2714
 5851TIP3   OH239187   0.112   4.739   0.967 -0.3808 -0.2774  0.9374
 5851TIP3    H139188   0.198   4.752   0.928  0.3166 -0.0704  2.4875
 5851TIP3    H239189   0.066   4.821   0.952 -0.6690 -0.6895 -0.6791
 5852TIP3   OH239190   6.664   2.326   7.794 -0.4393  0.1884  0.3383
 5852TIP3    H139191   6.584   2.290   7.830 -0.1364 -0.3450  0.4869
 5852TIP3    H239192   6.643   2.347   7.703 -1.1164  1.2622  0.7182
 5853TIP3   OH239193   3.207   3.145   1.430  0.2269 -0.1125  0.0755
 5853TIP3    H139194   3.129   3.115   1.477  0.4583 -3.3326 -1.3610
 5853TIP3    H239195   3.278   3.134   1.493 -0.0192 -0.4003  0.3085
 5854TIP3   OH239196   4.581   3.166   7.932 -0.2762  0.0285 -0.3881
 5854TIP3    H139197   4.673   3.138   7.932 -0.5567 -1.1101  1.8608
 5854TIP3    H239198   4.560   3.180   7.839  2.1164  0.2271 -0.9570
 5855TIP3   OH239199   3.808   3.387   0.070 -0.0513 -0.1594  0.1126
 5855TIP3    H139200   3.808   3.478   0.040  0.6155 -0.7768 -1.9526
 5855TIP3    H239201   3.797   3.393   0.165  0.2364  2.0694  0.0648
 5856TIP3   OH239202   0.743   1.849   2.007  0.5143  0.3721  0.6150
 5856TIP3    H139203   0.678   1.779   2.006  0.2491  0.5906  1.9134
 5856TIP3    H239204   0.827   1.803   2.018  0.6909  0.0547 -1.4780
 5857TIP3   OH239205   5.317   1.901   1.050 -0.5499 -0.5246  0.3321
 5857TIP3    H139206   5.354   1.855   1.125 -0.9813 -2.8386 -0.8070
 5857TIP3    H239207   5.386   1.898   0.983 -1.0572 -0.6426 -0.1925
 5858TIP3   OH239208   0.377   0.164   3.729 -0.3320 -0.5659 -0.0410
 5858TIP3    H139209   0.284   0.161   3.752 -0.4610  0.3127 -0.4278
 5858TIP3    H239210   0.388   0.248   3.685  1.0005  0.0805  1.4892
 5859TIP3   OH239211   2.494   2.206   1.141  0.0808 -0.2888 -0.0731
 5859TIP3    H139212   2.522   2.134   1.085 -1.5675 -1.2791  0.3133
 5859TIP3    H239213   2.562   2.212   1.209  1.0035 -0.4577 -0.9626
 5860TIP3   OH239214   1.471   3.088   0.365 -0.2539  0.2760 -0.1511
 5860TIP3    H139215   1.523   3.157   0.407 -0.9910 -0.0978  1.4572
 5860TIP3    H239216   1.460   3.119   0.275  1.2323  1.2105 -0.0555
 5861TIP3   OH239217   0.245   3.706   8.707  0.3087 -0.9081  0.1385
 5861TIP3    H139218   0.278   3.742   8.790 -0.9631  0.3464  0.1400
 5861TIP3    H239219   0.154   3.735   8.703  0.8325  0.6877 -2.5758
 5862TIP3   OH239220   4.344   6.074   8.349 -0.0492 -0.4158  0.1729
 5862TIP3    H139221   4.380   6.039   8.267 -1.6196  0.5334 -0.9696
 5862TIP3    H239222   4.323   5.996   8.400 -0.4341 -1.0858 -0.9626
 5863TIP3   OH239223   5.160   5.784   0.748 -1.0136  0.0741 -0.0801
 5863TIP3    H139224   5.219   5.730   0.696 -0.1365  1.3517 -0.4567
 5863TIP3    H239225   5.215   5.856   0.779 -2.1105  0.6617  0.5485
 5864TIP3   OH239226   3.286   6.648   2.284  0.0338 -0.1708  0.3146
 5864TIP3    H139227   3.367   6.597   2.290  0.6734  0.7152 -0.5299
 5864TIP3    H239228   3.283   6.698   2.366  1.7411  1.7712 -0.7305
 5865TIP3   OH239229   5.238   6.620   1.128  0.2821 -0.2479  0.2869
 5865TIP3    H139230   5.148   6.653   1.122  0.3925  0.0343  0.1668
 5865TIP3    H239231   5.249   6.567   1.049 -0.2911 -1.5780  1.0597
 5866TIP3   OH239232   5.177   3.809   2.212  0.5728  0.3883  0.1391
 5866TIP3    H139233   5.108   3.852   2.262  1.4746  0.4438  1.3622
 5866TIP3    H239234   5.233   3.768   2.277  1.1266 -0.5627 -0.8834
 5867TIP3   OH239235   2.915   0.584   2.245  0.4684 -0.2754  0.5484
 5867TIP3    H139236   2.821   0.572   2.233  0.4106 -1.4005  1.8194
 5867TIP3    H239237   2.941   0.646   2.176 -1.1069 -0.2934 -0.1014
 5868TIP3   OH239238   1.593   2.169   1.937  0.5964  0.1825  0.4762
 5868TIP3    H139239   1.554   2.212   2.013  0.6378 -0.2717  0.7551
 5868TIP3    H239240   1.631   2.241   1.886 -0.3517  0.5963  0.3414
 5869TIP3   OH239241   1.552   6.754   2.016 -0.5817  0.3332 -0.0910
 5869TIP3    H139242   1.570   6.726   1.926  1.5399  0.6323  0.1823
 5869TIP3    H239243   1.630   6.729   2.064 -1.8369 -0.1594  1.7860
 5870TIP3   OH239244   3.261   4.225   8.656  0.0689 -0.0759 -0.7775
 5870TIP3    H139245   3.306   4.158   8.604 -0.0647 -1.0507  0.3327
 5870TIP3    H239246   3.288   4.308   8.616  0.3483 -0.7758 -2.0873
 5871TIP3   OH239247   3.987   3.171   1.930 -0.2858  0.1710 -0.2545
 5871TIP3    H139248   4.005   3.258   1.966 -0.4525  0.4032 -0.7278
 5871TIP3    H239249   3.992   3.182   1.835 -0.0180 -0.4033 -0.3120
 5872TIP3   OH239250   5.346   5.426   8.650  0.3525  0.1864  0.3182
 5872TIP3    H139251   5.307   5.354   8.699  2.6789  0.4115  2.7039
 5872TIP3    H239252   5.280   5.496   8.654 -1.1392 -1.1377 -0.3910
 5873TIP3   OH239253   5.959   4.495   1.995  0.8106 -0.0386  0.4565
 5873TIP3    H139254   5.971   4.586   1.968  0.5339 -0.1451 -0.0505
 5873TIP3    H239255   6.037   4.474   2.046  0.1961  0.9326  1.8634
 5874TIP3   OH239256   5.658   3.269   3.238  0.7407 -0.1075  0.3479
 5874TIP3    H139257   5.747   3.304   3.238 -0.3569  2.9264  0.4851
 5874TIP3    H239258   5.610   3.324   3.300 -1.6297 -0.6348 -0.9007
 5875TIP3   OH239259   4.298   1.123   3.033  0.2506 -0.6320 -0.0441
 5875TIP3    H139260   4.302   1.212   2.997  0.0661 -0.1941  1.0132
 5875TIP3    H239261   4.383   1.085   3.010  0.9475  0.3462  0.8233
 5876TIP3   OH239262   6.111   5.229   2.261  0.5601 -0.5753 -0.0020
 5876TIP3    H139263   6.041   5.265   2.206  2.0327  0.1776 -1.4808
 5876TIP3    H239264   6.097   5.267   2.347 -0.5230  0.0072 -0.4211
 5877TIP3   OH239265   2.789   1.568   1.537 -0.0039 -0.3284  0.4585
 5877TIP3    H139266   2.751   1.584   1.623  0.1795  2.4227  0.1296
 5877TIP3    H239267   2.831   1.482   1.544 -2.0465 -1.2390  2.3168
 5878TIP3   OH239268   2.707   4.855   8.099 -0.8569 -0.0428  0.0326
 5878TIP3    H139269   2.788   4.895   8.131  0.2500 -0.7406 -1.7629
 5878TIP3    H239270   2.651   4.929   8.076 -1.2492  0.4657  2.3518
 5879TIP3   OH239271   4.694   6.025   1.223 -0.3319 -0.4136  0.4322
 5879TIP3    H139272   4.702   6.027   1.128  0.9442 -2.0430  0.4696
 5879TIP3    H239273   4.769   6.075   1.255 -0.3395 -0.5035  0.5946
 5880TIP3   OH239274   0.876   1.338   8.551 -0.1562  0.5600  0.7012
 5880TIP3    H139275   0.880   1.434   8.553 -0.1419  0.5675  0.3802
 5880TIP3    H239276   0.886   1.311   8.642 -1.2063  0.9061  0.9415
 5881TIP3   OH239277   5.372   4.854   8.017  0.1719 -0.2338 -0.3869
 5881TIP3    H139278   5.285   4.886   7.994 -0.1477 -1.2671 -0.6595
 5881TIP3    H239279   5.402   4.808   7.939  0.3682 -1.0992  0.1877
 5882TIP3   OH239280   5.255   4.639   3.292  0.0843 -0.1312 -0.0697
 5882TIP3    H139281   5.262   4.678   3.379  1.5589  0.1593 -0.2950
 5882TIP3    H239282   5.291   4.551   3.302 -0.2776 -0.3054 -0.2678
 5883TIP3   OH239283   1.147   2.890   0.950 -0.9749  0.4313  0.3758
 5883TIP3    H139284   1.221   2.936   0.989 -0.3335  1.5465 -1.9123
 5883TIP3    H239285   1.183   2.807   0.920 -0.7825  0.6861 -0.1246
 5884TIP3   OH239286   5.235   4.195   1.770 -0.4208  0.1405  0.4924
 5884TIP3    H139287   5.290   4.251   1.826  3.2120 -0.5437 -2.0219
 5884TIP3    H239288   5.177   4.256   1.724  0.9718  1.4762  0.4178
 5885TIP3   OH239289   5.529   1.441   3.880  0.0153  0.1158  0.1568
 5885TIP3    H139290   5.490   1.515   3.834  0.7896 -0.0310 -0.7637
 5885TIP3    H239291   5.621   1.465   3.890 -0.3419  0.7060  2.7984
 5886TIP3   OH239292   3.150   0.371   0.136 -0.1494 -0.9737  0.3119
 5886TIP3    H139293   3.212   0.300   0.119  0.1901 -0.8195  0.8833
 5886TIP3    H239294   3.134   0.410   0.050 -1.8938 -2.9832 -0.3710
 5887TIP3   OH239295   4.696   2.769   2.800  0.5006 -0.1929 -0.5659
 5887TIP3    H139296   4.769   2.764   2.862  1.4068 -2.2082 -1.7105
 5887TIP3    H239297   4.738   2.781   2.714 -0.6430  0.6372 -1.0363
 5888TIP3   OH239298   4.319   4.256   0.110 -0.0588 -0.0086 -0.2908
 5888TIP3    H139299   4.239   4.207   0.092 -0.1458 -0.0279  0.1234
 5888TIP3    H239300   4.388   4.190   0.109  0.0606  0.1265 -1.3934
 5889TIP3   OH239301   3.946   3.120   2.826  0.1570 -0.7769  0.5218
 5889TIP3    H139302   3.891   3.192   2.794  0.8653  0.2033  1.4244
 5889TIP3    H239303   3.974   3.149   2.913  2.5277 -0.9907 -0.1177
 5890TIP3   OH239304   3.561   0.032   8.507 -0.7079 -0.1457  0.0003
 5890TIP3    H139305   3.569   0.091   8.432  0.7159  0.2699  0.4524
 5890TIP3    H239306   3.635  -0.028   8.499 -1.1792 -0.8015  0.4691
 5891TIP3   OH239307   0.051   1.522   0.742 -0.9054  0.1242  0.2055
 5891TIP3    H139308   0.092   1.569   0.814 -0.8685 -1.2294  1.1002
 5891TIP3    H239309  -0.041   1.548   0.745 -0.5483  1.6161 -0.5568
 5892TIP3   OH239310   2.423   4.003   0.073 -0.9002 -0.1123  0.2115
 5892TIP3    H139311   2.408   4.088   0.032  1.9350  0.1834 -0.4553
 5892TIP3    H239312   2.424   3.941   0.000  0.1805 -0.1896  0.2680
 5893TIP3   OH239313   3.378   2.873   2.694  0.4793  0.3764 -0.0307
 5893TIP3    H139314   3.322   2.938   2.652 -0.8626 -0.9370 -0.3452
 5893TIP3    H239315   3.451   2.862   2.632  0.7498  1.5942  0.0528
 5894TIP3   OH239316   4.047   4.024   7.853 -0.0432 -0.4331 -0.6360
 5894TIP3    H139317   3.977   3.958   7.856 -0.8847  0.4823  0.5732
 5894TIP3    H239318   4.008   4.097   7.805  0.1745 -0.0263 -0.1944
 5895TIP3   OH239319   0.689   0.849   0.805  0.1192 -0.2548  0.2816
 5895TIP3    H139320   0.761   0.796   0.770  0.7868  1.3150 -0.7876
 5895TIP3    H239321   0.640   0.788   0.861  0.8195 -2.0105 -0.9465
 5896TIP3   OH239322   0.372   0.236   0.343 -0.1486  0.1075 -0.0215
 5896TIP3    H139323   0.282   0.232   0.377 -0.0185 -1.2033  0.2172
 5896TIP3    H239324   0.368   0.192   0.258  0.3504 -0.3985  0.2075
 5897TIP3   OH239325   2.671   2.859   2.790 -0.2702 -0.5478 -0.4238
 5897TIP3    H139326   2.649   2.924   2.857 -0.7695  0.2213 -1.3044
 5897TIP3    H239327   2.760   2.882   2.762  0.7534 -2.1004  1.3476
 5898TIP3   OH239328   2.168   2.063   8.601 -0.3811  0.2866  0.1993
 5898TIP3    H139329   2.114   1.986   8.614 -0.2776  0.4726  1.9010
 5898TIP3    H239330   2.205   2.083   8.687  0.2562  1.7463 -0.3606
 5899TIP3   OH239331   0.204   2.189   8.438  0.3706  0.4400 -0.6291
 5899TIP3    H139332   0.254   2.270   8.449 -0.0530  0.5207  1.1272
 5899TIP3    H239333   0.115   2.219   8.416  0.3826  0.4337 -0.6846
 5900TIP3   OH239334   1.100   4.322   1.734 -0.5176 -0.1166  0.0704
 5900TIP3    H139335   1.046   4.244   1.716 -0.1094 -0.2996 -0.3908
 5900TIP3    H239336   1.056   4.392   1.686 -0.9238 -0.0498  0.5408
 5901TIP3   OH239337   3.068   5.000   0.289 -0.5531  0.3512 -0.1619
 5901TIP3    H139338   3.007   4.962   0.225  0.9348 -2.6387 -0.0024
 5901TIP3    H239339   3.038   4.965   0.373  0.2756  0.3446  0.1369
 5902TIP3   OH239340   2.037   5.598   2.524  0.2393 -0.5615 -0.5983
 5902TIP3    H139341   2.055   5.523   2.467 -0.0256 -0.4176 -0.8714
 5902TIP3    H239342   1.942   5.598   2.535  0.3719 -1.1711  0.6457
 5903TIP3   OH239343   5.833   2.227   8.532 -0.2792  0.1773 -0.1904
 5903TIP3    H139344   5.904   2.291   8.541 -1.1133  1.1920 -0.6184
 5903TIP3    H239345   5.858   2.155   8.590  2.1350 -0.4742 -1.8674
 5904TIP3   OH239346   3.987   1.936   1.739 -0.0078  0.3895  0.0581
 5904TIP3    H139347   3.956   1.909   1.652 -0.1155 -2.8468  0.9657
 5904TIP3    H239348   4.044   1.864   1.767  2.2198  2.6064  1.5995
 5905TIP3   OH239349   4.185   5.545   2.381 -0.2489  0.0691 -0.1824
 5905TIP3    H139350   4.097   5.540   2.345  0.8729  0.5891 -3.3359
 5905TIP3    H239351   4.219   5.455   2.375  0.4012  0.3978 -1.8449
 5906TIP3   OH239352   6.405   0.581   8.466 -0.2012  0.3122 -0.2677
 5906TIP3    H139353   6.446   0.590   8.380 -0.5453  0.2612 -0.4375
 5906TIP3    H239354   6.325   0.634   8.461 -0.8078 -0.5967 -0.3559
 5907TIP3   OH239355   6.772   6.087   0.201  0.0002 -0.3405  0.0303
 5907TIP3    H139356   6.745   6.055   0.115  2.1847 -1.6998 -0.2309
 5907TIP3    H239357   6.703   6.058   0.261 -1.6244  0.7466 -1.2182
 5908TIP3   OH239358   6.026   0.032   2.536  0.4645 -0.3884  0.3643
 5908TIP3    H139359   6.039  -0.050   2.488  0.1148 -0.6566  0.7141
 5908TIP3    H239360   5.959   0.079   2.487 -1.6897 -1.7221  1.8223
 5909TIP3   OH239361   0.521   1.583   0.671  0.0648  0.2014 -0.4471
 5909TIP3    H139362   0.593   1.637   0.638  0.3797  0.0501 -0.0035
 5909TIP3    H239363   0.475   1.640   0.733  2.0777 -0.8949  2.2511
 5910TIP3   OH239364   0.244   4.305   0.385 -0.7542 -0.2533 -0.2818
 5910TIP3    H139365   0.185   4.374   0.356 -1.4234 -1.5845 -2.3208
 5910TIP3    H239366   0.199   4.262   0.457 -1.3992 -0.0145 -0.5432
 5911TIP3   OH239367   1.738   6.256   0.260 -0.0043  0.1424  0.3549
 5911TIP3    H139368   1.828   6.279   0.282  0.0677  0.1961  0.0151
 5911TIP3    H239369   1.733   6.268   0.165 -0.4897  0.5452  0.4286
 5912TIP3   OH239370   3.685   4.639   2.091 -0.0804  0.3402  0.0629
 5912TIP3    H139371   3.613   4.580   2.114 -0.4438  0.7608  0.0151
 5912TIP3    H239372   3.651   4.692   2.020  0.5792 -0.0408 -0.5482
 5913TIP3   OH239373   1.119   4.139   1.059 -0.2191 -0.6223 -0.3395
 5913TIP3    H139374   1.152   4.227   1.040  0.0866 -0.3877  1.1208
 5913TIP3    H239375   1.149   4.085   0.986  2.3024 -0.1357  0.2417
 5914TIP3   OH239376   1.914   5.781   1.013  0.3242  0.0426  0.2577
 5914TIP3    H139377   1.842   5.764   1.073  0.1571  2.0046  0.6707
 5914TIP3    H239378   1.879   5.761   0.927 -1.0813  1.8515  0.3482
 5915TIP3   OH239379   1.475   6.249   2.726 -0.3985 -0.2680 -0.5376
 5915TIP3    H139380   1.501   6.331   2.768 -0.5534  1.2956 -3.2371
 5915TIP3    H239381   1.548   6.229   2.667 -0.2261 -2.3052  0.2781
 5916TIP3   OH239382   1.951   1.101   0.750  0.1798  0.0926 -0.0262
 5916TIP3    H139383   1.867   1.145   0.744  0.1516 -0.1317 -1.8590
 5916TIP3    H239384   1.994   1.141   0.825  0.2598  3.4574 -1.6935
 5917TIP3   OH239385   6.270   4.317   2.828  0.4253 -0.3738  0.8127
 5917TIP3    H139386   6.195   4.292   2.774  1.0218  1.3788 -0.9643
 5917TIP3    H239387   6.337   4.251   2.810  0.7419  0.3718 -0.9741
 5918TIP3   OH239388   0.358   5.943   1.351 -0.0209 -0.0671  0.1052
 5918TIP3    H139389   0.402   5.944   1.266 -0.2677 -0.8243 -0.0378
 5918TIP3    H239390   0.410   5.883   1.405 -0.0047  0.2212  0.4138
 5919TIP3   OH239391   1.912   1.171   3.853 -0.0748  0.4107 -0.3137
 5919TIP3    H139392   1.816   1.168   3.854 -0.1142  0.6789  1.8026
 5919TIP3    H239393   1.939   1.087   3.889  0.6009 -0.6386 -3.0885
 5920TIP3   OH239394   0.796   0.947   1.704 -0.3410 -0.1479  0.0195
 5920TIP3    H139395   0.734   1.019   1.716  0.4055  0.3023  1.3261
 5920TIP3    H239396   0.833   0.962   1.617 -1.9553 -0.3669 -0.7395
 5921TIP3   OH239397   0.094   1.968   3.203 -0.6239 -0.2651  0.0202
 5921TIP3    H139398   0.088   2.057   3.167 -3.0326 -0.6087 -0.6402
 5921TIP3    H239399   0.091   1.980   3.298 -0.4543  0.3852 -0.0517
 5922TIP3   OH239400   6.324   4.870   0.681  0.5782 -0.2170  0.3626
 5922TIP3    H139401   6.304   4.917   0.600 -0.2926 -0.7225  0.2816
 5922TIP3    H239402   6.418   4.852   0.675  0.8370  1.1097  0.1916
 5923TIP3   OH239403   1.621   1.800   0.710  0.2250 -0.2845 -0.3450
 5923TIP3    H139404   1.701   1.831   0.752 -0.9493 -0.4648  2.1752
 5923TIP3    H239405   1.600   1.867   0.645  0.6647  1.4579  1.2468
 5924TIP3   OH239406   2.489   0.437   2.003 -0.3726  0.3630  0.4679
 5924TIP3    H139407   2.539   0.448   1.923 -0.9412 -0.3196  0.0088
 5924TIP3    H239408   2.420   0.504   1.998  1.1351  2.1120  1.6590
 5925TIP3   OH239409   1.791   4.882   2.443 -0.2304  0.5343  0.2401
 5925TIP3    H139410   1.830   4.842   2.520 -1.7616  0.1515  0.8536
 5925TIP3    H239411   1.710   4.833   2.428 -1.4358  2.4391  0.1350
 5926TIP3   OH239412   2.867   6.203   2.265 -0.3769 -0.3059  0.2530
 5926TIP3    H139413   2.857   6.173   2.356 -1.3186 -0.3751  0.1319
 5926TIP3    H239414   2.778   6.205   2.230 -0.1904  1.2330 -0.1989
 5927TIP3   OH239415   5.441   1.520   1.665 -0.0507  0.0773 -0.1321
 5927TIP3    H139416   5.509   1.556   1.721  0.3568  0.9638 -1.1643
 5927TIP3    H239417   5.360   1.556   1.700  0.2439  1.0121 -0.3992
 5928TIP3   OH239418   2.602   0.976   0.327 -0.2380  0.4299  0.3421
 5928TIP3    H139419   2.607   0.972   0.232 -0.9660 -0.9356  0.3345
 5928TIP3    H239420   2.668   1.041   0.352  0.3597  0.3866 -1.0474
 5929TIP3   OH239421   0.188   3.067   1.585  0.4120  0.3572 -0.1248
 5929TIP3    H139422   0.275   3.047   1.550  1.0256  1.6849  0.5851
 5929TIP3    H239423   0.170   3.156   1.556  0.9777  1.5731  2.8332
 5930TIP3   OH239424   6.836   1.892   1.761  0.1561  0.2805  0.0964
 5930TIP3    H139425   6.876   1.942   1.691 -0.7024  0.5097 -0.2435
 5930TIP3    H239426   6.763   1.946   1.791  1.2869  0.7942  2.0676
 5931TIP3   OH239427   3.580   4.208   1.871  0.5078  0.3987  0.2828
 5931TIP3    H139428   3.584   4.129   1.925  2.3484 -0.1901 -0.6010
 5931TIP3    H239429   3.630   4.273   1.920  0.5911  0.4372  0.1464
 5932TIP3   OH239430   3.831   2.836   2.786  0.3029 -0.2254 -0.3731
 5932TIP3    H139431   3.824   2.808   2.694 -0.5962  0.0614 -0.3924
 5932TIP3    H239432   3.846   2.930   2.781  0.8277 -0.2984 -0.2354
 5933TIP3   OH239433   6.258   6.299   1.917  0.0873  0.6040  0.3321
 5933TIP3    H139434   6.172   6.337   1.898 -0.0324  0.1126 -0.1293
 5933TIP3    H239435   6.317   6.342   1.856 -0.2216 -0.6540 -0.9046
 5934TIP3   OH239436   3.657   5.637   2.859 -0.3840  0.3173 -0.2809
 5934TIP3    H139437   3.683   5.571   2.795 -0.5503 -0.3177  0.2929
 5934TIP3    H239438   3.584   5.682   2.819 -1.4300 -1.0318  0.0341
 5935TIP3   OH239439   3.914   0.002   0.238 -0.4791 -0.0639 -0.5781
 5935TIP3    H139440   3.993   0.050   0.261 -0.1620 -1.1542  0.7220
 5935TIP3    H239441   3.947  -0.074   0.189 -0.8607  0.2584 -1.3521
 5936TIP3   OH239442   3.200   6.237   2.456  0.5436  0.3939 -0.4821
 5936TIP3    H139443   3.281   6.260   2.410  1.2866  0.3387  0.7534
 5936TIP3    H239444   3.176   6.317   2.503  0.2025  0.2363 -0.3866
 5937TIP3   OH239445   5.822   5.359   7.870 -0.0199 -0.7497  0.2146
 5937TIP3    H139446   5.821   5.277   7.820  2.5766 -1.8321  1.7140
 5937TIP3    H239447   5.912   5.390   7.861  0.0064  0.0450  2.5412
 5938TIP3   OH239448   6.247   1.230   0.517  0.2363 -0.2639 -0.1958
 5938TIP3    H139449   6.313   1.208   0.583  0.2834 -0.7204 -0.3878
 5938TIP3    H239450   6.280   1.309   0.474  1.2714 -1.1584 -1.1073
 5939TIP3   OH239451   2.125   4.478   2.664  0.7640 -0.0685  0.1192
 5939TIP3    H139452   2.207   4.432   2.682  0.8885 -0.0366 -0.3694
 5939TIP3    H239453   2.090   4.498   2.751  0.4798 -1.4839  0.3560
 5940TIP3   OH239454   1.024   4.059   1.964 -1.0351 -0.6688  0.5623
 5940TIP3    H139455   0.980   4.061   2.048 -0.6284 -0.6281  0.7747
 5940TIP3    H239456   1.087   4.131   1.968 -1.8954  0.1611 -0.2596
 5941TIP3   OH239457   2.369   3.324   0.899 -0.7383 -0.4766 -0.4476
 5941TIP3    H139458   2.274   3.339   0.908 -0.5506 -0.0086  0.9927
 5941TIP3    H239459   2.389   3.352   0.810 -2.1292 -1.5990 -1.1567
 5942TIP3   OH239460   0.432   4.133   1.161 -0.1966 -0.4210 -0.0365
 5942TIP3    H139461   0.356   4.150   1.106 -0.5720 -1.6637  0.0698
 5942TIP3    H239462   0.401   4.071   1.227  0.5152  0.2408  0.9469
 5943TIP3   OH239463   6.722   0.415   2.489  0.1110  0.5692 -0.3563
 5943TIP3    H139464   6.670   0.335   2.480 -0.2000  0.7107  0.1586
 5943TIP3    H239465   6.812   0.383   2.496  0.3771  0.4145 -3.3831
 5944TIP3   OH239466   6.839   1.470   0.123  0.0199  0.0406  0.2630
 5944TIP3    H139467   6.877   1.397   0.171  0.7408  0.1139 -0.1837
 5944TIP3    H239468   6.844   1.544   0.183  1.2998  0.2318 -0.0634
 5945TIP3   OH239469   3.240   1.487   0.910 -0.1856  0.2898 -0.1162
 5945TIP3    H139470   3.217   1.439   0.830  0.6993  3.1228 -2.2184
 5945TIP3    H239471   3.324   1.449   0.938  0.6901  0.7860 -1.9513
 5946TIP3   OH239472   3.636   5.973   7.930 -0.2905  0.0471  0.4245
 5946TIP3    H139473   3.557   5.939   7.888  0.5734  0.2513 -1.4647
 5946TIP3    H239474   3.704   5.909   7.908  0.1200 -0.0801  1.9425
 5947TIP3   OH239475   1.139   5.273   4.210  0.0952  0.4311 -0.2956
 5947TIP3    H139476   1.213   5.273   4.272 -1.2528 -0.2790  1.4007
 5947TIP3    H239477   1.113   5.365   4.205  0.2261  0.4980  0.1975
 5948TIP3   OH239478   4.241   6.036   1.357  0.2252  0.3765  0.8741
 5948TIP3    H139479   4.165   6.074   1.401 -0.7437 -0.2315 -0.2204
 5948TIP3    H239480   4.299   6.008   1.428 -1.7216 -1.4751  1.8405
 5949TIP3   OH239481   5.369   5.844   1.796 -0.0417  0.2612 -0.4512
 5949TIP3    H139482   5.349   5.866   1.887  1.2437 -1.4507  0.3110
 5949TIP3    H239483   5.289   5.804   1.762  0.1312 -1.1224  0.6731
 5950TIP3   OH239484   3.992   2.322   3.871  0.0494 -0.1747  0.2164
 5950TIP3    H139485   3.931   2.251   3.854  1.0377 -0.7966 -0.7840
 5950TIP3    H239486   3.941   2.384   3.925 -2.1004  0.2446 -2.0866
 5951TIP3   OH239487   0.919   0.654   1.127 -0.0628 -0.2426  0.0166
 5951TIP3    H139488   0.864   0.699   1.062 -0.5428 -1.5636 -0.5274
 5951TIP3    H239489   0.987   0.611   1.075  0.8868  0.5029  0.6022
 5952TIP3   OH239490   4.374   2.771   3.289  0.0993  0.0840  0.4290
 5952TIP3    H139491   4.468   2.784   3.293  0.1999 -0.8242  2.2139
 5952TIP3    H239492   4.350   2.742   3.377 -1.8457  0.2667  0.0162
 5953TIP3   OH239493   2.239   6.604   2.188 -0.2001 -0.1243 -0.7272
 5953TIP3    H139494   2.288   6.677   2.227 -1.0757  1.0151 -1.7026
 5953TIP3    H239495   2.166   6.589   2.249 -1.1187  1.1294 -1.4751
 5954TIP3   OH239496   0.893   0.679   0.723 -0.2920 -0.4231 -0.5771
 5954TIP3    H139497   0.861   0.601   0.770  0.0553  0.0820  0.5160
 5954TIP3    H239498   0.945   0.643   0.651 -0.8874 -1.2109 -0.6401
 5955TIP3   OH239499   4.068   1.841   0.696 -0.2421  0.0695  0.3433
 5955TIP3    H139500   4.142   1.805   0.647 -1.1767 -1.5973  0.0776
 5955TIP3    H239501   4.105   1.863   0.781  1.2886  2.5112 -0.8347
 5956TIP3   OH239502   3.039   6.469   1.039 -0.1022 -0.4742  0.1038
 5956TIP3    H139503   2.991   6.472   0.956  1.4442 -0.0606 -0.8297
 5956TIP3    H239504   3.088   6.551   1.041 -0.7994 -0.0519  1.9053
 5957TIP3   OH239505   0.373   5.142   3.115 -0.2089 -0.1764 -0.3566
 5957TIP3    H139506   0.354   5.137   3.209 -0.6262  1.0749 -0.3558
 5957TIP3    H239507   0.288   5.161   3.075 -0.1755 -1.4492 -1.0816
 5958TIP3   OH239508   0.338   3.484   0.047 -0.2534  0.0619  0.4903
 5958TIP3    H139509   0.263   3.526   0.004 -0.5220  0.0376  0.9246
 5958TIP3    H239510   0.364   3.545   0.115  1.2723  0.8978 -0.7920
 5959TIP3   OH239511   2.688   3.491   1.830 -0.2140  0.2878 -0.3712
 5959TIP3    H139512   2.642   3.534   1.903  0.1609  0.5535 -0.2878
 5959TIP3    H239513   2.774   3.532   1.829  0.7321 -1.5444  0.6903
 5960TIP3   OH239514   1.192   6.178   4.031  0.0441 -0.8385 -0.1607
 5960TIP3    H139515   1.225   6.182   4.121 -0.4226  0.2041 -0.0195
 5960TIP3    H239516   1.098   6.194   4.040  0.0575 -0.3452 -0.8658
 5961TIP3   OH239517   3.542   5.317   8.604 -0.7046 -0.1680 -0.0711
 5961TIP3    H139518   3.534   5.221   8.598  1.0612 -0.2680 -2.8495
 5961TIP3    H239519   3.500   5.348   8.523 -0.9967  1.4031  0.6663
 5962TIP3   OH239520   1.584   1.389   1.553 -0.3052  0.1428  0.5737
 5962TIP3    H139521   1.646   1.368   1.483  1.8854 -0.8381  2.6836
 5962TIP3    H239522   1.618   1.344   1.630 -3.1978  0.2982  2.0830
 5963TIP3   OH239523   4.840   5.683   2.508  0.3255 -0.0572 -0.3315
 5963TIP3    H139524   4.933   5.687   2.484  0.7607  0.4214  1.3109
 5963TIP3    H239525   4.838   5.632   2.588 -0.7004  0.8692  0.2618
 5964TIP3   OH239526   0.894   3.084   2.120  0.2179 -0.0086  0.1934
 5964TIP3    H139527   0.844   3.029   2.181 -1.0518  0.9378  0.0500
 5964TIP3    H239528   0.869   3.174   2.144  0.4248  0.4078 -1.1014
 5965TIP3   OH239529   6.604   3.440   6.931 -0.1538  0.2760  0.3424
 5965TIP3    H139530   6.532   3.422   6.991 -1.3328 -0.6850 -1.2882
 5965TIP3    H239531   6.678   3.392   6.968 -0.9452 -0.5782  0.8600
 5966TIP3   OH239532   4.335   0.216   1.232  0.1223 -0.3398  0.1240
 5966TIP3    H139533   4.425   0.221   1.201  0.1094 -2.3331 -0.4135
 5966TIP3    H239534   4.286   0.276   1.175  1.1077  0.8979  0.5413
 5967TIP3   OH239535   1.680   2.999   3.032 -0.0242  0.0845  0.0569
 5967TIP3    H139536   1.770   2.985   3.060 -0.2109  0.4829  0.8986
 5967TIP3    H239537   1.628   2.994   3.112 -0.7336  0.0083 -0.3929
 5968TIP3   OH239538   6.255   6.695   1.734  0.1292  0.2296  0.1214
 5968TIP3    H139539   6.206   6.643   1.670  1.1636 -2.2188  1.1931
 5968TIP3    H239540   6.194   6.762   1.762 -0.4716  1.2806 -3.1789
 5969TIP3   OH239541   3.326   2.128   0.271  0.0781  0.1649  0.2937
 5969TIP3    H139542   3.240   2.090   0.252  0.8282 -1.4696  0.0083
 5969TIP3    H239543   3.370   2.131   0.186  1.0619 -1.0513  0.7220
 5970TIP3   OH239544   5.509   5.657   3.747 -0.3910 -0.4164 -0.2846
 5970TIP3    H139545   5.461   5.718   3.691 -0.6045 -0.4343 -0.1206
 5970TIP3    H239546   5.599   5.690   3.747 -0.5255 -0.0488 -0.1205
 5971TIP3   OH239547   2.602   3.025   2.993 -0.1806 -0.4099 -0.0381
 5971TIP3    H139548   2.661   3.037   3.067  0.5611  1.4461 -0.8573
 5971TIP3    H239549   2.560   3.111   2.983  0.8703 -0.1184 -2.6737
 5972TIP3   OH239550   2.708   2.707   1.468 -0.3666 -0.1818  0.2779
 5972TIP3    H139551   2.693   2.616   1.442 -2.5694 -0.3826  1.9789
 5972TIP3    H239552   2.733   2.751   1.387  0.1860 -2.1796 -0.6913
 5973TIP3   OH239553   0.724   4.235   0.636  0.3960  0.4577 -0.0765
 5973TIP3    H139554   0.674   4.300   0.687  0.3754  1.0374 -0.8206
 5973TIP3    H239555   0.814   4.267   0.639  0.1446  1.4224 -1.7815
 5974TIP3   OH239556   1.760   5.986   3.060  0.3607 -0.3988  0.7208
 5974TIP3    H139557   1.714   6.069   3.044 -1.8682 -1.7334 -0.4546
 5974TIP3    H239558   1.840   5.993   3.009 -0.5053  0.5097 -0.5892
 5975TIP3   OH239559   1.156   5.024   2.008  0.5327  0.1025 -0.4109
 5975TIP3    H139560   1.142   4.940   2.052 -2.8754 -0.7322 -2.6988
 5975TIP3    H239561   1.109   5.088   2.062 -0.5988 -0.2833 -0.9176
 5976TIP3   OH239562   4.948   2.629   2.114  0.4200  0.0103  1.1643
 5976TIP3    H139563   4.989   2.668   2.037  0.4790  1.2350  1.7943
 5976TIP3    H239564   4.882   2.569   2.079 -0.9179  1.9749  0.1414
 5977TIP3   OH239565   0.019   0.847   0.487  0.7707 -0.2892 -0.0585
 5977TIP3    H139566   0.070   0.794   0.549 -0.5828 -0.1650  1.2170
 5977TIP3    H239567  -0.049   0.787   0.456  0.7471 -0.0093 -0.5464
 5978TIP3   OH239568   5.213   3.285   3.123  0.3098 -0.2977  0.1154
 5978TIP3    H139569   5.281   3.220   3.106 -0.5162 -0.8638 -1.2362
 5978TIP3    H239570   5.185   3.269   3.213  1.4796 -0.4959  0.4528
 5979TIP3   OH239571   5.611   4.602   1.936 -0.0574  0.3595 -0.2054
 5979TIP3    H139572   5.552   4.555   1.995 -0.6808  1.9144  0.4656
 5979TIP3    H239573   5.691   4.614   1.987 -0.2638  0.8785  0.0128
 5980TIP3   OH239574   3.671   3.341   1.543 -0.0179  1.0003 -0.0705
 5980TIP3    H139575   3.683   3.356   1.449  1.0151 -0.2357 -0.1582
 5980TIP3    H239576   3.753   3.302   1.572 -0.6240  0.6037  1.1911
 5981TIP3   OH239577   1.531   2.210   8.408  0.4237  0.2222 -0.4242
 5981TIP3    H139578   1.492   2.132   8.367 -1.8339 -0.0600  1.9791
 5981TIP3    H239579   1.483   2.284   8.371  0.2292  0.1709 -0.2813
 5982TIP3   OH239580   6.268   5.394   3.974  0.1182 -0.7401  0.3135
 5982TIP3    H139581   6.198   5.408   3.910  0.5555 -0.7690 -0.1714
 5982TIP3    H239582   6.300   5.482   3.993  0.4725 -0.7877 -0.0534
 5983TIP3   OH239583   0.193   1.970   2.910 -0.0105  0.1835  0.1304
 5983TIP3    H139584   0.193   2.059   2.946  0.4307  0.1093  0.3160
 5983TIP3    H239585   0.284   1.942   2.915  0.4384  0.8508 -2.7883
 5984TIP3   OH239586   6.072   4.940   7.703 -0.3957  0.2998 -0.1045
 5984TIP3    H139587   6.043   4.878   7.636 -2.1042 -0.3110  1.1377
 5984TIP3    H239588   5.997   4.998   7.716  0.3368  1.1556  0.4500
 5985TIP3   OH239589   0.536   4.287   0.373  0.2197  0.1579 -0.2216
 5985TIP3    H139590   0.449   4.309   0.406  0.6644  2.0869 -0.2444
 5985TIP3    H239591   0.589   4.274   0.452  0.4531  1.3476 -0.1608
 5986TIP3   OH239592   2.613   4.293   2.700  0.1479  0.2228  0.0009
 5986TIP3    H139593   2.587   4.215   2.748 -0.0768  0.0602 -0.3808
 5986TIP3    H239594   2.635   4.357   2.768 -2.2490  0.7288  0.3925
 5987TIP3   OH239595   5.135   3.296   0.522  0.3461  0.8574 -0.3842
 5987TIP3    H139596   5.168   3.294   0.612  0.0566 -0.7243 -0.2770
 5987TIP3    H239597   5.210   3.325   0.470  0.4146  2.1601  0.3787
 5988TIP3   OH239598   4.753   4.418   1.507 -0.0428 -0.0396 -0.0370
 5988TIP3    H139599   4.725   4.510   1.509  1.7637  0.5424 -0.2282
 5988TIP3    H239600   4.811   4.412   1.432  1.3377 -0.8781  1.0550
 5989TIP3   OH239601   5.817   4.134   8.467 -0.2991  0.3772 -0.5842
 5989TIP3    H139602   5.859   4.138   8.381  1.0594  0.8618  0.0656
 5989TIP3    H239603   5.837   4.047   8.500 -0.3342  0.3882 -0.5331
 5990TIP3   OH239604   6.839   2.685   2.267 -0.2059  0.1069  0.2065
 5990TIP3    H139605   6.771   2.746   2.293  0.4458  1.1110 -0.3792
 5990TIP3    H239606   6.813   2.655   2.180 -1.1202 -1.3692  0.9523
 5991TIP3   OH239607   4.238   5.970   0.058 -0.2781 -0.8448  0.1417
 5991TIP3    H139608   4.302   5.903   0.031 -0.3653 -0.5654 -0.8036
 5991TIP3    H239609   4.282   6.017   0.129  0.7077 -0.4555 -0.7062
 5992TIP3   OH239610   3.444   3.202   1.590 -0.5365 -0.4022  0.5397
 5992TIP3    H139611   3.523   3.255   1.579 -0.8411  0.0140  0.3447
 5992TIP3    H239612   3.460   3.152   1.670 -1.0114  1.3417  1.7732
 5993TIP3   OH239613   4.707   0.635   0.196 -0.2081 -0.1083 -0.1379
 5993TIP3    H139614   4.738   0.725   0.186 -0.1411 -0.2816 -1.8429
 5993TIP3    H239615   4.765   0.596   0.260 -0.0461  0.9787  0.3949
 5994TIP3   OH239616   6.572   1.982   0.471  0.1208 -0.9043  0.9868
 5994TIP3    H139617   6.651   1.943   0.508  1.0207  0.7692  0.9468
 5994TIP3    H239618   6.594   2.075   0.461 -1.2090 -0.7281 -0.7528
 5995TIP3   OH239619   2.697   2.244   0.291 -0.2123 -0.7719 -0.1076
 5995TIP3    H139620   2.713   2.336   0.273  2.0008 -1.0669  0.0899
 5995TIP3    H239621   2.710   2.235   0.386  0.6234 -1.4339 -0.2659
 5996TIP3   OH239622   1.182   5.320   2.249 -0.6137 -0.2568  0.1742
 5996TIP3    H139623   1.128   5.390   2.287  0.5972  0.6876  0.2009
 5996TIP3    H239624   1.187   5.343   2.156  1.3308  0.7772  0.4937
 5997TIP3   OH239625   0.673   3.450   0.018 -0.2072  0.0722  0.9699
 5997TIP3    H139626   0.686   3.360  -0.012  1.0648  0.8707 -1.0576
 5997TIP3    H239627   0.761   3.487   0.026 -0.7011  1.1315  1.8231
 5998TIP3   OH239628   5.296   0.160   2.922 -0.0846  0.0596 -0.3853
 5998TIP3    H139629   5.315   0.113   2.841  1.2043  2.1474 -1.4106
 5998TIP3    H239630   5.207   0.194   2.910 -0.1828 -0.2762 -0.6025
 5999TIP3   OH239631   3.676   3.961   1.974 -0.3438  0.0957  0.2189
 5999TIP3    H139632   3.754   3.931   2.020 -1.1954 -1.7189  0.5500
 5999TIP3    H239633   3.607   3.958   2.040 -0.9359  0.5901 -0.3690
 6000TIP3   OH239634   5.730   5.535   2.800 -0.1217  0.4659 -0.7894
 6000TIP3    H139635   5.676   5.577   2.732  1.1289  0.8266 -1.5980
 6000TIP3    H239636   5.762   5.607   2.854 -2.2333  0.0853  1.1150
 6001TIP3   OH239637   1.760   6.176   1.231  0.7102 -0.0191  0.3582
 6001TIP3    H139638   1.700   6.236   1.186 -0.7402 -0.8740  1.0619
 6001TIP3    H239639   1.812   6.137   1.161 -0.3167 -0.0565 -0.4087
 6002TIP3   OH239640   4.800   5.532   0.956 -0.4561 -0.2731  0.4451
 6002TIP3    H139641   4.873   5.471   0.970 -0.4337 -0.7781 -1.5526
 6002TIP3    H239642   4.755   5.498   0.879 -1.9415  0.8761  0.7623
 6003TIP3   OH239643   6.687   4.522   1.170  0.0235 -0.1016 -0.2613
 6003TIP3    H139644   6.645   4.473   1.099 -0.1863 -0.3298  0.0181
 6003TIP3    H239645   6.639   4.604   1.174 -0.7257 -0.5516  0.3744
 6004TIP3   OH239646   4.273   4.805   1.573  0.2253  0.3389 -0.3068
 6004TIP3    H139647   4.335   4.733   1.557  3.8775  2.9042  0.9816
 6004TIP3    H239648   4.235   4.823   1.486 -0.6709 -2.8565 -0.7012
 6005TIP3   OH239649   2.587   6.631   2.899  0.0212 -0.1761  0.2484
 6005TIP3    H139650   2.527   6.587   2.959 -1.2743  0.3585 -0.5987
 6005TIP3    H239651   2.577   6.584   2.816 -0.0395  0.5947 -0.1874
 6006TIP3   OH239652   0.622   0.314   0.155 -0.6085 -0.2776  0.3291
 6006TIP3    H139653   0.535   0.343   0.127  0.2846  0.5911 -1.7709
 6006TIP3    H239654   0.669   0.396   0.173  0.0979 -0.7034  0.4391
 6007TIP3   OH239655   5.918   3.113   8.206  0.5956 -0.6950  0.0132
 6007TIP3    H139656   5.823   3.117   8.194  0.4993 -0.8433  0.6981
 6007TIP3    H239657   5.945   3.034   8.160  0.6006  0.0968 -1.4347
 6008TIP3   OH239658   0.087   3.682   7.838  0.0545  0.5191 -0.4452
 6008TIP3    H139659   0.107   3.600   7.882  0.0446  1.4511  1.3528
 6008TIP3    H239660   0.008   3.663   7.787  0.0837 -0.5911 -0.1008
 6009TIP3   OH239661   1.176   0.204   8.523 -0.5209  0.5496 -0.3486
 6009TIP3    H139662   1.266   0.220   8.493  0.8490 -1.5004  2.1898
 6009TIP3    H239663   1.139   0.145   8.457 -0.1181  1.6078 -1.5519
 6010TIP3   OH239664   2.904   6.572   1.288  0.3980 -0.6047  0.5563
 6010TIP3    H139665   2.979   6.587   1.231 -0.6374  0.5780 -0.5721
 6010TIP3    H239666   2.884   6.658   1.325 -0.6120 -0.8161  0.5387
 6011TIP3   OH239667   4.261   6.384   1.852  0.0681 -0.0582 -0.3649
 6011TIP3    H139668   4.176   6.342   1.839  1.0667 -2.0456 -0.9290
 6011TIP3    H239669   4.296   6.394   1.764 -0.3218  2.4955 -0.2848
 6012TIP3   OH239670   1.054   3.143   8.759  0.7199 -0.3869 -0.1977
 6012TIP3    H139671   1.039   3.062   8.809 -0.2031  0.4604  0.9677
 6012TIP3    H239672   1.034   3.119   8.669  1.5417 -1.7340 -0.0410
 6013TIP3   OH239673   0.628   3.368   7.793  0.7247  0.1770 -0.1359
 6013TIP3    H139674   0.702   3.332   7.843  0.9887  0.1228 -0.5595
 6013TIP3    H239675   0.583   3.425   7.855  1.2302  0.3515  0.0784
 6014TIP3   OH239676   5.341   5.815   2.754 -0.0064  0.0839 -0.1890
 6014TIP3    H139677   5.251   5.840   2.736 -0.6463 -1.8665  0.1243
 6014TIP3    H239678   5.339   5.776   2.841  0.9289 -0.9140 -0.5801
 6015TIP3   OH239679   6.760   4.497   2.170 -0.1803  0.0257  0.4779
 6015TIP3    H139680   6.677   4.461   2.203  0.1837 -1.7368 -0.3778
 6015TIP3    H239681   6.749   4.498   2.075  0.6202  0.2020  0.3826
 6016TIP3   OH239682   1.536   1.490   1.989  0.0230  0.1910 -0.7687
 6016TIP3    H139683   1.542   1.417   2.051 -0.5721  1.0488  0.3540
 6016TIP3    H239684   1.461   1.469   1.933 -0.4315  0.1369 -0.1543
 6017TIP3   OH239685   1.692   0.151   3.446  0.2623 -0.1588  0.5259
 6017TIP3    H139686   1.669   0.079   3.387 -0.1345  0.3525  0.0390
 6017TIP3    H239687   1.608   0.186   3.475  0.4270  0.7402 -0.0347
 6018TIP3   OH239688   3.683   4.039   8.319 -0.0342  0.3943 -0.1217
 6018TIP3    H139689   3.619   3.970   8.336 -0.7154  1.3628  1.5561
 6018TIP3    H239690   3.630   4.119   8.312  0.9156  1.1246  0.7027
 6019TIP3   OH239691   6.427   1.676   3.978 -0.6007  0.1726 -0.4543
 6019TIP3    H139692   6.418   1.591   3.936 -1.5356 -0.4207  0.8456
 6019TIP3    H239693   6.468   1.657   4.062 -2.7412  0.6475  0.7802
 6020TIP3   OH239694   3.519   1.356   2.856  0.0516  0.4588 -0.6911
 6020TIP3    H139695   3.485   1.439   2.892 -0.8954 -0.4436  0.5930
 6020TIP3    H239696   3.606   1.348   2.895 -0.4376  0.1548  0.3920
 6021TIP3   OH239697   6.035   2.734   2.057  0.4643  0.1842  0.4056
 6021TIP3    H139698   6.035   2.666   2.125  2.1469 -0.2113  0.0483
 6021TIP3    H239699   6.084   2.696   1.985 -1.2332  0.6333 -1.0539
 6022TIP3   OH239700   0.305   6.850   3.403  0.3113  0.4886  0.1091
 6022TIP3    H139701   0.268   6.795   3.334  0.0638 -0.9431  1.3371
 6022TIP3    H239702   0.255   6.828   3.481  1.6977  0.7958  1.1308
 6023TIP3   OH239703   5.768   2.158   8.272 -0.7412  0.3104  0.5350
 6023TIP3    H139704   5.804   2.155   8.361  0.9642  0.8298 -0.0924
 6023TIP3    H239705   5.800   2.241   8.237  1.8355 -1.4783 -1.8112
 6024TIP3   OH239706   0.431   2.074   2.532 -0.4196  0.3394 -0.8514
 6024TIP3    H139707   0.395   2.009   2.592  0.6939  0.5476  0.0856
 6024TIP3    H239708   0.481   2.022   2.468  0.7305  0.2563  0.0776
 6025TIP3   OH239709   5.084   2.730   3.857  0.4749  0.0826 -0.6686
 6025TIP3    H139710   5.138   2.783   3.916 -0.0729  0.5502 -0.5806
 6025TIP3    H239711   4.994   2.757   3.875  0.1725 -0.9267 -0.5863
 6026TIP3   OH239712   6.107   6.844   8.522 -0.2499  0.0096 -0.1160
 6026TIP3    H139713   6.072   6.868   8.436 -1.8360 -0.4996  0.3622
 6026TIP3    H239714   6.202   6.837   8.508 -0.4750 -0.0803 -1.8194
 6027TIP3   OH239715   2.216   0.846   0.165  0.4345 -0.1314  0.1236
 6027TIP3    H139716   2.263   0.767   0.138  0.8716 -0.1501  0.9094
 6027TIP3    H239717   2.125   0.818   0.174  0.6088 -0.5793  0.5197
 6028TIP3   OH239718   2.552   3.159   1.919 -0.0975  0.3990 -0.0622
 6028TIP3    H139719   2.636   3.185   1.957  0.8247 -0.8960 -1.1117
 6028TIP3    H239720   2.497   3.237   1.927  0.9517  1.0463  1.3107
 6029TIP3   OH239721   1.033   5.993   1.486 -0.3354 -0.0078  0.4512
 6029TIP3    H139722   1.098   6.031   1.427  0.0834  0.7684  1.3875
 6029TIP3    H239723   1.038   5.899   1.469  0.1472  0.1583 -0.3761
 6030TIP3   OH239724   5.324   3.351   0.307  0.2626  0.0867 -0.2733
 6030TIP3    H139725   5.258   3.414   0.280 -0.2009  0.4415  1.5632
 6030TIP3    H239726   5.382   3.344   0.231 -0.9945  0.9282 -1.3642
 6031TIP3   OH239727   4.957   4.764   1.517 -0.1935  0.0788  0.5129
 6031TIP3    H139728   4.943   4.758   1.422 -0.4292  0.6117  0.5061
 6031TIP3    H239729   4.926   4.852   1.539  0.6975  0.2875  0.9471
 6032TIP3   OH239730   4.241   1.694   1.238  0.5347 -0.3407  0.3742
 6032TIP3    H139731   4.187   1.771   1.218  0.7159 -0.4164 -0.4049
 6032TIP3    H239732   4.200   1.657   1.317 -1.4051 -1.1671 -0.9359
 6033TIP3   OH239733   4.515   5.333   1.671 -0.1225 -0.0887  0.0071
 6033TIP3    H139734   4.479   5.408   1.623 -0.0047 -0.7661 -1.1835
 6033TIP3    H239735   4.542   5.369   1.755 -2.8634  0.6170  0.6820
 6034TIP3   OH239736   3.353   3.408   2.685 -0.2657  0.1181 -0.1629
 6034TIP3    H139737   3.415   3.479   2.703  0.2380 -0.2096 -0.5690
 6034TIP3    H239738   3.326   3.422   2.594  1.2337 -1.2229 -0.8708
 6035TIP3   OH239739   2.262   1.482   3.859 -0.4756 -0.3111 -0.2827
 6035TIP3    H139740   2.195   1.439   3.911  0.6626 -1.8025  0.0135
 6035TIP3    H239741   2.217   1.507   3.778 -1.4770 -0.8804  0.0843
 6036TIP3   OH239742   0.146   5.587   8.090  0.7101  0.0317 -0.2479
 6036TIP3    H139743   0.175   5.539   8.012 -2.1572 -3.4293  0.5578
 6036TIP3    H239744   0.204   5.556   8.160  0.1205 -0.7999 -0.1117
 6037TIP3   OH239745   2.657   4.959   1.939  0.2431 -0.4665  0.9560
 6037TIP3    H139746   2.677   4.868   1.920 -1.5091 -0.9919  1.4477
 6037TIP3    H239747   2.685   5.007   1.861  1.2018 -1.4047  0.7042
 6038TIP3   OH239748   6.370   6.429   2.764 -0.5366 -0.3149  0.4967
 6038TIP3    H139749   6.445   6.401   2.712 -0.6191  1.5726 -0.7221
 6038TIP3    H239750   6.396   6.411   2.855  0.2899 -2.0941 -0.0502
 6039TIP3   OH239751   6.456   4.010   1.567  0.1117  0.2194 -0.1644
 6039TIP3    H139752   6.447   3.970   1.653  0.7296  0.7019  0.1382
 6039TIP3    H239753   6.551   4.023   1.556 -0.0825  2.1278  0.0184
 6040TIP3   OH239754   6.592   3.685   8.081  0.0610 -0.3593 -0.3423
 6040TIP3    H139755   6.502   3.654   8.074 -1.4299  3.5914 -1.2324
 6040TIP3    H239756   6.612   3.722   7.995  0.8492  2.6846  1.0234
 6041TIP3   OH239757   1.823   1.737   2.084 -0.3161  0.0081 -0.2803
 6041TIP3    H139758   1.917   1.751   2.069 -0.7442  2.0066 -1.3944
 6041TIP3    H239759   1.780   1.778   2.009 -2.1385  0.0251  0.7222
 6042TIP3   OH239760   1.434   2.703   1.971 -0.5883  0.2776  0.3554
 6042TIP3    H139761   1.346   2.728   1.941 -1.2300 -0.7273  1.3039
 6042TIP3    H239762   1.456   2.626   1.918 -1.1101 -0.6197  1.4005
 6043TIP3   OH239763   1.667   2.529   8.326 -0.0155 -0.5405 -0.4800
 6043TIP3    H139764   1.700   2.509   8.239  0.2129  1.0498 -0.7895
 6043TIP3    H239765   1.573   2.514   8.321  0.2739 -2.8317 -0.2601
 6044TIP3   OH239766   2.984   5.455   0.867 -0.0579 -0.3008 -0.3213
 6044TIP3    H139767   3.032   5.414   0.938  0.2981 -0.6899 -0.7853
 6044TIP3    H239768   2.892   5.448   0.893  0.0137 -1.1855 -0.2920
 6045TIP3   OH239769   1.771   5.528   2.903  0.0995  0.3644 -0.5759
 6045TIP3    H139770   1.808   5.531   2.814  0.2572  1.3002 -0.4892
 6045TIP3    H239771   1.676   5.523   2.889  0.1908 -3.1917 -0.8150
 6046TIP3   OH239772   3.571   3.734   1.474  0.0676 -0.5007  0.2508
 6046TIP3    H139773   3.598   3.677   1.546  2.0319 -2.1395 -1.6593
 6046TIP3    H239774   3.574   3.822   1.512  2.1302 -1.1975  1.9326
 6047TIP3   OH239775   0.762   6.586   3.252 -0.3501 -0.1159  0.3908
 6047TIP3    H139776   0.807   6.501   3.256  2.2277  1.0286 -1.3253
 6047TIP3    H239777   0.785   6.629   3.334 -0.3222 -0.4509  0.5608
 6048TIP3   OH239778   2.846   1.165   0.104 -0.1313 -0.0163 -0.1677
 6048TIP3    H139779   2.847   1.190   0.197  0.3408 -0.5584 -0.0210
 6048TIP3    H239780   2.828   1.246   0.057  1.0304  0.5418  0.3092
 6049TIP3   OH239781   3.001   3.789   0.137  0.0605 -0.2608 -0.1902
 6049TIP3    H139782   2.951   3.866   0.110  0.9026  0.4371  0.2299
 6049TIP3    H239783   3.087   3.800   0.097 -0.0463 -1.4026 -0.8069
 6050TIP3   OH239784   2.569   4.580   2.086 -0.1981 -0.0231 -0.2634
 6050TIP3    H139785   2.505   4.562   2.155 -0.1440 -1.1947 -0.4843
 6050TIP3    H239786   2.654   4.579   2.131 -0.1530 -0.9006 -0.3406
 6051TIP3   OH239787   3.298   3.707   3.560  0.4709  0.3153 -0.1217
 6051TIP3    H139788   3.321   3.800   3.554  1.7880 -0.0605 -1.4860
 6051TIP3    H239789   3.252   3.699   3.644  2.5297  1.7604  1.2491
 6052TIP3   OH239790   4.941   5.083   1.137  0.5231  0.1542 -0.5948
 6052TIP3    H139791   4.887   5.121   1.207 -0.5947  0.7959 -1.7760
 6052TIP3    H239792   4.878   5.059   1.069  1.7527  1.3329 -2.2034
 6053TIP3   OH239793   4.514   5.167   0.452 -0.1937 -0.3880  0.0056
 6053TIP3    H139794   4.434   5.209   0.481 -0.6706 -0.6479 -0.8879
 6053TIP3    H239795   4.485   5.094   0.397  0.6579 -0.0584 -0.9150
 6054TIP3   OH239796   4.587   2.479   1.233  0.2997  0.1961 -0.1327
 6054TIP3    H139797   4.593   2.461   1.139  0.8877 -0.3729  0.0071
 6054TIP3    H239798   4.562   2.395   1.272 -0.7836  0.6360  0.1360
 6055TIP3   OH239799   2.406   0.377   1.635 -0.1255  0.1740 -0.0319
 6055TIP3    H139800   2.345   0.451   1.628  1.5231  1.6488  0.6934
 6055TIP3    H239801   2.443   0.369   1.547  1.7348  2.0898  0.4974
 6056TIP3   OH239802   6.732   0.286   1.435 -0.3319 -0.0503  0.1144
 6056TIP3    H139803   6.719   0.381   1.438  0.9812  0.1597 -0.0657
 6056TIP3    H239804   6.825   0.276   1.415 -0.5937 -1.3810 -0.5142
 6057TIP3   OH239805   0.612   3.056   7.820  0.0420  0.4071  0.2878
 6057TIP3    H139806   0.633   3.112   7.895  0.1850  0.4957  0.1810
 6057TIP3    H239807   0.521   3.030   7.835 -0.1903  1.0777  0.0786
 6058TIP3   OH239808   6.633   5.394   0.178 -0.1665 -0.3291 -0.0402
 6058TIP3    H139809   6.607   5.450   0.250 -0.3130 -0.1818 -0.2077
 6058TIP3    H239810   6.584   5.313   0.191  1.0601 -0.9446  0.9731
 6059TIP3   OH239811   6.350   2.264   1.737 -0.4408  1.0437 -0.3923
 6059TIP3    H139812   6.427   2.307   1.699 -0.5747  0.7124 -1.0453
 6059TIP3    H239813   6.276   2.302   1.689 -0.6693  1.1524  0.0390
 6060TIP3   OH239814   2.534   1.160   1.848  0.4636  0.2035 -0.6741
 6060TIP3    H139815   2.545   1.254   1.857 -0.0267  0.0865  1.8214
 6060TIP3    H239816   2.440   1.148   1.830  0.5056  0.1703 -0.8810
 6061TIP3   OH239817   4.209   4.716   3.164  0.5212  1.0051  0.5499
 6061TIP3    H139818   4.166   4.743   3.246 -0.1839  1.3417  0.0764
 6061TIP3    H239819   4.139   4.676   3.113  0.9708  0.7668  0.1152
 6062TIP3   OH239820   2.695   4.143   2.104  0.1568  0.0685 -0.4850
 6062TIP3    H139821   2.682   4.062   2.056  0.0213 -0.7278  0.8336
 6062TIP3    H239822   2.740   4.201   2.043  2.2355 -1.7301 -0.7921
 6063TIP3   OH239823   4.885   2.978   3.941  0.0462 -0.6822 -0.2960
 6063TIP3    H139824   4.870   2.943   3.854  1.0306 -1.5051 -0.1526
 6063TIP3    H239825   4.800   2.971   3.985 -0.4455 -0.2868 -1.1680
 6064TIP3   OH239826   5.197   1.720   3.224  0.2669  0.0840 -0.3009
 6064TIP3    H139827   5.113   1.676   3.211  0.3273 -0.2174  0.2493
 6064TIP3    H239828   5.241   1.666   3.290  0.1000  1.3189  0.8476
 6065TIP3   OH239829   2.996   2.060   8.299 -0.1768  0.1174 -0.1269
 6065TIP3    H139830   3.070   2.042   8.356 -1.3023 -0.2096  1.3109
 6065TIP3    H239831   2.993   1.986   8.238 -0.1509 -0.5962  0.7158
 6066TIP3   OH239832   5.944   3.428   2.520  0.0935  0.4084  0.4107
 6066TIP3    H139833   5.970   3.386   2.438 -0.2853 -0.3854  0.6824
 6066TIP3    H239834   5.868   3.377   2.549  0.7354  0.1424  1.6882
 6067TIP3   OH239835   5.171   4.138   2.820  0.0571  0.0785  0.6570
 6067TIP3    H139836   5.135   4.190   2.892 -0.9694 -0.2926  0.4314
 6067TIP3    H239837   5.161   4.194   2.743  0.0205  0.0054  0.6080
 6068TIP3   OH239838   3.009   4.675   1.629 -0.1119 -0.6191 -0.0062
 6068TIP3    H139839   3.059   4.596   1.606  0.8447  0.2471 -1.0343
 6068TIP3    H239840   3.076   4.742   1.641 -0.9698  0.3181 -0.3230
 6069TIP3   OH239841   4.771   0.917   0.663 -0.8193  0.2796 -0.2606
 6069TIP3    H139842   4.827   0.841   0.679  0.6821  0.7415 -2.8031
 6069TIP3    H239843   4.755   0.953   0.751  1.0600 -1.1288  0.7482
 6070TIP3   OH239844   0.487   0.388   0.533 -0.0230  0.0068 -0.4973
 6070TIP3    H139845   0.451   0.351   0.453 -0.2478  0.1461 -0.4625
 6070TIP3    H239846   0.425   0.360   0.601  0.0471  0.0737 -0.4067
 6071TIP3   OH239847   5.601   2.957   1.696  0.3548 -0.1669 -0.3345
 6071TIP3    H139848   5.667   2.941   1.764  1.2286  0.7542 -0.9365
 6071TIP3    H239849   5.534   3.010   1.740  1.0090  0.5894 -0.2190
 6072TIP3   OH239850   0.007   3.441   3.566 -0.1038 -0.2863 -0.1656
 6072TIP3    H139851   0.054   3.365   3.531 -1.6478 -1.0008 -0.7559
 6072TIP3    H239852   0.076   3.494   3.606  0.9854 -2.1247  0.5468
 6073TIP3   OH239853   2.314   1.098   0.189  1.2070  0.6484 -0.0118
 6073TIP3    H139854   2.399   1.089   0.147  1.7008  0.6112  0.9789
 6073TIP3    H239855   2.280   1.009   0.196 -0.4891  0.8210 -3.4557
 6074TIP3   OH239856   5.364   0.517   2.488  0.0073 -0.7998 -0.1428
 6074TIP3    H139857   5.297   0.571   2.446  0.5031  0.8620  1.0882
 6074TIP3    H239858   5.405   0.469   2.416  0.1776  1.2140 -1.4649
 6075TIP3   OH239859   5.428   3.407   2.811 -0.0999  0.5058 -0.0073
 6075TIP3    H139860   5.340   3.369   2.811 -0.0617  0.3718 -1.3101
 6075TIP3    H239861   5.476   3.356   2.876 -0.2638 -1.1921 -1.1472
 6076TIP3   OH239862   4.538   1.012   3.290 -0.1091  0.4194 -0.2962
 6076TIP3    H139863   4.502   1.065   3.219  1.3582  0.7861 -0.8233
 6076TIP3    H239864   4.593   0.947   3.245 -0.0543 -0.0769  0.4615
 6077TIP3   OH239865   0.449   2.655   2.123 -0.4056  0.6956  0.1361
 6077TIP3    H139866   0.424   2.599   2.196 -0.2713 -0.8417 -0.9308
 6077TIP3    H239867   0.377   2.716   2.112 -0.0817  1.4695  2.0079
 6078TIP3   OH239868   4.029   5.049   0.385 -0.1484  0.7885 -0.3689
 6078TIP3    H139869   4.023   5.126   0.441 -2.1435  1.3526 -1.2701
 6078TIP3    H239870   3.947   5.048   0.336 -0.5650 -2.3863  0.2044
 6079TIP3   OH239871   3.861   4.060   0.126 -0.2635 -0.2578 -0.3068
 6079TIP3    H139872   3.804   4.057   0.049 -1.4991 -1.9791  0.6054
 6079TIP3    H239873   3.804   4.090   0.197  0.5262  0.0461  0.2116
 6080TIP3   OH239874   3.929   1.989   3.094 -0.1655  0.4295  0.1966
 6080TIP3    H139875   3.884   1.923   3.146  0.8826  0.4478  1.1439
 6080TIP3    H239876   3.954   1.944   3.014  0.2438 -0.2236  0.6928
 6081TIP3   OH239877   5.602   5.135   2.970 -0.2147  0.0955  0.3155
 6081TIP3    H139878   5.669   5.095   3.026  0.1720  0.2543 -0.0272
 6081TIP3    H239879   5.547   5.062   2.943 -0.2793 -0.0128  0.7374
 6082TIP3   OH239880   4.212   3.085   2.320  0.5823 -0.1997 -0.1883
 6082TIP3    H139881   4.255   3.162   2.283  1.7516 -1.2080 -1.0291
 6082TIP3    H239882   4.160   3.119   2.393  0.8672  1.4019 -0.6894
 6083TIP3   OH239883   6.371   3.425   0.431  0.2048  0.0943  0.6676
 6083TIP3    H139884   6.394   3.335   0.406  2.0234  1.0268 -1.3642
 6083TIP3    H239885   6.399   3.478   0.356 -2.0592  2.2429  1.2302
 6084TIP3   OH239886   2.398   0.184   3.633  0.8426  0.1927 -0.2454
 6084TIP3    H139887   2.493   0.176   3.625  0.9985 -1.0022  1.9221
 6084TIP3    H239888   2.385   0.263   3.686  0.6939 -0.1319  0.2080
 6085TIP3   OH239889   0.871   0.806   2.282  0.3262 -0.3366 -0.0113
 6085TIP3    H139890   0.838   0.793   2.193  0.1833  2.0772 -0.3807
 6085TIP3    H239891   0.808   0.865   2.322  1.8810  0.9304  0.6956
 6086TIP3   OH239892   0.783   4.768   1.564 -0.1290 -0.9807 -0.4112
 6086TIP3    H139893   0.825   4.714   1.631 -1.6940 -0.3526  1.1330
 6086TIP3    H239894   0.718   4.711   1.524  0.9251 -1.4120 -1.5846
 6087TIP3   OH239895   5.223   1.663   2.678 -0.3999 -0.4771  0.4352
 6087TIP3    H139896   5.233   1.676   2.773 -1.6097 -1.9636  0.8192
 6087TIP3    H239897   5.215   1.751   2.642 -0.6326  0.0900  1.8172
 6088TIP3   OH239898   5.729   0.155   2.028  0.3098 -0.3331  0.1059
 6088TIP3    H139899   5.691   0.182   1.944 -1.9878 -2.3218  0.3765
 6088TIP3    H239900   5.655   0.158   2.089  1.2134 -1.8146  1.3219
 6089TIP3   OH239901   1.936   2.522   0.603 -0.0794 -0.2330  0.1158
 6089TIP3    H139902   1.924   2.497   0.512  1.2521  0.9202 -0.4166
 6089TIP3    H239903   1.906   2.613   0.607  1.8613  0.4442  0.2907
 6090TIP3   OH239904   3.720   2.544   3.837  0.9951  0.7197  0.0932
 6090TIP3    H139905   3.688   2.631   3.813  1.1321  0.8276  0.2904
 6090TIP3    H239906   3.698   2.488   3.763  1.8725  1.1457 -0.5074
 6091TIP3   OH239907   6.277   2.372   0.790 -0.6203  0.6170  0.6180
 6091TIP3    H139908   6.271   2.289   0.742  1.1659  0.7090  0.1632
 6091TIP3    H239909   6.198   2.420   0.764 -1.7758 -0.9788  1.0162
 6092TIP3   OH239910   3.894   4.662   8.368  0.6512  0.3489  0.2347
 6092TIP3    H139911   3.816   4.718   8.376  1.0380  1.0047 -0.5195
 6092TIP3    H239912   3.881   4.616   8.286  0.0438 -1.1559  1.1347
 6093TIP3   OH239913   1.566   3.398   2.634 -0.1049  0.2380  0.0429
 6093TIP3    H139914   1.553   3.493   2.642 -0.8985 -0.0038  2.6939
 6093TIP3    H239915   1.660   3.386   2.650  0.0586  0.5835 -0.6199
 6094TIP3   OH239916   3.556   1.904   2.639  0.2763  0.4637 -0.8021
 6094TIP3    H139917   3.493   1.962   2.682  0.5774  0.6579 -0.6199
 6094TIP3    H239918   3.539   1.915   2.546  1.0884  1.7064 -0.8140
 6095TIP3   OH239919   1.109   2.847   7.792 -0.3610  0.3378  0.7954
 6095TIP3    H139920   1.117   2.768   7.740 -0.3447  1.2374 -0.6309
 6095TIP3    H239921   1.025   2.885   7.766 -0.5669  0.5859  1.7664
 6096TIP3   OH239922   3.986   4.935   3.997  0.7591 -0.6638  0.3090
 6096TIP3    H139923   4.080   4.945   4.007  0.7420 -1.7221  2.0037
 6096TIP3    H239924   3.975   4.869   3.928  1.1673  0.8873 -1.2942
 6097TIP3   OH239925   0.322   5.697   0.842 -0.3082 -0.1708 -0.1946
 6097TIP3    H139926   0.405   5.657   0.869 -1.4767 -1.1469  2.2358
 6097TIP3    H239927   0.258   5.627   0.850 -1.6365  0.9708 -0.4606
 6098TIP3   OH239928   4.056   3.360   1.388 -0.5494  0.1675  0.3615
 6098TIP3    H139929   3.962   3.354   1.400 -0.5134  0.2109  0.6650
 6098TIP3    H239930   4.075   3.300   1.316 -0.8118  0.1820  0.2809
 6099TIP3   OH239931   1.568   3.772   0.413  0.0724  0.1450  0.1110
 6099TIP3    H139932   1.525   3.846   0.455 -1.5066  0.3627 -1.7154
 6099TIP3    H239933   1.537   3.775   0.322  2.8177 -0.6404 -0.9328
 6100TIP3   OH239934   4.093   0.553   2.182 -0.1273  0.0516 -0.5064
 6100TIP3    H139935   4.115   0.505   2.261 -1.2046 -0.1087 -0.3009
 6100TIP3    H239936   4.069   0.641   2.213  2.5110  1.0231 -0.9273
 6101TIP3   OH239937   1.272   4.790   1.712 -0.0302 -0.0231 -0.2614
 6101TIP3    H139938   1.367   4.799   1.715 -0.0706  0.1011  1.3406
 6101TIP3    H239939   1.253   4.721   1.776 -1.1842  1.5635  1.1826
 6102TIP3   OH239940   6.547   3.449   1.548  0.0852  0.2257 -0.1042
 6102TIP3    H139941   6.471   3.449   1.490  0.6742  0.7346 -0.8895
 6102TIP3    H239942   6.623   3.451   1.489  0.7078 -0.2410  0.6653
 6103TIP3   OH239943   3.157   1.528   0.477 -0.3766 -0.3711 -0.0365
 6103TIP3    H139944   3.217   1.505   0.406  1.8112  0.8587  1.3107
 6103TIP3    H239945   3.187   1.478   0.552 -0.4201  0.9461  0.8998
 6104TIP3   OH239946   6.572   2.392   1.652 -0.0099  0.1691 -0.0319
 6104TIP3    H139947   6.664   2.366   1.657  0.0149  0.1626 -0.5067
 6104TIP3    H239948   6.559   2.420   1.561 -1.0248 -1.8862 -0.5980
 6105TIP3   OH239949   3.690   5.902   0.585  0.3778  0.6577 -0.4852
 6105TIP3    H139950   3.773   5.855   0.581 -0.6373 -1.1982 -0.5889
 6105TIP3    H239951   3.676   5.934   0.495  2.0251  3.0327 -0.0178
 6106TIP3   OH239952   1.877   6.370   2.089 -0.6272  0.0563  0.3476
 6106TIP3    H139953   1.816   6.345   2.159 -0.2354  0.9777  1.0424
 6106TIP3    H239954   1.893   6.464   2.104  1.5927 -0.3238  0.7020
 6107TIP3   OH239955   4.687   0.432   2.197  0.1927 -0.2334 -0.3505
 6107TIP3    H139956   4.710   0.339   2.196 -0.6017 -0.4392  0.2095
 6107TIP3    H239957   4.769   0.476   2.173  0.3944 -1.1044 -1.3693
 6108TIP3   OH239958   1.882   5.143   3.588 -0.4228 -0.0842  0.6491
 6108TIP3    H139959   1.934   5.097   3.521  1.4309  1.0489  1.2358
 6108TIP3    H239960   1.881   5.234   3.559  1.3657  0.6458  2.6383
 6109TIP3   OH239961   0.661   5.811   0.885  0.0435  0.9861  0.0168
 6109TIP3    H139962   0.621   5.735   0.844 -0.6216  2.2477 -1.7986
 6109TIP3    H239963   0.753   5.787   0.895  0.0538  0.3104 -1.4908
 6110TIP3   OH239964   0.852   0.454   1.716  0.4906  0.1469 -0.1607
 6110TIP3    H139965   0.761   0.465   1.687 -0.0093  0.7294  1.5143
 6110TIP3    H239966   0.893   0.401   1.647 -1.0926 -0.0699 -0.9801
 6111TIP3   OH239967   4.059   5.516   8.704  0.3715 -0.2617  0.0975
 6111TIP3    H139968   4.025   5.517   8.793  1.0130  1.5182  0.3536
 6111TIP3    H239969   4.066   5.608   8.679  4.2038 -0.4761 -0.2040
 6112TIP3   OH239970   5.699   4.310   2.002  0.4611 -0.4857 -0.8786
 6112TIP3    H139971   5.745   4.244   2.055  1.4290 -0.2764 -1.4279
 6112TIP3    H239972   5.748   4.391   2.018  0.1743 -0.2211 -1.3526
 6113TIP3   OH239973   4.859   6.253   1.534  0.4404  0.1867 -0.7378
 6113TIP3    H139974   4.773   6.212   1.545 -0.1422  1.5585  0.0736
 6113TIP3    H239975   4.885   6.231   1.445  0.5172 -2.5435 -0.1223
 6114TIP3   OH239976   2.136   3.519   0.326  0.5437 -0.0563 -0.0046
 6114TIP3    H139977   2.134   3.585   0.257  1.0538 -0.5968 -0.5544
 6114TIP3    H239978   2.136   3.435   0.279  3.2957 -0.4540  0.5192
 6115TIP3   OH239979   2.716   0.823   1.002 -0.5011 -0.5363 -0.0877
 6115TIP3    H139980   2.631   0.813   0.959 -1.4596  2.4072  0.8945
 6115TIP3    H239981   2.696   0.824   1.095  0.7893 -0.8913  0.2082
 6116TIP3   OH239982   6.697   5.932   8.780  0.4907  0.0230  0.0695
 6116TIP3    H139983   6.610   5.947   8.742  0.5597  0.7618  0.1853
 6116TIP3    H239984   6.690   5.847   8.824  0.1291 -0.3954 -0.7841
 6117TIP3   OH239985   2.315   0.422   3.725  0.3794  0.1514  0.5051
 6117TIP3    H139986   2.243   0.476   3.692  0.9011 -0.5586 -2.0761
 6117TIP3    H239987   2.297   0.411   3.818 -0.8858  2.9465  0.6806
 6118TIP3   OH239988   3.419   5.939   4.014 -0.0213  0.5132 -0.1556
 6118TIP3    H139989   3.494   5.914   3.960 -0.1290  0.8780 -0.4806
 6118TIP3    H239990   3.405   5.864   4.072 -0.6716 -0.4308 -1.4761
 6119TIP3   OH239991   2.713   2.746   2.052  0.4651 -0.0273  0.2075
 6119TIP3    H139992   2.762   2.753   1.970  0.7877 -5.2571 -0.3875
 6119TIP3    H239993   2.621   2.745   2.026  0.4746  0.2286  0.1618
 6120TIP3   OH239994   3.069   3.513   3.482 -0.3907 -0.7876 -0.3559
 6120TIP3    H139995   3.014   3.570   3.427  1.0960 -0.1631 -1.2531
 6120TIP3    H239996   3.083   3.564   3.562 -0.6887 -0.7283 -0.3406
 6121TIP3   OH239997   4.102   3.480   0.764  0.1994  0.0645 -0.0451
 6121TIP3    H139998   4.102   3.517   0.852 -0.3163  1.2613 -0.5268
 6121TIP3    H239999   4.010   3.481   0.738  0.3507 -0.2487 -0.6090
 6122TIP3   OH240000   4.588   6.172   8.477 -0.1275  0.2068  0.1377
 6122TIP3    H140001   4.570   6.196   8.568 -0.4571  0.0711  0.1089
 6122TIP3    H240002   4.509   6.127   8.448  0.8058 -1.7504  0.4663
 6123TIP3   OH240003   5.398   5.492   0.984  0.0360  0.3517 -0.6678
 6123TIP3    H140004   5.467   5.498   1.050 -0.0258 -0.2781 -0.5355
 6123TIP3    H240005   5.439   5.447   0.910 -0.0420  0.5923 -0.8615
 6124TIP3   OH240006   6.138   2.989   3.860 -0.4048  0.6898  0.6689
 6124TIP3    H140007   6.156   3.036   3.942  0.9147  2.5684 -0.6229
 6124TIP3    H240008   6.130   2.897   3.887  1.6951  1.0082  2.6936
 6125TIP3   OH240009   0.467   3.839   3.090  0.3430 -0.3801 -0.5516
 6125TIP3    H140010   0.548   3.803   3.127  0.9218  0.8105 -0.6048
 6125TIP3    H240011   0.398   3.810   3.149  1.1363  0.7668  0.9850
 6126TIP3   OH240012   2.104   6.526   0.478  0.2017 -0.3245 -0.1515
 6126TIP3    H140013   2.145   6.577   0.409 -0.1690  0.0226 -0.1192
 6126TIP3    H240014   2.054   6.590   0.529 -0.8538 -0.8119 -0.5377
 6127TIP3   OH240015   0.370   5.405   2.586  0.2974  0.5753 -0.5717
 6127TIP3    H140016   0.282   5.433   2.562  0.4362  0.3215 -1.3911
 6127TIP3    H240017   0.389   5.453   2.667 -0.9185  0.0062  0.0870
 6128TIP3   OH240018   1.832   2.878   1.831 -0.0113 -0.5353  0.1408
 6128TIP3    H140019   1.790   2.956   1.866 -0.0153 -0.7593  0.6376
 6128TIP3    H240020   1.923   2.904   1.817  0.2187 -0.7319  1.2394
 6129TIP3   OH240021   6.263   0.062   0.935 -0.0057 -0.2419  0.0012
 6129TIP3    H140022   6.326   0.129   0.908 -0.2305  0.3004  0.7851
 6129TIP3    H240023   6.226   0.095   1.017 -1.4097 -0.4852 -0.4989
 6130TIP3   OH240024   2.278   1.800   3.355 -0.2729 -0.0006 -0.1157
 6130TIP3    H140025   2.328   1.732   3.310  0.5025  0.0439  0.6526
 6130TIP3    H240026   2.344   1.850   3.404 -1.1074 -0.2472  1.3207
 6131TIP3   OH240027   3.742   6.418   8.191 -0.0736 -0.1344 -0.2388
 6131TIP3    H140028   3.698   6.360   8.128 -0.0528 -1.2705  0.7581
 6131TIP3    H240029   3.717   6.506   8.164  0.2467 -0.5487 -2.0759
 6132TIP3   OH240030   4.383   4.998   0.772  0.0706  0.5711  0.1845
 6132TIP3    H140031   4.328   5.040   0.838 -0.2309 -0.1874  0.4250
 6132TIP3    H240032   4.462   5.052   0.769 -0.2119  1.0209  0.6514
 6133TIP3   OH240033   0.031   5.606   2.247 -0.1912  0.0856 -0.1287
 6133TIP3    H140034   0.078   5.685   2.274  1.3997 -0.8616  0.0347
 6133TIP3    H240035  -0.022   5.583   2.323  1.4861 -0.5359  0.9037
 6134TIP3   OH240036   6.780   1.422   2.438  0.6461  0.0649 -0.9054
 6134TIP3    H140037   6.769   1.351   2.501  1.0466  0.2095 -0.6633
 6134TIP3    H240038   6.725   1.398   2.364  0.4501 -0.2868 -0.6474
 6135TIP3   OH240039   4.531   0.786   0.491 -0.2994  0.2428  0.4697
 6135TIP3    H140040   4.453   0.734   0.508  0.4858 -1.2324 -0.2689
 6135TIP3    H240041   4.583   0.779   0.571 -0.7439  0.9577  0.8379
 6136TIP3   OH240042   4.511   1.249   1.986  0.4997 -0.1635 -0.0778
 6136TIP3    H140043   4.514   1.233   1.892  1.0785 -0.1021 -0.0749
 6136TIP3    H240044   4.425   1.219   2.013 -0.6825  2.1196 -1.0572
 6137TIP3   OH240045   3.710   1.627   3.051  0.3260  0.5333  0.4390
 6137TIP3    H140046   3.692   1.659   2.962 -1.3317 -0.4002  0.4037
 6137TIP3    H240047   3.742   1.704   3.098  0.5787  1.2018 -0.7808
 6138TIP3   OH240048   4.132   1.182   0.429 -0.0354 -0.4446 -0.1070
 6138TIP3    H140049   4.117   1.108   0.370 -0.1596 -0.0805 -0.5356
 6138TIP3    H240050   4.152   1.256   0.371 -1.3190  0.2108  0.2316
 6139TIP3   OH240051   5.166   6.596   0.658  0.9736  0.2586  0.6410
 6139TIP3    H140052   5.220   6.546   0.720 -0.5436 -1.2349  0.8317
 6139TIP3    H240053   5.133   6.530   0.596  0.8905  1.4296 -0.6023
 6140TIP3   OH240054   0.952   1.801   0.744  0.0615 -0.1978  0.4591
 6140TIP3    H140055   1.002   1.864   0.796 -0.4328  0.7206 -0.1454
 6140TIP3    H240056   1.000   1.796   0.661  0.1843 -0.7429  0.5603
 6141TIP3   OH240057   4.895   0.933   2.102  0.4314  0.3832 -0.2450
 6141TIP3    H140058   4.822   0.991   2.124  0.8893  0.7182  0.3991
 6141TIP3    H240059   4.855   0.846   2.099  0.2568  0.3749  1.5331
 6142TIP3   OH240060   1.671   5.123   0.377  0.2941 -0.2675  0.2694
 6142TIP3    H140061   1.661   5.135   0.283  0.7998 -2.4841 -0.1334
 6142TIP3    H240062   1.766   5.114   0.390  0.2300  0.0522  0.9850
 6143TIP3   OH240063   3.441   3.835   1.809 -0.0095 -0.2792  0.1152
 6143TIP3    H140064   3.530   3.860   1.833 -0.1164 -0.4106  0.6684
 6143TIP3    H240065   3.406   3.793   1.888 -0.9078  0.6799  0.2370
 6144TIP3   OH240066   2.254   1.830   8.263  0.4479  0.3614  0.2832
 6144TIP3    H140067   2.243   1.736   8.278  0.2965 -0.0269 -1.9206
 6144TIP3    H240068   2.344   1.839   8.231  0.2390  0.8549 -0.1803
 6145TIP3   OH240069   0.444   0.561   1.423 -0.0514  0.2693  0.0601
 6145TIP3    H140070   0.512   0.507   1.465 -0.5139  1.1486  2.0795
 6145TIP3    H240071   0.368   0.552   1.481 -1.5797 -0.3917 -1.9397
 6146TIP3   OH240072   3.008   0.269   0.716 -0.4219  0.8079  0.0621
 6146TIP3    H140073   2.940   0.237   0.657 -0.3357  0.1695  0.2999
 6146TIP3    H240074   3.035   0.191   0.765  1.0367  0.8874 -0.5753
 6147TIP3   OH240075   3.308   1.570   1.403  0.4096  0.2290 -0.6521
 6147TIP3    H140076   3.297   1.601   1.313 -1.4368  1.6167 -0.0192
 6147TIP3    H240077   3.220   1.546   1.431  0.3441  2.7624  1.7444
 6148TIP3   OH240078   3.860   2.772   2.514 -0.2896  0.1344  0.0403
 6148TIP3    H140079   3.956   2.762   2.513  0.0485  2.6835  0.3724
 6148TIP3    H240080   3.834   2.766   2.423  0.2306 -0.1396 -0.0972
 6149TIP3   OH240081   4.372   6.834   2.515  0.1094 -0.3714 -0.0260
 6149TIP3    H140082   4.278   6.827   2.497 -0.1748 -1.2698  1.6184
 6149TIP3    H240083   4.393   6.756   2.565  1.9825 -0.6854 -1.1935
 6150TIP3   OH240084   6.423   3.540   0.692  0.1003 -0.2004 -0.1777
 6150TIP3    H140085   6.394   3.504   0.608  1.7046 -0.3711 -0.6960
 6150TIP3    H240086   6.487   3.476   0.724 -0.6152 -0.2186  1.2606
 6151TIP3   OH240087   2.431   2.440   2.604 -0.4741 -0.3355 -0.6198
 6151TIP3    H140088   2.413   2.402   2.691 -0.8193  2.7252  0.7565
 6151TIP3    H240089   2.463   2.528   2.622  3.6473 -0.9633 -3.4741
 6152TIP3   OH240090   3.008   2.230   2.572  0.1938  0.2177  0.0186
 6152TIP3    H140091   2.947   2.167   2.611  0.4025  1.8486  3.3410
 6152TIP3    H240092   3.070   2.177   2.522  1.1156 -2.4521  3.6334
 6153TIP3   OH240093   6.410   5.065   8.341 -0.2727 -0.2715 -0.1259
 6153TIP3    H140094   6.429   5.111   8.260  1.2577  0.3055  0.5415
 6153TIP3    H240095   6.431   5.127   8.410 -2.1761 -0.5177  0.7395
 6154TIP3   OH240096   5.113   1.634   1.400  0.3046  0.2074 -0.3449
 6154TIP3    H140097   5.185   1.694   1.384 -0.8077  1.6646 -0.1191
 6154TIP3    H240098   5.037   1.690   1.413 -0.4635 -1.1809  1.7215
 6155TIP3   OH240099   6.112   1.172   2.840 -0.2454 -0.4037 -0.0454
 6155TIP3    H140100   6.180   1.128   2.891 -2.0664 -0.9033  2.0785
 6155TIP3    H240101   6.071   1.102   2.790  1.7203  0.1210 -2.6256
 6156TIP3   OH240102   1.161   6.529   1.373 -0.2028  0.5609 -0.5189
 6156TIP3    H140103   1.110   6.560   1.298  0.8574  2.5959 -0.4772
 6156TIP3    H240104   1.235   6.590   1.378 -0.8885  1.3225  2.9423
 6157TIP3   OH240105   1.672   6.153   2.559 -0.0274  0.5783  0.1998
 6157TIP3    H140106   1.686   6.093   2.485  0.9640  1.3024 -0.2170
 6157TIP3    H240107   1.728   6.118   2.628  0.1435  0.7153  0.1316
 6158TIP3   OH240108   2.141   5.542   2.290  0.3113  0.2216  0.0896
 6158TIP3    H140109   2.129   5.629   2.326 -0.3593  0.2182 -0.1113
 6158TIP3    H240110   2.146   5.556   2.195  4.0785  0.4738  0.1697
 6159TIP3   OH240111   2.423   3.657   0.323 -0.1721 -0.3166 -0.0543
 6159TIP3    H140112   2.350   3.621   0.274  0.9153 -1.8866 -0.6035
 6159TIP3    H240113   2.500   3.636   0.270  0.6897  1.4940  0.3796
 6160TIP3   OH240114   1.899   3.241   0.416  0.2119  0.6814  0.3702
 6160TIP3    H140115   1.855   3.203   0.492  0.2052  0.3136  0.1842
 6160TIP3    H240116   1.919   3.330   0.443  0.1561  0.5742  0.7824
 6161TIP3   OH240117   0.803   0.913   2.744  0.3880 -0.7091 -0.5346
 6161TIP3    H140118   0.760   0.941   2.825  0.3349  0.2372 -0.8833
 6161TIP3    H240119   0.835   0.994   2.705  0.0168 -1.1060 -1.6863
 6162TIP3   OH240120   1.358   4.137   3.231 -0.1905  0.4015  0.1910
 6162TIP3    H140121   1.323   4.048   3.227 -0.9012  0.5028  2.4907
 6162TIP3    H240122   1.358   4.159   3.325  2.3599  1.8967 -0.0433
 6163TIP3   OH240123   5.564   1.058   3.139 -0.4540  0.1691 -0.0382
 6163TIP3    H140124   5.568   0.995   3.211 -1.8161  1.0397  0.8560
 6163TIP3    H240125   5.621   1.022   3.072 -2.5069 -2.9400 -0.3081
 6164TIP3   OH240126   6.222   6.296   2.428  0.5160 -0.4912  0.5465
 6164TIP3    H140127   6.249   6.304   2.337  2.2915 -2.7447  0.7753
 6164TIP3    H240128   6.210   6.387   2.457  1.4474  0.3587 -1.4941
 6165TIP3   OH240129   2.622   1.646   1.742  0.0848 -0.0009 -0.1744
 6165TIP3    H140130   2.707   1.686   1.762  0.4022 -0.8942  0.2946
 6165TIP3    H240131   2.602   1.676   1.653  0.8646  0.2619 -0.2700
 6166TIP3   OH240132   6.417   0.425   3.354  0.3300 -0.4453 -0.0965
 6166TIP3    H140133   6.408   0.334   3.328  1.1629 -0.6658  0.3430
 6166TIP3    H240134   6.333   0.447   3.395 -0.5198 -0.4783 -1.7103
 6167TIP3   OH240135   2.062   1.824   0.273 -0.0620  0.0432 -0.2901
 6167TIP3    H140136   1.988   1.769   0.249 -0.3019  0.9209 -1.7403
 6167TIP3    H240137   2.139   1.777   0.238 -0.3986  1.2526 -2.9435
 6168TIP3   OH240138   6.666   4.955   8.780  0.1085 -0.4172 -0.1090
 6168TIP3    H140139   6.696   4.865   8.767  0.7282 -0.5678  1.9867
 6168TIP3    H240140   6.746   5.004   8.797 -0.2863  0.4399 -0.6678
 6169TIP3   OH240141   4.368   6.687   3.345  0.3037  0.1864  0.4228
 6169TIP3    H140142   4.344   6.732   3.426 -0.8263  1.1552 -0.4145
 6169TIP3    H240143   4.298   6.624   3.330  0.5050  0.0117  0.1960
 6170TIP3   OH240144   1.768   3.753   1.558  0.1048 -0.4785  0.3180
 6170TIP3    H140145   1.819   3.754   1.639 -1.9188 -2.1737  1.7110
 6170TIP3    H240146   1.818   3.699   1.498  0.5778 -1.0592  1.2202
 6171TIP3   OH240147   3.671   2.105   3.103 -0.3202 -0.1851  0.4047
 6171TIP3    H140148   3.726   2.036   3.140  1.3111  1.2983  0.8882
 6171TIP3    H240149   3.716   2.131   3.022  0.1964  1.5911  1.1994
 6172TIP3   OH240150   5.408   6.550   3.114 -0.2485 -0.0269  0.3518
 6172TIP3    H140151   5.316   6.523   3.116 -0.0414 -0.7822  0.0203
 6172TIP3    H240152   5.413   6.621   3.178 -1.2527  0.6559 -0.2943
 6173TIP3   OH240153   0.745   6.275   2.782  0.7399 -0.3045 -0.3679
 6173TIP3    H140154   0.720   6.192   2.742  0.1924 -0.3000 -0.0481
 6173TIP3    H240155   0.679   6.290   2.850  0.9077  0.3270 -0.3351
 6174TIP3   OH240156   5.428   1.591   3.106  0.1833 -0.3188 -0.8541
 6174TIP3    H140157   5.426   1.622   3.197  0.2201  2.8953 -1.8313
 6174TIP3    H240158   5.522   1.583   3.086  0.1916 -0.0993 -0.9004
 6175TIP3   OH240159   5.159   5.509   1.574  0.4885  0.1774 -0.6593
 6175TIP3    H140160   5.179   5.595   1.537  0.4175 -0.2780 -1.7754
 6175TIP3    H240161   5.188   5.516   1.665 -2.4588  2.4676  0.2887
 6176TIP3   OH240162   2.291   5.933   1.469 -0.8077  0.1721 -0.2556
 6176TIP3    H140163   2.282   5.944   1.564  0.0454  0.1547 -0.1621
 6176TIP3    H240164   2.318   6.020   1.438 -0.4855  0.0229 -0.3952
 6177TIP3   OH240165   0.806   3.125   8.367  0.2759 -0.3044 -0.1413
 6177TIP3    H140166   0.895   3.133   8.330 -0.0000  0.4568 -0.6657
 6177TIP3    H240167   0.751   3.175   8.307 -0.5276 -0.8184  0.1520
 6178TIP3   OH240168   0.385   4.094   3.026  0.2036 -0.2202 -0.1607
 6178TIP3    H140169   0.336   4.091   2.944 -1.0084 -1.2965  0.5660
 6178TIP3    H240170   0.434   4.011   3.028  2.2264  0.8833 -0.9318
 6179TIP3   OH240171   6.068   1.627   2.445  0.1135 -0.7400 -0.3981
 6179TIP3    H140172   6.114   1.639   2.528 -0.6895 -0.5901  0.0349
 6179TIP3    H240173   6.098   1.699   2.390 -0.3760 -0.0468  0.2325
 6180TIP3   OH240174   5.227   4.286   1.090  0.1389 -0.3037 -0.9386
 6180TIP3    H140175   5.213   4.373   1.052 -1.9818  0.1480  0.7354
 6180TIP3    H240176   5.149   4.236   1.067 -0.9268 -0.2230  2.0782
 6181TIP3   OH240177   3.330   5.114   1.499 -0.3661  0.4734  0.0903
 6181TIP3    H140178   3.315   5.046   1.434 -0.9667  0.9873 -0.3203
 6181TIP3    H240179   3.385   5.072   1.566 -0.1187 -0.1901 -0.5174
 6182TIP3   OH240180   1.253   5.330   1.360 -0.2239  0.3354  0.4480
 6182TIP3    H140181   1.300   5.291   1.434  0.1006  0.3698  0.2597
 6182TIP3    H240182   1.236   5.420   1.388  1.0296  0.7435 -0.0227
 6183TIP3   OH240183   5.856   5.586   0.314  0.4934 -0.1446 -0.1059
 6183TIP3    H140184   5.908   5.634   0.379  1.3436 -0.4066 -0.5641
 6183TIP3    H240185   5.816   5.654   0.260 -1.6165  0.1259  1.6896
 6184TIP3   OH240186   0.721   3.789   2.798 -0.5673 -0.3192  0.5370
 6184TIP3    H140187   0.723   3.780   2.893  2.2677 -2.0297  0.4168
 6184TIP3    H240188   0.795   3.845   2.776 -1.1421  0.0117 -0.6969
 6185TIP3   OH240189   1.603   2.930   1.389  0.3354  0.3828  0.2601
 6185TIP3    H140190   1.513   2.959   1.404  0.5561  0.8770  0.6542
 6185TIP3    H240191   1.618   2.863   1.456  0.6611  1.1734  0.9947
 6186TIP3   OH240192   4.090   6.672   3.105 -0.6026  0.2027 -0.0987
 6186TIP3    H140193   4.141   6.592   3.118  0.1309  0.8321  1.1020
 6186TIP3    H240194   4.025   6.670   3.175  0.4299  1.3937  0.9553
 6187TIP3   OH240195   0.087   5.766   1.382  0.0084 -0.2523  0.2729
 6187TIP3    H140196   0.114   5.761   1.291  0.3884 -0.4710  0.3940
 6187TIP3    H240197   0.147   5.829   1.421  0.5684 -0.9683  0.6130
 6188TIP3   OH240198   2.194   6.454   8.547 -0.6813  0.5025  0.0836
 6188TIP3    H140199   2.273   6.498   8.517 -0.2344 -0.3943 -0.0974
 6188TIP3    H240200   2.191   6.373   8.496 -2.8245  1.4318 -1.4601
 6189TIP3   OH240201   4.980   1.434   2.871  0.1464 -0.3533  0.0674
 6189TIP3    H140202   5.066   1.468   2.897  0.3039  0.3598 -1.2615
 6189TIP3    H240203   4.971   1.351   2.918  0.9389  0.2409  1.3132
 6190TIP3   OH240204   4.319   3.960   0.915  0.1164 -0.3925 -0.4793
 6190TIP3    H140205   4.262   3.962   0.992  0.5418 -3.0250 -0.0033
 6190TIP3    H240206   4.261   3.982   0.842 -0.8667 -0.2640  0.3139
 6191TIP3   OH240207   3.784   1.248   1.969  0.2984 -0.4541 -0.0689
 6191TIP3    H140208   3.744   1.294   1.895 -0.7447  1.2781  1.5109
 6191TIP3    H240209   3.804   1.316   2.032 -1.1165 -2.0919  2.3077
 6192TIP3   OH240210   3.397   5.695   0.574 -0.6481  0.3163 -0.1155
 6192TIP3    H140211   3.308   5.669   0.551 -1.3424  1.4013  1.1742
 6192TIP3    H240212   3.405   5.785   0.542 -0.2337  0.4383  0.3126
 6193TIP3   OH240213   5.107   6.833   1.012  0.2862  0.0510 -0.3348
 6193TIP3    H140214   5.123   6.826   0.918  2.0871  0.4987 -0.1041
 6193TIP3    H240215   5.014   6.853   1.019  0.2356  0.5837 -2.0463
 6194TIP3   OH240216   0.579   0.265   3.038 -0.1629 -0.1487 -0.1986
 6194TIP3    H140217   0.646   0.322   3.001  0.9508 -1.2883 -0.0136
 6194TIP3    H240218   0.618   0.232   3.119 -0.2638 -2.0630 -0.8622
 6195TIP3   OH240219   1.630   3.660   2.985 -0.5070  0.4477  0.4121
 6195TIP3    H140220   1.650   3.593   3.051 -1.2636  1.1374  1.3774
 6195TIP3    H240221   1.700   3.723   2.994  1.9908 -1.6016 -2.6150
 6196TIP3   OH240222   5.113   1.125   2.815  0.6112 -0.2250  0.0492
 6196TIP3    H140223   5.194   1.102   2.861  1.4287  2.5258  0.2049
 6196TIP3    H240224   5.106   1.060   2.744  2.6365 -0.8927  0.3897
 6197TIP3   OH240225   1.833   5.080   2.813 -0.2289  0.1514 -0.2882
 6197TIP3    H140226   1.839   4.994   2.856 -1.0662  0.4608  0.4671
 6197TIP3    H240227   1.803   5.139   2.881 -1.5136  0.6792 -1.2619
 6198TIP3   OH240228   3.433   1.015   8.421  0.5652  0.0193  0.1640
 6198TIP3    H140229   3.431   1.104   8.385  0.1318  0.8866  2.1620
 6198TIP3    H240230   3.496   1.020   8.493  0.0380 -1.1068  0.7267
 6199TIP3   OH240231   3.868   5.094   2.709 -0.0399  0.0134 -0.2013
 6199TIP3    H140232   3.897   5.013   2.666  2.3672  0.3638  0.6052
 6199TIP3    H240233   3.942   5.119   2.765 -2.0608  0.9179  2.2446
 6200TIP3   OH240234   6.848   2.926   0.333 -0.3383 -0.0997 -0.3043
 6200TIP3    H140235   6.776   2.987   0.318 -1.7456 -1.6996 -0.3975
 6200TIP3    H240236   6.894   2.961   0.410 -0.8216  1.2802 -0.6155
 6201TIP3   OH240237   6.256   5.308   0.103 -0.5050 -0.4982 -0.4148
 6201TIP3    H140238   6.175   5.302   0.052 -0.8193  1.5740 -0.2316
 6201TIP3    H240239   6.304   5.380   0.063  1.2570 -1.6652 -0.4827
 6202TIP3   OH240240   6.473   5.926   2.835 -0.6061 -0.0781  0.2126
 6202TIP3    H140241   6.456   6.004   2.888 -1.2876  0.9907 -1.4985
 6202TIP3    H240242   6.401   5.867   2.856 -0.0137 -0.3533  1.6206
 6203TIP3   OH240243   1.507   0.047   0.086  0.0268 -0.0183  0.2777
 6203TIP3    H140244   1.561   0.120   0.059 -1.6046  0.4401 -2.0049
 6203TIP3    H240245   1.445   0.085   0.149 -0.3391  0.4285 -0.3400
 6204TIP3   OH240246   4.345   4.569   1.433  0.6318 -0.2972  0.4277
 6204TIP3    H140247   4.266   4.604   1.392  0.0599 -0.1806  1.5982
 6204TIP3    H240248   4.326   4.476   1.447  0.5185 -0.1769  1.1071
 6205TIP3   OH240249   6.460   3.072   2.152 -0.3008 -0.0554 -0.3609
 6205TIP3    H140250   6.514   2.996   2.174 -2.2100 -1.0816  1.1008
 6205TIP3    H240251   6.388   3.036   2.101 -0.7953  0.8951 -0.3531
 6206TIP3   OH240252   1.491   6.339   0.019 -0.1306 -0.7062 -0.1853
 6206TIP3    H140253   1.540   6.278  -0.036  0.8215 -1.0898  1.0487
 6206TIP3    H240254   1.516   6.426  -0.013  0.2487 -0.9195 -0.4826
 6207TIP3   OH240255   6.255   1.057   1.093 -0.7514 -0.1823 -0.3055
 6207TIP3    H140256   6.337   1.023   1.056 -0.9495 -1.7345  0.5883
 6207TIP3    H240257   6.186   1.020   1.037 -0.8933  0.1479 -0.3476
 6208TIP3   OH240258   4.455   5.114   2.537 -0.7562  0.2054 -0.1809
 6208TIP3    H140259   4.387   5.048   2.546 -2.2442  1.5398 -1.0308
 6208TIP3    H240260   4.505   5.110   2.618 -0.2201 -2.5310 -0.5657
 6209TIP3   OH240261   5.425   5.181   2.528  0.1254 -0.2301  0.8475
 6209TIP3    H140262   5.443   5.236   2.604 -2.1607  0.8162  0.6889
 6209TIP3    H240263   5.487   5.108   2.537  1.2219  0.8424  2.6387
 6210TIP3   OH240264   6.272   1.532   0.392 -0.2271 -0.0779 -0.5705
 6210TIP3    H140265   6.276   1.607   0.452 -1.2013  0.1139 -0.7284
 6210TIP3    H240266   6.364   1.512   0.373  0.0855  0.2739  0.4606
 6211TIP3   OH240267   6.267   5.088   7.919 -0.2661 -0.4898 -0.0845
 6211TIP3    H140268   6.226   5.047   7.843  1.7762 -0.1691 -1.4411
 6211TIP3    H240269   6.310   5.017   7.965 -0.0988 -0.4453 -0.1723
 6212TIP3   OH240270   3.730   5.857   2.617 -0.0453 -0.3510 -0.1544
 6212TIP3    H140271   3.755   5.898   2.699  0.1781  0.5520 -0.6615
 6212TIP3    H240272   3.770   5.769   2.621  2.6255  0.7392 -0.5762
 6213TIP3   OH240273   5.240   3.399   1.831  0.0417  0.4940  0.0310
 6213TIP3    H140274   5.206   3.450   1.758  3.6621  1.5750 -1.0850
 6213TIP3    H240275   5.231   3.456   1.907 -0.1956  0.9136 -0.3081
 6214TIP3   OH240276   5.384   1.129   8.458  0.1611  0.4132 -0.2865
 6214TIP3    H140277   5.385   1.034   8.455  1.1670  0.3764  0.7775
 6214TIP3    H240278   5.424   1.152   8.542 -1.1779  1.7553  0.0457
 6215TIP3   OH240279   6.240   5.772   2.823  0.4577  0.2258 -0.0828
 6215TIP3    H140280   6.153   5.800   2.795 -0.1559  1.1453  2.4722
 6215TIP3    H240281   6.239   5.677   2.813 -1.3299  0.0806  1.0365
 6216TIP3   OH240282   5.612   1.600   1.910 -0.3658 -0.1492 -0.2500
 6216TIP3    H140283   5.604   1.532   1.977 -0.9232  0.6203  0.4981
 6216TIP3    H240284   5.546   1.665   1.934  0.9194  1.2233 -0.2564
 6217TIP3   OH240285   0.404   2.050   7.728  0.1512  0.1883  0.1353
 6217TIP3    H140286   0.414   1.986   7.799 -1.8802  0.3242  0.5997
 6217TIP3    H240287   0.367   2.000   7.656  1.4878  0.2255 -0.6213
 6218TIP3   OH240288   0.932   1.245   8.041  0.1296 -0.6101 -0.1191
 6218TIP3    H140289   0.955   1.171   8.097 -0.0815 -0.8466 -0.3407
 6218TIP3    H240290   0.850   1.278   8.078 -0.8970 -1.7768 -1.2243
 6219TIP3   OH240291   1.532   3.643   2.738 -0.1013 -0.6637  0.1459
 6219TIP3    H140292   1.575   3.656   2.822  0.0426  0.7294 -0.1229
 6219TIP3    H240293   1.439   3.658   2.756  0.1478  1.7260 -0.3182
 6220TIP3   OH240294   2.643   2.198   2.915 -0.2792 -0.0644 -0.1421
 6220TIP3    H140295   2.692   2.247   2.849  0.2707  1.7956  1.5739
 6220TIP3    H240296   2.560   2.246   2.924 -1.7836 -2.1670 -1.7301
 6221TIP3   OH240297   1.220   6.470   2.319  0.3907 -0.4349 -0.0374
 6221TIP3    H140298   1.125   6.461   2.311  0.3316 -0.0470  0.2342
 6221TIP3    H240299   1.237   6.473   2.413  0.7809 -1.6168 -0.0500
 6222TIP3   OH240300   2.521   4.073   4.002  0.1925 -0.6625  0.0126
 6222TIP3    H140301   2.577   3.997   4.017 -0.5050 -1.1126  0.4085
 6222TIP3    H240302   2.561   4.144   4.053  0.0571 -1.1482  0.8138
 6223TIP3   OH240303   0.624   1.573   0.240  0.1357  0.0546  0.5642
 6223TIP3    H140304   0.549   1.582   0.299 -0.3021  0.6734 -0.0704
 6223TIP3    H240305   0.647   1.480   0.245 -1.3242 -0.3633 -0.0083
 6224TIP3   OH240306   2.106   0.427   8.110  0.2550 -0.2420 -0.0117
 6224TIP3    H140307   2.024   0.470   8.089  0.2167 -1.1720 -2.0288
 6224TIP3    H240308   2.174   0.481   8.068  0.5854 -0.0137  0.8040
 6225TIP3   OH240309   2.539   5.441   0.674 -0.4782  0.5018 -0.1483
 6225TIP3    H140310   2.519   5.497   0.600 -1.0785 -0.4043 -0.6949
 6225TIP3    H240311   2.507   5.489   0.750  0.6183  1.6746 -0.3882
 6226TIP3   OH240312   2.382   5.404   3.119 -0.0087 -0.0967  0.2210
 6226TIP3    H140313   2.405   5.377   3.030 -0.5983 -1.2240  0.3867
 6226TIP3    H240314   2.453   5.372   3.173 -1.0233 -1.9820  0.5024
 6227TIP3   OH240315   4.130   1.150   1.523 -0.2953  0.2005 -0.4510
 6227TIP3    H140316   4.087   1.071   1.488 -1.2117 -0.4456  1.9795
 6227TIP3    H240317   4.222   1.140   1.497 -0.7421 -0.6998 -1.8051
 6228TIP3   OH240318   0.958   2.337   2.042  0.1278  0.2681 -0.5945
 6228TIP3    H140319   0.877   2.345   1.991 -0.8064  1.2130  0.9319
 6228TIP3    H240320   0.966   2.422   2.086  0.1416 -0.8975  1.8009
 6229TIP3   OH240321   4.401   4.313   2.740 -0.2710 -0.1659 -0.6949
 6229TIP3    H140322   4.338   4.385   2.732  0.7892  1.0305  1.0238
 6229TIP3    H240323   4.370   4.263   2.816 -0.7642 -1.3130 -1.6273
 6230TIP3   OH240324   1.162   2.725   2.041 -0.0954 -0.2938 -0.3950
 6230TIP3    H140325   1.115   2.657   2.090 -0.1066 -0.1593 -0.2172
 6230TIP3    H240326   1.133   2.715   1.951  0.8819 -1.3826 -0.6148
 6231TIP3   OH240327   2.229   5.169   3.650 -0.8516 -0.5201  0.1707
 6231TIP3    H140328   2.320   5.160   3.624 -0.0242  3.1115  1.1919
 6231TIP3    H240329   2.182   5.182   3.567 -0.7627 -3.4713 -0.4616
 6232TIP3   OH240330   0.794   2.444   0.169  0.0405  0.1093  0.0620
 6232TIP3    H140331   0.804   2.537   0.185  3.0834 -0.1616  0.3491
 6232TIP3    H240332   0.768   2.438   0.077  0.5271  1.2296 -0.1655
 6233TIP3   OH240333   4.137   2.458   2.182  0.1665  0.4494  0.6094
 6233TIP3    H140334   4.131   2.415   2.097  0.0216 -0.9653  1.2917
 6233TIP3    H240335   4.053   2.503   2.191 -0.6461 -1.0105  0.7903
 6234TIP3   OH240336   2.962   6.163   3.447 -0.2359 -0.5109  0.2850
 6234TIP3    H140337   2.890   6.116   3.488 -1.4576  0.4753 -0.6348
 6234TIP3    H240338   3.035   6.101   3.447 -1.0101 -1.4610  1.4284
 6235TIP3   OH240339   4.795   6.304   1.877 -0.0313 -0.6054 -0.0647
 6235TIP3    H140340   4.795   6.360   1.800  2.8489 -1.1839 -0.6030
 6235TIP3    H240341   4.800   6.365   1.951  0.8333 -0.1084 -0.5257
 6236TIP3   OH240342   4.094   5.117   2.869  0.9323  0.1956  0.5092
 6236TIP3    H140343   4.061   5.178   2.936 -1.0992  0.8089 -0.9243
 6236TIP3    H240344   4.125   5.041   2.918 -1.4371  0.1698  2.1613
 6237TIP3   OH240345   3.126   3.103   2.855  0.1164  0.4352 -0.0780
 6237TIP3    H140346   3.150   3.034   2.917  0.0130  0.4898  0.0218
 6237TIP3    H240347   3.145   3.185   2.901 -3.3561  0.5964  1.3220
 6238TIP3   OH240348   3.673   0.231   1.772  0.0939 -0.0760 -0.4908
 6238TIP3    H140349   3.667   0.139   1.797  0.8619  0.1079  0.4610
 6238TIP3    H240350   3.598   0.272   1.816  0.8681  0.0690  0.7607
 6239TIP3   OH240351   1.003   6.304   1.172 -0.3687 -0.1929  0.0569
 6239TIP3    H140352   1.017   6.309   1.077 -1.3565  0.3113 -0.0811
 6239TIP3    H240353   1.022   6.214   1.195 -2.9578 -1.1462 -1.1420
 6240TIP3   OH240354   2.960   5.780   8.454  0.2596 -0.3264 -0.3711
 6240TIP3    H140355   2.965   5.804   8.547  1.6847  0.1874 -0.5646
 6240TIP3    H240356   3.042   5.811   8.417 -0.1771 -0.7852 -1.7580
 6241TIP3   OH240357   5.444   2.271   1.294  0.0642 -0.7963 -0.3772
 6241TIP3    H140358   5.510   2.275   1.225  0.3008  2.6252 -0.1166
 6241TIP3    H240359   5.380   2.338   1.271 -0.6992 -0.6452  1.8752
 6242TIP3   OH240360   2.954   0.859   8.437 -0.5012  0.0889 -0.5577
 6242TIP3    H140361   2.908   0.936   8.471 -0.5097  0.5895 -1.6421
 6242TIP3    H240362   3.031   0.850   8.493 -1.2829 -0.0326  0.5242
 6243TIP3   OH240363   1.691   2.971   1.148  0.1872  0.7721  0.2106
 6243TIP3    H140364   1.612   2.998   1.101  0.4454 -0.0594 -0.7347
 6243TIP3    H240365   1.662   2.957   1.238 -0.6385  0.9227 -0.0286
 6244TIP3   OH240366   6.332   4.640   3.130 -0.0224 -0.2306 -0.1739
 6244TIP3    H140367   6.292   4.590   3.058 -2.7557  0.8832  0.4212
 6244TIP3    H240368   6.257   4.670   3.182  1.4379  3.8434 -0.0952
 6245TIP3   OH240369   1.528   6.194   4.122 -0.1885  0.2882 -0.4197
 6245TIP3    H140370   1.554   6.286   4.129  1.0104 -0.0725  0.0518
 6245TIP3    H240371   1.455   6.185   4.183  0.5702  0.6281  0.5688
 6246TIP3   OH240372   3.678   1.412   4.207  0.5881  0.5007  0.2650
 6246TIP3    H140373   3.750   1.466   4.241  0.9850 -0.7532  1.5007
 6246TIP3    H240374   3.606   1.428   4.267  0.4189  0.3363  0.1078
 6247TIP3   OH240375   4.479   5.076   2.024  0.1144 -0.6896  0.8278
 6247TIP3    H140376   4.450   5.056   2.113 -1.2878 -1.1099  0.3086
 6247TIP3    H240377   4.423   5.022   1.968  1.5582 -1.0795 -0.2760
 6248TIP3   OH240378   0.719   6.193   1.751  0.3877  0.0375 -0.0844
 6248TIP3    H140379   0.678   6.130   1.811  0.7147 -0.3971 -0.3209
 6248TIP3    H240380   0.747   6.141   1.676  0.1390  0.5567 -0.5433
 6249TIP3   OH240381   4.283   0.728   8.600 -0.2052  0.2914 -0.1824
 6249TIP3    H140382   4.238   0.760   8.678 -0.3898 -0.3413 -0.0243
 6249TIP3    H240383   4.358   0.680   8.634 -1.1756 -1.3894 -0.3045
 6250TIP3   OH240384   0.046   4.218   0.626  0.1260  0.2410  0.0698
 6250TIP3    H140385  -0.001   4.178   0.700 -1.4762 -0.6563 -1.3546
 6250TIP3    H240386   0.068   4.145   0.569  1.1608  0.9411 -0.4648
 6251TIP3   OH240387   2.858   3.453   3.305 -0.2523 -0.0361 -0.5613
 6251TIP3    H140388   2.919   3.381   3.321 -0.5085 -0.1706 -0.1585
 6251TIP3    H240389   2.875   3.480   3.215  1.9211  1.4100  0.2062
 6252TIP3   OH240390   4.530   5.120   3.034 -0.2082  0.0961 -0.2560
 6252TIP3    H140391   4.550   5.030   3.010 -1.2203 -0.6026  1.3580
 6252TIP3    H240392   4.473   5.113   3.110  2.0091  2.1350  1.7584
 6253TIP3   OH240393   4.558   6.199   3.668  0.3623  0.9251  0.0154
 6253TIP3    H140394   4.473   6.207   3.624 -0.2757 -1.2237  0.7312
 6253TIP3    H240395   4.620   6.184   3.597 -0.2635  0.0147 -0.3606
 6254TIP3   OH240396   6.637   5.993   1.111 -0.9101  0.0930 -0.2756
 6254TIP3    H140397   6.682   5.937   1.047 -0.4217 -0.5810  0.6337
 6254TIP3    H240398   6.609   5.933   1.180 -1.9576  0.7223 -0.1277
 6255TIP3   OH240399   1.974   6.392   1.599 -0.3824 -0.2062  0.1320
 6255TIP3    H140400   1.926   6.406   1.517  0.1754 -1.4483 -0.4408
 6255TIP3    H240401   1.952   6.468   1.653 -1.0259  0.4781 -1.0401
 6256TIP3   OH240402   6.731   1.175   3.105  0.1264  0.1831 -0.3219
 6256TIP3    H140403   6.668   1.117   3.061 -0.8932  0.1825  1.0648
 6256TIP3    H240404   6.745   1.135   3.191 -1.2344  2.3318  1.0048
 6257TIP3   OH240405   0.699   6.536   4.121 -0.3129  0.0953  0.0211
 6257TIP3    H140406   0.611   6.538   4.083  0.1227 -2.8108 -1.4418
 6257TIP3    H240407   0.757   6.556   4.048  0.3032  1.0556  0.7610
 6258TIP3   OH240408   2.081   1.843   0.836  0.6183 -0.3138 -0.2104
 6258TIP3    H140409   2.006   1.900   0.851  1.8939  0.8557  2.3443
 6258TIP3    H240410   2.145   1.898   0.792  0.9924 -0.4777  0.1212
 6259TIP3   OH240411   1.993   5.418   8.291  0.1101 -0.0146 -0.4301
 6259TIP3    H140412   1.958   5.367   8.218 -0.6606 -0.3995  0.1950
 6259TIP3    H240413   1.931   5.490   8.302 -0.3533 -0.5222  0.4766
 6260TIP3   OH240414   4.696   3.763   0.262 -0.1978  0.1030 -0.7786
 6260TIP3    H140415   4.734   3.683   0.298 -1.5141 -0.9577 -1.6687
 6260TIP3    H240416   4.766   3.802   0.210 -0.1596 -1.6183 -2.0953
 6261TIP3   OH240417   4.269   3.510   2.060  0.3965 -0.0282  0.1347
 6261TIP3    H140418   4.225   3.568   2.122  1.5740 -0.2441  1.2121
 6261TIP3    H240419   4.206   3.499   1.988  0.0216  2.2751  0.0592
 6262TIP3   OH240420   4.534   1.751   2.774 -0.5315 -0.2477  0.9980
 6262TIP3    H140421   4.466   1.722   2.713 -0.4628  0.8626  0.3692
 6262TIP3    H240422   4.505   1.719   2.859 -0.4634 -2.1249  0.3693
 6263TIP3   OH240423   2.050   1.059   8.654 -0.1031  0.1829  0.1130
 6263TIP3    H140424   2.063   0.992   8.721  0.2387  0.0843 -0.0469
 6263TIP3    H240425   1.984   1.021   8.595  0.8362 -0.4657 -0.5551
 6264TIP3   OH240426   1.321   6.458   2.569 -0.8325  0.3884 -0.1238
 6264TIP3    H140427   1.320   6.501   2.655 -0.0007  2.4458 -1.0486
 6264TIP3    H240428   1.410   6.475   2.536 -0.7786 -1.3418 -0.9341
 6265TIP3   OH240429   5.057   1.861   0.966 -0.3313 -0.5191  0.6806
 6265TIP3    H140430   5.039   1.787   1.025  0.4329 -0.0995  1.4723
 6265TIP3    H240431   5.146   1.889   0.990 -0.7303  0.8590  0.6307
 6266TIP3   OH240432   6.055   2.446   1.730  0.2195  0.5080  0.2728
 6266TIP3    H140433   6.107   2.448   1.650  2.4849  2.5823  1.6664
 6266TIP3    H240434   5.980   2.391   1.708  1.4176 -0.1030 -2.8215
 6267TIP3   OH240435   2.494   0.690   3.014 -0.3930 -0.3852  0.2763
 6267TIP3    H140436   2.459   0.776   3.039 -0.6680 -0.6572  0.8470
 6267TIP3    H240437   2.461   0.630   3.081 -0.6737 -1.0376 -0.4279
 6268TIP3   OH240438   1.626   2.804   1.627 -0.1318 -0.1926 -0.4824
 6268TIP3    H140439   1.581   2.721   1.642 -1.1639  0.6353  1.3668
 6268TIP3    H240440   1.706   2.798   1.679 -0.5806  0.2454  0.2717
 6269TIP3   OH240441   6.367   1.627   1.735  0.2827 -0.1585  0.0728
 6269TIP3    H140442   6.335   1.543   1.701  0.2447 -0.8763  1.7774
 6269TIP3    H240443   6.444   1.647   1.682  1.2676 -2.1023  0.6904
 6270TIP3   OH240444   4.941   5.353   0.568 -1.1845  0.4965  0.9359
 6270TIP3    H140445   5.017   5.402   0.600 -1.5849  2.0128 -0.2606
 6270TIP3    H240446   4.936   5.276   0.624  2.5419 -0.8504 -0.2762
 6271TIP3   OH240447   0.645   5.232   0.141  0.2443 -0.8005 -0.2844
 6271TIP3    H140448   0.630   5.174   0.215  1.3034  0.0812  0.6488
 6271TIP3    H240449   0.738   5.222   0.120  0.5973  0.9222  0.2651
 6272TIP3   OH240450   2.041   3.076   1.969 -0.5177 -0.1600  0.4556
 6272TIP3    H140451   2.128   3.092   1.932 -0.2122  2.1974  1.9765
 6272TIP3    H240452   2.045   3.115   2.056 -2.9738 -0.4219  0.7508
 6273TIP3   OH240453   6.373   0.411   1.054  0.0596  0.0728  0.2535
 6273TIP3    H140454   6.297   0.448   1.007  0.5457  1.9126  0.8390
 6273TIP3    H240455   6.389   0.473   1.125  1.9997 -0.3916  0.2583
 6274TIP3   OH240456   5.589   3.227   2.974 -0.1954 -0.0082  0.2521
 6274TIP3    H140457   5.601   3.248   3.067  0.6556  3.9945 -0.5564
 6274TIP3    H240458   5.678   3.208   2.942  0.2289  2.5510 -0.3713
 6275TIP3   OH240459   0.182   3.861   2.236 -0.2940  0.0328  0.6365
 6275TIP3    H140460   0.105   3.812   2.265 -0.6899  1.0854  1.4616
 6275TIP3    H240461   0.148   3.923   2.172  0.1752 -0.6460 -0.2911
 6276TIP3   OH240462   6.669   3.273   0.108  0.1166 -0.3897  1.1838
 6276TIP3    H140463   6.700   3.362   0.121 -0.5889  0.0532  0.0051
 6276TIP3    H240464   6.573   3.280   0.112  0.0577 -1.1121  1.2097
 6277TIP3   OH240465   1.817   1.169   3.253 -0.3090  0.3699  0.3384
 6277TIP3    H140466   1.721   1.174   3.254 -0.2675  1.4162  1.4314
 6277TIP3    H240467   1.844   1.226   3.325  1.0890 -0.9884  0.9499
 6278TIP3   OH240468   2.491   2.280   1.605 -0.0406  0.5076 -0.1369
 6278TIP3    H140469   2.463   2.209   1.663 -1.6554 -0.6714 -2.2466
 6278TIP3    H240470   2.586   2.285   1.619 -0.2156 -0.4317  1.7761
 6279TIP3   OH240471   5.692   2.159   0.681  0.4018 -0.0088 -0.5033
 6279TIP3    H140472   5.731   2.206   0.607  1.8394 -0.2607  0.0701
 6279TIP3    H240473   5.717   2.210   0.758 -2.0182  0.8828 -0.2018
 6280TIP3   OH240474   1.799   0.431   1.545 -0.8946 -0.2698 -0.3268
 6280TIP3    H140475   1.709   0.452   1.572 -1.8408  0.2300 -3.5004
 6280TIP3    H240476   1.811   0.339   1.571 -1.1856  0.4462  2.6991
 6281TIP3   OH240477   1.712   2.098   1.174  0.2995  0.1332 -0.3680
 6281TIP3    H140478   1.670   2.125   1.255  0.0671  0.3515 -0.5608
 6281TIP3    H240479   1.788   2.156   1.166  0.1282  0.3454 -0.4816
 6282TIP3   OH240480   5.627   4.664   8.569  0.1633  0.0900  0.1329
 6282TIP3    H140481   5.648   4.611   8.646  0.6084 -0.6702 -0.4903
 6282TIP3    H240482   5.697   4.644   8.507 -1.7833 -1.7072 -1.6390
 6283TIP3   OH240483   1.271   1.099   7.650  0.0567 -0.2477 -0.0601
 6283TIP3    H140484   1.306   1.162   7.586  1.1610 -0.0681  0.6948
 6283TIP3    H240485   1.218   1.152   7.709 -1.3689 -0.4850 -1.0677
 6284TIP3   OH240486   4.176   0.637   2.762  0.0930 -0.3279  0.2145
 6284TIP3    H140487   4.132   0.560   2.726 -0.1836 -0.7911  1.5025
 6284TIP3    H240488   4.123   0.662   2.837  0.6631  0.6051  0.3141
 6285TIP3   OH240489   2.007   6.139   2.683 -0.3879  0.6106 -0.6994
 6285TIP3    H140490   2.049   6.111   2.764 -0.3703 -1.4716 -1.3442
 6285TIP3    H240491   1.938   6.074   2.668 -1.1766  1.6433 -1.7291
 6286TIP3   OH240492   4.212   2.195   1.128  0.1595  0.1077  0.0156
 6286TIP3    H140493   4.237   2.153   1.045 -1.7458  0.7178 -0.9354
 6286TIP3    H240494   4.150   2.264   1.102  0.0017  0.7351  1.9095
 6287TIP3   OH240495   4.402   1.702   2.990 -0.3149 -0.0304  0.0123
 6287TIP3    H140496   4.420   1.790   3.022 -0.4962 -0.3941  1.1831
 6287TIP3    H240497   4.322   1.710   2.939  0.1157  0.6199 -0.5704
 6288TIP3   OH240498   5.820   4.158   2.398 -0.2079 -0.0300  0.1961
 6288TIP3    H140499   5.737   4.151   2.446 -0.3881 -0.6123 -0.1958
 6288TIP3    H240500   5.798   4.132   2.308  0.5378 -0.8241  0.2309
 6289TIP3   OH240501   1.643   5.298   1.059 -0.0427  0.9516  0.0300
 6289TIP3    H140502   1.557   5.335   1.042  0.0808  0.7034 -1.2198
 6289TIP3    H240503   1.675   5.269   0.973 -0.6827 -3.2196  0.9866
 6290TIP3   OH240504   4.167   3.275   0.608 -0.2902  0.6790  0.2039
 6290TIP3    H140505   4.136   3.296   0.520 -0.0458  0.8487  0.1590
 6290TIP3    H240506   4.137   3.348   0.662  0.1822  0.9297  0.1284
 6291TIP3   OH240507   6.211   2.535   1.932  0.3995 -0.0473  0.3206
 6291TIP3    H140508   6.147   2.506   1.867 -0.6129 -3.1661  2.4716
 6291TIP3    H240509   6.295   2.526   1.887 -0.3380 -0.8867 -0.9824
 6292TIP3   OH240510   1.280   3.965   1.586  0.0138  0.2552 -0.4974
 6292TIP3    H140511   1.303   3.925   1.502  0.2923 -1.0154  0.1506
 6292TIP3    H240512   1.252   3.891   1.640  1.6718  0.7687  1.1480
 6293TIP3   OH240513   1.171   2.596   3.097  0.1107  0.4974  0.5754
 6293TIP3    H140514   1.077   2.576   3.096 -0.2914  2.0959  2.1603
 6293TIP3    H240515   1.200   2.576   3.008 -1.9114  0.8074 -0.2173
 6294TIP3   OH240516   4.532   3.229   2.040  0.7733  0.2460  0.6474
 6294TIP3    H140517   4.608   3.222   2.098  0.6136  0.6694  0.9044
 6294TIP3    H240518   4.458   3.246   2.099  0.6612  1.0036  0.2955
 6295TIP3   OH240519   1.527   1.776   8.647 -0.2783 -0.1143  0.3930
 6295TIP3    H140520   1.603   1.750   8.699  1.7139 -0.8688 -2.6420
 6295TIP3    H240521   1.524   1.872   8.654  1.1088 -0.0551  0.4119
 6296TIP3   OH240522   1.281   1.075   2.756 -0.4259  0.0108  0.0512
 6296TIP3    H140523   1.305   1.099   2.667  0.3701 -0.5667  0.1020
 6296TIP3    H240524   1.234   1.152   2.789 -0.7759  0.2075 -0.8736
 6297TIP3   OH240525   5.362   3.295   2.190 -0.2453 -0.4476  0.1607
 6297TIP3    H140526   5.302   3.235   2.146  0.5369 -0.0744 -1.4627
 6297TIP3    H240527   5.435   3.307   2.129 -0.6706  2.6860  0.1169
 6298TIP3   OH240528   4.154   0.314   8.631 -0.4571  0.1831  0.1445
 6298TIP3    H140529   4.171   0.221   8.619  0.2413  0.2705  0.4264
 6298TIP3    H240530   4.164   0.352   8.544 -1.9790 -0.1822 -0.2158
 6299TIP3   OH240531   3.927   4.713   0.280  0.2834  0.1997  0.0164
 6299TIP3    H140532   3.836   4.689   0.292  0.7301 -1.4257  0.4824
 6299TIP3    H240533   3.965   4.641   0.230  1.3972  0.6321  0.1919
 6300TIP3   OH240534   6.435   5.067   1.741 -0.5072  0.1485 -0.3408
 6300TIP3    H140535   6.491   5.000   1.702  1.2763  1.2983  0.1069
 6300TIP3    H240536   6.453   5.061   1.835  1.1525  2.3868 -0.4198
 6301TIP3   OH240537   5.845   0.866   2.473  0.5550  0.0900 -0.0313
 6301TIP3    H140538   5.801   0.868   2.388 -0.5067 -1.3787  0.4524
 6301TIP3    H240539   5.866   0.774   2.487  0.5981  0.2971  1.3661
 6302TIP3   OH240540   2.340   6.418   1.943 -0.9425 -0.9212  0.4724
 6302TIP3    H140541   2.298   6.502   1.924 -1.9638 -1.7429 -1.1320
 6302TIP3    H240542   2.267   6.359   1.960 -0.3404 -1.9128 -0.3234
 6303TIP3   OH240543   4.385   4.195   3.978 -0.3404  0.0517 -0.3483
 6303TIP3    H140544   4.363   4.276   4.024 -0.4396 -0.3348  0.2981
 6303TIP3    H240545   4.304   4.143   3.980 -0.0569 -0.3918 -0.0530
 6304TIP3   OH240546   0.813   1.274   3.574  0.6849 -0.3046 -0.1166
 6304TIP3    H140547   0.883   1.251   3.512  0.5876  1.1087 -0.7763
 6304TIP3    H240548   0.746   1.207   3.560  0.8923 -0.3088 -1.1780
 6305TIP3   OH240549   5.213   1.459   0.177 -0.0880  0.0328  0.0817
 6305TIP3    H140550   5.194   1.435   0.268 -0.7152 -1.1258 -0.3206
 6305TIP3    H240551   5.133   1.502   0.146 -0.2117 -0.3552 -0.1572
 6306TIP3   OH240552   5.752   3.994   1.444  0.5159 -0.2304 -0.5859
 6306TIP3    H140553   5.681   3.950   1.398  1.4537 -1.1253 -1.2117
 6306TIP3    H240554   5.758   4.080   1.401 -0.6201  0.1327 -0.0621
 6307TIP3   OH240555   6.067   2.042   3.023  0.4341  0.1069  0.3325
 6307TIP3    H140556   6.129   2.003   2.961  0.5935  3.2634 -1.7225
 6307TIP3    H240557   6.107   2.028   3.109  2.6306 -0.3032 -0.6762
 6308TIP3   OH240558   2.479   1.558   0.918 -0.0352 -0.0017 -0.4269
 6308TIP3    H140559   2.485   1.594   0.830  0.9185  0.4646 -0.1876
 6308TIP3    H240560   2.392   1.583   0.948 -0.7490 -1.0172 -1.5869
 6309TIP3   OH240561   5.407   4.008   1.520 -0.1473  0.3279 -0.1869
 6309TIP3    H140562   5.444   4.006   1.432  0.8495 -0.7185  0.2275
 6309TIP3    H240563   5.477   4.045   1.575 -1.0377  1.7083  0.0655
 6310TIP3   OH240564   0.990   2.077   3.345 -0.0881  0.1290 -0.1058
 6310TIP3    H140565   0.972   2.083   3.439  1.1841 -0.4635  0.2003
 6310TIP3    H240566   1.037   2.158   3.325 -0.7970  0.4873 -0.3509
 6311TIP3   OH240567   4.363   4.262   2.313  0.2190  0.4193  0.2823
 6311TIP3    H140568   4.321   4.263   2.227 -0.3436  0.1260  0.5515
 6311TIP3    H240569   4.451   4.296   2.297  0.1379  0.3067 -0.4207
 6312TIP3   OH240570   1.660   2.342   1.735  0.2973  0.2178 -0.1838
 6312TIP3    H140571   1.653   2.278   1.664 -0.3371 -0.7708  0.7632
 6312TIP3    H240572   1.704   2.417   1.694  1.4125 -0.9524 -1.2096
 6313TIP3   OH240573   4.933   4.444   0.865 -0.1362  0.0508  0.2163
 6313TIP3    H140574   4.866   4.417   0.928 -1.3471  1.3579 -0.4460
 6313TIP3    H240575   4.886   4.501   0.803  1.4093  0.3015 -0.7816
 6314TIP3   OH240576   6.306   1.267   8.535 -0.2169 -0.5235  0.2734
 6314TIP3    H140577   6.298   1.174   8.515 -0.2877 -0.8526  1.7316
 6314TIP3    H240578   6.227   1.287   8.587 -0.1710  0.3338  0.0301
 6315TIP3   OH240579   1.731   5.232   0.815  0.2187 -0.1402  0.4180
 6315TIP3    H140580   1.791   5.161   0.793 -1.0032 -1.0942  0.0629
 6315TIP3    H240581   1.665   5.232   0.745  0.5425  1.7821  0.0524
 6316TIP3   OH240582   0.671   5.308   1.685  0.2307  0.1445 -0.4762
 6316TIP3    H140583   0.640   5.217   1.691  0.4509  0.1583  1.2258
 6316TIP3    H240584   0.590   5.360   1.679  0.1124 -0.1708 -2.4133
 6317TIP3   OH240585   4.479   2.611   0.405  0.6055 -0.0407  0.3169
 6317TIP3    H140586   4.574   2.611   0.400  0.6638  0.0963  1.1767
 6317TIP3    H240587   4.452   2.697   0.373  0.7185 -0.3234 -0.5630
 6318TIP3   OH240588   5.495   3.449   1.525  0.0928  0.0186  0.3943
 6318TIP3    H140589   5.535   3.490   1.602  0.5112  0.3357  0.0064
 6318TIP3    H240590   5.428   3.511   1.497 -0.9522 -0.6752  1.2637
 6319TIP3   OH240591   4.559   3.425   8.680  0.6400  0.4237  0.3458
 6319TIP3    H140592   4.471   3.412   8.715  1.2629 -0.3313  1.7137
 6319TIP3    H240593   4.589   3.505   8.723  0.2940  1.2142 -0.8450
 6320TIP3   OH240594   5.145   1.750   8.769 -0.5844 -0.1530 -0.8426
 6320TIP3    H140595   5.104   1.729   8.685  2.2636 -0.9624 -2.1527
 6320TIP3    H240596   5.239   1.747   8.751  0.1146  0.8812  2.1146
 6321TIP3   OH240597   3.328   0.680   1.001 -0.7224  0.3292  0.1811
 6321TIP3    H140598   3.343   0.755   1.059  2.0115 -0.4789  0.6474
 6321TIP3    H240599   3.316   0.606   1.061  0.3844 -0.2199 -0.2515
 6322TIP3   OH240600   0.840   1.897   1.683  1.0550  0.3843  0.2370
 6322TIP3    H140601   0.764   1.941   1.723  0.3440  1.4425 -2.1221
 6322TIP3    H240602   0.826   1.804   1.702 -1.5717  0.3835 -1.1723
 6323TIP3   OH240603   4.326   5.343   3.436  0.0243  0.0544 -0.0141
 6323TIP3    H140604   4.358   5.357   3.347  1.9307 -1.3076  0.3738
 6323TIP3    H240605   4.383   5.274   3.471 -2.0658 -1.0113  1.5377
 6324TIP3   OH240606   1.275   1.986   1.548 -0.2577  0.2838 -0.5029
 6324TIP3    H140607   1.258   2.055   1.612  0.6728 -0.9036  1.1119
 6324TIP3    H240608   1.238   1.906   1.587  1.1568 -0.6495 -0.9738
 6325TIP3   OH240609   0.228   5.233   3.908 -0.1950 -0.4260  0.0760
 6325TIP3    H140610   0.268   5.273   3.831  0.5499 -0.3481  0.4854
 6325TIP3    H240611   0.163   5.297   3.937  0.7342  0.3566  0.5123
 6326TIP3   OH240612   5.448   2.289   0.977 -0.3432 -0.1187 -0.4751
 6326TIP3    H140613   5.435   2.259   0.887 -5.2383  0.0287 -0.0576
 6326TIP3    H240614   5.364   2.326   1.003  1.5856  2.2333  3.3930
 6327TIP3   OH240615   6.818   6.605   1.836  0.2781  0.1297  0.1939
 6327TIP3    H140616   6.847   6.682   1.787 -1.1678 -0.3070 -1.4710
 6327TIP3    H240617   6.831   6.628   1.928  1.6384  1.6017 -0.3349
 6328TIP3   OH240618   3.093   4.537   1.066 -0.6668  0.2149 -0.1782
 6328TIP3    H140619   3.051   4.600   1.007 -1.8228  0.2268  0.6319
 6328TIP3    H240620   3.055   4.555   1.152  0.2797 -0.4449  0.3948
 6329TIP3   OH240621   2.934   3.293   3.613 -0.4311  0.5677  0.1449
 6329TIP3    H140622   2.997   3.342   3.561 -1.0913  0.8579 -0.4046
 6329TIP3    H240623   2.957   3.312   3.704  0.5110  0.3492 -0.0384
 6330TIP3   OH240624   3.775   1.351   3.671  0.3476  0.5059 -0.3424
 6330TIP3    H140625   3.742   1.347   3.761 -1.0616 -1.6270 -0.8812
 6330TIP3    H240626   3.832   1.275   3.663  0.7479  0.8832 -1.1617
 6331TIP3   OH240627   4.751   0.668   1.906  0.6495  0.1323 -0.3217
 6331TIP3    H140628   4.819   0.637   1.966 -0.8389  0.5770  1.7276
 6331TIP3    H240629   4.698   0.591   1.888 -0.5771  0.5302  1.3429
 6332TIP3   OH240630   0.065   5.847   3.772  0.1914  0.3349  0.3918
 6332TIP3    H140631   0.078   5.797   3.852 -0.3176 -0.0321  0.2521
 6332TIP3    H240632  -0.014   5.898   3.788 -0.9029 -0.9969 -0.4601
 6333TIP3   OH240633   3.894   0.813   0.929 -0.1166  0.4038  0.1101
 6333TIP3    H140634   3.939   0.786   1.008 -0.4166  0.3783  0.2744
 6333TIP3    H240635   3.834   0.741   0.909 -0.3947  0.6210  0.1388
 6334TIP3   OH240636   1.070   0.391   2.028 -0.1457 -0.5328  0.5454
 6334TIP3    H140637   1.112   0.362   1.947 -2.3818  0.8933 -1.2665
 6334TIP3    H240638   1.003   0.324   2.044 -1.3714  0.4509 -0.2778
 6335TIP3   OH240639   1.641   3.069   2.616  0.5656  0.2592  0.8427
 6335TIP3    H140640   1.734   3.054   2.632 -0.0940 -2.6718  2.7672
 6335TIP3    H240641   1.621   3.015   2.540  0.2156 -0.0345  1.1430
 6336TIP3   OH240642   5.981   2.838   1.287 -0.2106  0.2361  0.0506
 6336TIP3    H140643   5.901   2.820   1.238 -0.7691  2.1509  0.1749
 6336TIP3    H240644   6.051   2.832   1.222 -0.3800 -1.6269 -0.0257
 6337TIP3   OH240645   1.058   0.315   0.612 -0.3038  0.1009 -0.1630
 6337TIP3    H140646   0.976   0.342   0.654  0.8067 -1.7043  3.5061
 6337TIP3    H240647   1.046   0.222   0.594  0.0948  0.3601 -2.0658
 6338TIP3   OH240648   0.086   3.103   0.585  0.1355 -0.4818 -0.0164
 6338TIP3    H140649   0.156   3.150   0.630 -0.2277 -0.2381  0.3016
 6338TIP3    H240650   0.016   3.095   0.650  0.1683 -1.4200 -0.0790
 6339TIP3   OH240651   6.495   6.575   2.367 -0.3913 -0.0553  0.2365
 6339TIP3    H140652   6.432   6.580   2.295  2.9194 -1.6947 -3.1390
 6339TIP3    H240653   6.489   6.485   2.398  1.2229 -0.7318 -1.2361
 6340TIP3   OH240654   2.031   3.801   0.239 -0.4574 -0.2807  0.4630
 6340TIP3    H140655   2.049   3.774   0.149  1.6708  0.4853  0.6104
 6340TIP3    H240656   2.091   3.873   0.255 -1.6853  0.4392  2.1092
 6341TIP3   OH240657   4.540   4.879   2.329 -0.5324 -0.5270  0.4729
 6341TIP3    H140658   4.457   4.920   2.304  0.2819  0.3066 -0.9823
 6341TIP3    H240659   4.573   4.934   2.400  0.5071  1.4127 -1.4039
 6342TIP3   OH240660   0.477   6.422   0.856 -0.4771  0.7546  0.1323
 6342TIP3    H140661   0.443   6.344   0.899  0.0781  1.6928  2.4021
 6342TIP3    H240662   0.416   6.438   0.784 -0.8100 -1.5172 -0.1852
 6343TIP3   OH240663   6.005   5.621   2.757  0.1526  0.4036 -0.5780
 6343TIP3    H140664   5.971   5.564   2.827 -0.9722  1.7692  0.0506
 6343TIP3    H240665   5.926   5.658   2.717  0.6787 -1.3313 -3.5219
 6344TIP3   OH240666   5.756   2.623   2.980  0.4259 -0.0871 -0.7212
 6344TIP3    H140667   5.696   2.550   2.991  0.6480 -0.5010 -2.0776
 6344TIP3    H240668   5.790   2.613   2.891 -0.4696  2.3312 -1.4397
 6345TIP3   OH240669   5.378   5.289   8.407 -0.0327  0.5183 -0.4070
 6345TIP3    H140670   5.360   5.354   8.339  3.8799  2.8210  0.4558
 6345TIP3    H240671   5.362   5.336   8.489 -2.3855 -1.4808  0.3970
 6346TIP3   OH240672   0.938   6.445   2.352 -0.1320  0.2509 -0.0857
 6346TIP3    H140673   0.936   6.386   2.428  1.5904  0.7259  0.3556
 6346TIP3    H240674   0.848   6.443   2.319 -1.0079  0.2319  2.1108
 6347TIP3   OH240675   1.858   5.944   0.804  0.2465  0.0715 -0.2817
 6347TIP3    H140676   1.931   5.975   0.750 -0.6298  0.5030 -1.2681
 6347TIP3    H240677   1.782   5.946   0.745 -0.1421 -2.6791 -0.0305
 6348TIP3   OH240678   2.002   1.361   0.533  0.8320 -0.1295  0.5324
 6348TIP3    H140679   2.084   1.331   0.572  1.4896 -0.8543 -1.3307
 6348TIP3    H240680   2.002   1.456   0.547  2.1150 -0.0918  0.3465
 6349TIP3   OH240681   3.922   2.266   3.458 -0.1419 -0.2296  0.2438
 6349TIP3    H140682   3.974   2.280   3.379  2.4744 -1.6059  1.5872
 6349TIP3    H240683   3.833   2.250   3.426  0.9983 -1.7001 -2.5061
 6350TIP3   OH240684   0.816   0.918   1.036  0.0687  0.0143 -0.1110
 6350TIP3    H140685   0.763   0.928   0.956  1.7284 -2.9553 -1.7596
 6350TIP3    H240686   0.881   0.987   1.031  0.4233 -0.3974 -1.6112
 6351TIP3   OH240687   5.882   6.555   2.198  0.1587  0.3742 -0.0022
 6351TIP3    H140688   5.808   6.527   2.251  1.1893  1.5006  2.1861
 6351TIP3    H240689   5.844   6.610   2.130 -1.1393 -0.4759 -0.0008
 6352TIP3   OH240690   6.828   6.285   2.119 -0.2001 -0.3617 -0.2046
 6352TIP3    H140691   6.845   6.197   2.085  1.9779 -1.5162  3.2759
 6352TIP3    H240692   6.891   6.295   2.191 -1.5468  3.4021  0.6752
 6353TIP3   OH240693   5.641   5.559   0.090 -0.3035  0.5225  0.5163
 6353TIP3    H140694   5.653   5.466   0.069  0.3466  0.8750 -0.7797
 6353TIP3    H240695   5.555   5.564   0.131  0.3346 -0.8807  2.1323
 6354TIP3   OH240696   5.269   4.239   8.069  0.6092 -0.5832 -0.5837
 6354TIP3    H140697   5.300   4.183   7.998  0.8302 -0.2538 -0.7482
 6354TIP3    H240698   5.316   4.321   8.057 -1.4129  0.4821 -1.7721
 6355TIP3   OH240699   5.361   0.363   8.135  0.4294 -0.0179 -0.2064
 6355TIP3    H140700   5.428   0.347   8.068 -1.0619 -0.3040 -1.6837
 6355TIP3    H240701   5.323   0.276   8.151 -0.4542  0.3396 -0.3379
 6356TIP3   OH240702   1.232   5.466   0.231 -0.2935  0.1397 -1.1704
 6356TIP3    H140703   1.207   5.558   0.241 -1.2443 -0.3192  2.0160
 6356TIP3    H240704   1.149   5.421   0.214 -0.2258 -0.3482 -0.2849
 6357TIP3   OH240705   0.902   1.196   3.079  0.5324  0.5777  0.2603
 6357TIP3    H140706   0.876   1.266   3.138 -0.2721  0.3494  0.1838
 6357TIP3    H240707   0.842   1.124   3.098  0.9795  0.1042 -0.0577
 6358TIP3   OH240708   5.569   6.125   0.548  0.1170  0.2356 -0.0585
 6358TIP3    H140709   5.536   6.074   0.474 -1.2310 -0.2824  0.8631
 6358TIP3    H240710   5.501   6.191   0.565  0.3113  0.2255  0.8341
 6359TIP3   OH240711   5.394   0.267   1.180  0.5252  0.5415 -0.0589
 6359TIP3    H140712   5.422   0.252   1.270 -0.3285 -0.1484  0.1080
 6359TIP3    H240713   5.408   0.360   1.165 -3.7579  1.8079  2.3859
 6360TIP3   OH240714   6.798   3.352   2.661  0.0032  0.6264  0.5227
 6360TIP3    H140715   6.761   3.288   2.600 -2.0363 -0.6952  2.9225
 6360TIP3    H240716   6.893   3.341   2.652 -0.2463 -0.3498 -1.4983
 6361TIP3   OH240717   0.112   0.025   8.759  0.2026  0.1116  0.2687
 6361TIP3    H140718   0.153  -0.042   8.814  0.2848 -0.3817 -0.3761
 6361TIP3    H240719   0.081  -0.023   8.683 -1.0526  0.5734  0.4674
 6362TIP3   OH240720   0.111   0.193   0.439  0.4395  0.2320 -0.3481
 6362TIP3    H140721   0.039   0.162   0.385 -0.2642 -1.7032  1.5377
 6362TIP3    H240722   0.078   0.271   0.483 -0.2976 -0.2739  0.0074
 6363TIP3   OH240723   1.070   3.792   3.277  0.0320  0.1273 -0.3704
 6363TIP3    H140724   1.030   3.828   3.198 -2.6692  5.2622  2.8339
 6363TIP3    H240725   1.159   3.825   3.276  0.5730 -1.2305 -1.8811
 6364TIP3   OH240726   4.299   5.403   0.976  0.2336 -0.0205 -0.1233
 6364TIP3    H140727   4.283   5.494   1.002  2.5948  0.4276  0.0030
 6364TIP3    H240728   4.315   5.407   0.882 -1.8757 -0.6843 -0.5551
 6365TIP3   OH240729   5.239   1.383   2.748  0.0727 -0.0101  0.0884
 6365TIP3    H140730   5.320   1.336   2.731 -0.9390 -1.2697 -1.5440
 6365TIP3    H240731   5.246   1.463   2.696  0.2054 -0.1738 -0.1431
 6366TIP3   OH240732   6.165   6.200   3.117  0.0548  0.4601  0.7093
 6366TIP3    H140733   6.201   6.248   3.192 -2.4994  2.7158  0.6594
 6366TIP3    H240734   6.135   6.117   3.154  3.3533 -0.6903  1.0825
 6367TIP3   OH240735   6.702   1.317   2.784  0.0709  0.1450 -0.0208
 6367TIP3    H140736   6.637   1.382   2.757  0.8754  1.9877  2.1922
 6367TIP3    H240737   6.783   1.367   2.797  1.3247 -1.6987 -0.4240
 6368TIP3   OH240738   0.980   5.072   0.747 -0.3010 -0.2084 -0.4170
 6368TIP3    H140739   1.035   5.122   0.808 -0.4256 -0.2089 -0.3034
 6368TIP3    H240740   1.041   5.020   0.696  0.1464  2.1204 -2.4915
 6369TIP3   OH240741   1.468   2.991   1.766  0.6431  0.1854  0.6068
 6369TIP3    H140742   1.483   2.934   1.690 -1.0476 -1.4743  1.4124
 6369TIP3    H240743   1.547   2.982   1.819  0.2377 -1.8959  0.9438
 6370TIP3   OH240744   3.433   0.552   1.672  0.3170 -0.2065 -0.0826
 6370TIP3    H140745   3.526   0.536   1.655  0.0886 -1.3936 -0.2774
 6370TIP3    H240746   3.430   0.585   1.762  0.8598 -0.9500  0.2182
 6371TIP3   OH240747   6.543   5.339   1.076 -0.1899 -0.3527  0.1035
 6371TIP3    H140748   6.466   5.355   1.130 -0.8887 -4.0573  0.4897
 6371TIP3    H240749   6.600   5.414   1.091 -2.6635  1.3263  1.7123
 6372TIP3   OH240750   2.927   2.342   1.988  0.7914  0.1696 -0.2379
 6372TIP3    H140751   2.928   2.359   2.082 -0.8617  1.2181 -0.3677
 6372TIP3    H240752   2.914   2.428   1.948 -1.2426 -0.5734 -1.2803
 6373TIP3   OH240753   0.080   6.272   3.072  0.2271  0.1341 -0.0871
 6373TIP3    H140754   0.104   6.230   2.989 -1.1322 -0.4361 -0.2138
 6373TIP3    H240755   0.015   6.338   3.048 -1.2079 -0.9628  0.6457
 6374TIP3   OH240756   3.812   6.817   1.258 -0.1591 -0.5395  0.1801
 6374TIP3    H140757   3.755   6.850   1.327 -0.2564  0.8884 -0.5506
 6374TIP3    H240758   3.892   6.790   1.303 -0.7944 -1.0639  1.0157
 6375TIP3   OH240759   4.138   1.506   2.096 -0.5939  0.0369 -0.3055
 6375TIP3    H140760   4.120   1.429   2.041 -0.3257  0.1557 -0.5581
 6375TIP3    H240761   4.056   1.556   2.094  0.2112  1.4305 -2.8037
 6376TIP3   OH240762   4.386   0.115   0.179  0.6038  0.0801  0.0518
 6376TIP3    H140763   4.356   0.025   0.167 -1.2408  0.5996  0.6141
 6376TIP3    H240764   4.437   0.133   0.099 -0.3909 -0.9019 -0.8372
 6377TIP3   OH240765   4.700   0.405   3.314  0.0067  0.2791  0.2964
 6377TIP3    H140766   4.780   0.416   3.366  0.1825 -0.4958  0.1907
 6377TIP3    H240767   4.650   0.485   3.331  0.1078  0.0830  1.5659
 6378TIP3   OH240768   0.181   1.562   2.496  0.0140  0.2206 -0.8070
 6378TIP3    H140769   0.102   1.509   2.490 -0.4700  0.5831  1.4290
 6378TIP3    H240770   0.241   1.510   2.550 -0.7866  2.1208  2.1975
 6379TIP3   OH240771   2.532   0.654   0.660  0.1435  0.6382 -0.1335
 6379TIP3    H140772   2.443   0.684   0.675  0.3334  1.4355 -0.5561
 6379TIP3    H240773   2.585   0.733   0.662  0.6505  0.3466 -1.3086
 6380TIP3   OH240774   6.093   2.305   1.152  0.1274 -0.4397  0.9041
 6380TIP3    H140775   6.054   2.373   1.096 -0.5485 -1.7584 -0.2824
 6380TIP3    H240776   6.174   2.345   1.185  1.6951 -0.2322 -2.6633
 6381TIP3   OH240777   0.131   1.275   2.631 -0.0101 -0.9738  0.2129
 6381TIP3    H140778   0.224   1.296   2.640  0.2395 -1.4479 -0.9773
 6381TIP3    H240779   0.113   1.214   2.703  0.5695 -0.7735  0.5348
 6382TIP3   OH240780   2.320   1.788   2.964  0.4792  0.5213 -0.0917
 6382TIP3    H140781   2.241   1.734   2.958  0.4782  0.7169 -2.6690
 6382TIP3    H240782   2.297   1.856   3.028 -0.6912 -0.5790  0.6996
 6383TIP3   OH240783   2.266   6.637   0.298  0.4400 -0.3270 -0.0593
 6383TIP3    H140784   2.206   6.678   0.236  0.6208 -0.2661 -0.1952
 6383TIP3    H240785   2.351   6.639   0.254  0.6837  0.2434  0.4323
 6384TIP3   OH240786   2.106   0.337   1.469 -0.4948  0.0884  0.2863
 6384TIP3    H140787   2.036   0.285   1.507 -1.8938  1.4468 -0.3591
 6384TIP3    H240788   2.159   0.274   1.420 -2.7587 -0.6138 -1.3764
 6385TIP3   OH240789   4.551   0.878   1.868  0.5409  0.3129  0.0062
 6385TIP3    H140790   4.523   0.803   1.815 -0.6448  0.6221  0.1589
 6385TIP3    H240791   4.622   0.844   1.922  0.8859 -0.3547 -0.8465
 6386TIP3   OH240792   4.117   6.643   2.378  0.5255 -0.3012  0.0431
 6386TIP3    H140793   4.149   6.556   2.356 -0.0882 -0.5820  0.2689
 6386TIP3    H240794   4.024   6.632   2.396  0.4288  0.4060  0.0350
 6387TIP3   OH240795   1.609   5.470   1.374 -0.3728  0.1391  0.0245
 6387TIP3    H140796   1.675   5.532   1.406 -0.4954  1.5919 -2.3436
 6387TIP3    H240797   1.526   5.505   1.405 -0.3456  0.5396 -0.3489
 6388TIP3   OH240798   3.103   2.858   3.250  0.2453  0.3259  0.0929
 6388TIP3    H140799   3.030   2.886   3.305 -0.5637 -0.7949 -0.3819
 6388TIP3    H240800   3.085   2.897   3.165 -0.6845 -1.2582 -0.4679
 6389TIP3   OH240801   0.753   4.825   8.405  0.0026 -0.0008  0.0975
 6389TIP3    H140802   0.765   4.814   8.311 -0.0092  0.3643  0.0546
 6389TIP3    H240803   0.735   4.918   8.417 -3.0641 -0.5180  0.1284
 6390TIP3   OH240804   3.428   2.327   2.865  0.4865  0.4039  0.3723
 6390TIP3    H140805   3.414   2.314   2.959  0.7391  0.2285  0.3877
 6390TIP3    H240806   3.502   2.270   2.844  1.0300  1.1501  0.2465
 6391TIP3   OH240807   5.159   2.445   8.783 -0.4814  0.4174  0.0087
 6391TIP3    H140808   5.108   2.457   8.703 -1.7527  0.8376  0.8463
 6391TIP3    H240809   5.216   2.521   8.787  0.4583 -0.2031 -1.0927
 6392TIP3   OH240810   1.875   6.308   3.431 -0.9269  0.0148 -0.1640
 6392TIP3    H140811   1.926   6.303   3.512  1.2509  0.5628 -1.4198
 6392TIP3    H240812   1.790   6.344   3.458 -0.7245 -0.9787  2.0209
 6393TIP3   OH240813   0.237   1.035   1.242 -0.5144 -0.1377  0.2254
 6393TIP3    H140814   0.285   1.099   1.295  1.2039 -2.7450  2.0693
 6393TIP3    H240815   0.151   1.031   1.282 -1.0495  1.7271 -0.6161
 6394TIP3   OH240816   0.042   1.527   2.844  0.1479 -0.3271 -0.3575
 6394TIP3    H140817   0.008   1.616   2.856 -0.9004 -0.9166  1.6319
 6394TIP3    H240818   0.125   1.539   2.798 -0.3049  1.6101 -0.7793
 6395TIP3   OH240819   3.306   6.470   2.567  0.4488  0.3998  0.5540
 6395TIP3    H140820   3.296   6.440   2.658  1.2256 -0.9680  0.2175
 6395TIP3    H240821   3.276   6.561   2.569 -2.0020 -0.3445  1.6370
 6396TIP3   OH240822   2.682   5.601   1.590 -0.1250 -0.0142  0.0422
 6396TIP3    H140823   2.724   5.636   1.511  2.0915 -2.5160 -0.0244
 6396TIP3    H240824   2.590   5.589   1.565  0.6453 -1.3599 -2.4472
 6397TIP3   OH240825   3.744   6.282   1.629  0.0153  0.4036  0.1790
 6397TIP3    H140826   3.721   6.239   1.711 -3.2338 -0.9067 -1.2561
 6397TIP3    H240827   3.697   6.365   1.629 -0.1596  0.3124 -0.4307
 6398TIP3   OH240828   4.714   1.646   2.537 -0.3921 -0.1178 -0.3294
 6398TIP3    H140829   4.657   1.673   2.608 -1.7054 -2.5407 -0.3363
 6398TIP3    H240830   4.695   1.707   2.465  0.0152  1.5573  0.9317
 6399TIP3   OH240831   2.023   2.532   3.735  0.1474  0.9145  0.2002
 6399TIP3    H140832   2.021   2.538   3.830 -0.2256 -0.2614  0.2860
 6399TIP3    H240833   1.989   2.444   3.716  3.9822 -0.5362 -0.8367
 6400TIP3   OH240834   3.962   3.325   3.087 -0.0055 -0.6931  0.1190
 6400TIP3    H140835   3.884   3.347   3.138 -0.0339 -0.8134  0.1279
 6400TIP3    H240836   3.994   3.243   3.126 -0.1593 -0.9088 -0.2050
 6401TIP3   OH240837   0.469   0.940   2.021  0.0956  0.2300  0.1606
 6401TIP3    H140838   0.420   0.883   2.080 -0.9068  1.0911  0.1779
 6401TIP3    H240839   0.428   0.926   1.936  0.9074 -0.2752 -0.1592
 6402TIP3   OH240840   3.550   3.171   2.676  0.3479  0.2339 -0.1235
 6402TIP3    H140841   3.459   3.197   2.691 -0.0005 -0.8737 -0.2140
 6402TIP3    H240842   3.545   3.101   2.611  1.1707 -0.5892  0.6589
 6403TIP3   OH240843   6.394   0.008   3.895 -0.3957  0.3724  0.3432
 6403TIP3    H140844   6.410   0.102   3.897 -1.6384  0.6776 -1.3195
 6403TIP3    H240845   6.480  -0.032   3.907 -0.1517  1.6051  3.7457
 6404TIP3   OH240846   5.207   5.223   8.787  0.1131  0.8307 -0.1555
 6404TIP3    H140847   5.122   5.264   8.806 -0.1815 -0.1258  0.6842
 6404TIP3    H240848   5.187   5.151   8.728  0.1445 -0.1319  0.9606
 6405TIP3   OH240849   0.764   3.649   1.370 -0.8885 -0.6250  0.0814
 6405TIP3    H140850   0.837   3.704   1.342 -0.2044 -0.8115  1.4041
 6405TIP3    H240851   0.691   3.710   1.383 -0.3004 -0.0795  0.9748
 6406TIP3   OH240852   2.220   3.321   7.875 -0.2268  0.5020  0.0366
 6406TIP3    H140853   2.257   3.232   7.880 -0.3948  0.3367 -1.1571
 6406TIP3    H240854   2.202   3.345   7.965  1.2384 -0.0790  0.5176
 6407TIP3   OH240855   6.390   0.528   1.915  0.2512  0.7835  0.2416
 6407TIP3    H140856   6.341   0.448   1.894  0.0509  0.8222  0.5607
 6407TIP3    H240857   6.323   0.593   1.932  0.3840  0.4385  2.2575
 6408TIP3   OH240858   2.492   6.012   4.114 -0.5074 -0.0998  0.3351
 6408TIP3    H140859   2.401   6.038   4.126 -0.4191  1.1317 -1.3401
 6408TIP3    H240860   2.526   6.071   4.047  1.4873 -0.6535  0.7737
 6409TIP3   OH240861   4.342   1.893   1.792 -0.2591 -0.1792 -1.0286
 6409TIP3    H140862   4.426   1.886   1.745  1.4028  0.7692  1.5902
 6409TIP3    H240863   4.365   1.935   1.875 -3.6192  1.4833 -0.8106
 6410TIP3   OH240864   1.180   3.804   2.085  0.8023  0.5503  0.3952
 6410TIP3    H140865   1.104   3.766   2.129  0.1083  2.1934  0.6680
 6410TIP3    H240866   1.199   3.743   2.014 -1.3895  0.5936 -0.3014
 6411TIP3   OH240867   1.321   1.223   3.074 -0.7612 -0.3259 -0.7892
 6411TIP3    H140868   1.241   1.210   3.023 -0.0234 -1.9754 -1.5979
 6411TIP3    H240869   1.296   1.201   3.163 -1.4390  0.1175 -0.8593
 6412TIP3   OH240870   6.401   1.947   1.584 -0.1466 -0.7830 -0.1609
 6412TIP3    H140871   6.321   1.976   1.540  0.5714 -1.4970 -2.0120
 6412TIP3    H240872   6.449   1.898   1.518  1.2749 -1.4202  1.2685
 6413TIP3   OH240873   5.872   2.073   2.826 -0.0534 -0.3218  0.3220
 6413TIP3    H140874   5.942   2.047   2.885  0.5070 -1.0754 -0.6457
 6413TIP3    H240875   5.886   2.021   2.747 -0.1144  1.4198 -0.9098
 6414TIP3   OH240876   2.628   1.610   0.390 -0.3137  0.0806 -0.8025
 6414TIP3    H140877   2.667   1.533   0.432  0.4950  1.1128  0.4086
 6414TIP3    H240878   2.647   1.599   0.297  2.6269  0.3207 -0.3229
 6415TIP3   OH240879   0.318   2.055   1.584  0.2004  0.2010  0.1769
 6415TIP3    H140880   0.237   2.030   1.539  0.3295 -0.0890  0.1008
 6415TIP3    H240881   0.378   2.078   1.513  0.2837  0.1145  0.2199
 6416TIP3   OH240882   0.788   2.707   0.266  0.0240 -0.5216 -0.0176
 6416TIP3    H140883   0.760   2.796   0.242  0.9477 -0.2855 -0.2641
 6416TIP3    H240884   0.730   2.683   0.339 -0.1452  0.3379  0.1453
 6417TIP3   OH240885   0.184   3.878   2.536 -0.1800  0.2469 -0.2758
 6417TIP3    H140886   0.144   3.821   2.470  0.7555 -0.0503 -0.6074
 6417TIP3    H240887   0.156   3.841   2.619  0.9511 -1.1512 -0.4688
 6418TIP3   OH240888   0.949   6.274   2.567  0.1651  0.5339 -0.3226
 6418TIP3    H140889   0.866   6.265   2.615  0.0114 -0.1755 -0.7107
 6418TIP3    H240890   1.009   6.215   2.613  0.6793  1.6097  0.4223
 6419TIP3   OH240891   6.614   3.186   2.487 -0.0562  0.7327 -0.2210
 6419TIP3    H140892   6.532   3.177   2.438  0.7974 -2.7260 -1.2736
 6419TIP3    H240893   6.594   3.154   2.574 -0.1531  1.3408 -0.0128
 6420TIP3   OH240894   6.198   4.150   1.394  0.0969  0.2714 -0.0519
 6420TIP3    H140895   6.178   4.242   1.375 -0.5929  0.4209  1.2684
 6420TIP3    H240896   6.223   4.113   1.310  1.0494  1.8288 -0.4909
 6421TIP3   OH240897   3.137   6.280   1.238 -0.7461 -0.5654  0.2315
 6421TIP3    H140898   3.174   6.366   1.258  0.4244 -1.0113  0.0127
 6421TIP3    H240899   3.057   6.300   1.189 -0.2458  0.3999 -0.2258
 6422TIP3   OH240900   0.051   0.529   3.785 -0.0717  0.1815 -0.3653
 6422TIP3    H140901   0.076   0.566   3.870  1.5792 -1.8021  0.1040
 6422TIP3    H240902   0.073   0.598   3.722 -0.1540  1.2196  0.6894
 6423TIP3   OH240903   2.930   5.440   1.324  0.2090  0.0952 -0.0942
 6423TIP3    H140904   2.904   5.364   1.272  1.8933  1.9384 -4.0460
 6423TIP3    H240905   3.011   5.412   1.368 -0.1275 -0.8943 -0.0698
 6424TIP3   OH240906   4.843   4.293   2.497 -0.6384 -0.3119 -0.6658
 6424TIP3    H140907   4.787   4.229   2.451  0.0518  0.1046 -2.1710
 6424TIP3    H240908   4.802   4.305   2.582 -2.0713 -1.0359 -1.2242
 6425TIP3   OH240909   1.713   5.541   0.015 -0.0494 -0.8256  0.8338
 6425TIP3    H140910   1.750   5.569  -0.069  3.2285 -1.6745  1.8632
 6425TIP3    H240911   1.683   5.451  -0.001 -0.6710 -0.5232  0.2625
 6426TIP3   OH240912   0.526   5.881   1.145  0.4210  0.4514  0.7754
 6426TIP3    H140913   0.559   5.819   1.080  0.2633 -0.4896  1.5502
 6426TIP3    H240914   0.595   5.946   1.155  1.5422 -0.8112  1.5002
 6427TIP3   OH240915   1.388   5.401   1.012  0.0549  0.5642  0.5723
 6427TIP3    H140916   1.300   5.435   1.029  0.2708  1.9255 -0.7780
 6427TIP3    H240917   1.436   5.476   0.976  0.9261 -0.8652 -1.4500
 6428TIP3   OH240918   0.503   5.639   2.723 -0.1822  0.0759  0.4938
 6428TIP3    H140919   0.426   5.673   2.767 -1.2126 -1.2812 -0.1510
 6428TIP3    H240920   0.575   5.652   2.784 -1.1760  0.1783  1.6667
 6429TIP3   OH240921   5.734   5.231   0.689 -0.0352 -0.3973  0.1241
 6429TIP3    H140922   5.818   5.249   0.647  0.0999 -0.2954  0.4376
 6429TIP3    H240923   5.757   5.179   0.766 -0.1470  0.6806  0.8912
 6430TIP3   OH240924   1.276   2.163   0.290 -0.0452  0.3433  0.1119
 6430TIP3    H140925   1.248   2.230   0.228  2.3672  0.2480 -1.1944
 6430TIP3    H240926   1.252   2.199   0.376 -2.6217  0.8938 -0.7396
 6431TIP3   OH240927   1.109   2.747   0.577  0.2326 -0.4769 -0.1989
 6431TIP3    H140928   1.068   2.735   0.491 -0.5224  1.2319 -0.1166
 6431TIP3    H240929   1.201   2.765   0.557 -0.0966  0.7113 -0.7300
 6432TIP3   OH240930   5.053   4.512   1.849  0.4821 -0.0634  0.4283
 6432TIP3    H140931   4.997   4.573   1.803 -1.5045 -0.4525  2.1751
 6432TIP3    H240932   5.068   4.552   1.935  1.0082 -1.0115  0.8018
 6433TIP3   OH240933   5.494   6.344   1.865 -0.0016 -0.9212 -0.8514
 6433TIP3    H140934   5.536   6.268   1.824  1.0630 -0.5593 -0.4558
 6433TIP3    H240935   5.557   6.414   1.854 -1.1606  0.0406 -1.6142
 6434TIP3   OH240936   2.322   3.521   7.627  0.0070  0.0124  0.0578
 6434TIP3    H140937   2.374   3.523   7.707 -0.8020  2.2968  0.6239
 6434TIP3    H240938   2.370   3.463   7.568  2.1983  0.5621  1.1849
 6435TIP3   OH240939   3.778   4.047   0.403 -0.2518 -0.1650 -0.3538
 6435TIP3    H140940   3.692   4.007   0.415  0.7116 -1.6554  2.3484
 6435TIP3    H240941   3.775   4.127   0.456  0.0921 -0.3456 -0.0561
 6436TIP3   OH240942   4.604   2.867   2.483 -0.6526  0.6944 -0.2520
 6436TIP3    H140943   4.584   2.881   2.390 -2.8290 -4.3723 -0.8898
 6436TIP3    H240944   4.699   2.867   2.488 -0.4742  0.6506 -2.5918
 6437TIP3   OH240945   4.257   4.937   2.982  0.7855  0.0554  0.8454
 6437TIP3    H140946   4.346   4.929   2.948  0.1595 -1.6367 -0.5798
 6437TIP3    H240947   4.242   4.854   3.027  0.4746  1.0083  2.5715
 6438TIP3   OH240948   6.558   3.368   1.113 -0.7284  0.1410  0.1478
 6438TIP3    H140949   6.485   3.373   1.052 -0.4169  0.4164 -0.2029
 6438TIP3    H240950   6.612   3.444   1.093  0.7924 -1.2010 -1.0637
 6439TIP3   OH240951   3.508   6.247   0.581 -0.1549 -0.4427 -0.2834
 6439TIP3    H140952   3.425   6.199   0.572 -0.4738  0.2880 -1.5103
 6439TIP3    H240953   3.483   6.339   0.576  0.7362 -0.2087 -0.6150
 6440TIP3   OH240954   3.756   2.489   0.289 -0.6358 -0.2344 -0.1149
 6440TIP3    H140955   3.671   2.448   0.271 -1.0860  0.1899  1.0177
 6440TIP3    H240956   3.784   2.523   0.204 -1.1254 -1.2454 -0.7017
 6441TIP3   OH240957   6.195   5.740   1.310  0.3153 -0.4893  0.1209
 6441TIP3    H140958   6.155   5.694   1.384 -0.1456 -1.8941 -0.9550
 6441TIP3    H240959   6.245   5.672   1.264  1.0812  0.4829 -0.5423
 6442TIP3   OH240960   5.302   6.237   0.575  0.2316  0.5286  0.4584
 6442TIP3    H140961   5.285   6.296   0.501  0.0721  0.7093  0.6345
 6442TIP3    H240962   5.243   6.163   0.560 -0.5691  1.0477  0.9441
 6443TIP3   OH240963   1.640   0.253   8.775  0.3016  0.4210  0.1235
 6443TIP3    H140964   1.573   0.316   8.747 -0.0877  0.2558  0.6664
 6443TIP3    H240965   1.674   0.216   8.694  1.6889  2.4971 -0.3168
 6444TIP3   OH240966   5.094   3.906   8.689 -0.5552  0.2719  0.1250
 6444TIP3    H140967   5.003   3.882   8.671  0.0788 -1.5287 -0.9569
 6444TIP3    H240968   5.135   3.909   8.602  0.8409 -0.8853  0.7092
 6445TIP3   OH240969   1.803   4.465   8.728 -0.0471 -0.1216  0.4979
 6445TIP3    H140970   1.730   4.498   8.675 -0.2136 -0.3895  0.5520
 6445TIP3    H240971   1.818   4.376   8.694  0.1330 -0.1335  0.6096
 6446TIP3   OH240972   5.395   1.545   8.512 -0.0552 -0.0865  0.3269
 6446TIP3    H140973   5.338   1.491   8.458  0.3122  2.1071 -2.5153
 6446TIP3    H240974   5.367   1.635   8.495  2.6189  0.9388  0.7393
 6447TIP3   OH240975   3.623   0.795   0.521  0.1378  0.1062 -0.1259
 6447TIP3    H140976   3.696   0.738   0.499 -1.3398 -0.9969 -2.5956
 6447TIP3    H240977   3.572   0.802   0.440 -2.3962  0.9597  1.4099
 6448TIP3   OH240978   3.242   2.455   0.108 -0.1548  0.6586 -0.0931
 6448TIP3    H140979   3.283   2.484   0.027 -4.5474  2.3764 -2.0060
 6448TIP3    H240980   3.201   2.372   0.086  0.2255  0.1583  1.0146
 6449TIP3   OH240981   1.082   6.590   1.126 -0.4552  0.4302 -0.2379
 6449TIP3    H140982   0.987   6.600   1.129 -0.7000 -1.6854  0.2865
 6449TIP3    H240983   1.096   6.510   1.075  0.9020 -0.7331  1.8491
 6450TIP3   OH240984   1.354   6.441   8.468 -0.1089  0.7270 -0.5577
 6450TIP3    H140985   1.373   6.521   8.420 -2.8051  0.0877 -2.9651
 6450TIP3    H240986   1.305   6.387   8.406 -0.5691 -1.7366  1.7822
 6451TIP3   OH240987   3.523   3.148   1.245  0.1301 -0.9117  0.3568
 6451TIP3    H140988   3.499   3.188   1.328  0.4699 -0.3342  0.1795
 6451TIP3    H240989   3.530   3.055   1.264 -0.7979 -0.9137  0.7447
 6452TIP3   OH240990   3.793   2.404   2.960 -0.0365  0.0680  0.0160
 6452TIP3    H140991   3.740   2.468   3.008 -0.6849  2.7312 -3.7520
 6452TIP3    H240992   3.868   2.455   2.929  0.9760 -1.8051 -0.7353
 6453TIP3   OH240993   6.640   3.821   2.536  0.4896 -1.0219  0.1055
 6453TIP3    H140994   6.688   3.829   2.618 -0.5114  0.5321  0.5802
 6453TIP3    H240995   6.551   3.795   2.563 -0.1331  0.5024 -0.3724
 6454TIP3   OH240996   3.424   1.317   2.588 -0.1070 -0.9218  0.1645
 6454TIP3    H140997   3.498   1.256   2.595  1.5170  1.0211  0.7165
 6454TIP3    H240998   3.414   1.353   2.676 -0.3435  0.3933 -0.3804
 6455TIP3   OH240999   0.821   1.195   1.949  0.0119  0.2125  0.0961
 6455TIP3    H141000   0.899   1.171   1.899 -0.5906 -2.4048  0.2507
 6455TIP3    H241001   0.748   1.175   1.890 -0.6339  3.2477 -0.3023
 6456TIP3   OH241002   2.638   5.224   0.294 -0.9259  0.1368  0.3577
 6456TIP3    H141003   2.687   5.234   0.212 -0.1012 -0.8470  0.7096
 6456TIP3    H241004   2.588   5.305   0.302  0.8409  1.2999  0.1034
 6457TIP3   OH241005   2.409   6.437   2.365 -0.2313 -0.4806 -0.0313
 6457TIP3    H141006   2.394   6.514   2.421  0.6030  0.5591 -1.1805
 6457TIP3    H241007   2.346   6.447   2.294 -0.1901 -0.9226 -0.1283
 6458TIP3   OH241008   3.425   3.594   8.678 -0.3006  0.2245  0.1664
 6458TIP3    H141009   3.499   3.608   8.619 -0.2264 -2.1707 -0.4195
 6458TIP3    H241010   3.419   3.498   8.687 -1.5028  0.4363  2.5362
 6459TIP3   OH241011   0.660   1.508   1.783 -0.3182  0.2838  0.3187
 6459TIP3    H141012   0.714   1.510   1.863  0.6922  1.3776 -0.3452
 6459TIP3    H241013   0.653   1.416   1.761 -0.8596 -0.0694  1.8210
 6460TIP3   OH241014   2.409   6.030   3.752  0.0037 -0.5453  0.1278
 6460TIP3    H141015   2.349   6.048   3.679 -1.1079 -2.7099  0.4041
 6460TIP3    H241016   2.373   5.950   3.792  1.4232 -0.2252  2.1494
 6461TIP3   OH241017   5.706   5.069   1.163  0.0830  0.3237  0.0080
 6461TIP3    H141018   5.757   5.082   1.083  0.1454 -0.1585 -0.0314
 6461TIP3    H241019   5.622   5.111   1.144  0.9714  2.5638  0.6508
 6462TIP3   OH241020   1.897   6.017   2.250  0.0024 -0.4214 -0.5541
 6462TIP3    H141021   1.822   6.055   2.205  0.8022  1.0504 -0.7288
 6462TIP3    H241022   1.861   5.944   2.301 -1.5456  0.2910 -0.5762
 6463TIP3   OH241023   2.116   0.203   2.396 -0.3376 -0.1916  0.0072
 6463TIP3    H141024   2.051   0.179   2.331  0.7894 -2.1479 -0.4803
 6463TIP3    H241025   2.106   0.138   2.465  2.0553 -1.5429 -0.8051
 6464TIP3   OH241026   0.483   0.172   1.712 -0.4194 -0.1581 -0.0299
 6464TIP3    H141027   0.447   0.198   1.797 -2.7639 -0.8883 -0.7195
 6464TIP3    H241028   0.418   0.112   1.676  1.7628 -1.9343 -1.2536
 6465TIP3   OH241029   6.459   3.117   0.614  0.2326  0.5377  0.6571
 6465TIP3    H141030   6.546   3.156   0.625 -1.0475  3.5121  1.0392
 6465TIP3    H241031   6.440   3.128   0.521 -0.3020  1.2517  0.8443
 6466TIP3   OH241032   1.793   5.264   3.009 -0.2763  0.2788 -0.7795
 6466TIP3    H141033   1.832   5.301   3.088  1.0376 -0.6723 -0.9692
 6466TIP3    H241034   1.783   5.339   2.950  0.5526  0.6663 -0.4415
 6467TIP3   OH241035   0.718   0.627   2.085 -0.4104 -0.0927  0.3209
 6467TIP3    H141036   0.718   0.545   2.036  0.2341  0.6273 -0.9286
 6467TIP3    H241037   0.710   0.695   2.018 -1.6035  0.8478  1.3822
 6468TIP3   OH241038   0.712   4.849   3.217  0.2790 -0.6237 -0.0243
 6468TIP3    H141039   0.652   4.800   3.273  1.2479 -1.2510  0.4805
 6468TIP3    H241040   0.732   4.929   3.267 -0.6867 -0.0579 -0.5107
 6469TIP3   OH241041   4.362   6.753   7.875  0.3997 -1.2039  0.6471
 6469TIP3    H141042   4.361   6.809   7.797 -0.3627 -1.5759  0.3793
 6469TIP3    H241043   4.313   6.803   7.941  0.1861 -1.3222  0.5777
 6470TIP3   OH241044   2.138   6.072   0.815  0.0254 -0.0425  0.3649
 6470TIP3    H141045   2.166   5.998   0.869  1.5238  0.0344 -0.2541
 6470TIP3    H241046   2.206   6.138   0.826 -1.4139  1.3872  1.1060
 6471TIP3   OH241047   6.436   2.187   7.794 -0.0474  0.0379  0.0251
 6471TIP3    H141048   6.460   2.094   7.798 -0.1108  0.0467  0.8942
 6471TIP3    H241049   6.348   2.190   7.831 -0.4319  0.3302 -0.8875
 6472TIP3   OH241050   0.285   5.387   2.861 -0.1092  0.4743 -0.1972
 6472TIP3    H141051   0.212   5.348   2.813 -0.3173  2.6953 -1.8515
 6472TIP3    H241052   0.244   5.453   2.918  0.4477  0.3269  0.3869
 6473TIP3   OH241053   3.430   2.409   0.499  0.4882 -0.6040  0.5335
 6473TIP3    H141054   3.405   2.322   0.531  0.8211 -1.5866 -1.7156
 6473TIP3    H241055   3.486   2.392   0.424  2.1986  1.5871  1.1896
 6474TIP3   OH241056   3.983   1.819   0.206 -0.3346  0.4975 -0.6807
 6474TIP3    H141057   3.973   1.792   0.115  1.9068 -0.8511 -0.5772
 6474TIP3    H241058   4.055   1.767   0.240 -0.8845  1.1925  1.8072
 6475TIP3   OH241059   3.065   4.579   1.339 -0.4655  0.2618  0.3079
 6475TIP3    H141060   3.121   4.586   1.416 -0.1330 -0.5686  0.1483
 6475TIP3    H241061   3.013   4.501   1.354 -0.1399 -0.1118 -0.4685
 6476TIP3   OH241062   5.279   4.995   0.425 -0.2567 -0.2099 -0.3040
 6476TIP3    H141063   5.277   5.067   0.489 -1.6752  0.4009 -0.9805
 6476TIP3    H241064   5.369   4.994   0.392  0.4970 -0.5367  1.6661
 6477TIP3   OH241065   6.816   2.410   2.812 -0.0025 -0.4418 -0.0718
 6477TIP3    H141066   6.800   2.459   2.732 -0.0747  0.8500  0.7144
 6477TIP3    H241067   6.857   2.472   2.871 -0.1024 -1.3255  0.9619
 6478TIP3   OH241068   2.113   6.710   1.129 -0.1371  0.2675 -0.0989
 6478TIP3    H141069   2.157   6.790   1.159  1.2547 -0.1754 -0.8389
 6478TIP3    H241070   2.156   6.690   1.045  0.3377 -1.8613  0.6037
 6479TIP3   OH241071   2.070   6.754   3.430  0.3655 -0.1118 -0.1178
 6479TIP3    H141072   2.101   6.816   3.496  0.6478 -1.3379  0.9321
 6479TIP3    H241073   2.068   6.805   3.349 -0.9549  1.7210  0.9880
 6480TIP3   OH241074   0.586   1.446   3.223  0.2825  0.7577 -0.7002
 6480TIP3    H141075   0.607   1.539   3.211  3.9448  0.4157  1.4937
 6480TIP3    H241076   0.671   1.403   3.230 -1.1490 -2.0180  3.0421
 6481TIP3   OH241077   4.411   0.130   0.462  0.7544  0.2518  0.3494
 6481TIP3    H141078   4.412   0.126   0.367  2.9594  1.0528  0.2785
 6481TIP3    H241079   4.458   0.051   0.490 -3.5733 -2.4155  1.0674
 6482TIP3   OH241080   0.502   3.011   2.561  0.0214  0.1488  0.1805
 6482TIP3    H141081   0.473   3.102   2.566  1.5928  0.8429 -1.8568
 6482TIP3    H241082   0.551   2.997   2.642 -0.7704  0.8859  0.8024
 6483TIP3   OH241083   1.651   6.712   0.712 -0.2526 -0.9985  0.2142
 6483TIP3    H141084   1.634   6.795   0.757 -1.5582 -0.3319 -1.4080
 6483TIP3    H241085   1.746   6.700   0.719  0.2457  1.5389 -0.9995
 6484TIP3   OH241086   0.446   3.675   1.908 -0.7037 -0.3514  0.0372
 6484TIP3    H141087   0.479   3.643   1.824  0.0198  0.3156  0.0605
 6484TIP3    H241088   0.412   3.597   1.951  1.4188 -1.2367  0.2709
 6485TIP3   OH241089   0.583   6.145   3.699  0.0945  0.2594  0.4715
 6485TIP3    H141090   0.613   6.187   3.780 -0.0503  0.4597  0.4219
 6485TIP3    H241091   0.550   6.059   3.727 -0.3789  0.5067  0.6897
 6486TIP3   OH241092   4.612   4.438   2.368 -0.5933 -0.1527  0.0769
 6486TIP3    H141093   4.652   4.363   2.412 -1.5222 -0.2046  0.8781
 6486TIP3    H241094   4.654   4.441   2.282  0.9991 -0.2742  0.8135
 6487TIP3   OH241095   0.893   1.928   2.236 -0.3204  0.1504  0.4520
 6487TIP3    H141096   0.925   1.995   2.297  1.0238  0.7777 -0.8734
 6487TIP3    H241097   0.828   1.973   2.183 -2.4361 -0.7247  2.1423
 6488TIP3   OH241098   6.096   0.549   1.631 -0.1765 -0.5394 -0.5298
 6488TIP3    H141099   6.122   0.540   1.540 -2.2576  0.0392 -1.2358
 6488TIP3    H241100   6.107   0.642   1.650  1.5729 -0.8686  0.2939
 6489TIP3   OH241101   3.956   0.244   3.074  0.0736  0.3711  0.7984
 6489TIP3    H141102   3.934   0.296   2.997 -0.8680  0.0613  0.8408
 6489TIP3    H241103   3.915   0.291   3.147  1.2645  0.8589  1.1748
 6490TIP3   OH241104   0.944   5.166   8.160  0.8706  0.3199 -0.0157
 6490TIP3    H141105   0.937   5.132   8.071  1.4260 -0.0569  0.0797
 6490TIP3    H241106   0.890   5.245   8.160 -0.3494 -0.4820 -0.2853
 6491TIP3   OH241107   3.449   2.943   0.983  0.3885 -0.1730  0.4668
 6491TIP3    H141108   3.523   2.988   0.942  0.2413 -1.0689 -0.8496
 6491TIP3    H241109   3.404   2.900   0.910 -0.7249 -0.6507  1.4070
 6492TIP3   OH241110   3.379   1.582   8.102 -0.4540 -0.5262  0.4332
 6492TIP3    H141111   3.459   1.537   8.073 -1.4045 -2.2949  0.4090
 6492TIP3    H241112   3.394   1.598   8.196 -0.0341 -0.7831  0.4142
 6493TIP3   OH241113   1.983   2.574   8.477  0.0082 -0.1518  0.1950
 6493TIP3    H141114   1.995   2.604   8.387  0.3486  0.3663  0.4103
 6493TIP3    H241115   2.002   2.480   8.474 -1.6866 -0.5205 -0.6061
 6494TIP3   OH241116   5.920   2.763   8.239  0.0167  0.1537  0.4009
 6494TIP3    H141117   5.855   2.701   8.205  0.6762 -0.5373  0.3814
 6494TIP3    H241118   5.951   2.811   8.162  0.2580 -0.2130  0.2697
 6495TIP3   OH241119   6.764   3.609   8.289  0.7228 -0.7013  0.1591
 6495TIP3    H141120   6.710   3.640   8.217  0.0524  1.8484  1.6362
 6495TIP3    H241121   6.853   3.636   8.267  0.7590 -1.2475 -0.3752
 6496TIP3   OH241122   6.639   2.144   3.065 -0.5289 -0.3484 -0.0837
 6496TIP3    H141123   6.704   2.090   3.019  0.7729 -0.0718  1.3324
 6496TIP3    H241124   6.671   2.233   3.053 -0.4130 -0.2418  0.9593
 6497TIP3   OH241125   4.219   4.832   0.215  0.2265 -0.1355  0.2670
 6497TIP3    H141126   4.236   4.747   0.173 -0.9297 -0.0997 -0.3184
 6497TIP3    H241127   4.299   4.882   0.200  0.8169 -1.0193  0.3632
 6498TIP3   OH241128   2.865   2.000   1.746  0.2504  0.1472 -0.1432
 6498TIP3    H141129   2.881   1.916   1.789 -0.7812 -0.0529 -0.1170
 6498TIP3    H241130   2.863   1.979   1.653  0.1417  0.1603 -0.1446
 6499TIP3   OH241131   0.983   0.543   2.716  0.8609  0.2238  0.0995
 6499TIP3    H141132   1.022   0.513   2.798 -1.9560  0.4099  1.6247
 6499TIP3    H241133   0.997   0.470   2.655  1.1437 -0.8321  1.3743
 6500TIP3   OH241134   4.482   2.931   2.247  0.1512  0.1316  0.1001
 6500TIP3    H141135   4.448   3.020   2.250 -3.9153 -1.2307  0.7155
 6500TIP3    H241136   4.405   2.875   2.243  2.4538 -3.4491  0.2945
 6501TIP3   OH241137   5.002   3.847   0.356 -0.8477 -0.3028  0.1452
 6501TIP3    H141138   4.944   3.886   0.291 -1.1491  0.2200  0.7156
 6501TIP3    H241139   4.984   3.896   0.437 -1.8418 -2.1442  1.0977
 6502TIP3   OH241140   3.896   0.001   2.964  0.2587  0.1670 -0.0831
 6502TIP3    H141141   3.941   0.076   3.005 -0.1821  0.3858  0.0079
 6502TIP3    H241142   3.873   0.032   2.877 -0.3620  0.3116  0.1286
 6503TIP3   OH241143   3.981   1.382   0.876  0.2454 -0.8355 -0.6674
 6503TIP3    H141144   4.065   1.386   0.920 -0.0841 -0.6678 -0.0423
 6503TIP3    H241145   3.962   1.473   0.851 -1.0323 -0.3900  1.6773
 6504TIP3   OH241146   6.624   3.636   0.417  0.0226 -0.0662  0.2618
 6504TIP3    H141147   6.538   3.651   0.377 -0.0800 -0.7568  0.2162
 6504TIP3    H241148   6.609   3.645   0.511 -0.5565 -2.1936  0.4280
 6505TIP3   OH241149   5.256   6.512   2.118 -0.2401  0.4868  0.1544
 6505TIP3    H141150   5.257   6.522   2.023 -0.0418 -0.9990 -0.0352
 6505TIP3    H241151   5.164   6.522   2.143 -0.1463  2.0334 -0.0205
 6506TIP3   OH241152   6.620   4.636   3.143 -0.2707  0.5199 -0.3248
 6506TIP3    H141153   6.529   4.609   3.157  0.0498 -1.2074 -1.3702
 6506TIP3    H241154   6.620   4.675   3.056 -0.5520  3.3162  0.8336
 6507TIP3   OH241155   4.882   1.254   3.377  0.6709  0.5178  0.6169
 6507TIP3    H141156   4.975   1.268   3.391  0.6759  0.6464  0.4542
 6507TIP3    H241157   4.869   1.266   3.283  0.4203  0.9136  0.6977
 6508TIP3   OH241158   2.061   5.016   8.096 -0.0969  0.0905 -0.1271
 6508TIP3    H141159   2.144   5.048   8.060 -0.2106 -0.4119 -0.8446
 6508TIP3    H241160   2.085   4.939   8.148  0.2351  1.5043  1.9563
 6509TIP3   OH241161   1.911   2.270   7.842  0.4615  0.4137  0.0372
 6509TIP3    H141162   1.828   2.275   7.796  0.3258 -0.5770  0.1623
 6509TIP3    H241163   1.973   2.238   7.776  0.1369 -1.6255  0.6563
 6510TIP3   OH241164   4.433   4.654   0.908 -0.4475 -0.0292 -0.3167
 6510TIP3    H141165   4.504   4.690   0.855  0.0047  2.5433  1.8485
 6510TIP3    H241166   4.356   4.659   0.851  0.2765  1.3323 -1.2257
 6511TIP3   OH241167   2.056   3.035   0.321 -0.6317 -0.3052 -0.0353
 6511TIP3    H141168   1.993   3.107   0.322 -2.1430 -1.5476 -0.6230
 6511TIP3    H241169   2.141   3.077   0.312 -1.5723  1.3562 -2.1063
 6512TIP3   OH241170   6.131   3.054   0.379 -0.2529 -0.1835 -0.3916
 6512TIP3    H141171   6.087   2.990   0.323  0.7472  1.0352 -2.6788
 6512TIP3    H241172   6.075   3.132   0.375 -0.0874 -0.0259  0.2083
 6513TIP3   OH241173   2.716   3.887   8.722  0.3642 -0.0678  0.4397
 6513TIP3    H141174   2.680   3.954   8.664  1.9197  0.4757  0.0603
 6513TIP3    H241175   2.762   3.936   8.790  0.7393 -0.7370  0.6762
 6514TIP3   OH241176   4.187   5.173   3.144 -0.5258 -0.0349 -0.3201
 6514TIP3    H141177   4.244   5.248   3.160  0.6701 -0.7568 -1.0890
 6514TIP3    H241178   4.240   5.097   3.168 -2.2122 -0.6375  1.9451
 6515TIP3   OH241179   0.574   4.894   0.563 -0.0993 -0.4931 -0.3458
 6515TIP3    H141180   0.616   4.885   0.648 -0.8831 -0.4713  0.0548
 6515TIP3    H241181   0.619   4.831   0.507  0.2698 -0.6718  0.1477
 6516TIP3   OH241182   5.405   5.580   0.657  0.1730  0.4346  0.2630
 6516TIP3    H141183   5.466   5.592   0.584 -0.7109 -1.0239 -0.7891
 6516TIP3    H241184   5.460   5.553   0.730  0.8994  0.0678 -0.4011
 6517TIP3   OH241185   6.107   5.732   0.051 -0.3329  0.2422  0.3898
 6517TIP3    H141186   6.087   5.820   0.021 -3.1093 -0.4079  0.0978
 6517TIP3    H241187   6.074   5.674  -0.017 -0.7965 -1.0815  1.6698
 6518TIP3   OH241188   2.214   0.881   8.170  0.2751  0.4791  0.0563
 6518TIP3    H141189   2.173   0.827   8.238  1.4827  0.2024  0.5865
 6518TIP3    H241190   2.144   0.896   8.106 -0.5993 -0.1156  0.8467
 6519TIP3   OH241191   4.032   1.307   1.314 -0.3143 -0.2213 -0.5552
 6519TIP3    H141192   3.961   1.261   1.269 -2.0049  0.6039  1.1581
 6519TIP3    H241193   4.054   1.251   1.388  2.1344 -1.3393 -1.9843
 6520TIP3   OH241194   2.305   5.460   1.099  0.0586  0.0113  0.1910
 6520TIP3    H141195   2.291   5.369   1.128 -0.9431 -0.2443 -1.0270
 6520TIP3    H241196   2.229   5.507   1.134 -1.8335 -0.5302 -2.8269
 6521TIP3   OH241197   3.343   5.006   8.554 -0.5429 -0.0051  0.3812
 6521TIP3    H141198   3.394   5.006   8.635  0.1348 -0.6903 -0.0351
 6521TIP3    H241199   3.406   5.029   8.486 -0.4366 -2.1942 -0.3280
 6522TIP3   OH241200   6.494   0.563   2.699 -0.0304 -0.5417  1.1930
 6522TIP3    H141201   6.485   0.565   2.604  2.9280  0.6149  0.8357
 6522TIP3    H241202   6.478   0.472   2.722  1.1573 -1.2869 -0.6876
 6523TIP3   OH241203   0.419   4.743   0.338 -0.2328 -0.7689  0.2552
 6523TIP3    H141204   0.413   4.674   0.404  1.2654 -1.2419 -0.0779
 6523TIP3    H241205   0.509   4.738   0.305  0.1705  1.8104  0.7462
 6524TIP3   OH241206   4.450   3.146   8.447  0.3777 -0.1207 -0.6413
 6524TIP3    H141207   4.511   3.159   8.520  0.7999 -1.2124 -0.7867
 6524TIP3    H241208   4.503   3.161   8.368 -0.1507  1.3682 -0.7531
 6525TIP3   OH241209   4.819   6.850   8.699  0.1542 -0.2604  0.2749
 6525TIP3    H141210   4.757   6.810   8.638 -0.0628 -1.1602  1.0684
 6525TIP3    H241211   4.785   6.828   8.786  0.2328  1.3483  0.7426
 6526TIP3   OH241212   2.014   1.553   8.577  0.1945 -0.5306 -0.1853
 6526TIP3    H141213   2.080   1.599   8.629  0.4636  1.5385 -2.1795
 6526TIP3    H241214   2.015   1.464   8.610  1.9370  0.1404  1.7802
 6527TIP3   OH241215   4.006   6.848   0.942  0.4123  0.5562  0.3069
 6527TIP3    H141216   4.063   6.859   0.866 -1.1832 -0.1067 -1.0356
 6527TIP3    H241217   3.917   6.844   0.905 -0.3610 -0.3250  2.1539
 6528TIP3   OH241218   3.306   6.598   0.440 -0.1263  0.0068  0.0908
 6528TIP3    H141219   3.327   6.644   0.359 -0.8090  2.3195  1.1546
 6528TIP3    H241220   3.390   6.562   0.469 -0.1989 -2.8127 -2.6581
 6529TIP3   OH241221   6.080   3.412   2.745  0.6445  0.0670 -0.2465
 6529TIP3    H141222   6.036   3.444   2.666  0.5218  0.5717  0.0220
 6529TIP3    H241223   6.154   3.362   2.713  1.3284  1.3096 -0.6727
 6530TIP3   OH241224   4.961   3.332   1.118 -0.3831 -0.7862 -0.5685
 6530TIP3    H141225   4.948   3.324   1.212  1.2612 -0.4680 -0.2947
 6530TIP3    H241226   4.952   3.243   1.084 -1.4306 -0.8388 -0.2032
 6531TIP3   OH241227   3.348   4.425   8.499  0.2756 -0.5696 -0.0764
 6531TIP3    H141228   3.427   4.474   8.479 -0.5908  0.3195 -1.4612
 6531TIP3    H241229   3.321   4.387   8.416  0.2697 -2.4733  0.7341
 6532TIP3   OH241230   1.684   2.413   8.078 -0.1059  0.6355 -0.0119
 6532TIP3    H141231   1.749   2.470   8.037  0.0117  0.9813  0.6446
 6532TIP3    H241232   1.695   2.328   8.034  1.1313  0.5440  0.4288
 6533TIP3   OH241233   5.188   3.540   3.023 -0.1302  0.7811  0.1872
 6533TIP3    H141234   5.147   3.555   3.108  1.7169 -0.4981  1.3727
 6533TIP3    H241235   5.214   3.448   3.025  0.8489  0.9903 -1.3604
 6534TIP3   OH241236   3.540   6.496   2.011  0.7514 -0.3069 -0.6110
 6534TIP3    H141237   3.474   6.566   2.021 -0.1566 -1.2451  0.2744
 6534TIP3    H241238   3.603   6.513   2.082  0.7394 -0.1632 -0.6345
 6535TIP3   OH241239   2.312   6.523   0.004  0.0254  0.0226  0.3467
 6535TIP3    H141240   2.241   6.585   0.025 -0.1625 -0.1713  0.2840
 6535TIP3    H241241   2.275   6.467  -0.064 -0.2801 -1.0446  1.3777
 6536TIP3   OH241242   6.332   5.170   1.398 -0.3729  0.2105 -1.2735
 6536TIP3    H141243   6.415   5.126   1.380 -0.9645 -0.6983 -1.8363
 6536TIP3    H241244   6.309   5.213   1.316 -1.4234 -1.1846 -1.7436
 6537TIP3   OH241245   6.079   4.254   8.668  0.1399  0.4962 -0.1368
 6537TIP3    H141246   6.013   4.214   8.612  0.0336  1.4893 -0.7294
 6537TIP3    H241247   6.079   4.346   8.644 -0.6342  1.1703  2.1911
 6538TIP3   OH241248   0.680   5.528   2.061  0.2167  0.2595 -0.3769
 6538TIP3    H141249   0.607   5.498   2.116  1.5476 -1.4930  0.5693
 6538TIP3    H241250   0.647   5.605   2.016 -2.2011 -0.4643  0.0233
 6539TIP3   OH241251   4.257   1.403   2.998 -0.5771 -0.1414  0.3110
 6539TIP3    H141252   4.302   1.418   2.915 -0.2971  0.2041  0.5175
 6539TIP3    H241253   4.185   1.467   2.998  1.4522  2.3393  1.8078
 6540TIP3   OH241254   4.958   6.270   0.284 -0.0359  0.1676  0.6876
 6540TIP3    H141255   4.941   6.346   0.229  0.8978 -1.2663 -1.7508
 6540TIP3    H241256   4.900   6.202   0.251 -1.4415 -0.0506  3.3514
 6541TIP3   OH241257   5.955   6.629   8.270 -0.3195  0.1815  0.0527
 6541TIP3    H141258   6.033   6.577   8.250 -0.5063 -0.1880  0.2747
 6541TIP3    H241259   5.983   6.720   8.259  0.0156  0.0370 -0.3156
 6542TIP3   OH241260   0.970   1.538   3.615 -0.5328 -0.0712 -0.0324
 6542TIP3    H141261   0.893   1.593   3.600 -0.7681 -0.2556  0.4896
 6542TIP3    H241262   0.935   1.451   3.635 -0.2027 -0.0961  0.4652
 6543TIP3   OH241263   2.701   0.129   3.681 -0.2929  0.2142  0.2043
 6543TIP3    H141264   2.765   0.199   3.664 -0.3291  0.1061 -0.3903
 6543TIP3    H241265   2.747   0.068   3.738  0.0388  0.2759  0.0038
 6544TIP3   OH241266   5.398   4.144   0.735 -0.4040  0.1879 -0.5353
 6544TIP3    H141267   5.303   4.144   0.751 -0.3268  1.2756 -0.0093
 6544TIP3    H241268   5.407   4.182   0.647 -0.3932  1.3943 -0.0333
 6545TIP3   OH241269   2.950   3.178   3.366 -0.0244  0.3366  0.3882
 6545TIP3    H141270   3.045   3.174   3.353  0.0603  0.3415  0.9561
 6545TIP3    H241271   2.940   3.207   3.457 -0.5456 -0.9805  0.7826
 6546TIP3   OH241272   4.096   5.379   1.289  0.1341 -0.1051  0.1118
 6546TIP3    H141273   4.099   5.458   1.235  0.9026 -0.1346  0.1070
 6546TIP3    H241274   4.004   5.373   1.316  0.0798  0.8321  0.1839
 6547TIP3   OH241275   1.556   0.505   1.521 -0.1193  0.0920 -0.4549
 6547TIP3    H141276   1.498   0.534   1.591 -0.7066 -0.4582 -0.7000
 6547TIP3    H241277   1.551   0.574   1.454  0.0251  0.3610 -0.1871
 6548TIP3   OH241278   4.822   5.642   3.969 -0.1224 -0.4146  0.3165
 6548TIP3    H141279   4.836   5.677   4.057 -0.9348  0.6892  0.0373
 6548TIP3    H241280   4.872   5.700   3.912 -1.4225  0.2919 -0.1486
 6549TIP3   OH241281   6.030   2.539   1.026 -0.3397 -0.0987 -0.1830
 6549TIP3    H141282   6.087   2.615   1.034 -0.8853  0.2466  0.5320
 6549TIP3    H241283   5.949   2.573   0.988 -1.2158  0.0328  1.6976
 6550TIP3   OH241284   2.135   2.074   2.033 -0.4066 -0.2190 -0.3875
 6550TIP3    H141285   2.191   2.122   1.972 -2.1335 -0.9276 -2.6821
 6550TIP3    H241286   2.057   2.129   2.043 -0.4490 -0.4508  0.6507
 6551TIP3   OH241287   0.679   1.655   8.169 -0.6420 -0.5124 -0.4980
 6551TIP3    H141288   0.707   1.734   8.122 -3.5630  0.9239 -0.0324
 6551TIP3    H241289   0.596   1.631   8.127 -0.6433 -2.3897  0.4822
 6552TIP3   OH241290   2.491   4.843   2.623 -0.1949  0.2699  0.3981
 6552TIP3    H141291   2.496   4.748   2.632  0.3078  0.1557 -0.9276
 6552TIP3    H241292   2.404   4.858   2.584  0.2211  0.2437 -0.5606
 6553TIP3   OH241293   5.781   5.714   1.010  0.0493  0.5622  0.0320
 6553TIP3    H141294   5.756   5.630   1.048 -1.8839 -0.2798 -2.7787
 6553TIP3    H241295   5.755   5.779   1.076 -0.7037 -0.8962  1.2316
 6554TIP3   OH241296   1.581   3.039   0.771 -0.3488 -0.4130 -0.4531
 6554TIP3    H141297   1.524   3.074   0.702  2.2603  0.5672 -2.2811
 6554TIP3    H241298   1.558   2.946   0.776 -0.2475 -0.6738 -3.1237
 6555TIP3   OH241299   3.362   4.352   3.137 -0.0296  0.1575  0.1100
 6555TIP3    H141300   3.342   4.313   3.051 -0.1223  0.0181  0.1936
 6555TIP3    H241301   3.293   4.417   3.150  2.0530  2.9375 -1.6203
 6556TIP3   OH241302   0.932   0.125   3.072  0.0109 -0.2088  0.2469
 6556TIP3    H141303   0.864   0.115   3.139  0.0660  1.1180  0.5336
 6556TIP3    H241304   0.884   0.131   2.989 -0.1406 -0.4579  0.3147
 6557TIP3   OH241305   5.800   1.641   1.713  0.1082  0.3946 -0.1514
 6557TIP3    H141306   5.838   1.729   1.719 -0.8397  0.9155 -1.3101
 6557TIP3    H241307   5.748   1.632   1.792  0.3046  0.8331  0.0330
 6558TIP3   OH241308   3.458   3.422   1.880 -0.4210 -0.0815 -0.1290
 6558TIP3    H141309   3.514   3.406   1.956 -1.8298 -0.5502  0.8462
 6558TIP3    H241310   3.374   3.451   1.917 -0.7675  0.8431 -1.5552
 6559TIP3   OH241311   3.608   1.022   2.647  0.3318  0.0289  0.4645
 6559TIP3    H141312   3.640   0.979   2.568  0.4484  0.8501  0.0503
 6559TIP3    H241313   3.687   1.039   2.699  0.1122 -2.0141  1.5720
 6560TIP3   OH241314   3.729   1.030   0.777  0.3263 -0.9338 -0.1664
 6560TIP3    H141315   3.651   0.975   0.783  0.0528 -0.6343 -0.8098
 6560TIP3    H241316   3.796   0.982   0.825 -0.1668 -1.3558  0.1149
 6561TIP3   OH241317   2.106   4.699   1.193  0.2384 -0.0561 -0.3032
 6561TIP3    H141318   2.189   4.681   1.238  0.8062  0.4513 -1.1146
 6561TIP3    H241319   2.124   4.778   1.142 -1.0337  0.6170  0.2423
 6562TIP3   OH241320   6.018   3.676   0.678 -0.3165 -0.0653  0.0216
 6562TIP3    H141321   6.030   3.584   0.658  0.3099 -0.2690  1.2166
 6562TIP3    H241322   5.925   3.692   0.665 -0.7934 -1.3492  1.5773
 6563TIP3   OH241323   4.957   0.573   2.117  0.0497 -0.1330 -0.0462
 6563TIP3    H141324   4.961   0.482   2.144 -0.7775  0.3216  1.7412
 6563TIP3    H241325   5.048   0.599   2.104  0.2481 -1.4742 -1.6722
 6564TIP3   OH241326   5.683   4.953   8.283  0.3052  0.1117  0.0056
 6564TIP3    H141327   5.657   4.984   8.370  0.6115 -1.8805  0.8768
 6564TIP3    H241328   5.776   4.933   8.292  0.4009  0.1531 -0.8615
 6565TIP3   OH241329   6.523   1.090   1.340 -0.1581  0.0873 -0.6337
 6565TIP3    H141330   6.605   1.112   1.297 -0.0560  0.0715 -0.4476
 6565TIP3    H241331   6.514   0.995   1.329  1.1676 -0.3613  1.6122
 6566TIP3   OH241332   1.367   6.009   1.382 -0.1794 -0.0898  0.2326
 6566TIP3    H141333   1.334   6.092   1.348 -0.9663 -1.0940 -1.5347
 6566TIP3    H241334   1.458   6.005   1.353 -0.4097 -0.2541 -0.4701
 6567TIP3   OH241335   4.494   5.139   0.019 -0.0916 -0.4925 -0.1397
 6567TIP3    H141336   4.573   5.113  -0.028  0.0665 -0.3822  0.0626
 6567TIP3    H241337   4.425   5.136  -0.047  0.0535 -0.7320 -0.2857
 6568TIP3   OH241338   0.981   0.099   3.445 -0.8489 -0.1931  0.0261
 6568TIP3    H141339   1.048   0.116   3.380 -0.5245  1.1044  0.6530
 6568TIP3    H241340   1.022   0.121   3.529 -1.6201 -0.6963  0.5584
 6569TIP3   OH241341   0.236   1.526   2.156 -0.0407 -0.3354 -0.6942
 6569TIP3    H141342   0.313   1.482   2.118  0.0715  0.1865 -1.0792
 6569TIP3    H241343   0.168   1.459   2.155  0.0626 -0.4447 -1.4887
 6570TIP3   OH241344   3.759   2.319   0.606  0.4110 -0.3640 -0.4667
 6570TIP3    H141345   3.703   2.388   0.568  1.0402  0.5671  0.2524
 6570TIP3    H241346   3.776   2.259   0.534 -0.6684 -0.1128 -0.9547
 6571TIP3   OH241347   1.449   2.573   1.597  0.0759  0.7410 -0.0030
 6571TIP3    H141348   1.511   2.606   1.532  0.6847 -0.0330  0.1776
 6571TIP3    H241349   1.394   2.512   1.549  1.2372 -0.6853  0.4229
 6572TIP3   OH241350   1.629   2.262   2.604  0.5064 -0.4580 -0.7239
 6572TIP3    H141351   1.564   2.321   2.643  0.9436  0.6975 -1.6605
 6572TIP3    H241352   1.680   2.319   2.546 -0.2567 -2.1189 -3.1792
 6573TIP3   OH241353   5.542   6.450   0.501 -0.0885 -0.1340  0.1564
 6573TIP3    H141354   5.570   6.534   0.465 -0.1528 -0.4643 -0.6837
 6573TIP3    H241355   5.473   6.420   0.442  0.1396 -0.9150  0.2775
 6574TIP3   OH241356   3.189   0.937   3.501  0.3783 -0.5088  0.3368
 6574TIP3    H141357   3.166   0.897   3.584 -0.6582 -1.1372 -0.2338
 6574TIP3    H241358   3.285   0.940   3.501  0.3787  0.1061  1.8150
 6575TIP3   OH241359   4.785   2.026   1.861 -0.1329 -0.6465  0.3453
 6575TIP3    H141360   4.763   1.936   1.836 -2.2433 -0.1025  0.0327
 6575TIP3    H241361   4.729   2.043   1.937 -1.4032  1.0993 -0.9222
 6576TIP3   OH241362   5.108   5.489   2.979 -0.1993  0.1983 -0.5889
 6576TIP3    H141363   5.171   5.421   2.957  0.7460  0.7529  0.3025
 6576TIP3    H241364   5.133   5.518   3.066 -1.2712  0.9172 -0.4954
 6577TIP3   OH241365   4.337   3.296   2.208 -0.2510 -0.0393  0.1833
 6577TIP3    H141366   4.350   3.339   2.293 -1.8899 -0.0936  0.4970
 6577TIP3    H241367   4.292   3.361   2.154 -1.1278 -0.7099  0.0740
 6578TIP3   OH241368   2.460   3.757   8.708  0.3157 -0.2321  0.3929
 6578TIP3    H141369   2.451   3.662   8.701 -0.9637 -0.1816  1.0115
 6578TIP3    H241370   2.554   3.773   8.706  0.6013 -1.6265  1.5939
 6579TIP3   OH241371   0.923   3.299   3.530  0.1647 -0.5969  0.0004
 6579TIP3    H141372   0.874   3.220   3.506  0.6977 -1.3109  1.1666
 6579TIP3    H241373   0.865   3.371   3.506 -0.7536 -1.3686 -0.1789
 6580TIP3   OH241374   5.535   5.843   0.776  0.3839 -0.3074 -0.4530
 6580TIP3    H141375   5.522   5.767   0.718  2.4587 -0.8311 -0.3167
 6580TIP3    H241376   5.617   5.881   0.747  0.0974  1.0482  0.4340
 6581TIP3   OH241377   3.370   0.308   0.929  0.3261 -0.2099 -0.1320
 6581TIP3    H141378   3.304   0.265   0.984 -0.4873  0.9527 -0.1580
 6581TIP3    H241379   3.319   0.363   0.869  1.3163  2.4836  1.3013
 6582TIP3   OH241380   2.871   4.869   1.108  0.0969  0.5039 -0.2005
 6582TIP3    H141381   2.777   4.880   1.094  0.1201 -0.5360 -1.3700
 6582TIP3    H241382   2.899   4.811   1.037  1.0542 -1.7062  1.8236
 6583TIP3   OH241383   4.496   2.168   3.857  0.0076  0.3402  0.1246
 6583TIP3    H141384   4.557   2.159   3.930  0.1270  0.9237  0.1023
 6583TIP3    H241385   4.436   2.237   3.885  0.5308  1.1333 -0.6424
 6584TIP3   OH241386   5.092   2.795   7.993 -0.3113 -0.2259 -0.3811
 6584TIP3    H141387   5.094   2.784   8.088 -0.1096 -1.0138 -0.4721
 6584TIP3    H241388   5.183   2.804   7.967 -0.3061 -0.7946 -0.5813
 6585TIP3   OH241389   5.259   1.960   2.473  0.1056 -0.3091  0.1982
 6585TIP3    H141390   5.221   1.998   2.394  2.4871  0.9824 -0.4178
 6585TIP3    H241391   5.227   2.015   2.545  0.1781  0.2906 -0.2213
 6586TIP3   OH241392   0.670   6.609   2.838 -0.0301 -0.3677 -0.3773
 6586TIP3    H141393   0.630   6.523   2.850 -2.8367  0.8190 -0.2193
 6586TIP3    H241394   0.659   6.652   2.923  2.1377 -0.1101 -0.1830
 6587TIP3   OH241395   5.434   2.932   2.125 -0.0156  0.2082 -0.1880
 6587TIP3    H141396   5.352   2.948   2.172 -0.3658  0.7220 -0.9659
 6587TIP3    H241397   5.498   2.988   2.170 -0.4062  0.9020 -0.4859
 6588TIP3   OH241398   0.268   6.113   0.066  0.1920 -0.7728  0.5540
 6588TIP3    H141399   0.321   6.174   0.117  1.7347 -0.1174 -1.6946
 6588TIP3    H241400   0.236   6.164  -0.008 -0.2736 -2.1571 -0.2421
 6589TIP3   OH241401   1.032   3.770   1.438  0.4631 -0.1437 -0.1325
 6589TIP3    H141402   1.071   3.857   1.429  0.0265  0.1934  1.0664
 6589TIP3    H241403   0.939   3.786   1.452  0.2214 -0.8561 -0.8203
 6590TIP3   OH241404   1.808   4.402   0.578 -0.1932  0.0868  0.0660
 6590TIP3    H141405   1.819   4.356   0.661  2.3654  1.6741  0.7182
 6590TIP3    H241406   1.751   4.476   0.599  0.5354  0.5448  0.4547
 6591TIP3   OH241407   5.256   6.566   1.685  0.1784 -0.1732 -0.0076
 6591TIP3    H141408   5.197   6.531   1.752  1.3910  0.5582  1.5154
 6591TIP3    H241409   5.198   6.601   1.618 -1.1430  0.2220  1.2824
 6592TIP3   OH241410   0.486   4.638   2.368 -0.2151 -0.1409 -0.7609
 6592TIP3    H141411   0.580   4.644   2.385 -0.4209 -0.8720  0.7958
 6592TIP3    H241412   0.462   4.725   2.335  0.6352  0.7712  0.8756
 6593TIP3   OH241413   4.211   2.959   0.794  0.3296 -0.0633 -0.0113
 6593TIP3    H141414   4.217   2.982   0.701 -2.5691 -0.6611 -0.4284
 6593TIP3    H241415   4.155   3.026   0.832 -0.9703 -1.4554  0.6306
 6594TIP3   OH241416   6.722   2.748   0.847 -0.1570 -0.2631  0.5065
 6594TIP3    H141417   6.816   2.765   0.851 -0.3234  0.5680  1.1588
 6594TIP3    H241418   6.714   2.654   0.865  0.5604 -0.4132  0.1040
 6595TIP3   OH241419   0.435   5.559   1.775  0.5100 -0.4462 -0.5588
 6595TIP3    H141420   0.356   5.546   1.723 -1.1845  0.2882  1.6705
 6595TIP3    H241421   0.418   5.512   1.857  1.9090  0.6346  0.4042
 6596TIP3   OH241422   1.250   2.663   0.834 -0.4100  0.0590 -0.2774
 6596TIP3    H141423   1.329   2.616   0.809  0.5927  1.4495  0.1782
 6596TIP3    H241424   1.191   2.653   0.759  0.7990  0.3308 -1.2840
 6597TIP3   OH241425   2.903   5.002   0.868  0.2042 -0.5111 -0.4617
 6597TIP3    H141426   2.845   5.060   0.818 -1.4715 -2.4742 -0.9793
 6597TIP3    H241427   2.867   5.004   0.957  0.5006 -0.3160 -0.3466
 6598TIP3   OH241428   5.706   3.591   1.384 -0.6465  0.0173  0.8858
 6598TIP3    H141429   5.734   3.618   1.472 -1.5514 -0.8467  1.4493
 6598TIP3    H241430   5.612   3.576   1.392 -0.8194  0.3583 -0.3505
 6599TIP3   OH241431   3.865   2.813   3.082  0.3378  0.4731 -0.8536
 6599TIP3    H141432   3.797   2.748   3.099  0.3485  0.2629 -1.5581
 6599TIP3    H241433   3.865   2.823   2.987  2.3683 -0.7278 -1.0490
 6600TIP3   OH241434   0.261   2.999   0.852 -0.4942 -0.4058  0.4118
 6600TIP3    H141435   0.299   3.058   0.917 -1.9420 -0.1151  1.0459
 6600TIP3    H241436   0.276   3.042   0.768 -0.6779  0.3999  0.7829
 6601TIP3   OH241437   2.478   1.964   2.199  0.1676 -0.6396  0.6470
 6601TIP3    H141438   2.416   1.930   2.135  0.7093 -1.8894  0.7504
 6601TIP3    H241439   2.424   2.011   2.263 -0.2560  1.9959 -1.4807
 6602TIP3   OH241440   2.484   0.637   3.706 -0.0496 -0.3322  0.5875
 6602TIP3    H141441   2.481   0.685   3.789  0.8224  0.8532 -0.0341
 6602TIP3    H241442   2.437   0.556   3.723  1.1003 -0.6438  2.5845
 6603TIP3   OH241443   0.258   5.071   1.893 -0.2149  0.6051  0.7090
 6603TIP3    H141444   0.254   5.095   1.800 -2.1230 -0.4282  0.4627
 6603TIP3    H241445   0.337   5.018   1.900 -1.9123 -2.5773 -1.2925
 6604TIP3   OH241446   4.838   0.426   8.786  0.0790  0.0798 -0.3230
 6604TIP3    H141447   4.892   0.350   8.806 -1.1410 -1.2479 -1.8183
 6604TIP3    H241448   4.843   0.480   8.864  1.5255 -1.2028  0.5241
 6605TIP3   OH241449   2.985   3.502   8.607 -0.0159  0.1118  0.0680
 6605TIP3    H141450   3.049   3.509   8.536 -1.2138 -0.6765 -1.1366
 6605TIP3    H241451   2.900   3.517   8.565 -0.6227  1.8320  1.7532
 6606TIP3   OH241452   5.194   3.860   0.963 -0.5119  0.2924 -0.4903
 6606TIP3    H141453   5.251   3.869   0.886  0.6550  0.6925  0.3868
 6606TIP3    H241454   5.113   3.823   0.929  1.2089 -3.0143 -1.3994
 6607TIP3   OH241455   5.507   5.888   0.321  0.3624 -0.0792 -0.1519
 6607TIP3    H141456   5.429   5.908   0.373  1.3246  1.8406  0.6328
 6607TIP3    H241457   5.546   5.813   0.365 -0.9522 -1.0237 -0.5140
 6608TIP3   OH241458   2.615   2.491   3.219  0.1967 -0.4441 -0.0474
 6608TIP3    H141459   2.552   2.486   3.147 -1.1040  2.4624  0.7406
 6608TIP3    H241460   2.613   2.405   3.259 -1.2854 -1.2273 -1.6789
 6609TIP3   OH241461   1.911   4.637   1.368 -0.5275 -0.4082  0.6839
 6609TIP3    H141462   1.836   4.643   1.310 -0.2051 -3.1250 -0.1214
 6609TIP3    H241463   1.984   4.671   1.317 -0.9880  1.4773  1.1885
 6610TIP3   OH241464   0.771   0.338   2.171  0.4761 -0.5000 -0.8760
 6610TIP3    H141465   0.748   0.263   2.226  1.0609  0.2797  0.4711
 6610TIP3    H241466   0.745   0.311   2.083  0.1147 -2.0426 -0.3384
 6611TIP3   OH241467   6.592   2.904   8.274 -0.0357 -0.2013 -0.0224
 6611TIP3    H141468   6.504   2.867   8.270 -0.8380  1.5517  0.7126
 6611TIP3    H241469   6.641   2.856   8.207 -0.8515 -2.8996  1.1954
 6612TIP3   OH241470   6.086   1.844   2.774  0.1249  0.2536 -0.4304
 6612TIP3    H141471   6.155   1.906   2.749 -0.0691  0.6380 -0.0330
 6612TIP3    H241472   6.124   1.758   2.758  0.5632  0.4685 -0.5703
 6613TIP3   OH241473   1.512   0.543   8.671 -0.2188 -0.2261 -0.6743
 6613TIP3    H141474   1.521   0.537   8.576  0.0316 -0.0741 -0.6632
 6613TIP3    H241475   1.562   0.621   8.694  0.3823 -0.7026 -0.3317
 6614TIP3   OH241476   3.594   4.479   3.218 -0.3669  0.0126  0.1138
 6614TIP3    H141477   3.572   4.500   3.308  0.0965  0.0811  0.2131
 6614TIP3    H241478   3.514   4.439   3.182 -1.9987  3.5047 -0.6079
 6615TIP3   OH241479   1.365   0.269   1.955  0.6667 -0.4524  0.2991
 6615TIP3    H141480   1.445   0.242   1.911 -0.0324 -2.7762  0.3580
 6615TIP3    H241481   1.306   0.194   1.948 -0.8123  0.4700  1.9761
 6616TIP3   OH241482   0.722   2.291   1.399  0.0384  0.3100 -1.0958
 6616TIP3    H141483   0.750   2.211   1.354  1.6075  0.0818  0.1776
 6616TIP3    H241484   0.785   2.301   1.471  0.0214  2.8240 -1.3418
 6617TIP3   OH241485   3.060   6.742   1.730 -0.2534 -0.0173  1.0123
 6617TIP3    H141486   2.967   6.762   1.722 -1.0578 -2.5333  2.9637
 6617TIP3    H241487   3.092   6.800   1.799 -0.3276  0.8714  0.3170
 6618TIP3   OH241488   1.176   4.952   0.612 -0.1938 -0.4678 -0.4370
 6618TIP3    H141489   1.179   4.882   0.547  0.0043 -0.6270 -0.2592
 6618TIP3    H241490   1.265   4.956   0.647 -0.1667 -0.0233 -0.5524
 6619TIP3   OH241491   1.339   1.481   1.203 -0.0882 -0.3904  0.2026
 6619TIP3    H141492   1.408   1.473   1.137 -0.1720 -0.5573  0.1356
 6619TIP3    H241493   1.274   1.415   1.179 -0.8420  0.5467 -0.4256
 6620TIP3   OH241494   0.323   3.561   2.909  0.6691 -0.2459 -0.2846
 6620TIP3    H141495   0.274   3.481   2.887 -1.0722  0.6790  0.1116
 6620TIP3    H241496   0.307   3.574   3.002  0.9344  0.5809 -0.3515
 6621TIP3   OH241497   2.815   2.924   1.306 -0.4426 -0.4056 -0.6492
 6621TIP3    H141498   2.890   2.977   1.279  1.0082 -1.3036  1.3125
 6621TIP3    H241499   2.781   2.970   1.383 -0.2735 -1.3484  0.0027
 6622TIP3   OH241500   1.326   2.965   0.712 -0.3075 -0.2898 -0.0375
 6622TIP3    H141501   1.341   2.910   0.788  1.0854 -0.2388 -0.2593
 6622TIP3    H241502   1.354   2.912   0.638 -2.0845 -0.5250 -0.6047
 6623TIP3   OH241503   4.008   6.138   0.038 -0.2311 -0.8932  0.3428
 6623TIP3    H141504   4.015   6.164   0.130 -0.4727  0.8696 -0.0936
 6623TIP3    H241505   4.070   6.066   0.029  0.8471 -0.1678  1.5636
 6624TIP3   OH241506   3.711   5.889   1.394 -0.7032 -0.0901  0.2455
 6624TIP3    H141507   3.656   5.963   1.421 -2.3182 -1.1676  0.0855
 6624TIP3    H241508   3.755   5.919   1.315 -3.2247 -0.0484 -1.2633
 6625TIP3   OH241509   0.409   4.661   1.530 -0.4773 -0.8718 -0.3230
 6625TIP3    H141510   0.429   4.603   1.456 -0.3719 -0.7109 -0.4223
 6625TIP3    H241511   0.328   4.626   1.566  1.1715 -3.0528  1.6349
 6626TIP3   OH241512   6.573   2.594   3.318  0.3454 -0.1510  0.2588
 6626TIP3    H141513   6.585   2.512   3.367  0.4725  0.9956  2.2548
 6626TIP3    H241514   6.660   2.634   3.317  0.1255  0.3271  0.0075
 6627TIP3   OH241515   4.266   3.875   8.047 -0.3530 -0.1018 -0.4700
 6627TIP3    H141516   4.177   3.903   8.067  0.1185  2.4018 -1.4540
 6627TIP3    H241517   4.278   3.898   7.954  1.1548 -0.8878 -0.5119
 6628TIP3   OH241518   1.719   6.317   1.803 -0.2365 -0.1998 -0.3816
 6628TIP3    H141519   1.627   6.307   1.827 -0.0927 -0.7803 -0.0365
 6628TIP3    H241520   1.734   6.249   1.738 -0.0455 -0.1258 -0.4142
 6629TIP3   OH241521   3.495   2.678   1.705 -0.8008 -0.0767 -0.2423
 6629TIP3    H141522   3.518   2.606   1.647 -3.9532  0.2687 -2.1500
 6629TIP3    H241523   3.465   2.748   1.646 -0.3119  1.8508  1.6647
 6630TIP3   OH241524   2.721   5.745   2.404  0.4277  0.2638  0.1214
 6630TIP3    H141525   2.634   5.757   2.366 -0.8292  0.3187  2.7508
 6630TIP3    H241526   2.773   5.706   2.335 -1.5295  0.7378 -1.7181
 6631TIP3   OH241527   3.463   2.492   3.210  0.1015  0.1858 -0.1061
 6631TIP3    H141528   3.434   2.518   3.298  0.4072  1.4151 -0.3534
 6631TIP3    H241529   3.398   2.428   3.182 -1.6307  1.8485 -0.0985
 6632TIP3   OH241530   0.917   5.980   2.503  0.0873 -0.5431 -0.4229
 6632TIP3    H141531   0.891   5.888   2.500  2.1734 -1.1992  0.1255
 6632TIP3    H241532   0.914   6.003   2.596  1.5097 -0.6966 -0.3112
 6633TIP3   OH241533   2.135   0.114   3.596  0.8423  0.2349  0.4951
 6633TIP3    H141534   2.101   0.199   3.570  1.9538  0.4028 -0.5094
 6633TIP3    H241535   2.230   0.127   3.602  0.8959 -0.5777  1.7611
 6634TIP3   OH241536   1.464   4.727   1.453  0.7869  0.3420 -0.1866
 6634TIP3    H141537   1.524   4.687   1.516 -1.7484 -0.8392  1.6600
 6634TIP3    H241538   1.467   4.668   1.377  0.5302 -0.8339  0.6766
 6635TIP3   OH241539   3.512   5.705   1.485 -0.1439  0.0787 -0.1354
 6635TIP3    H141540   3.573   5.761   1.436  0.5037 -0.1877  0.3526
 6635TIP3    H241541   3.460   5.662   1.417 -0.9666  1.5844 -0.5114
 6636TIP3   OH241542   1.552   3.644   0.658 -0.2099 -0.2560  0.3700
 6636TIP3    H141543   1.606   3.687   0.724  2.5265 -1.8563 -0.6541
 6636TIP3    H241544   1.592   3.667   0.575 -2.1724 -0.1746 -0.6200
 6637TIP3   OH241545   3.351   3.542   1.408  0.0030 -0.0441 -0.1045
 6637TIP3    H141546   3.414   3.598   1.454  1.9439 -0.7739 -1.7348
 6637TIP3    H241547   3.359   3.567   1.316  0.2171 -2.2493 -0.7487
 6638TIP3   OH241548   0.528   3.814   1.487 -0.4460 -0.1457  0.7023
 6638TIP3    H141549   0.576   3.894   1.507 -1.8194  0.6699  0.9061
 6638TIP3    H241550   0.438   3.843   1.473 -0.7272 -1.4857 -0.6012
 6639TIP3   OH241551   3.434   2.452   8.399  0.5456 -0.0615 -0.2327
 6639TIP3    H141552   3.439   2.429   8.306 -0.8747  1.9572 -0.8825
 6639TIP3    H241553   3.384   2.533   8.401  1.2091  0.3829  2.2526
 6640TIP3   OH241554   6.014   5.944   2.806 -0.3179  0.0720 -0.3339
 6640TIP3    H141555   5.980   5.969   2.891 -1.5657  0.1588 -0.8374
 6640TIP3    H241556   6.086   6.005   2.789  0.1612 -0.1588  0.7776
 6641TIP3   OH241557   0.922   1.616   1.685  0.2000  0.1691  0.5107
 6641TIP3    H141558   0.849   1.560   1.713 -1.7739  2.5773  0.5268
 6641TIP3    H241559   0.919   1.613   1.590 -0.8395  1.2729  0.4799
 6642TIP3   OH241560   0.990   5.962   0.357  0.3747 -0.0901  0.2938
 6642TIP3    H141561   0.949   5.943   0.441 -1.0853 -2.2762 -0.8197
 6642TIP3    H241562   0.951   6.045   0.329  0.2148  0.2054  1.3770
 6643TIP3   OH241563   3.704   6.522   2.226  0.4800  0.1179 -0.5256
 6643TIP3    H141564   3.663   6.537   2.311 -1.4806 -3.9575 -0.5219
 6643TIP3    H241565   3.794   6.497   2.246  1.3291  3.0243 -0.1099
 6644TIP3   OH241566   0.769   5.660   1.243  0.3897 -0.1488  0.5369
 6644TIP3    H141567   0.764   5.567   1.221  1.1926 -0.4787  1.6434
 6644TIP3    H241568   0.687   5.678   1.290 -0.4112  0.0696 -0.9046
 6645TIP3   OH241569   1.933   2.830   2.991 -0.5467  0.0420 -0.1845
 6645TIP3    H141570   1.947   2.775   2.915  2.2356 -1.3504  1.2087
 6645TIP3    H241571   2.020   2.860   3.016 -1.5235  1.6155  1.6519
 6646TIP3   OH241572   1.650   3.574   0.144  0.1512  0.1927 -0.3299
 6646TIP3    H141573   1.733   3.618   0.125  1.3789 -1.1667  1.5452
 6646TIP3    H241574   1.671   3.481   0.141 -0.7471 -0.1782  2.2296
 6647TIP3   OH241575   5.424   6.217   1.134 -0.5189  0.2045 -0.1831
 6647TIP3    H141576   5.437   6.273   1.057  0.1416  0.3738  0.0465
 6647TIP3    H241577   5.493   6.243   1.195 -0.8248 -0.1692  0.3293
 6648TIP3   OH241578   5.431   1.566   0.454 -0.4980 -0.1153 -0.3439
 6648TIP3    H141579   5.440   1.553   0.549 -1.0235  0.4871 -0.2010
 6648TIP3    H241580   5.345   1.607   0.444 -0.8714 -1.0544 -1.1672
 6649TIP3   OH241581   3.239   4.132   0.843 -0.3826  0.4938  0.4578
 6649TIP3    H141582   3.230   4.078   0.921 -3.4822 -0.7091 -0.5578
 6649TIP3    H241583   3.218   4.220   0.872 -3.1239 -0.1935  0.8011
 6650TIP3   OH241584   3.743   6.570   1.144 -0.4503  0.1309 -0.5316
 6650TIP3    H141585   3.787   6.641   1.189  1.0682  0.2849 -2.1247
 6650TIP3    H241586   3.811   6.531   1.088 -1.0413 -2.9588  0.6924
 6651TIP3   OH241587   2.298   5.151   0.647  0.6250  0.2186  0.5745
 6651TIP3    H141588   2.280   5.207   0.572 -1.9650 -1.1004  0.0753
 6651TIP3    H241589   2.352   5.080   0.612 -1.0994 -0.7403 -0.3050
 6652TIP3   OH241590   1.569   5.632   7.609 -0.3692 -0.1595  0.0470
 6652TIP3    H141591   1.656   5.603   7.637 -1.0016 -2.2394  0.0204
 6652TIP3    H241592   1.581   5.724   7.587  1.9419 -0.4907 -0.3873
 6653TIP3   OH241593   1.661   3.818   0.849 -0.3215  0.3973  0.1744
 6653TIP3    H141594   1.574   3.858   0.856 -0.2595  0.7172 -0.7179
 6653TIP3    H241595   1.711   3.878   0.794 -0.0079 -0.5559 -0.6222
 6654TIP3   OH241596   3.377   5.091   3.606  0.4360  0.5058  0.2629
 6654TIP3    H141597   3.282   5.086   3.609  0.4460  0.0321 -0.0453
 6654TIP3    H241598   3.395   5.160   3.541  0.2952 -0.6922 -1.1047
 6655TIP3   OH241599   6.800   2.184   0.546 -0.4916 -0.0967 -0.7127
 6655TIP3    H141600   6.859   2.180   0.471  0.9454  0.7726  0.3170
 6655TIP3    H241601   6.846   2.240   0.609 -2.1895  0.1563  0.3473
 6656TIP3   OH241602   6.767   0.873   8.298 -0.2268 -0.1535  0.6124
 6656TIP3    H141603   6.850   0.915   8.322 -0.4956 -0.0290  1.3443
 6656TIP3    H241604   6.700   0.940   8.312 -0.2743  0.4859 -2.0758
 6657TIP3   OH241605   3.362   5.670   2.089  0.2151 -0.5142 -0.2485
 6657TIP3    H141606   3.391   5.660   1.999  0.3736  0.0921 -0.2714
 6657TIP3    H241607   3.270   5.695   2.082  0.0798 -1.0046 -0.2237
 6658TIP3   OH241608   2.194   3.130   1.363  0.0203  0.0905 -0.1321
 6658TIP3    H141609   2.254   3.061   1.389  0.7090  0.6253 -0.2768
 6658TIP3    H241610   2.155   3.160   1.445 -0.3156 -0.4961 -0.0738
 6659TIP3   OH241611   4.405   1.389   2.357  0.0130 -0.3645 -0.3836
 6659TIP3    H141612   4.499   1.388   2.338 -0.0384 -0.1711 -0.6579
 6659TIP3    H241613   4.380   1.481   2.347 -0.0568 -0.2963  0.4217
 6660TIP3   OH241614   1.215   5.622   2.618  0.2188 -0.0526  0.1675
 6660TIP3    H141615   1.124   5.644   2.599  0.0793  0.2764  1.1876
 6660TIP3    H241616   1.258   5.626   2.533 -0.6044  0.3202 -0.2464
 6661TIP3   OH241617   6.649   4.856   0.305  1.0513 -0.5775 -0.4800
 6661TIP3    H141618   6.676   4.917   0.237  4.1508 -1.0043  0.1965
 6661TIP3    H241619   6.697   4.775   0.285  0.9810 -1.1410  1.4041
 6662TIP3   OH241620   3.383   5.311   1.942  0.1007  0.5891 -0.6360
 6662TIP3    H141621   3.393   5.222   1.908 -1.3288  0.8369 -1.7877
 6662TIP3    H241622   3.418   5.367   1.873 -0.9946  1.0116 -0.8559
 6663TIP3   OH241623   1.165   3.161   2.346 -0.2514  0.4292  0.5495
 6663TIP3    H141624   1.167   3.077   2.301 -0.5247 -0.1105  1.4969
 6663TIP3    H241625   1.076   3.194   2.332 -0.1277  0.5840  0.1332
 6664TIP3   OH241626   3.736   4.785   4.112 -0.1512 -0.0646 -0.3179
 6664TIP3    H141627   3.734   4.709   4.170  2.5246  2.0523  2.9434
 6664TIP3    H241628   3.818   4.776   4.064  0.1650  0.7085  0.0651
 6665TIP3   OH241629   0.505   1.209   0.458  0.2008  0.1525  0.0239
 6665TIP3    H141630   0.485   1.281   0.399  0.3878  0.6539  0.5625
 6665TIP3    H241631   0.469   1.236   0.543 -1.5589 -1.2819 -0.2013
 6666TIP3   OH241632   6.524   4.847   2.706  0.0288 -0.2045  0.1347
 6666TIP3    H141633   6.479   4.796   2.639  0.9930 -0.4715 -0.3253
 6666TIP3    H241634   6.457   4.907   2.740 -0.1916  0.8396 -1.9589
 6667TIP3   OH241635   1.783   5.682   1.485 -0.0577 -0.1544 -0.5084
 6667TIP3    H141636   1.733   5.755   1.449  0.6104  0.7495  0.3438
 6667TIP3    H241637   1.799   5.706   1.577  1.5714 -0.5889 -0.6426
 6668TIP3   OH241638   3.063   6.012   1.240 -0.1218 -0.4537 -0.2209
 6668TIP3    H141639   3.097   6.102   1.241 -1.5589  0.1221 -0.6694
 6668TIP3    H241640   2.997   6.012   1.171 -1.3901 -1.3702  0.9345
 6669TIP3   OH241641   4.771   4.583   2.713  0.0864  0.2599 -0.0862
 6669TIP3    H141642   4.753   4.490   2.725 -0.5698  0.4452  0.4394
 6669TIP3    H241643   4.684   4.624   2.715  0.2967  0.7941 -1.1398
 6670TIP3   OH241644   0.128   2.767   0.927 -0.0393  0.2575  0.1760
 6670TIP3    H141645   0.135   2.737   1.017 -1.9985  2.1900  1.0770
 6670TIP3    H241646   0.184   2.845   0.924 -0.8375  0.8396  0.0787
 6671TIP3   OH241647   0.804   5.066   8.617 -0.0574  0.0032 -0.2696
 6671TIP3    H141648   0.885   5.094   8.659  0.6634 -1.2664 -0.7572
 6671TIP3    H241649   0.762   5.147   8.589  1.7098  0.6423 -1.2263
 6672TIP3   OH241650   5.401   0.718   1.620 -0.6931  0.0212 -0.4910
 6672TIP3    H141651   5.395   0.712   1.524  0.0663  0.4082 -0.5718
 6672TIP3    H241652   5.453   0.641   1.644  0.4591  0.7417 -0.5594
 6673TIP3   OH241653   3.924   3.936   0.624 -0.2341 -0.0682 -0.0055
 6673TIP3    H141654   3.856   3.974   0.680  0.3063  0.7223  0.1267
 6673TIP3    H241655   3.897   3.958   0.535 -0.3578 -0.1007  0.0237
 6674TIP3   OH241656   6.328   3.359   2.627  0.4941 -0.4285 -0.0486
 6674TIP3    H141657   6.351   3.338   2.536 -0.4523 -1.1198 -0.1458
 6674TIP3    H241658   6.408   3.342   2.677  0.9469 -0.2881 -0.7208
 6675TIP3   OH241659   4.273   1.854   0.307  0.1874 -0.0714  0.1753
 6675TIP3    H141660   4.342   1.807   0.262  0.5045 -0.2677  0.8570
 6675TIP3    H241661   4.252   1.927   0.249  0.9764  0.0006 -0.0308
 6676TIP3   OH241662   6.506   0.043   1.812  0.3370 -0.0477  0.1904
 6676TIP3    H141663   6.454   0.002   1.743  1.7501 -0.7332 -0.4974
 6676TIP3    H241664   6.453   0.031   1.892 -1.2276  0.5978 -0.6954
 6677TIP3   OH241665   2.664   4.868   0.612 -0.3175  0.2514  0.3568
 6677TIP3    H141666   2.635   4.788   0.569 -0.2384  0.8070 -0.7904
 6677TIP3    H241667   2.721   4.839   0.682 -0.1314 -0.6863 -0.1681
 6678TIP3   OH241668   4.716   2.681   1.710  0.3515 -0.0058 -0.2179
 6678TIP3    H141669   4.671   2.752   1.663 -1.4748 -0.5014  0.7112
 6678TIP3    H241670   4.734   2.615   1.642  0.7854  0.7108 -0.8189
 6679TIP3   OH241671   5.656   3.005   3.319  0.1601  0.0797  0.0174
 6679TIP3    H141672   5.620   3.091   3.299 -1.4700 -0.4555  0.5073
 6679TIP3    H241673   5.689   2.973   3.234 -2.8657 -0.4280 -1.0903
 6680TIP3   OH241674   1.744   0.023   4.105  0.0127  0.0935 -0.0155
 6680TIP3    H141675   1.693   0.104   4.107 -0.9405 -0.4555 -1.1819
 6680TIP3    H241676   1.808   0.036   4.035 -1.5159 -0.9246 -1.6643
 6681TIP3   OH241677   6.776   3.924   8.096  0.3573  0.1704 -0.5055
 6681TIP3    H141678   6.730   3.916   8.013 -0.2278 -0.0865 -0.1582
 6681TIP3    H241679   6.865   3.893   8.077  0.4174  0.7244 -1.1902
 6682TIP3   OH241680   3.643   2.187   3.391  0.2035 -0.0067 -0.1983
 6682TIP3    H141681   3.648   2.096   3.420 -3.2521  0.2054  1.4922
 6682TIP3    H241682   3.642   2.181   3.295  0.9825 -1.6204 -0.1516
 6683TIP3   OH241683   1.869   4.692   0.096 -0.1434 -0.0662  0.0522
 6683TIP3    H141684   1.913   4.757   0.041  0.6674 -0.6868 -0.0687
 6683TIP3    H241685   1.875   4.611   0.045  1.6033 -0.9166  1.4750
 6684TIP3   OH241686   0.882   4.724   0.922 -0.0729  0.9708 -0.0265
 6684TIP3    H141687   0.967   4.768   0.931 -0.7296  2.1851  0.5470
 6684TIP3    H241688   0.823   4.792   0.890 -0.7700  0.0575 -0.7253
 6685TIP3   OH241689   2.392   6.287   3.305 -0.5209 -0.1372  0.0720
 6685TIP3    H141690   2.308   6.333   3.304  0.4405  1.7471  0.8967
 6685TIP3    H241691   2.391   6.236   3.386 -0.8784 -0.1312  0.0715
 6686TIP3   OH241692   0.435   4.227   1.735  0.2053 -0.7358  0.1309
 6686TIP3    H141693   0.422   4.285   1.810  1.3479 -0.1017 -0.1392
 6686TIP3    H241694   0.422   4.284   1.659 -0.1249 -1.1841 -0.1504
 6687TIP3   OH241695   3.283   6.760   2.587 -0.3242  0.1502 -0.4938
 6687TIP3    H141696   3.204   6.752   2.641  0.9547  1.7842  1.7768
 6687TIP3    H241697   3.272   6.843   2.541  1.0149  1.6093  1.6581
 6688TIP3   OH241698   2.282   4.043   3.595  0.4830 -0.6865  0.1157
 6688TIP3    H141699   2.284   4.101   3.519 -0.1809  1.2874  1.5256
 6688TIP3    H241700   2.326   4.092   3.664 -0.9062 -1.4464  1.6095
 6689TIP3   OH241701   1.585   3.340   1.604 -0.0046 -0.2029 -0.1912
 6689TIP3    H141702   1.671   3.367   1.637 -0.3994 -0.1467  0.8116
 6689TIP3    H241703   1.587   3.245   1.608 -0.3508 -0.1740  0.7844
 6690TIP3   OH241704   2.871   4.893   2.534  0.0062 -0.6264 -0.5229
 6690TIP3    H141705   2.815   4.877   2.610 -0.4340 -2.2337 -1.1447
 6690TIP3    H241706   2.816   4.870   2.459  1.0938 -1.0541 -1.2138
 6691TIP3   OH241707   0.031   0.626   8.426  0.5090 -0.6041 -0.1118
 6691TIP3    H141708  -0.022   0.636   8.506 -0.7269 -0.7648 -0.8911
 6691TIP3    H241709   0.009   0.703   8.374  0.8031 -0.8400 -0.5821
 6692TIP3   OH241710   0.142   3.832   0.196 -0.3083 -0.2153 -0.0213
 6692TIP3    H141711   0.120   3.911   0.146 -0.1475 -0.9168 -1.2191
 6692TIP3    H241712   0.072   3.825   0.261 -0.8065  0.4183 -0.4718
 6693TIP3   OH241713   2.493   4.007   7.883 -0.0710 -0.3736  0.3306
 6693TIP3    H141714   2.460   3.925   7.848 -0.7573 -0.6990  1.6663
 6693TIP3    H241715   2.448   4.075   7.832  1.0636 -0.7827 -1.2950
 6694TIP3   OH241716   2.214   5.556   0.009  0.5891 -0.2291  0.7887
 6694TIP3    H141717   2.187   5.578  -0.081 -0.4100  0.0152  1.1333
 6694TIP3    H241718   2.261   5.474   0.001  1.2583  0.2238 -0.0722
 6695TIP3   OH241719   6.497   0.801   1.986 -0.2509 -0.0259  0.3181
 6695TIP3    H141720   6.505   0.861   1.912  1.6863 -0.7182 -0.0952
 6695TIP3    H241721   6.403   0.794   2.001 -0.5917  1.8426 -0.6440
 6696TIP3   OH241722   3.028   4.545   2.021  0.3347  0.6109  0.5793
 6696TIP3    H141723   3.040   4.452   2.004  1.5441  1.1893 -2.1879
 6696TIP3    H241724   2.939   4.552   2.055 -0.0766 -1.4372  0.0243
 6697TIP3   OH241725   6.773   2.051   3.812 -0.0968  0.2714  0.1405
 6697TIP3    H141726   6.746   1.962   3.787 -1.7648  1.2369 -1.8155
 6697TIP3    H241727   6.699   2.086   3.860  0.0972  0.9664 -0.0573
 6698TIP3   OH241728   4.644   0.762   3.172 -0.5149  0.1304 -0.6371
 6698TIP3    H141729   4.594   0.708   3.112  1.0028 -2.3906  0.1966
 6698TIP3    H241730   4.640   0.715   3.256  1.7775  0.6779 -0.1343
 6699TIP3   OH241731   0.638   4.376   8.401 -0.5326  0.4041 -0.4484
 6699TIP3    H141732   0.685   4.437   8.344  3.2461 -1.7732  0.0250
 6699TIP3    H241733   0.614   4.303   8.344  0.7216 -0.4824  0.1028
 6700TIP3   OH241734   4.821   5.525   8.610  0.3867 -0.8748  0.6917
 6700TIP3    H141735   4.853   5.505   8.522  0.2388 -0.0847  0.4479
 6700TIP3    H241736   4.777   5.445   8.638  1.0943 -1.3970  0.3534
 6701TIP3   OH241737   5.246   5.979   2.051 -0.8757  0.6576  0.5286
 6701TIP3    H141738   5.252   6.072   2.071 -1.7255  0.5951  1.0943
 6701TIP3    H241739   5.153   5.961   2.043 -0.7236 -0.1511  0.4264
 6702TIP3   OH241740   4.315   2.645   1.479  0.3539 -0.0895 -0.1108
 6702TIP3    H141741   4.329   2.739   1.490 -1.2116  0.0733  0.7566
 6702TIP3    H241742   4.221   2.636   1.464  0.4140 -1.5491  0.2214
 6703TIP3   OH241743   2.293   4.179   2.700 -0.0537  0.1847  0.4062
 6703TIP3    H141744   2.340   4.257   2.730  1.4044  0.3955 -2.1923
 6703TIP3    H241745   2.243   4.208   2.624  2.0828 -1.7337 -1.8676
 6704TIP3   OH241746   6.637   6.479   2.643 -0.2896 -0.2048 -0.3651
 6704TIP3    H141747   6.580   6.549   2.610 -1.3841 -0.1343  1.5028
 6704TIP3    H241748   6.677   6.516   2.722  1.6422 -0.6026 -1.1015
 6705TIP3   OH241749   0.418   1.826   0.795  0.0364 -0.1282  0.2254
 6705TIP3    H141750   0.501   1.837   0.841 -0.4002  2.1721  0.5987
 6705TIP3    H241751   0.351   1.856   0.857 -0.8798 -0.1060 -0.7387
 6706TIP3   OH241752   4.526   4.165   0.530  0.1760  0.4482  0.1748
 6706TIP3    H141753   4.528   4.087   0.585  1.6483  1.0569  1.0406
 6706TIP3    H241754   4.584   4.143   0.456 -0.5781  0.1971 -0.3526
 6707TIP3   OH241755   2.804   5.907   0.389 -0.9413 -0.0885 -0.0680
 6707TIP3    H141756   2.755   5.826   0.374  1.4834 -1.4379 -1.2143
 6707TIP3    H241757   2.796   5.956   0.307  0.4250 -0.8208 -0.6775
 6708TIP3   OH241758   3.346   4.786   2.011  0.3090  0.4460 -0.2935
 6708TIP3    H141759   3.346   4.882   2.021  0.5848  0.5560 -1.2643
 6708TIP3    H241760   3.426   4.768   1.962 -0.2908 -0.1823 -1.0485
 6709TIP3   OH241761   1.718   3.973   2.759 -0.4230  0.3294  0.5760
 6709TIP3    H141762   1.688   3.966   2.850  0.4257  1.3423  0.9624
 6709TIP3    H241763   1.781   4.045   2.760 -1.2178  1.1105 -1.0380
 6710TIP3   OH241764   4.193   6.423   3.169 -0.3770 -0.1286  0.2059
 6710TIP3    H141765   4.225   6.333   3.168 -0.6266 -0.2204 -1.6334
 6710TIP3    H241766   4.121   6.422   3.232 -0.2792 -1.1653  0.3089
 6711TIP3   OH241767   0.252   4.759   8.579  0.7007  0.8328  0.3900
 6711TIP3    H141768   0.273   4.773   8.672 -0.3679  3.4689  0.3034
 6711TIP3    H241769   0.284   4.837   8.535  2.7545 -1.0990 -1.8419
 6712TIP3   OH241770   3.092   2.199   0.430  0.2095  0.2234 -0.1046
 6712TIP3    H141771   3.184   2.185   0.408 -0.3267 -0.9231 -1.8612
 6712TIP3    H241772   3.072   2.131   0.494  0.3453 -0.1918 -0.4969
 6713TIP3   OH241773   0.721   4.379   3.102  0.2290 -0.6207  0.5833
 6713TIP3    H141774   0.790   4.416   3.157  0.6591 -1.4910  0.6398
 6713TIP3    H241775   0.663   4.453   3.085  0.2777 -0.2442  1.9051
 6714TIP3   OH241776   0.679   2.439   8.194 -0.2241  0.1318 -0.0953
 6714TIP3    H141777   0.719   2.353   8.177 -2.9575 -1.6062  1.4169
 6714TIP3    H241778   0.639   2.464   8.111 -0.6255 -0.7924 -0.1947
 6715TIP3   OH241779   3.051   1.207   8.710  0.1883  0.1587  0.5864
 6715TIP3    H141780   3.083   1.123   8.677  1.0308 -0.7005  3.3726
 6715TIP3    H241781   2.989   1.185   8.779  0.4824  1.7998  1.4395
 6716TIP3   OH241782   5.950   4.820   8.676 -0.5524  0.0749 -0.5822
 6716TIP3    H141783   6.030   4.860   8.709 -0.1692 -0.9324 -0.2574
 6716TIP3    H241784   5.919   4.881   8.609  0.2546  0.6849 -0.4170
 6717TIP3   OH241785   4.939   3.787   0.889  0.0438 -0.3510  0.1332
 6717TIP3    H141786   4.968   3.758   0.803  0.7470 -0.0751  0.2704
 6717TIP3    H241787   4.910   3.706   0.933 -1.1681 -0.3726 -0.6645
 6718TIP3   OH241788   6.158   0.174   1.154  0.0003  0.1128 -0.4029
 6718TIP3    H141789   6.097   0.241   1.186 -0.3088 -0.8795  1.2303
 6718TIP3    H241790   6.170   0.116   1.229 -0.2013 -1.9956 -1.9279
 6719TIP3   OH241791   2.564   1.279   1.148  0.4744 -0.2748 -0.2007
 6719TIP3    H141792   2.545   1.361   1.195  0.7411  0.8577 -2.0012
 6719TIP3    H241793   2.648   1.294   1.106  0.7050 -1.6310 -0.2697
 6720TIP3   OH241794   3.579   2.215   1.447 -0.2906  0.4293  0.3427
 6720TIP3    H141795   3.650   2.217   1.382 -0.9599  0.5623 -0.3916
 6720TIP3    H241796   3.599   2.138   1.501  0.6736  0.7395  0.4475
 6721TIP3   OH241797   0.267   6.836   1.645  0.2639 -0.2184 -0.1298
 6721TIP3    H141798   0.252   6.815   1.737 -1.2544  0.1034 -0.2721
 6721TIP3    H241799   0.193   6.795   1.599 -0.7733  2.2259 -0.8247
 6722TIP3   OH241800   6.453   6.643   0.284 -0.5513 -0.2110  0.0434
 6722TIP3    H141801   6.466   6.738   0.281  0.8847 -0.3416  0.8973
 6722TIP3    H241802   6.521   6.608   0.227  0.3249 -0.7831  1.3703
 6723TIP3   OH241803   3.646   6.221   0.362  1.0206 -0.1505  0.2800
 6723TIP3    H141804   3.578   6.236   0.427 -0.3550 -1.7309 -0.7295
 6723TIP3    H241805   3.638   6.128   0.339  2.4334  0.0117 -1.0814
 6724TIP3   OH241806   2.353   2.781   2.711  0.2181  0.0129  0.3161
 6724TIP3    H141807   2.404   2.728   2.649  0.8097 -0.2260  0.9920
 6724TIP3    H241808   2.406   2.859   2.725 -0.3760  0.5258 -0.2198
 6725TIP3   OH241809   6.583   3.638   8.788  0.2511  0.1489  0.6320
 6725TIP3    H141810   6.666   3.653   8.741  0.9591 -2.3257  0.9816
 6725TIP3    H241811   6.524   3.603   8.721  0.5947 -1.3630  1.1000
 6726TIP3   OH241812   2.691   6.435   2.383 -0.2956  0.1478  0.7139
 6726TIP3    H141813   2.727   6.483   2.308  1.0124 -0.2459  1.0462
 6726TIP3    H241814   2.603   6.410   2.356 -0.7178  2.0143  0.2193
 6727TIP3   OH241815   0.294   0.834   1.815  0.0390  0.9551  0.2803
 6727TIP3    H141816   0.296   0.756   1.759 -0.8703  1.5355 -0.5826
 6727TIP3    H241817   0.248   0.806   1.894 -1.4843  0.9560 -0.5820
 6728TIP3   OH241818   4.035   2.878   8.469 -0.0030 -0.5231  0.1682
 6728TIP3    H141819   4.129   2.858   8.466  0.1593  0.0511  1.0481
 6728TIP3    H241820   4.010   2.860   8.560  0.2575  3.4912  1.2192
 6729TIP3   OH241821   1.984   3.093   3.128 -0.4526 -0.7507  0.5195
 6729TIP3    H141822   2.079   3.078   3.124 -0.4716 -0.6260 -1.0111
 6729TIP3    H241823   1.964   3.142   3.048 -1.2829  2.4679  2.5159
 6730TIP3   OH241824   1.423   3.287   1.118  0.6822  1.0445 -0.5999
 6730TIP3    H141825   1.399   3.199   1.148 -0.0973  1.4264 -0.1016
 6730TIP3    H241826   1.502   3.272   1.065 -0.4202 -0.1970 -1.9848
 6731TIP3   OH241827   3.830   3.559   2.552 -0.1718  0.2159  0.0724
 6731TIP3    H141828   3.852   3.651   2.535 -1.1790  0.7004  1.2853
 6731TIP3    H241829   3.834   3.518   2.466  2.2497  0.9364 -0.2377
 6732TIP3   OH241830   0.535   5.283   0.537  0.0834  0.1088 -0.1465
 6732TIP3    H141831   0.522   5.278   0.632  0.8774  0.0575 -0.0317
 6732TIP3    H241832   0.619   5.238   0.522  0.4680  0.9929 -0.7435
 6733TIP3   OH241833   2.340   4.268   8.780 -0.1964  0.6864 -0.1050
 6733TIP3    H141834   2.286   4.254   8.702  0.4499 -1.5474 -0.2326
 6733TIP3    H241835   2.388   4.349   8.762  0.0355  0.1582 -2.1226
 6734TIP3   OH241836   0.197   5.491   3.264  0.0321 -0.2677 -0.1282
 6734TIP3    H141837   0.166   5.431   3.332  1.2121 -1.4892 -0.6336
 6734TIP3    H241838   0.292   5.494   3.276  0.0319  1.2266 -0.3616
 6735TIP3   OH241839   5.425   4.025   2.740 -0.0900  0.4401  0.1504
 6735TIP3    H141840   5.346   4.042   2.792 -0.7124 -0.6378 -0.4123
 6735TIP3    H241841   5.395   3.970   2.668  0.8774  1.4117 -1.0320
 6736TIP3   OH241842   0.530   3.215   0.213 -0.2477  0.0730  0.7019
 6736TIP3    H141843   0.573   3.294   0.246  0.8306 -0.6711  1.1444
 6736TIP3    H241844   0.438   3.228   0.232  0.0435  0.7773  1.7128
 6737TIP3   OH241845   5.705   2.349   0.482  0.2426 -0.0329 -0.6186
 6737TIP3    H141846   5.611   2.328   0.482 -0.4822  2.8375 -0.5615
 6737TIP3    H241847   5.721   2.389   0.397  1.2991  0.0689 -0.3838
 6738TIP3   OH241848   0.737   3.213   2.506  0.0925 -0.2903  0.0405
 6738TIP3    H141849   0.692   3.139   2.464  0.6017 -0.3215 -0.4616
 6738TIP3    H241850   0.667   3.276   2.524 -0.3275 -0.8251  0.3340
 6739TIP3   OH241851   2.685   1.939   8.386  0.3214 -0.2227 -0.1623
 6739TIP3    H141852   2.740   1.865   8.361 -0.2830 -1.1160  1.0561
 6739TIP3    H241853   2.638   1.961   8.306  1.3005 -0.4365 -0.8236
 6740TIP3   OH241854   1.447   5.066   1.104  0.1126  0.2626 -0.0723
 6740TIP3    H141855   1.420   5.057   1.196 -0.3862 -0.4536 -0.2752
 6740TIP3    H241856   1.502   5.144   1.103  1.7308 -0.7759  1.1957
 6741TIP3   OH241857   0.716   2.294   2.775 -0.0773 -0.0105 -0.3867
 6741TIP3    H141858   0.788   2.352   2.800 -0.7795 -0.1267  2.2327
 6741TIP3    H241859   0.645   2.354   2.752 -0.3618  0.1973  0.9481
 6742TIP3   OH241860   1.697   5.034   3.255 -0.2084  0.0070 -0.2130
 6742TIP3    H141861   1.693   4.942   3.228 -1.2218  0.3541 -1.3222
 6742TIP3    H241862   1.650   5.081   3.187  0.4544  1.3879  0.2459
 6743TIP3   OH241863   5.205   6.053   8.256 -0.5672  0.8055  0.6710
 6743TIP3    H141864   5.200   6.145   8.282  1.1750  1.1136  0.0638
 6743TIP3    H241865   5.290   6.024   8.290 -0.5891 -0.2546 -0.1435
 6744TIP3   OH241866   5.943   2.338   2.510  0.5098  0.1412  0.2104
 6744TIP3    H141867   5.959   2.341   2.604  2.3095 -1.1147 -0.0093
 6744TIP3    H241868   6.004   2.273   2.477  0.5091  1.1402 -1.9519
 6745TIP3   OH241869   0.188   0.074   2.421  0.1270  0.1199  0.0070
 6745TIP3    H141870   0.112   0.086   2.365  1.3183  1.0472 -1.5114
 6745TIP3    H241871   0.204  -0.021   2.420 -0.7288 -0.0330 -0.0123
 6746TIP3   OH241872   1.435   1.362   2.708  0.5773 -0.0548 -0.3835
 6746TIP3    H141873   1.405   1.445   2.746  0.1134 -0.1841 -0.4624
 6746TIP3    H241874   1.382   1.351   2.629  0.1177 -0.7879  0.0185
 6747TIP3   OH241875   5.872   1.956   2.592  0.3890  0.2318  0.0525
 6747TIP3    H141876   5.868   1.869   2.552 -1.5447  1.6598 -3.2888
 6747TIP3    H241877   5.785   1.969   2.630  0.0520  1.2891 -1.0187
 6748TIP3   OH241878   4.805   2.675   8.208  0.1406  0.2415 -0.2108
 6748TIP3    H141879   4.899   2.667   8.218  0.1608 -1.1004 -1.1922
 6748TIP3    H241880   4.792   2.709   8.120 -0.3155 -0.6787 -0.5080
 6749TIP3   OH241881   3.874   4.085   2.379  0.1574 -0.2320  0.6294
 6749TIP3    H141882   3.785   4.109   2.402 -0.2532  0.2026 -1.2632
 6749TIP3    H241883   3.889   4.123   2.292  1.4467 -2.0228 -0.0235
 6750TIP3   OH241884   6.145   1.408   1.784 -0.3143  0.1991  0.2923
 6750TIP3    H141885   6.216   1.365   1.831 -0.8863 -0.9196  0.1466
 6750TIP3    H241886   6.075   1.418   1.849  0.4276  2.6003  0.8483
 6751TIP3   OH241887   3.784   5.721   0.958 -0.3830 -0.0420 -0.0751
 6751TIP3    H141888   3.738   5.650   1.003  0.0463  0.2414  0.8307
 6751TIP3    H241889   3.714   5.779   0.927 -0.6762  0.0481  0.7205
 6752TIP3   OH241890   5.957   0.984   1.200 -0.4805  0.2122  0.3603
 6752TIP3    H141891   5.926   1.018   1.116 -2.8798  1.0460  1.4857
 6752TIP3    H241892   6.007   1.056   1.239 -1.1890  0.6131  0.5416
 6753TIP3   OH241893   3.390   5.549   0.795  0.1742  0.2793  0.2031
 6753TIP3    H141894   3.307   5.579   0.834  0.2415  0.3133  0.3233
 6753TIP3    H241895   3.393   5.591   0.710 -0.1406 -0.0716  0.0165
 6754TIP3   OH241896   0.911   4.158   3.291  0.5706 -0.3215  0.8946
 6754TIP3    H141897   0.818   4.161   3.315  0.1443 -1.8089 -0.4224
 6754TIP3    H241898   0.957   4.166   3.375 -0.7510 -0.2265  1.6415
 6755TIP3   OH241899   5.458   2.086   2.031 -0.4557 -0.1433  0.2141
 6755TIP3    H141900   5.541   2.109   1.989 -0.1518 -1.2412  0.1851
 6755TIP3    H241901   5.401   2.161   2.013  0.6915  0.9028  0.7353
 6756TIP3   OH241902   3.798   3.302   1.300  0.4751  0.1399  0.2420
 6756TIP3    H141903   3.813   3.207   1.296 -0.5236 -0.0366  0.4373
 6756TIP3    H241904   3.787   3.327   1.208 -1.4817 -0.3318  0.3118
 6757TIP3   OH241905   1.982   5.267   2.650  0.6421  0.0898 -0.3855
 6757TIP3    H141906   1.909   5.303   2.599  1.6357  2.5701 -0.2329
 6757TIP3    H241907   1.941   5.229   2.728 -0.5806  0.0433 -1.0283
 6758TIP3   OH241908   0.942   4.552   0.605  0.3061  0.0194  0.3633
 6758TIP3    H141909   0.926   4.499   0.683 -0.6482 -0.5630 -0.2040
 6758TIP3    H241910   1.034   4.538   0.584  1.6000  2.8454  3.2965
 6759TIP3   OH241911   3.870   5.290   0.768 -0.0324 -0.3925  0.2095
 6759TIP3    H141912   3.885   5.329   0.854  1.1751  0.9378 -0.5627
 6759TIP3    H241913   3.782   5.316   0.745  0.3684  0.9991  0.1819
 6760TIP3   OH241914   6.187   0.460   0.046  0.4107  0.2635  0.0530
 6760TIP3    H141915   6.266   0.510   0.068 -0.0511  0.9492  0.1612
 6760TIP3    H241916   6.185   0.461  -0.050  1.4394 -1.1999 -0.0300
 6761TIP3   OH241917   4.598   3.088   2.920  0.0332  0.1892  0.1376
 6761TIP3    H141918   4.560   3.039   2.847 -1.4206  1.7851 -0.2479
 6761TIP3    H241919   4.619   3.022   2.986  1.1801 -1.2726 -1.5916
 6762TIP3   OH241920   4.829   3.255   3.180  0.7051 -0.1295 -0.4015
 6762TIP3    H141921   4.772   3.188   3.219  0.3701  0.1493 -0.4118
 6762TIP3    H241922   4.912   3.247   3.228  0.6998 -0.6117 -0.4610
 6763TIP3   OH241923   1.487   5.624   3.561  0.3335  0.0712  0.0111
 6763TIP3    H141924   1.553   5.583   3.616 -0.0446 -0.3593  0.1493
 6763TIP3    H241925   1.410   5.632   3.617  0.0366 -0.1038 -0.3695
 6764TIP3   OH241926   3.209   3.267   1.165  1.0860 -0.2162 -0.1553
 6764TIP3    H141927   3.232   3.217   1.243  1.2225  1.1838  0.7534
 6764TIP3    H241928   3.293   3.302   1.133  0.8634  0.4659 -0.0180
 6765TIP3   OH241929   3.207   3.539   0.436  0.2353 -0.1785  0.6417
 6765TIP3    H141930   3.265   3.488   0.378 -1.4052 -0.6674 -0.6383
 6765TIP3    H241931   3.220   3.630   0.408 -0.7348 -0.4268 -0.7651
 6766TIP3   OH241932   0.862   3.828   8.162  0.4492 -0.2629 -0.0617
 6766TIP3    H141933   0.768   3.814   8.171  0.6302 -1.5052  0.0095
 6766TIP3    H241934   0.880   3.905   8.216 -0.1867 -1.3083  1.7043
 6767TIP3   OH241935   5.896   3.261   3.525 -0.2433  0.6089  0.1928
 6767TIP3    H141936   5.856   3.173   3.524  0.6495  0.1919  0.3037
 6767TIP3    H241937   5.833   3.315   3.572 -1.4728  0.3598 -1.0965
 6768TIP3   OH241938   3.922   3.086   1.214  0.0051  0.6856  0.9418
 6768TIP3    H141939   3.932   2.993   1.195  0.3798  1.0834 -1.0301
 6768TIP3    H241940   3.931   3.129   1.129 -3.8026  2.2809  1.1378
 6769TIP3   OH241941   2.064   5.800   2.699  0.0417 -0.1506 -0.2901
 6769TIP3    H141942   2.073   5.763   2.611 -0.1665  0.4339 -0.5673
 6769TIP3    H241943   2.154   5.811   2.729  0.1439  0.4171 -0.7721
 6770TIP3   OH241944   1.989   4.012   0.535  0.1261  0.2011 -0.0631
 6770TIP3    H141945   1.989   3.925   0.494  2.5724  0.7527 -1.3755
 6770TIP3    H241946   2.059   4.008   0.600 -0.0249  1.0807  0.1602
 6771TIP3   OH241947   4.918   0.598   8.332  0.1387 -0.2887  0.6552
 6771TIP3    H141948   4.900   0.682   8.291  4.8015  1.1558  0.9872
 6771TIP3    H241949   4.903   0.613   8.426  2.3523  0.8067  0.9045
 6772TIP3   OH241950   5.839   3.672   8.341 -0.1569  0.1821  0.3028
 6772TIP3    H141951   5.836   3.767   8.330  0.0277  0.4848  2.5111
 6772TIP3    H241952   5.786   3.655   8.418  1.9658 -1.2128  1.5536
 6773TIP3   OH241953   4.570   6.411   2.863  0.1005 -0.0376  0.3497
 6773TIP3    H141954   4.627   6.487   2.850 -1.1325  0.7179 -0.8886
 6773TIP3    H241955   4.493   6.446   2.906 -1.0615 -0.3002 -1.4335
 6774TIP3   OH241956   2.691   2.447   1.808  0.1409  0.0293  0.1551
 6774TIP3    H141957   2.722   2.383   1.744  1.0542 -0.4989  1.0872
 6774TIP3    H241958   2.754   2.518   1.803 -0.3011  0.4073 -0.1584
 6775TIP3   OH241959   2.828   2.116   0.078  0.0035  0.2161  0.2784
 6775TIP3    H141960   2.766   2.152   0.142  1.2097 -0.5140  1.9174
 6775TIP3    H241961   2.801   2.025   0.067 -0.4817  0.4522 -0.6645
 6776TIP3   OH241962   6.610   2.837   2.277  0.4708  0.5118  0.3736
 6776TIP3    H141963   6.558   2.757   2.277 -1.0687  1.4062 -1.5925
 6776TIP3    H241964   6.585   2.883   2.357 -0.4770  0.1096  0.3215
 6777TIP3   OH241965   0.659   0.520   3.629  0.7365 -0.4460  0.3543
 6777TIP3    H141966   0.679   0.614   3.624 -1.9967  0.1903 -0.2676
 6777TIP3    H241967   0.687   0.485   3.544  1.4655 -0.1449  0.4632
 6778TIP3   OH241968   4.007   2.567   8.564  0.0017 -0.7015  0.8866
 6778TIP3    H141969   4.010   2.649   8.612 -0.8091  1.4195 -2.3610
 6778TIP3    H241970   4.097   2.553   8.534 -0.2999  0.5451 -0.7594
 6779TIP3   OH241971   1.825   0.764   2.285 -0.1622  0.0926 -0.2614
 6779TIP3    H141972   1.826   0.852   2.247 -1.0961  0.4945  0.6109
 6779TIP3    H241973   1.818   0.705   2.209 -2.1644  0.8826 -0.7509
 6780TIP3   OH241974   4.969   2.951   1.493 -0.4759 -0.3479 -0.1185
 6780TIP3    H141975   4.897   3.014   1.491 -0.6710 -0.5837 -0.7214
 6780TIP3    H241976   4.925   2.866   1.497 -0.2218 -0.4626  0.2079
 6781TIP3   OH241977   0.291   1.643   0.225  0.2113  0.3451 -0.2860
 6781TIP3    H141978   0.283   1.665   0.132  0.8539 -0.0778 -0.4473
 6781TIP3    H241979   0.200   1.628   0.254  0.0752 -0.4295 -1.0700
 6782TIP3   OH241980   1.312   6.274   1.325  0.2075 -0.4716 -0.4793
 6782TIP3    H141981   1.236   6.333   1.325  1.5953  1.4315 -0.0372
 6782TIP3    H241982   1.385   6.330   1.300  1.7231 -1.8967  0.5474
 6783TIP3   OH241983   6.716   3.991   1.519  0.3736  0.5346  0.5370
 6783TIP3    H141984   6.793   4.047   1.512  1.9790 -1.5964  0.1580
 6783TIP3    H241985   6.729   3.943   1.601  0.1911 -0.8626 -0.2222
 6784TIP3   OH241986   5.548   2.077   8.721 -0.4014 -0.5434  0.0020
 6784TIP3    H141987   5.495   2.111   8.793 -0.7194 -0.9907 -0.0135
 6784TIP3    H241988   5.625   2.041   8.764 -0.3678 -0.3808  0.0782
 6785TIP3   OH241989   6.274   6.466   1.516  0.7604  0.1124  0.4724
 6785TIP3    H141990   6.185   6.449   1.484  0.7277  1.8222 -0.4665
 6785TIP3    H241991   6.329   6.457   1.438  1.0769  1.3799  0.5228
 6786TIP3   OH241992   3.369   2.456   1.446  0.0894 -0.3328 -0.2374
 6786TIP3    H141993   3.464   2.462   1.450 -0.0238  3.2844  0.0585
 6786TIP3    H241994   3.347   2.483   1.357 -0.7069  0.5301  0.2099
 6787TIP3   OH241995   6.576   3.329   0.791 -0.6539  0.1785 -0.7017
 6787TIP3    H141996   6.522   3.255   0.821 -0.4835 -0.6216 -2.2648
 6787TIP3    H241997   6.664   3.308   0.821 -0.7111  0.0647 -0.6093
 6788TIP3   OH241998   2.394   1.682   0.658 -0.0560  0.0224  0.7179
 6788TIP3    H141999   2.332   1.741   0.614  0.2769  0.3190  0.6347
 6788TIP3    H242000   2.480   1.720   0.639  0.2841 -1.3167 -0.6182
 6789TIP3   OH242001   2.041   4.006   1.804  0.2410  0.0945  0.1185
 6789TIP3    H142002   2.120   3.962   1.834 -0.3555 -2.7529 -2.0234
 6789TIP3    H242003   2.071   4.089   1.769  1.8289  0.3442  1.9310
 6790TIP3   OH242004   4.681   4.204   3.066  0.6092 -0.1050 -0.0938
 6790TIP3    H142005   4.640   4.158   3.139 -1.7677  1.2017 -0.5163
 6790TIP3    H242006   4.729   4.277   3.107 -0.3247  0.3455  0.2138
 6791TIP3   OH242007   0.175   2.762   8.639 -0.5000  0.0218 -0.5328
 6791TIP3    H142008   0.150   2.803   8.722 -2.0827 -0.6326 -0.6651
 6791TIP3    H242009   0.096   2.764   8.586  0.1309 -0.7809 -1.5372
 6792TIP3   OH242010   6.692   2.240   2.628  0.1913 -0.4139  0.0998
 6792TIP3    H142011   6.762   2.261   2.690  1.8229 -0.2621 -1.7060
 6792TIP3    H242012   6.707   2.298   2.553 -1.2725 -1.0772 -0.7557
 6793TIP3   OH242013   6.088   4.236   0.146  0.1231 -0.1958  0.0969
 6793TIP3    H142014   6.091   4.211   0.054 -0.4882  0.3191 -0.0643
 6793TIP3    H242015   6.049   4.160   0.190  1.3932 -0.8728  0.0944
 6794TIP3   OH242016   2.849   4.165   1.551  0.2289  0.3624  0.5219
 6794TIP3    H142017   2.793   4.154   1.628 -0.8560  0.5659 -0.2074
 6794TIP3    H242018   2.841   4.082   1.504  2.0765 -0.3387  1.3381
 6795TIP3   OH242019   0.322   3.519   8.275 -0.1344  0.1330  0.0322
 6795TIP3    H142020   0.288   3.510   8.364  2.4122 -0.2056  1.0442
 6795TIP3    H242021   0.267   3.586   8.235 -1.0344  0.6626  2.0281
 6796TIP3   OH242022   2.584   5.166   1.261 -0.1451  0.2030  0.3060
 6796TIP3    H142023   2.531   5.088   1.276  1.2500 -0.8774 -0.0959
 6796TIP3    H242024   2.589   5.209   1.346 -1.1766  0.0254  0.4643
 6797TIP3   OH242025   4.348   4.347   1.211 -0.0831 -0.4012  0.1611
 6797TIP3    H142026   4.309   4.334   1.125 -0.5988 -0.2462  0.3612
 6797TIP3    H242027   4.348   4.260   1.251 -1.5990 -0.1807  0.7115
 6798TIP3   OH242028   6.801   2.996   3.383 -0.0459 -0.4247  0.3972
 6798TIP3    H142029   6.785   3.088   3.362  0.0687  0.2791  3.0851
 6798TIP3    H242030   6.720   2.951   3.356  0.4128  0.1209 -2.2423
 6799TIP3   OH242031   5.481   0.359   0.611  0.5201 -0.0842 -0.0626
 6799TIP3    H142032   5.412   0.317   0.663  0.7610 -1.3456 -0.7339
 6799TIP3    H242033   5.457   0.452   0.611 -0.8113 -0.4029  0.2847
 6800TIP3   OH242034   2.761   4.424   0.636 -0.3876  0.2167  0.1171
 6800TIP3    H142035   2.812   4.504   0.647  1.4390 -1.0986  1.9845
 6800TIP3    H242036   2.714   4.415   0.719 -2.7240  0.6849 -1.0706
 6801TIP3   OH242037   1.928   3.234   1.775  0.1826  0.3364 -0.5142
 6801TIP3    H142038   1.986   3.181   1.830  1.2343  0.5937 -1.3344
 6801TIP3    H242039   1.858   3.174   1.749  0.1115 -0.0029  0.4328
 6802TIP3   OH242040   3.162   3.686   2.685 -0.2596 -0.7889  0.1862
 6802TIP3    H142041   3.229   3.621   2.662  1.8171  1.6177 -1.0460
 6802TIP3    H242042   3.103   3.686   2.610  1.1063  0.3597 -0.9392
 6803TIP3   OH242043   2.344   0.903   3.895  0.2548 -0.0938 -0.5143
 6803TIP3    H142044   2.368   0.824   3.944 -1.0882  0.8935  1.9326
 6803TIP3    H242045   2.428   0.947   3.878  0.7575 -0.1269  1.6195
 6804TIP3   OH242046   2.289   0.878   1.751  0.2436 -0.7164  0.4677
 6804TIP3    H142047   2.234   0.822   1.807 -1.1205 -0.1105 -0.2194
 6804TIP3    H242048   2.340   0.816   1.698 -1.5157 -1.3616 -0.5590
 6805TIP3   OH242049   2.715   5.829   1.757 -0.3791  0.1558  0.3868
 6805TIP3    H142050   2.705   5.764   1.687  0.1907  0.5974 -0.1236
 6805TIP3    H242051   2.641   5.889   1.745  0.6198  1.2025 -0.9375
 6806TIP3   OH242052   0.008   4.867   0.682  0.2476 -0.4942  0.4037
 6806TIP3    H142053  -0.056   4.934   0.658  1.0197 -0.6054 -2.2432
 6806TIP3    H242054   0.090   4.915   0.696  0.2275 -0.6434  1.0974
 6807TIP3   OH242055   3.114   0.675   1.976 -0.2976 -0.9240  0.1441
 6807TIP3    H142056   3.075   0.589   1.968  1.1533 -1.8658  2.1602
 6807TIP3    H242057   3.156   0.691   1.891  0.4628 -2.7737  0.1386
 6808TIP3   OH242058   6.309   6.142   1.610 -0.5166  0.6091 -0.5370
 6808TIP3    H142059   6.383   6.202   1.617  0.4089 -0.6222  0.6637
 6808TIP3    H242060   6.308   6.116   1.518  0.7529  0.3855 -0.4989
 6809TIP3   OH242061   1.546   3.386   3.115 -0.7488  0.4355  0.0974
 6809TIP3    H142062   1.451   3.379   3.122 -0.5729 -2.1252  1.2822
 6809TIP3    H242063   1.574   3.412   3.202 -0.3231 -0.0582  0.1142
 6810TIP3   OH242064   2.279   1.408   0.604  0.5031 -0.3537  0.1547
 6810TIP3    H142065   2.303   1.373   0.689  0.6848  0.8458  0.6132
 6810TIP3    H242066   2.263   1.501   0.619 -1.2775 -0.4520 -0.7579
 6811TIP3   OH242067   3.625   1.350   2.288  0.1786 -0.3524  0.1958
 6811TIP3    H142068   3.593   1.305   2.366  0.9937 -1.0177  0.1676
 6811TIP3    H242069   3.587   1.301   2.215  1.2555 -1.1681  0.1621
 6812TIP3   OH242070   4.764   1.836   3.024  0.0394 -0.0695  0.2768
 6812TIP3    H142071   4.802   1.793   2.948  0.4186  0.3191  0.2405
 6812TIP3    H242072   4.725   1.765   3.075 -0.1832 -0.3333 -0.2568
 6813TIP3   OH242073   1.234   2.370   0.478 -0.4779 -0.1703  0.1845
 6813TIP3    H142074   1.181   2.444   0.449 -1.4490 -1.2841 -0.9910
 6813TIP3    H242075   1.195   2.344   0.561 -1.0439 -0.2613 -0.1081
 6814TIP3   OH242076   1.043   5.519   4.202 -0.1221 -0.3286 -0.3507
 6814TIP3    H142077   0.968   5.497   4.256  0.3040  0.3589  0.5549
 6814TIP3    H242078   1.017   5.598   4.154  0.6527  1.0874  1.4313
 6815TIP3   OH242079   2.088   4.785   0.275  0.5435  0.6436 -0.2081
 6815TIP3    H142080   2.150   4.712   0.270 -0.0294  0.1281  0.0606
 6815TIP3    H242081   2.015   4.758   0.219  0.9373  1.6438 -1.2586
 6816TIP3   OH242082   1.618   3.015   0.088  0.1494 -0.4758 -0.1100
 6816TIP3    H142083   1.635   2.977   0.002  0.7075  1.0403 -0.7152
 6816TIP3    H242084   1.538   2.973   0.118  0.4566 -1.7083 -0.9571
 6817TIP3   OH242085   1.502   2.499   0.813 -0.9374  0.6616 -0.4801
 6817TIP3    H142086   1.596   2.491   0.825 -1.0155  1.3578  0.7664
 6817TIP3    H242087   1.464   2.446   0.884 -1.5161 -0.5870 -1.6678
 6818TIP3   OH242088   3.489   2.820   2.150  0.3240 -0.6277 -0.2248
 6818TIP3    H142089   3.418   2.783   2.098  0.5790  0.6636 -1.5424
 6818TIP3    H242090   3.445   2.860   2.225 -0.1190 -1.7150  0.1291
 6819TIP3   OH242091   2.154   5.601   1.991 -0.5974 -0.0055 -0.2472
 6819TIP3    H142092   2.147   5.696   1.993 -1.7005  0.0071  3.3489
 6819TIP3    H242093   2.077   5.572   1.942 -1.9674  1.0060  1.1938
 6820TIP3   OH242094   6.545   1.344   8.632 -0.2702 -0.3361  0.3224
 6820TIP3    H142095   6.615   1.330   8.568  0.4127 -0.6813  1.1274
 6820TIP3    H242096   6.467   1.306   8.591 -0.2947  1.1465 -1.1160
 6821TIP3   OH242097   4.679   4.328   2.733 -0.3224 -0.0712  0.2362
 6821TIP3    H142098   4.585   4.320   2.747 -0.2398 -2.0463  0.0130
 6821TIP3    H242099   4.713   4.240   2.753  1.2270  0.0741 -1.5265
 6822TIP3   OH242100   1.851   0.316   1.941  0.1606  0.4560 -0.7664
 6822TIP3    H142101   1.782   0.264   1.900  0.6616 -1.5472  0.7435
 6822TIP3    H242102   1.932   0.280   1.905  0.5083  0.2616  0.1805
 6823TIP3   OH242103   3.993   2.252   8.593 -0.2484  0.7651  0.2614
 6823TIP3    H142104   3.959   2.225   8.508  1.8765 -0.0308 -0.4251
 6823TIP3    H242105   4.072   2.303   8.572 -1.7833  4.0302  1.6855
 6824TIP3   OH242106   3.869   0.635   1.776 -0.0273  0.0381 -0.0040
 6824TIP3    H142107   3.789   0.597   1.740 -0.6179  1.8575 -0.7068
 6824TIP3    H242108   3.904   0.566   1.834 -3.0145 -0.2099  1.7295
 6825TIP3   OH242109   0.505   3.911   7.429 -0.2755  0.3039  0.3318
 6825TIP3    H142110   0.457   3.983   7.388 -1.1272 -0.0330  0.7263
 6825TIP3    H242111   0.504   3.841   7.363 -0.5291  0.2153  0.4293
 6826TIP3   OH242112   6.732   4.725   2.894  0.5668  0.1609 -0.6568
 6826TIP3    H142113   6.777   4.644   2.917  0.2004 -0.5838 -2.4431
 6826TIP3    H242114   6.680   4.703   2.817 -2.4883  1.1142  0.9577
 6827TIP3   OH242115   5.161   1.042   0.017  0.1869 -0.2130 -0.2910
 6827TIP3    H142116   5.252   1.015   0.008  0.8256  0.2510  3.2137
 6827TIP3    H242117   5.110   0.964  -0.007  1.8048 -2.8071  3.6408
 6828TIP3   OH242118   3.951   4.852   2.277  0.4970  0.2815 -0.3885
 6828TIP3    H142119   3.879   4.788   2.273  0.5593  0.1244  0.6640
 6828TIP3    H242120   3.970   4.873   2.185 -2.2872  1.9293 -0.7010
 6829TIP3   OH242121   0.039   2.150   2.294 -0.0933 -0.7912 -0.5315
 6829TIP3    H142122   0.014   2.138   2.202  3.6000 -1.6757 -1.6067
 6829TIP3    H242123  -0.003   2.078   2.340 -3.0975  0.4166 -1.1632
 6830TIP3   OH242124   5.404   0.167   1.437 -0.4552 -0.1932 -0.1723
 6830TIP3    H142125   5.323   0.201   1.476 -0.0957  0.2722  0.1730
 6830TIP3    H242126   5.405   0.074   1.460  0.7093  0.4141  2.6386
 6831TIP3   OH242127   5.768   1.590   3.621 -0.2097 -0.0243  0.2035
 6831TIP3    H142128   5.681   1.581   3.583 -1.3275  2.2426  1.9306
 6831TIP3    H242129   5.817   1.643   3.559 -0.8171  0.5641  0.2169
 6832TIP3   OH242130   3.592   0.928   1.189 -0.1014 -0.0337 -0.2631
 6832TIP3    H142131   3.677   0.897   1.218 -1.2130 -2.4486  0.7200
 6832TIP3    H242132   3.557   0.856   1.137 -0.7257  1.7490 -2.4600
 6833TIP3   OH242133   3.396   1.136   0.945  0.1078 -0.1749 -0.1408
 6833TIP3    H142134   3.313   1.164   0.983  0.3983  0.5586 -0.0403
 6833TIP3    H242135   3.420   1.058   0.995  0.4020  0.6751  1.0935
 6834TIP3   OH242136   1.131   1.244   7.833 -0.2291 -0.2969 -0.2985
 6834TIP3    H142137   1.044   1.218   7.863 -0.0267 -1.1125 -0.3719
 6834TIP3    H242138   1.162   1.307   7.898  0.7820 -3.0661  2.1324
 6835TIP3   OH242139   0.680   1.629   2.668 -0.6257  0.4315  0.0653
 6835TIP3    H142140   0.753   1.678   2.629 -1.0766  0.7751 -0.3703
 6835TIP3    H242141   0.719   1.578   2.738  0.3616 -0.8226 -1.3338
 6836TIP3   OH242142   4.664   6.453   8.452  0.1938 -0.0554  0.0169
 6836TIP3    H142143   4.616   6.374   8.477  1.7043 -1.4639 -1.3099
 6836TIP3    H242144   4.754   6.437   8.483  0.6252  0.9194 -0.6898
 6837TIP3   OH242145   1.660   3.463   1.883 -0.5158  0.1342 -0.5229
 6837TIP3    H142146   1.722   3.504   1.822 -0.9769  1.2119 -0.2853
 6837TIP3    H242147   1.574   3.498   1.857 -0.8128 -0.0202  0.2351
 6838TIP3   OH242148   6.844   4.330   8.207  0.0734 -0.2141 -0.3885
 6838TIP3    H142149   6.925   4.340   8.158  1.1373  2.6068  1.6335
 6838TIP3    H242150   6.869   4.280   8.285 -0.0862  0.5731  0.1909
 6839TIP3   OH242151   3.455   4.712   2.480 -0.4039  0.0364  0.6046
 6839TIP3    H142152   3.549   4.700   2.493 -0.3950  1.0790  1.6647
 6839TIP3    H242153   3.425   4.628   2.445  0.6524 -0.9229  1.8716
 6840TIP3   OH242154   2.167   2.763   1.716  0.4244  0.6703 -0.3953
 6840TIP3    H142155   2.189   2.856   1.715  0.6057  0.6818  1.7310
 6840TIP3    H242156   2.188   2.733   1.628  2.8693  2.0643 -0.3600
 6841TIP3   OH242157   6.638   6.819   2.320 -0.3031 -0.0224  0.5135
 6841TIP3    H142158   6.610   6.727   2.325 -0.1546 -0.1002 -0.0174
 6841TIP3    H242159   6.674   6.828   2.232  1.5324  0.0255  1.2238
 6842TIP3   OH242160   4.879   3.965   1.797 -0.6473 -0.3264 -0.1224
 6842TIP3    H142161   4.895   4.041   1.852  3.4464  0.4494 -2.0018
 6842TIP3    H242162   4.803   3.988   1.745  0.5425  2.6498 -0.7279
 6843TIP3   OH242163   0.218   6.324   1.753 -0.4768  0.7750 -0.2561
 6843TIP3    H142164   0.124   6.323   1.769 -0.3712  0.8970  0.3830
 6843TIP3    H242165   0.226   6.316   1.658 -1.1314  0.8380 -0.3202
 6844TIP3   OH242166   6.427   2.793   1.256  0.4831  0.6542 -0.1517
 6844TIP3    H142167   6.360   2.833   1.311  0.1909 -1.1895  0.9310
 6844TIP3    H242168   6.378   2.752   1.185  0.6412  0.9759 -0.4459
 6845TIP3   OH242169   3.434   2.624   2.516  0.1401  0.0987 -0.5074
 6845TIP3    H142170   3.360   2.569   2.541  1.9345 -2.6307 -0.7899
 6845TIP3    H242171   3.479   2.643   2.598 -1.7242  3.3904 -0.0483
 6846TIP3   OH242172   6.574   3.625   8.500  0.0738  0.5389 -0.0654
 6846TIP3    H142173   6.585   3.719   8.517  2.1103  0.5291 -1.0216
 6846TIP3    H242174   6.647   3.603   8.441 -0.4751 -1.6075 -0.0090
 6847TIP3   OH242175   3.556   2.497   0.877  0.0478  0.1303 -0.4794
 6847TIP3    H142176   3.647   2.475   0.894 -0.1604  0.7238  1.6424
 6847TIP3    H242177   3.509   2.414   0.885  0.3868 -0.1934 -1.6755
 6848TIP3   OH242178   0.857   0.463   3.150 -0.5941 -0.0594  0.0510
 6848TIP3    H142179   0.861   0.541   3.095 -2.2759 -1.1153 -1.7000
 6848TIP3    H242180   0.919   0.402   3.108 -2.7869 -1.3148 -1.5546
 6849TIP3   OH242181   0.880   2.728   7.569 -0.1394 -0.6860 -0.1649
 6849TIP3    H142182   0.955   2.684   7.609  1.5671  0.4427 -1.9721
 6849TIP3    H242183   0.855   2.794   7.633  1.5405  0.0569 -0.2211
 6850TIP3   OH242184   5.864   0.544   1.162  0.4369 -0.2235 -0.4188
 6850TIP3    H142185   5.769   0.549   1.177  0.5565 -1.4844  0.8944
 6850TIP3    H242186   5.872   0.537   1.067 -0.7102  1.1195 -0.6500
 6851TIP3   OH242187   3.579   5.523   0.503  0.0334 -0.2909 -0.2209
 6851TIP3    H142188   3.520   5.586   0.543  0.4106 -0.8292  1.2314
 6851TIP3    H242189   3.525   5.478   0.438 -1.0537 -0.4931  0.7840
 6852TIP3   OH242190   2.698   1.409   0.921  0.2304  0.1160  0.1696
 6852TIP3    H142191   2.623   1.465   0.939  1.0159  1.7004 -1.2101
 6852TIP3    H242192   2.774   1.466   0.933  1.2117 -1.2714  0.9148
 6853TIP3   OH242193   3.577   4.004   2.242  0.2356 -0.6160  0.0577
 6853TIP3    H142194   3.571   4.033   2.332  2.7658 -2.2962  0.8765
 6853TIP3    H242195   3.509   3.937   2.233 -0.5059  0.0743  0.4734
 6854TIP3   OH242196   5.669   0.049   1.689 -0.6277 -0.3781 -0.0683
 6854TIP3    H142197   5.666   0.025   1.596  0.2960 -0.0192 -0.2012
 6854TIP3    H242198   5.633  -0.026   1.735  1.2700 -1.6350 -0.5362
 6855TIP3   OH242199   0.241   5.817   0.194 -0.4840 -0.3744 -0.6344
 6855TIP3    H142200   0.149   5.792   0.195 -0.5539 -0.2124  1.5369
 6855TIP3    H242201   0.242   5.904   0.155 -1.0177 -1.0520 -2.2273
 6856TIP3   OH242202   6.761   5.279   0.916  0.1717  0.0239  0.5537
 6856TIP3    H142203   6.715   5.257   0.997  0.6151  2.1788  1.4566
 6856TIP3    H242204   6.803   5.363   0.934 -0.5322  1.0946 -2.2487
 6857TIP3   OH242205   3.054   2.821   1.008  0.0344 -0.1415 -0.5537
 6857TIP3    H142206   3.070   2.915   1.001  0.1351 -0.1012  0.1764
 6857TIP3    H242207   3.123   2.781   0.956  0.1931  0.1700 -0.5859
 6858TIP3   OH242208   4.176   1.675   2.828  0.1989  1.0241 -0.0160
 6858TIP3    H142209   4.102   1.615   2.833  1.2144 -0.2046  1.6646
 6858TIP3    H242210   4.207   1.668   2.738 -0.6272  0.1705 -0.2432
 6859TIP3   OH242211   4.614   5.324   8.497  0.0489 -0.4255 -0.0735
 6859TIP3    H142212   4.561   5.244   8.505 -0.7262 -0.1339 -1.9024
 6859TIP3    H242213   4.653   5.319   8.410 -0.9414  1.7086 -0.7001
 6860TIP3   OH242214   0.252   1.616   0.514 -0.4300  0.3131  0.3016
 6860TIP3    H142215   0.333   1.597   0.562 -0.8852  0.6306  1.2121
 6860TIP3    H242216   0.192   1.649   0.581 -0.5100  2.4634 -0.7561
 6861TIP3   OH242217   5.227   1.268   1.624 -0.0778 -1.2754 -0.1379
 6861TIP3    H142218   5.306   1.259   1.676  0.7178 -3.0300 -1.5207
 6861TIP3    H242219   5.162   1.305   1.684  2.1948  1.9010  0.5785
 6862TIP3   OH242220   3.541   1.951   2.359  0.1220  0.2704 -0.4112
 6862TIP3    H142221   3.472   1.901   2.316  0.0811 -0.3318  0.3446
 6862TIP3    H242222   3.592   1.988   2.286 -1.2413  1.0972 -0.9818
 6863TIP3   OH242223   5.267   6.005   1.491 -0.1002  0.2243 -0.0248
 6863TIP3    H142224   5.251   6.040   1.403 -1.4693 -1.1980 -0.3879
 6863TIP3    H242225   5.220   6.065   1.549  0.7029  1.0985 -0.2442
 6864TIP3   OH242226   6.468   6.096   1.326 -0.0950  0.7020  0.2632
 6864TIP3    H142227   6.404   6.126   1.261 -2.5131 -0.8771  1.7252
 6864TIP3    H242228   6.552   6.102   1.282 -1.3263  2.1001 -2.0998
 6865TIP3   OH242229   5.554   1.305   1.512 -0.1909 -0.0824 -0.4670
 6865TIP3    H142230   5.558   1.212   1.535  0.8428 -0.1236 -0.7741
 6865TIP3    H242231   5.483   1.340   1.566  1.4614 -0.3875  2.0847
 6866TIP3   OH242232   6.558   2.431   2.917  0.0241  0.1804  0.1167
 6866TIP3    H142233   6.642   2.420   2.873  0.8161 -1.0590  1.7994
 6866TIP3    H242234   6.575   2.493   2.987 -0.7860  0.8388 -0.2530
 6867TIP3   OH242235   1.482   1.655   3.237  0.1099  0.0124 -0.7787
 6867TIP3    H142236   1.510   1.629   3.149  0.0005 -0.5138 -0.6610
 6867TIP3    H242237   1.533   1.600   3.296 -1.3634 -1.1816 -0.5642
 6868TIP3   OH242238   1.222   6.084   7.878 -0.2662  0.7065 -0.0893
 6868TIP3    H142239   1.291   6.149   7.865  0.4969  1.0869  4.2229
 6868TIP3    H242240   1.264   6.000   7.863 -0.5030  1.0078 -2.9373
 6869TIP3   OH242241   5.745   2.251   2.130 -0.0983  0.1850 -0.6040
 6869TIP3    H142242   5.687   2.221   2.060 -0.7835 -2.0971  0.8565
 6869TIP3    H242243   5.832   2.221   2.103 -0.4073 -0.9802 -0.3563
 6870TIP3   OH242244   2.997   4.273   2.011 -0.2960 -0.0932  0.5330
 6870TIP3    H142245   3.040   4.215   1.948  0.7623  0.9874  0.2173
 6870TIP3    H242246   3.007   4.229   2.095 -2.0360 -1.7378 -0.0334
 6871TIP3   OH242247   4.211   0.493   0.789 -0.0151  0.1604 -0.0792
 6871TIP3    H142248   4.115   0.487   0.790 -0.0264  0.2375  1.1583
 6871TIP3    H242249   4.236   0.455   0.705 -1.1043 -0.3125 -0.2172
 6872TIP3   OH242250   1.866   0.624   0.648  0.2631 -0.1066  0.1249
 6872TIP3    H142251   1.865   0.713   0.683 -2.0258 -0.4210  1.0062
 6872TIP3    H242252   1.875   0.568   0.724  1.0633 -0.6834 -0.3730
 6873TIP3   OH242253   5.285   4.599   8.349 -0.6965  0.2748 -0.3491
 6873TIP3    H142254   5.303   4.548   8.270  0.0692 -0.4746  0.2829
 6873TIP3    H242255   5.337   4.679   8.338  1.4409 -0.9095  0.4683
 6874TIP3   OH242256   0.892   6.508   1.637 -0.1532 -0.3950 -0.0217
 6874TIP3    H142257   0.807   6.488   1.677  0.0387 -1.7503 -0.2636
 6874TIP3    H242258   0.908   6.436   1.577  1.1795 -0.1567  0.0233
 6875TIP3   OH242259   5.836   3.208   2.849  0.1719  0.3084  0.6902
 6875TIP3    H142260   5.819   3.212   2.755  0.1483  0.6390  0.7057
 6875TIP3    H242261   5.931   3.202   2.856  0.2827  1.6852  0.6677
 6876TIP3   OH242262   6.690   0.190   0.327 -0.6132  0.2026  0.2327
 6876TIP3    H142263   6.719   0.196   0.236 -0.1305 -3.0055  0.0727
 6876TIP3    H242264   6.691   0.280   0.359  0.0302  1.3087 -2.6691
 6877TIP3   OH242265   1.437   4.405   2.340  0.2681 -0.1518 -0.2932
 6877TIP3    H142266   1.366   4.359   2.386  0.8099  0.2237  0.9653
 6877TIP3    H242267   1.512   4.346   2.347  0.3912 -0.0351 -0.6095
 6878TIP3   OH242268   5.265   3.966   0.386  0.2777 -0.0128  0.5448
 6878TIP3    H142269   5.199   3.897   0.375  2.5006 -2.1433 -0.4969
 6878TIP3    H242270   5.275   4.004   0.299  0.2625  0.5040  0.7625
 6879TIP3   OH242271   6.823   3.207   0.953 -0.5164 -0.0667  0.0135
 6879TIP3    H142272   6.779   3.193   1.037 -0.4119  1.5578  0.3762
 6879TIP3    H242273   6.910   3.240   0.976  0.1016 -1.1237 -0.7321
 6880TIP3   OH242274   1.004   0.882   1.907  0.4409 -0.2389  0.1206
 6880TIP3    H142275   0.996   0.791   1.878 -0.6925  0.3746 -1.6145
 6880TIP3    H242276   0.951   0.932   1.846  1.6641  1.7085  0.5514
 6881TIP3   OH242277   0.890   1.493   0.894  0.2987  0.0320 -0.5162
 6881TIP3    H142278   0.977   1.466   0.926  0.3191  1.3774  0.6456
 6881TIP3    H242279   0.905   1.580   0.856 -0.6847  0.6682  0.5084
 6882TIP3   OH242280   1.315   3.876   7.778  0.1189  0.6659 -0.2343
 6882TIP3    H142281   1.328   3.781   7.787  0.2725  0.8027  1.0466
 6882TIP3    H242282   1.220   3.886   7.767  0.2789  0.2080 -2.8694
 6883TIP3   OH242283   1.869   5.211   8.112  0.3674 -0.7448 -0.4115
 6883TIP3    H142284   1.786   5.208   8.065  0.3184 -1.9671 -0.2952
 6883TIP3    H242285   1.899   5.120   8.112  0.6714 -0.6796  1.4065
 6884TIP3   OH242286   3.942   2.628   4.018 -0.0038 -0.0079  0.1620
 6884TIP3    H142287   3.865   2.600   3.968 -0.1682 -0.1738  0.5075
 6884TIP3    H242288   3.910   2.697   4.076  0.4893  1.2288 -0.9956
 6885TIP3   OH242289   3.241   6.375   0.632  0.3768 -0.3523 -0.0567
 6885TIP3    H142290   3.231   6.287   0.598  0.0483 -0.4121  0.1896
 6885TIP3    H242291   3.237   6.365   0.727 -0.7222  0.0383 -0.0403
 6886TIP3   OH242292   3.836   2.972   0.826 -0.6727 -1.0084 -0.1467
 6886TIP3    H142293   3.879   3.030   0.764 -0.9852 -0.6669 -0.0475
 6886TIP3    H242294   3.854   2.884   0.793 -0.3032 -0.8536 -0.3659
 6887TIP3   OH242295   4.840   3.582   1.036 -0.0182  0.0270 -1.2350
 6887TIP3    H142296   4.867   3.491   1.048 -0.5399 -0.1803 -1.5861
 6887TIP3    H242297   4.791   3.602   1.116 -0.1767 -0.1049 -1.2981
 6888TIP3   OH242298   4.375   6.013   8.042  0.2062  0.7379 -0.0192
 6888TIP3    H142299   4.294   6.056   8.072  0.0364 -0.4476  1.3471
 6888TIP3    H242300   4.344   5.935   7.995  0.4971 -0.6357  1.9364
 6889TIP3   OH242301   6.347   2.899   8.490 -0.3919  0.2038 -0.2304
 6889TIP3    H142302   6.426   2.944   8.521 -0.2886  0.7696 -1.3021
 6889TIP3    H242303   6.307   2.959   8.428 -1.4284 -0.2816 -0.0577
 6890TIP3   OH242304   1.448   5.306   2.357  0.0695 -0.2881  0.1120
 6890TIP3    H142305   1.353   5.290   2.355  0.1180 -0.4795 -0.8438
 6890TIP3    H242306   1.487   5.219   2.360  0.2385 -0.2379 -0.5936
 6891TIP3   OH242307   1.272   6.332   0.549  0.0052 -0.4503  0.6010
 6891TIP3    H142308   1.177   6.333   0.538  0.1206 -0.1515 -0.5791
 6891TIP3    H242309   1.306   6.345   0.460  1.1531 -1.2482  0.8984
 6892TIP3   OH242310   3.180   2.906   2.092 -0.4396  0.1012  0.1037
 6892TIP3    H142311   3.093   2.901   2.052 -0.3142  1.2558 -0.3649
 6892TIP3    H242312   3.171   2.862   2.176 -0.7099 -2.4560 -1.1651
 6893TIP3   OH242313   2.102   3.480   1.437  0.2782  0.4672 -0.1576
 6893TIP3    H142314   2.052   3.485   1.356  0.1407  0.8812 -0.0498
 6893TIP3    H242315   2.104   3.570   1.470  1.2989  0.5072 -0.2826
 6894TIP3   OH242316   1.540   3.338   2.371  0.2679 -0.1412 -0.2854
 6894TIP3    H142317   1.498   3.255   2.351  1.2527 -0.7370  0.0505
 6894TIP3    H242318   1.550   3.339   2.466 -0.1110  0.5518 -0.2451
 6895TIP3   OH242319   1.764   0.268   2.234 -0.4728  0.2068 -0.2611
 6895TIP3    H142320   1.761   0.258   2.329  2.3004 -1.7138 -0.2546
 6895TIP3    H242321   1.711   0.345   2.216 -0.3388  1.1779  2.9460
 6896TIP3   OH242322   4.562   3.698   2.129  0.7019 -0.1089  0.9173
 6896TIP3    H142323   4.576   3.612   2.171 -0.8006 -0.0545  1.6031
 6896TIP3    H242324   4.556   3.759   2.203 -2.1392 -0.0256  0.7182
 6897TIP3   OH242325   1.005   4.328   8.421  0.1031 -0.0791  0.6110
 6897TIP3    H142326   1.026   4.416   8.390  1.9423 -0.7483 -0.1476
 6897TIP3    H242327   1.086   4.294   8.458 -0.6515 -1.3489  1.2005
 6898TIP3   OH242328   3.737   0.981   8.054 -0.5024 -0.2460 -0.2370
 6898TIP3    H142329   3.682   1.037   7.999 -1.0807  1.4006  1.9098
 6898TIP3    H242330   3.756   1.034   8.131 -0.0828 -2.6101  1.3887
 6899TIP3   OH242331   1.237   6.157   2.822  0.2646  1.0020  0.2236
 6899TIP3    H142332   1.244   6.071   2.864  0.6752  0.7021 -0.4412
 6899TIP3    H242333   1.318   6.165   2.771 -0.4611  1.1173 -0.9426
 6900TIP3   OH242334   5.361   4.404   8.571  0.3362  0.2061 -0.1634
 6900TIP3    H142335   5.454   4.388   8.553  0.2518 -0.1092 -0.3377
 6900TIP3    H242336   5.333   4.463   8.500  0.0290 -0.9550 -1.0440
 6901TIP3   OH242337   2.247   6.116   4.113  0.0858 -0.1493 -0.0115
 6901TIP3    H142338   2.194   6.037   4.104 -0.0480 -0.0389 -0.1903
 6901TIP3    H242339   2.186   6.182   4.147  0.0643  0.0254 -0.3871
 6902TIP3   OH242340   2.463   5.462   0.261  0.5787 -0.1192  0.0531
 6902TIP3    H142341   2.520   5.527   0.302  2.3563 -2.0832  0.8656
 6902TIP3    H242342   2.438   5.502   0.177  2.9406  0.9361 -0.2229
 6903TIP3   OH242343   4.653   2.929   3.135  0.0543  0.6102 -0.3985
 6903TIP3    H142344   4.745   2.919   3.111 -0.0266  1.2714 -1.0466
 6903TIP3    H242345   4.639   2.867   3.206  0.6366 -0.5581 -1.2678
 6904TIP3   OH242346   2.311   5.603   7.671 -0.0691  0.2636  0.2169
 6904TIP3    H142347   2.359   5.523   7.647 -2.3533 -1.0901 -0.1699
 6904TIP3    H242348   2.260   5.577   7.748  0.0769  1.7627  0.8431
 6905TIP3   OH242349   2.274   3.520   1.097 -0.2719  0.2919  0.5865
 6905TIP3    H142350   2.316   3.519   1.011 -1.7516 -0.0698 -0.1676
 6905TIP3    H242351   2.230   3.435   1.103 -0.4172  0.4301  1.5922
 6906TIP3   OH242352   4.761   2.853   1.928 -0.0213  0.1389 -0.3875
 6906TIP3    H142353   4.762   2.819   2.017  2.4198  2.0804  0.4309
 6906TIP3    H242354   4.757   2.775   1.873  2.2020 -1.3814  1.4149
 6907TIP3   OH242355   1.114   3.129   1.973 -0.6037  0.0685 -0.3979
 6907TIP3    H142356   1.182   3.188   2.007  0.1386  0.0166 -1.7289
 6907TIP3    H242357   1.062   3.106   2.050  0.6383  0.4280  0.5927
 6908TIP3   OH242358   0.259   6.282   4.009 -0.5536  0.0674 -0.0492
 6908TIP3    H142359   0.173   6.274   3.968  0.2313 -2.2231 -1.4925
 6908TIP3    H242360   0.274   6.196   4.048  0.2793  1.0724  1.9524
 6909TIP3   OH242361   5.510   4.972   1.724 -0.6706  0.1962 -0.3331
 6909TIP3    H142362   5.545   5.061   1.734  0.1247 -0.1914  0.5449
 6909TIP3    H242363   5.456   4.975   1.645 -0.4826  1.4048 -0.4231
 6910TIP3   OH242364   6.287   2.928   1.998 -0.4329  0.5124  0.2175
 6910TIP3    H142365   6.281   2.851   2.054  0.3237 -0.1417 -0.5894
 6910TIP3    H242366   6.237   2.905   1.920  1.2164  0.1495 -0.7718
 6911TIP3   OH242367   3.648   0.737   8.161 -0.5030 -0.2367 -0.3187
 6911TIP3    H142368   3.681   0.820   8.127  1.1474 -0.1515  1.2999
 6911TIP3    H242369   3.684   0.671   8.102  0.7558  0.0271  0.1153
 6912TIP3   OH242370   5.683   4.232   2.835 -0.3909  0.0945  0.6358
 6912TIP3    H142371   5.631   4.264   2.762  0.4836 -0.1331 -0.1151
 6912TIP3    H242372   5.723   4.311   2.873  1.1037  0.0380 -0.6952
 6913TIP3   OH242373   0.177   4.589   0.282  0.0909 -0.3481  0.1986
 6913TIP3    H142374   0.267   4.621   0.278  0.3704 -0.9056  1.3847
 6913TIP3    H242375   0.150   4.606   0.373 -1.3634  0.7260 -0.3963
 6914TIP3   OH242376   6.116   4.883   2.972 -0.2762 -0.1193 -0.3350
 6914TIP3    H142377   6.083   4.909   3.058  0.1809 -1.8802  0.4211
 6914TIP3    H242378   6.096   4.789   2.966  0.4398 -0.2023 -1.8002
 6915TIP3   OH242379   4.961   1.900   0.448 -0.0331 -0.4069 -0.0250
 6915TIP3    H142380   5.008   1.982   0.466 -0.8747  0.1036 -0.0804
 6915TIP3    H242381   4.965   1.891   0.352  0.5911 -0.7690  0.0266
 6916TIP3   OH242382   5.936   3.623   3.621 -0.0742 -0.5799  0.6672
 6916TIP3    H142383   5.875   3.696   3.625 -1.2697 -1.3112 -1.8232
 6916TIP3    H242384   5.896   3.554   3.674 -0.5811 -0.4806  0.4171
 6917TIP3   OH242385   6.106   5.349   0.334 -0.8289 -0.3053 -0.0048
 6917TIP3    H142386   6.136   5.282   0.396 -1.3689  0.0371  0.6426
 6917TIP3    H242387   6.163   5.339   0.258  1.3820  0.7801  1.4365
 6918TIP3   OH242388   6.382   5.714   3.083 -0.3523 -0.1105 -0.0919
 6918TIP3    H142389   6.310   5.762   3.040  0.4640  0.1936 -1.1581
 6918TIP3    H242390   6.391   5.634   3.032 -0.5191 -0.5735  0.5936
 6919TIP3   OH242391   4.984   1.974   2.918 -0.4808  0.1222 -0.3048
 6919TIP3    H142392   5.009   2.012   3.002 -0.5826 -2.1864  0.8614
 6919TIP3    H242393   4.888   1.973   2.920 -0.4899  0.4823 -0.6410
 6920TIP3   OH242394   5.979   0.158   3.413 -0.1972  0.0773  0.3038
 6920TIP3    H142395   6.043   0.229   3.418 -1.0706  0.9008 -0.1192
 6920TIP3    H242396   6.033   0.079   3.403  0.7554  0.8057 -0.6089
 6921TIP3   OH242397   4.004   0.982   1.361  0.7342  1.0011  0.4383
 6921TIP3    H142398   3.963   1.044   1.301 -1.0232 -0.2364  0.2859
 6921TIP3    H242399   3.960   0.898   1.344  3.9352 -0.6842 -0.3283
 6922TIP3   OH242400   4.747   3.733   2.721 -0.1969  0.7817  0.2350
 6922TIP3    H142401   4.763   3.746   2.814  3.5217  3.1514 -0.5177
 6922TIP3    H242402   4.691   3.806   2.695 -0.2222  0.8173  0.3896
 6923TIP3   OH242403   5.380   1.958   1.637  0.2918  0.2053 -0.0413
 6923TIP3    H142404   5.369   2.045   1.599  0.4705 -0.2233 -1.1180
 6923TIP3    H242405   5.469   1.958   1.672  0.3034  0.4481 -0.0701
 6924TIP3   OH242406   2.085   2.383   0.077  0.2843 -0.1434  0.3474
 6924TIP3    H142407   2.177   2.410   0.078  0.4004 -0.4910  1.9640
 6924TIP3    H242408   2.089   2.288   0.076 -0.1083 -0.1850 -1.6112
 6925TIP3   OH242409   6.633   6.510   0.599 -0.8481  0.0640  0.8469
 6925TIP3    H142410   6.553   6.563   0.591 -0.0843  1.1256 -0.0038
 6925TIP3    H242411   6.703   6.566   0.566  0.4425 -0.4610  2.5415
 6926TIP3   OH242412   3.346   5.139   0.712  0.1018 -0.6133 -0.0145
 6926TIP3    H142413   3.302   5.118   0.794 -0.2715  0.9900  0.2419
 6926TIP3    H242414   3.421   5.192   0.739 -0.5649  0.7553 -0.7268
 6927TIP3   OH242415   6.848   0.495   2.753  0.2517  0.1257  0.1118
 6927TIP3    H142416   6.922   0.436   2.744 -0.3079 -0.5269 -0.3244
 6927TIP3    H242417   6.821   0.514   2.663  0.0224  0.5286  0.2608
 6928TIP3   OH242418   6.489   4.442   2.298 -0.0498  0.0568 -0.2293
 6928TIP3    H142419   6.446   4.490   2.369 -0.2435  0.5862 -0.7012
 6928TIP3    H242420   6.510   4.357   2.337 -2.5542 -0.6790 -0.2979
 6929TIP3   OH242421   1.035   0.854   1.288  0.0014 -0.2636 -0.1163
 6929TIP3    H142422   1.096   0.851   1.215 -0.7770  0.3319 -0.8004
 6929TIP3    H242423   0.972   0.784   1.271 -1.3263  1.0864 -1.0824
 6930TIP3   OH242424   3.371   3.840   2.315 -1.0576 -1.2454 -0.4880
 6930TIP3    H142425   3.306   3.868   2.379 -0.3574 -0.3574 -0.1406
 6930TIP3    H242426   3.435   3.790   2.365  0.4775  0.9760 -0.0643
 6931TIP3   OH242427   3.149   6.154   8.768  0.3741  0.0939  0.2606
 6931TIP3    H142428   3.174   6.069   8.732  1.3531 -0.1681  1.5194
 6931TIP3    H242429   3.059   6.142   8.798  0.8641 -0.8462  1.4237
 6932TIP3   OH242430   3.016   0.215   3.525 -0.2131  0.5699 -0.1398
 6932TIP3    H142431   3.042   0.131   3.560  0.3441  1.3706  1.4475
 6932TIP3    H242432   2.963   0.255   3.594  0.4499  1.9680 -0.3992
 6933TIP3   OH242433   6.427   1.403   3.909 -0.2942 -0.3711  0.0924
 6933TIP3    H142434   6.410   1.341   3.838 -0.4315 -1.2145  0.8410
 6933TIP3    H242435   6.360   1.382   3.975 -1.4646  1.7093 -0.3294
 6934TIP3   OH242436   0.444   5.741   1.502  0.3929 -0.8334 -0.1124
 6934TIP3    H142437   0.532   5.746   1.540 -0.4130 -1.3834  1.9726
 6934TIP3    H242438   0.416   5.651   1.518 -0.0861 -1.0284 -1.9192
 6935TIP3   OH242439   6.584   4.181   7.565  0.0725  0.6638  0.1354
 6935TIP3    H142440   6.549   4.092   7.569  0.6904  0.3521 -1.0169
 6935TIP3    H242441   6.516   4.232   7.520  0.5943  0.3077 -1.0799
 6936TIP3   OH242442   5.832   1.983   3.485  0.2453  0.1964  0.2307
 6936TIP3    H142443   5.875   1.900   3.506 -2.1573 -1.2076  0.0053
 6936TIP3    H242444   5.817   1.978   3.390 -1.9902 -0.2408  0.5586
 6937TIP3   OH242445   3.048   0.823   0.921  0.1075 -0.5641  0.0103
 6937TIP3    H142446   3.009   0.739   0.946  0.4877 -0.4024  1.2307
 6937TIP3    H242447   3.118   0.801   0.861  0.0658 -1.1019  0.1568
 6938TIP3   OH242448   5.155   1.223   8.589 -0.0581  0.1976  0.2995
 6938TIP3    H142449   5.134   1.150   8.646 -0.9919 -1.1603 -1.6628
 6938TIP3    H242450   5.219   1.188   8.527  0.0563  1.2705 -0.2138
 6939TIP3   OH242451   5.959   6.103   0.370  0.4382 -0.4339  0.4130
 6939TIP3    H142452   6.052   6.109   0.390  0.5049  0.1631 -0.0268
 6939TIP3    H242453   5.921   6.184   0.405  0.0621 -0.7305  0.6998
 6940TIP3   OH242454   0.166   2.672   1.487 -0.3646 -0.0123  0.0499
 6940TIP3    H142455   0.248   2.717   1.510 -0.2659  0.6225 -1.4162
 6940TIP3    H242456   0.099   2.716   1.540  0.2453 -0.6640  1.4005
 6941TIP3   OH242457   6.191   1.090   2.004  0.3655 -0.2246 -0.3075
 6941TIP3    H142458   6.215   1.119   1.916 -1.2607  1.2165 -0.3101
 6941TIP3    H242459   6.198   0.995   2.000  0.3398 -0.1862 -1.9906
 6942TIP3   OH242460   2.290   5.911   1.750 -0.3895 -0.3112 -0.0772
 6942TIP3    H142461   2.222   5.977   1.770 -0.8844 -0.4248 -1.3170
 6942TIP3    H242462   2.350   5.917   1.824 -3.6558 -2.8282  3.1680
 6943TIP3   OH242463   2.235   3.551   2.125 -0.2758 -0.3540 -0.1295
 6943TIP3    H142464   2.285   3.629   2.146 -0.3012 -0.1711 -0.7177
 6943TIP3    H242465   2.145   3.572   2.151 -0.2186 -0.3166  0.0343
 6944TIP3   OH242466   1.490   3.388   3.683 -0.3356  0.7283 -0.1912
 6944TIP3    H142467   1.563   3.422   3.734 -0.0037 -1.1283  0.6709
 6944TIP3    H242468   1.527   3.370   3.597 -0.1784  1.2210 -0.2288
 6945TIP3   OH242469   5.775   3.659   1.649  0.0272  0.4913 -0.2603
 6945TIP3    H142470   5.713   3.624   1.713 -0.5017 -1.9314 -1.9576
 6945TIP3    H242471   5.818   3.732   1.695 -0.8488 -0.6079  2.5406
 6946TIP3   OH242472   0.938   4.284   1.409 -0.2767  0.3073 -0.2002
 6946TIP3    H142473   0.991   4.362   1.426 -0.7715  1.2730 -2.6597
 6946TIP3    H242474   0.860   4.296   1.462 -0.2061  1.3356 -0.3163
 6947TIP3   OH242475   2.991   2.209   3.847 -0.0204  0.6068 -0.0549
 6947TIP3    H142476   2.973   2.267   3.773 -0.0721  1.3402  0.5275
 6947TIP3    H242477   3.086   2.200   3.849 -0.1058 -1.2372 -1.5792
 6948TIP3   OH242478   6.674   0.024   0.583 -1.1644 -0.7076  0.5492
 6948TIP3    H142479   6.606   0.007   0.649 -1.3911  0.8599  0.7564
 6948TIP3    H242480   6.741   0.074   0.631 -2.3237  2.4017 -0.8107
 6949TIP3   OH242481   1.667   2.190   1.490  0.0714  0.0294 -0.3493
 6949TIP3    H142482   1.591   2.222   1.441  0.4873 -0.6238 -1.4430
 6949TIP3    H242483   1.634   2.114   1.538 -0.0993  0.0728 -0.3959
 6950TIP3   OH242484   6.147   1.047   3.122 -0.0320  0.3841 -0.1082
 6950TIP3    H142485   6.074   0.997   3.159  1.3200  0.2141  2.5763
 6950TIP3    H242486   6.192   0.985   3.065 -0.3619 -0.3607  0.4297
 6951TIP3   OH242487   2.086   0.749   1.522  0.2006 -0.2694  0.2619
 6951TIP3    H142488   2.092   0.723   1.430  0.7849 -2.0693  0.7682
 6951TIP3    H242489   2.091   0.845   1.520  2.7406 -0.3568 -1.4057
 6952TIP3   OH242490   2.711   3.698   0.890 -0.7911 -0.2954  0.8087
 6952TIP3    H142491   2.689   3.612   0.923 -1.1136 -0.0892  1.1375
 6952TIP3    H242492   2.660   3.706   0.809 -0.4122 -0.5878  0.5371
 6953TIP3   OH242493   3.687   0.462   1.607 -0.0929  0.0111 -0.4765
 6953TIP3    H142494   3.756   0.450   1.542  0.2377 -1.1568  0.0563
 6953TIP3    H242495   3.667   0.373   1.637 -0.1239  0.5309  1.1193
 6954TIP3   OH242496   0.148   2.089   7.967  0.4952  0.1863 -0.1323
 6954TIP3    H142497   0.192   2.005   7.975  1.3396  0.7689  1.6265
 6954TIP3    H242498   0.123   2.093   7.874  1.2152 -1.5895 -0.4510
 6955TIP3   OH242499   3.903   3.672   0.553 -0.1566 -0.0605  0.4212
 6955TIP3    H142500   3.941   3.756   0.580 -0.7986 -0.5840  3.2541
 6955TIP3    H242501   3.818   3.696   0.516  0.1466  0.6014  0.1209
 6956TIP3   OH242502   4.620   2.271   2.440  0.3133  0.8948 -0.2819
 6956TIP3    H142503   4.639   2.206   2.507  0.4859  1.8279  0.5937
 6956TIP3    H242504   4.525   2.272   2.434  0.3391 -0.7866 -1.6790
 6957TIP3   OH242505   3.546   1.308   8.339 -0.4828 -0.2752 -0.0963
 6957TIP3    H142506   3.521   1.383   8.393 -1.3731 -0.4563 -0.2400
 6957TIP3    H242507   3.491   1.315   8.262  2.1906  1.1603 -2.0327
 6958TIP3   OH242508   5.836   6.489   8.792  0.0709  0.2197 -0.0785
 6958TIP3    H142509   5.798   6.506   8.705  1.4862  0.2378 -0.7194
 6958TIP3    H242510   5.772   6.432   8.835 -1.0349  0.8588 -0.8203
 6959TIP3   OH242511   1.229   4.145   7.991 -0.1995 -0.0229 -0.9864
 6959TIP3    H142512   1.237   4.223   7.938  0.9178 -0.0233 -0.8363
 6959TIP3    H242513   1.281   4.163   8.070 -3.6947  0.9467  1.3303
 6960TIP3   OH242514   6.262   3.668   1.576  0.3190  0.2701  0.2595
 6960TIP3    H142515   6.251   3.601   1.509  0.1620  1.3463 -0.8239
 6960TIP3    H242516   6.181   3.720   1.571  0.5689  0.7240  0.8637
 6961TIP3   OH242517   2.996   1.969   3.202  0.1729  0.2740  0.3759
 6961TIP3    H142518   2.918   1.965   3.147  0.1028 -0.1668  0.5007
 6961TIP3    H242519   2.985   2.048   3.255 -0.1909  0.2072  0.4019
 6962TIP3   OH242520   1.138   2.782   2.441 -0.9854  0.0964 -0.5280
 6962TIP3    H142521   1.230   2.779   2.467 -0.7728  0.6507 -1.1752
 6962TIP3    H242522   1.105   2.694   2.459 -0.2811 -0.1579 -0.4519
 6963TIP3   OH242523   6.343   6.727   3.652  0.2863 -0.7828  0.1561
 6963TIP3    H142524   6.424   6.751   3.607  0.0783 -0.7398 -0.1980
 6963TIP3    H242525   6.348   6.772   3.736 -0.3996  1.0862 -0.7507
 6964TIP3   OH242526   3.717   1.761   8.775  0.1846 -0.1936 -0.2425
 6964TIP3    H142527   3.804   1.737   8.741  0.6280  1.3424 -0.2779
 6964TIP3    H242528   3.657   1.733   8.706  0.4237 -2.9029  0.5440
 6965TIP3   OH242529   0.574   3.033   1.620  0.4020  0.9719 -0.6938
 6965TIP3    H142530   0.598   2.973   1.691  0.4149  0.5356 -1.0624
 6965TIP3    H242531   0.625   3.112   1.638 -2.0939  2.2288  1.7328
 6966TIP3   OH242532   6.089   3.505   8.008 -0.0445  0.1634 -0.0896
 6966TIP3    H142533   6.020   3.491   8.073 -0.6148  0.4090 -0.6375
 6966TIP3    H242534   6.044   3.539   7.931  0.5076 -0.9389 -0.9236
 6967TIP3   OH242535   5.949   4.884   8.329 -0.1533 -0.3941 -0.1718
 6967TIP3    H142536   6.005   4.807   8.317 -0.1199 -1.3874  4.4777
 6967TIP3    H242537   6.004   4.946   8.379 -2.0854 -0.0478  1.6675
 6968TIP3   OH242538   0.827   2.454   1.161  0.4498  0.8101 -0.1704
 6968TIP3    H142539   0.916   2.481   1.137 -0.0702  3.6772  0.8178
 6968TIP3    H242540   0.807   2.505   1.239 -1.1593 -1.7039  1.1701
 6969TIP3   OH242541   1.343   3.877   3.310  0.2952 -0.0572 -0.2196
 6969TIP3    H142542   1.380   3.914   3.391  0.1926 -2.1667  0.8804
 6969TIP3    H242543   1.397   3.800   3.293 -0.2084 -0.1089 -1.7324
 6970TIP3   OH242544   5.405   4.981   7.601  0.1079 -0.2760 -0.1088
 6970TIP3    H142545   5.380   4.889   7.596  0.3011 -0.4176  1.0575
 6970TIP3    H242546   5.346   5.018   7.666  0.7930  0.1347  0.2949
 6971TIP3   OH242547   4.657   4.774   0.113  0.2767 -0.4759  0.2533
 6971TIP3    H142548   4.609   4.727   0.181 -2.1682 -1.0234 -1.6833
 6971TIP3    H242549   4.711   4.708   0.071 -1.6463 -1.2287 -1.1717
 6972TIP3   OH242550   0.770   6.217   3.495 -0.3870 -0.1915  0.0257
 6972TIP3    H142551   0.718   6.168   3.558  0.0900  0.6935  1.1423
 6972TIP3    H242552   0.828   6.271   3.548  1.4017 -0.8355 -1.1717
 6973TIP3   OH242553   3.519   1.807   1.306  0.3177  0.2835 -0.3518
 6973TIP3    H142554   3.459   1.800   1.232  0.5567 -0.7879 -0.4581
 6973TIP3    H242555   3.560   1.722   1.311  0.9166  0.6154  0.5074
 6974TIP3   OH242556   2.754   4.687   1.460  0.1152 -0.1448 -0.1221
 6974TIP3    H142557   2.830   4.674   1.516 -0.5214 -1.7825  0.4229
 6974TIP3    H242558   2.786   4.672   1.371  0.2809 -1.7019  0.1738
 6975TIP3   OH242559   4.519   6.559   1.954 -0.2560 -0.7816  0.1543
 6975TIP3    H142560   4.544   6.593   1.867 -1.2314 -1.1332 -0.2796
 6975TIP3    H242561   4.466   6.629   1.992 -0.1949 -0.8059  0.2827
 6976TIP3   OH242562   2.247   5.295   2.342 -0.0012 -0.5359 -0.1369
 6976TIP3    H142563   2.319   5.332   2.291  1.0759 -1.2106  0.8295
 6976TIP3    H242564   2.181   5.364   2.344  1.5846  1.0576  0.8936
 6977TIP3   OH242565   2.462   1.468   3.526  0.1153  0.0788 -0.0262
 6977TIP3    H142566   2.553   1.458   3.497  0.0773  0.9193 -0.4664
 6977TIP3    H242567   2.463   1.444   3.619  0.9058  0.6977  0.1269
 6978TIP3   OH242568   1.507   5.478   2.164  0.0695 -0.0724 -0.2066
 6978TIP3    H142569   1.585   5.469   2.110 -0.6600 -2.9291 -0.9589
 6978TIP3    H242570   1.506   5.400   2.219 -1.1406  0.9821  1.3819
 6979TIP3   OH242571   6.760   0.635   3.057  0.6239  0.3850  0.2729
 6979TIP3    H142572   6.793   0.561   3.108 -0.7454  1.2702  2.5883
 6979TIP3    H242573   6.684   0.601   3.011 -0.4609  0.4542  1.9267
 6980TIP3   OH242574   3.961   6.174   2.297  0.6623  0.9668  0.1730
 6980TIP3    H142575   4.042   6.125   2.287  0.6698  1.2097 -1.0749
 6980TIP3    H242576   3.979   6.259   2.255 -0.5565  0.6472 -1.0765
 6981TIP3   OH242577   0.728   6.097   1.070  0.3141 -0.5734  0.1224
 6981TIP3    H142578   0.706   6.102   0.977  3.0834  0.6964 -0.5720
 6981TIP3    H242579   0.787   6.022   1.077  2.1961  0.8354  0.2734
 6982TIP3   OH242580   4.079   3.738   1.200  0.2217  0.1108 -0.4370
 6982TIP3    H142581   4.108   3.792   1.127  1.9111  0.1619  0.2237
 6982TIP3    H242582   3.990   3.769   1.219  0.1068  0.7138 -1.8550
 6983TIP3   OH242583   3.158   0.382   8.454 -0.4386 -0.2903  0.0757
 6983TIP3    H142584   3.147   0.447   8.524  1.7722 -1.0470  1.2060
 6983TIP3    H242585   3.236   0.411   8.406 -1.5124 -0.1800 -1.6902
 6984TIP3   OH242586   4.865   0.477   0.365 -0.3496  0.6462  0.6012
 6984TIP3    H142587   4.837   0.389   0.393  1.8530 -0.8027 -1.3255
 6984TIP3    H242588   4.947   0.491   0.411  0.7010  0.4424 -1.1257
 6985TIP3   OH242589   4.276   4.791   2.290 -0.1308  0.5629  0.4670
 6985TIP3    H142590   4.187   4.760   2.275 -0.2591  0.7632  0.7977
 6985TIP3    H242591   4.268   4.852   2.363  0.0724  1.6077 -0.3591
 6986TIP3   OH242592   6.153   4.681   8.333 -0.1082  0.0182  0.0617
 6986TIP3    H142593   6.229   4.638   8.370  0.8672 -0.6062 -2.4905
 6986TIP3    H242594   6.097   4.610   8.302 -0.2677  0.5202 -0.8318
 6987TIP3   OH242595   6.640   0.685   0.376 -0.2470 -0.2007  0.4316
 6987TIP3    H142596   6.604   0.604   0.339  0.6444 -1.0315  1.3042
 6987TIP3    H242597   6.578   0.711   0.444 -0.4482 -0.2492  0.2661
 6988TIP3   OH242598   6.019   4.841   3.225  0.3720 -0.7683  0.4704
 6988TIP3    H142599   6.085   4.890   3.274  0.2450 -1.9203  1.8535
 6988TIP3    H242600   5.979   4.783   3.290 -1.8549 -0.2713 -0.3767
 6989TIP3   OH242601   2.886   1.286   1.552 -0.1381  0.0146  0.0473
 6989TIP3    H142602   2.856   1.259   1.639  0.6315 -0.6058  0.1322
 6989TIP3    H242603   2.848   1.221   1.493 -0.0772  0.0151  0.0073
 6990TIP3   OH242604   4.180   1.485   8.276  0.0233  0.5606 -0.2973
 6990TIP3    H142605   4.237   1.457   8.348  1.7315 -0.8534 -2.0909
 6990TIP3    H242606   4.171   1.580   8.289  0.4581  0.3852  1.6172
 6991TIP3   OH242607   5.980   3.088   8.543  0.0299 -0.0803  0.1082
 6991TIP3    H142608   5.902   3.033   8.539 -0.0341  0.0666 -0.7753
 6991TIP3    H242609   6.036   3.055   8.472 -0.1534  1.2155 -0.6612
 6992TIP3   OH242610   2.191   0.662   2.835  0.0329  0.2345 -0.8456
 6992TIP3    H142611   2.230   0.722   2.772 -0.6843 -0.0539 -1.5888
 6992TIP3    H242612   2.170   0.717   2.911  1.0933  0.5445 -0.7722
 6993TIP3   OH242613   0.801   6.588   0.247 -0.3009  0.5328  0.1303
 6993TIP3    H142614   0.837   6.658   0.302 -0.4969 -0.1175  1.1070
 6993TIP3    H242615   0.726   6.555   0.297  1.1172 -1.8833  0.7842
 6994TIP3   OH242616   4.745   0.186   0.333 -0.0878  0.1021 -0.1692
 6994TIP3    H142617   4.725   0.093   0.317 -0.0587  0.2930 -1.3556
 6994TIP3    H242618   4.814   0.184   0.399 -1.4706 -0.6635  1.3301
 6995TIP3   OH242619   0.289   3.457   1.578  0.3696  0.1095 -0.1982
 6995TIP3    H142620   0.382   3.464   1.601  0.6039  0.6825 -1.2806
 6995TIP3    H242621   0.259   3.548   1.573 -0.3297 -0.0778  0.4078
 6996TIP3   OH242622   0.764   1.133   0.738  0.3163 -0.5558 -0.6160
 6996TIP3    H142623   0.742   1.040   0.734 -0.8325 -0.3278 -0.1725
 6996TIP3    H242624   0.765   1.162   0.646 -0.4366 -0.7767 -0.7012
 6997TIP3   OH242625   0.718   5.016   1.663  0.1147  0.0520  0.0989
 6997TIP3    H142626   0.807   5.039   1.689  0.8567 -1.4143 -0.9696
 6997TIP3    H242627   0.727   4.929   1.623 -1.9434 -0.5362  0.7869
 6998TIP3   OH242628   0.561   2.548   8.405 -0.1390 -0.1544 -0.1068
 6998TIP3    H142629   0.625   2.537   8.334  0.0728 -0.3269  0.1048
 6998TIP3    H242630   0.609   2.594   8.474  0.0706 -1.1459  0.4459
 6999TIP3   OH242631   2.784   2.898   0.731  0.0947  0.3721  0.5651
 6999TIP3    H142632   2.789   2.846   0.810  1.8223 -2.3669 -1.1874
 6999TIP3    H242633   2.702   2.872   0.689  0.9732 -1.0666 -0.3261
 7000TIP3   OH242634   3.052   4.190   2.670 -0.6923 -0.1211  0.2852
 7000TIP3    H142635   3.112   4.173   2.742  0.8773 -0.1694 -0.9677
 7000TIP3    H242636   2.998   4.264   2.699  2.2282  2.1989  0.2475
 7001TIP3   OH242637   5.341   1.069   3.002 -0.2051  0.5839  0.1102
 7001TIP3    H142638   5.418   1.062   3.059  0.1537  1.1684 -0.2900
 7001TIP3    H242639   5.278   1.121   3.053  0.0586  0.9775  0.0368
 7002TIP3   OH242640   4.091   3.952   3.379  0.7589 -0.1497  0.4839
 7002TIP3    H142641   4.040   3.891   3.432  1.1505 -1.0239 -0.1251
 7002TIP3    H242642   4.179   3.949   3.418  1.0988 -0.9423 -0.2998
 7003TIP3   OH242643   4.696   6.734   3.410 -0.1580 -0.8190 -0.3715
 7003TIP3    H142644   4.746   6.773   3.483  0.7320  0.8384 -1.7911
 7003TIP3    H242645   4.618   6.788   3.404  0.0180 -0.6309 -0.9638
 7004TIP3   OH242646   3.670   4.369   8.627  0.3870 -0.9161  0.2719
 7004TIP3    H142647   3.594   4.415   8.592  1.0961 -0.1040 -0.2471
 7004TIP3    H242648   3.725   4.439   8.663  0.8598 -1.5001  0.6943
 7005TIP3   OH242649   5.386   6.587   3.492  0.0995 -0.6011  0.2798
 7005TIP3    H142650   5.396   6.642   3.570  0.2083  0.1401 -0.2460
 7005TIP3    H242651   5.376   6.649   3.420  1.5194 -1.2328 -0.5119
 7006TIP3   OH242652   1.545   5.078   3.021 -0.7310  0.1980 -0.2110
 7006TIP3    H142653   1.547   4.982   3.025  0.8361  0.1659 -0.9834
 7006TIP3    H242654   1.471   5.098   2.963 -1.0972 -0.5368 -0.0090
 7007TIP3   OH242655   5.138   0.773   0.892  0.3658  0.1000  0.0957
 7007TIP3    H142656   5.177   0.841   0.838 -1.9835  2.4590  1.1330
 7007TIP3    H242657   5.069   0.818   0.941 -2.1530 -3.2718  0.0097
 7008TIP3   OH242658   3.284   3.138   2.045  0.1032  0.5076 -0.3124
 7008TIP3    H142659   3.272   3.045   2.025  1.2466  0.5313 -1.1635
 7008TIP3    H242660   3.196   3.175   2.039 -0.8870 -0.9847  2.7423
 7009TIP3   OH242661   2.466   2.129   0.286  0.3662 -0.0348 -0.1233
 7009TIP3    H142662   2.499   2.051   0.331  1.2998 -0.6872 -1.8448
 7009TIP3    H242663   2.545   2.179   0.263 -0.0889  0.3286 -0.9302
 7010TIP3   OH242664   1.760   3.323   0.163  0.0002  0.1604  0.0198
 7010TIP3    H142665   1.749   3.291   0.253  1.2981  1.2126  0.5771
 7010TIP3    H242666   1.786   3.245   0.113  0.3202 -0.2243  0.7737
 7011TIP3   OH242667   3.725   1.794   2.825 -0.1877  0.1284 -0.4926
 7011TIP3    H142668   3.696   1.831   2.742  0.1785 -0.6676 -0.9857
 7011TIP3    H242669   3.817   1.820   2.832 -0.7271  1.9311  0.6653
 7012TIP3   OH242670   4.519   5.404   8.042 -0.4500  0.2238 -0.4704
 7012TIP3    H142671   4.521   5.363   8.129  1.0887  0.6839 -0.2574
 7012TIP3    H242672   4.487   5.335   7.984  3.0461 -1.7909 -0.3087
 7013TIP3   OH242673   5.628   3.604   0.435 -0.5134 -0.3165  0.1758
 7013TIP3    H142674   5.711   3.565   0.408 -0.6158 -0.3572 -0.0844
 7013TIP3    H242675   5.587   3.537   0.490 -0.2400 -0.1765  0.5564
 7014TIP3   OH242676   0.528   2.200   2.164 -0.1658  0.0861 -0.5414
 7014TIP3    H142677   0.580   2.175   2.087 -1.1963 -0.1668 -1.1771
 7014TIP3    H242678   0.444   2.158   2.150 -0.9473  1.4565 -0.1293
 7015TIP3   OH242679   6.712   5.227   1.779 -0.5132 -0.2411 -0.0307
 7015TIP3    H142680   6.766   5.294   1.821 -1.3355 -0.4140  1.3560
 7015TIP3    H242681   6.622   5.255   1.795 -0.8560 -1.0115 -0.5528
 7016TIP3   OH242682   5.060   3.240   3.333 -0.1072  0.4942 -0.4295
 7016TIP3    H142683   5.103   3.158   3.358  0.6015  1.1001  0.3685
 7016TIP3    H242684   5.017   3.271   3.412  1.3932  1.9592 -0.1360
 7017TIP3   OH242685   2.457   2.490   1.940  0.1897 -0.0580 -0.2621
 7017TIP3    H142686   2.527   2.493   1.875 -0.5066 -1.6478 -1.1634
 7017TIP3    H242687   2.486   2.425   2.004  0.5285  0.9473  0.6408
 7018TIP3   OH242688   4.403   6.703   1.161 -0.1050 -0.0972 -0.1281
 7018TIP3    H142689   4.447   6.751   1.231 -2.2786  0.6362  0.8252
 7018TIP3    H242690   4.457   6.718   1.083  1.6301  0.2085  1.0835
 7019TIP3   OH242691   2.884   4.838   3.071 -0.7802 -0.2544 -0.3336
 7019TIP3    H142692   2.977   4.826   3.088 -0.9225  0.9083  1.6401
 7019TIP3    H242693   2.841   4.786   3.139 -1.5547 -0.2152 -0.7870
 7020TIP3   OH242694   4.269   3.268   3.337  0.8387 -0.0505  0.7471
 7020TIP3    H142695   4.343   3.231   3.384  1.1188 -1.8861 -0.9880
 7020TIP3    H242696   4.207   3.195   3.329 -0.9910  1.3209  1.7781
 7021TIP3   OH242697   1.380   3.942   0.800 -0.2681  0.0622 -0.3796
 7021TIP3    H142698   1.311   4.009   0.797  0.6678  1.0542 -0.3668
 7021TIP3    H242699   1.414   3.940   0.711 -1.0391 -1.2287 -0.6642
 7022TIP3   OH242700   0.409   4.361   8.550 -0.2444 -0.4424  0.4011
 7022TIP3    H142701   0.498   4.361   8.515 -1.0998  0.0391 -1.9317
 7022TIP3    H242702   0.369   4.441   8.515 -1.7529 -0.8911  0.9852
 7023TIP3   OH242703   4.490   1.722   0.223  0.0604  0.2549  0.3093
 7023TIP3    H142704   4.454   1.732   0.135 -1.8542 -0.3458  0.9777
 7023TIP3    H242705   4.508   1.628   0.230  2.7496  0.6345 -0.3155
 7024TIP3   OH242706   1.094   3.621   3.069  0.1792 -0.7383 -0.1277
 7024TIP3    H142707   1.074   3.531   3.042 -1.9658 -0.3929  0.1077
 7024TIP3    H242708   1.048   3.632   3.152  0.6444  0.4998 -0.0191
 7025TIP3   OH242709   5.290   5.931   0.498 -0.0648  1.1096  0.3520
 7025TIP3    H142710   5.211   5.980   0.481  0.0320  0.2703 -3.2342
 7025TIP3    H242711   5.329   5.973   0.575 -1.1962  5.0393 -1.0249
 7026TIP3   OH242712   2.091   0.092   0.807 -0.5973 -0.5644 -0.8380
 7026TIP3    H142713   2.182   0.065   0.793 -0.8609 -1.1885 -1.3573
 7026TIP3    H242714   2.093   0.137   0.892 -0.0663 -1.8725 -0.1221
 7027TIP3   OH242715   4.508   3.145   0.174 -0.1452  0.0224 -0.0030
 7027TIP3    H142716   4.428   3.144   0.122  0.9868  0.8930 -1.8728
 7027TIP3    H242717   4.518   3.237   0.201  1.2454  0.3783 -1.5592
 7028TIP3   OH242718   3.266   2.972   3.050  0.0475  0.1586 -0.1755
 7028TIP3    H142719   3.359   2.985   3.032  0.3855 -0.8375  0.7223
 7028TIP3    H242720   3.249   3.027   3.127  0.4104 -1.1765  0.9022
 7029TIP3   OH242721   4.142   1.455   8.621  0.3425  0.5144 -0.4855
 7029TIP3    H142722   4.111   1.370   8.653  1.0801  0.0147 -1.0677
 7029TIP3    H242723   4.232   1.439   8.593  0.1438  1.2288 -1.5993
 7030TIP3   OH242724   6.586   1.046   8.382  0.1765 -0.5817 -0.2309
 7030TIP3    H142725   6.605   1.060   8.475  2.5007 -2.4208 -0.3337
 7030TIP3    H242726   6.492   1.033   8.378 -0.2849  1.6146  1.5318
 7031TIP3   OH242727   6.478   3.182   1.872 -0.0591 -0.5658 -0.0084
 7031TIP3    H142728   6.565   3.189   1.833  0.0669 -1.0189  0.1796
 7031TIP3    H242729   6.490   3.122   1.947 -0.4360 -0.2723  0.2933
 7032TIP3   OH242730   4.157   2.389   1.901  0.1443  0.4145  0.1857
 7032TIP3    H142731   4.213   2.354   1.831 -1.5104 -0.2204 -0.8705
 7032TIP3    H242732   4.158   2.484   1.886  2.8190  0.7367  1.6798
 7033TIP3   OH242733   4.514   3.827   2.536  0.3437 -0.0338  0.5026
 7033TIP3    H142734   4.593   3.880   2.526  0.9186 -0.7318  1.1534
 7033TIP3    H242735   4.473   3.826   2.450  0.2406  1.5660  0.5144
 7034TIP3   OH242736   4.118   1.340   2.365 -0.0515  0.4972  0.3442
 7034TIP3    H142737   4.158   1.330   2.278 -0.0637  2.3035  0.1100
 7034TIP3    H242738   4.190   1.326   2.426 -0.0723 -0.9422  0.0850
 7035TIP3   OH242739   5.764   3.351   1.587  0.2379  0.4945  0.0727
 7035TIP3    H142740   5.685   3.387   1.626  0.4654  1.2793 -0.1692
 7035TIP3    H242741   5.754   3.366   1.493  0.0341 -0.7025 -0.1078
 7036TIP3   OH242742   3.503   3.694   2.986  0.2785  1.0837 -0.1014
 7036TIP3    H142743   3.432   3.630   2.986  1.1419  0.0591  1.4249
 7036TIP3    H242744   3.547   3.682   2.902 -0.3704  0.5830 -0.3740
 7037TIP3   OH242745   2.035   3.188   8.272 -0.3479 -0.1337 -0.0968
 7037TIP3    H142746   2.106   3.166   8.211 -0.7255 -0.3112 -0.4766
 7037TIP3    H242747   2.004   3.104   8.304  0.1294 -0.0241  0.6746
 7038TIP3   OH242748   4.559   2.270   3.140 -0.0381  0.6464  0.2947
 7038TIP3    H142749   4.492   2.209   3.109  1.6541 -1.3784  0.3810
 7038TIP3    H242750   4.641   2.234   3.107  1.0218  3.2486 -0.1408
 7039TIP3   OH242751   1.117   3.230   3.706 -0.2466  0.0292  0.2463
 7039TIP3    H142752   1.078   3.201   3.788 -1.2501 -1.5223 -0.7096
 7039TIP3    H242753   1.045   3.269   3.657  0.3695  1.0781  0.1483
 7040TIP3   OH242754   0.645   2.599   7.523 -0.6614  0.0632 -0.3178
 7040TIP3    H142755   0.596   2.603   7.441  0.4850  1.5032 -0.9885
 7040TIP3    H242756   0.729   2.639   7.502  1.0073 -2.6425  0.6877
 7041TIP3   OH242757   5.148   2.630   2.311  0.4077  0.1670  0.1288
 7041TIP3    H142758   5.071   2.624   2.255 -2.6758  2.1352  3.6354
 7041TIP3    H242759   5.179   2.720   2.300  1.5817 -0.2855 -0.4409
 7042TIP3   OH242760   2.201   2.624   0.715 -0.3699  0.8171  0.7611
 7042TIP3    H142761   2.139   2.570   0.666 -0.7241 -1.1352  3.1831
 7042TIP3    H242762   2.156   2.708   0.726 -1.9326 -0.0289  1.1020
 7043TIP3   OH242763   5.393   5.840   1.026 -0.2422  0.1545 -0.1865
 7043TIP3    H142764   5.448   5.812   0.953 -0.4608  1.2356 -0.7882
 7043TIP3    H242765   5.452   5.894   1.080 -0.5265  0.7984 -0.5034
 7044TIP3   OH242766   3.357   6.041   1.135 -0.1692 -0.1827  0.3291
 7044TIP3    H142767   3.406   6.071   1.058  1.7333 -2.0045  0.7356
 7044TIP3    H242768   3.316   6.120   1.169  1.2859  1.2030 -0.9299
 7045TIP3   OH242769   1.822   0.371   1.056 -0.1069 -0.2605 -0.1512
 7045TIP3    H142770   1.902   0.383   1.106 -0.7468  2.5715  0.3192
 7045TIP3    H242771   1.848   0.381   0.964  0.2621 -0.6895 -0.0976
 7046TIP3   OH242772   4.353   5.344   8.312  0.5289 -0.3217 -0.1733
 7046TIP3    H142773   4.265   5.326   8.279  0.7678 -0.8821 -0.5070
 7046TIP3    H242774   4.342   5.348   8.408  0.1671 -0.5156 -0.2040
 7047TIP3   OH242775   5.099   0.644   1.219  0.2603 -0.7656 -0.1557
 7047TIP3    H142776   5.063   0.713   1.163  1.1828 -1.1275 -1.1993
 7047TIP3    H242777   5.098   0.683   1.307  1.2320  0.7775 -0.7917
 7048TIP3   OH242778   4.582   6.167   7.951 -0.4375  0.0097  0.0426
 7048TIP3    H142779   4.647   6.165   8.021 -1.5683  1.0163  1.1474
 7048TIP3    H242780   4.515   6.105   7.978 -0.1675 -0.7143 -0.8942
 7049TIP3   OH242781   1.000   1.095   0.887 -0.3248 -0.1062 -0.3625
 7049TIP3    H142782   1.069   1.127   0.830  0.1409 -0.2049  0.1323
 7049TIP3    H242783   0.921   1.138   0.856  0.2163  1.2459  0.0448
 7050TIP3   OH242784   6.261   2.244   8.599  0.0335  0.3885 -0.1093
 7050TIP3    H142785   6.338   2.296   8.577  1.1717  0.1921  2.8986
 7050TIP3    H242786   6.293   2.154   8.599 -0.2557  0.2768  0.8432
 7051TIP3   OH242787   1.365   2.669   3.766 -0.3136 -0.2542 -0.0724
 7051TIP3    H142788   1.444   2.619   3.788 -1.8247 -3.5454 -1.4999
 7051TIP3    H242789   1.328   2.624   3.690 -2.9613  1.8851 -0.2126
 7052TIP3   OH242790   6.805   3.989   7.559 -0.0881  0.2060  0.1988
 7052TIP3    H142791   6.742   4.059   7.543 -0.7315 -0.4977 -0.4403
 7052TIP3    H242792   6.752   3.909   7.563  0.8145 -0.5236 -1.2890
 7053TIP3   OH242793   0.687   2.079   7.792 -0.1563  0.3530 -0.3472
 7053TIP3    H142794   0.598   2.086   7.757 -0.5127 -1.4268  0.0900
 7053TIP3    H242795   0.735   2.029   7.726 -0.0982 -0.6099  0.3955
 7054TIP3   OH242796   5.620   4.816   7.771  0.0425 -0.1236 -0.2474
 7054TIP3    H142797   5.564   4.875   7.721  1.1640 -0.5861 -2.1336
 7054TIP3    H242798   5.604   4.729   7.734 -1.2889 -1.0428  2.2273
 7055TIP3   OH242799   0.131   4.009   7.773  0.2379 -0.3191 -0.0337
 7055TIP3    H142800   0.086   3.965   7.701  1.1499 -1.2877 -0.0402
 7055TIP3    H242801   0.223   3.987   7.761  0.6204  0.9020  0.4733
 7056TIP3   OH242802   3.725   4.111   0.763 -0.0872  0.1060 -0.4992
 7056TIP3    H142803   3.658   4.133   0.828  0.0056 -1.0996  0.0373
 7056TIP3    H242804   3.786   4.184   0.767  1.5432 -1.1923  3.0263
 7057TIP3   OH242805   1.686   0.699   3.416 -0.0916 -0.1394 -0.1778
 7057TIP3    H142806   1.617   0.637   3.440  0.7141 -2.3213 -2.9366
 7057TIP3    H242807   1.768   0.653   3.439  0.5037  0.3214 -1.3218
 7058TIP3   OH242808   3.115   1.427   1.565 -0.0838  0.2045  0.0994
 7058TIP3    H142809   3.027   1.395   1.585 -1.2478  1.5992 -2.3536
 7058TIP3    H242810   3.142   1.473   1.645 -1.4756 -0.4173  0.9709
 7059TIP3   OH242811   1.274   6.278   4.264  0.3559  0.1069  0.2704
 7059TIP3    H142812   1.219   6.355   4.249 -0.4393 -0.5123 -0.1180
 7059TIP3    H242813   1.238   6.238   4.343 -0.1811 -0.6444 -0.3351
 7060TIP3   OH242814   5.801   1.803   3.228  0.8727  0.1469  0.5618
 7060TIP3    H142815   5.871   1.765   3.174  1.6258  1.4353  0.5888
 7060TIP3    H242816   5.813   1.897   3.219 -0.1018  0.3805  1.5800
 7061TIP3   OH242817   5.889   3.773   1.239 -0.2721  0.0151  0.4052
 7061TIP3    H142818   5.803   3.794   1.275 -0.7556  0.1345 -0.7499
 7061TIP3    H242819   5.870   3.732   1.154  0.7837 -1.0605  0.6623
 7062TIP3   OH242820   4.930   5.218   2.678 -1.0666  0.3152 -0.2268
 7062TIP3    H142821   4.924   5.257   2.591  0.7074 -0.1471 -0.5936
 7062TIP3    H242822   4.952   5.292   2.735  1.7690  0.0452 -0.8411
 7063TIP3   OH242823   5.878   6.804   1.276 -0.1589 -0.0733  0.2452
 7063TIP3    H142824   5.865   6.788   1.182 -0.9410 -0.7710  0.4592
 7063TIP3    H242825   5.888   6.717   1.314 -1.2738  0.1059  1.0010
 7064TIP3   OH242826   2.477   6.527   8.169 -0.2299  0.2568  0.1794
 7064TIP3    H142827   2.536   6.540   8.095 -1.8371  0.6689 -1.0946
 7064TIP3    H242828   2.451   6.435   8.163  1.0855 -0.2205  1.3935
 7065TIP3   OH242829   4.752   4.918   2.549  0.1955  0.1452 -0.1843
 7065TIP3    H142830   4.748   4.846   2.612  0.0786  0.9174  0.7035
 7065TIP3    H242831   4.816   4.889   2.484 -1.9226 -2.0420 -1.4898
 7066TIP3   OH242832   1.725   4.752   0.865 -0.2493  0.1949  0.8320
 7066TIP3    H142833   1.671   4.770   0.942 -0.3213 -1.3908  1.1747
 7066TIP3    H242834   1.799   4.701   0.899  0.2221  0.2859 -0.0153
 7067TIP3   OH242835   4.830   3.728   8.320  1.0288 -0.3073 -0.5884
 7067TIP3    H142836   4.926   3.727   8.319  1.0576  0.1055 -2.3529
 7067TIP3    H242837   4.805   3.638   8.297  0.9271 -0.8186  1.3317
 7068TIP3   OH242838   1.739   3.213   8.653 -0.2282  0.1962  0.3699
 7068TIP3    H142839   1.698   3.126   8.660  0.7314 -0.7320 -3.3114
 7068TIP3    H242840   1.809   3.211   8.718 -0.7421 -1.4786  0.9427
 7069TIP3   OH242841   4.541   5.199   3.507 -0.3188  0.4402  0.1312
 7069TIP3    H142842   4.570   5.290   3.508  0.6518  0.1718 -1.0378
 7069TIP3    H242843   4.588   5.158   3.579  0.7440  0.4505 -0.5381
 7070TIP3   OH242844   0.056   5.074   0.069 -0.1022  0.1689  0.2204
 7070TIP3    H142845   0.082   5.165   0.080 -0.1557  0.3862 -1.1952
 7070TIP3    H242846   0.112   5.025   0.129  0.4831  1.0563  0.4208
 7071TIP3   OH242847   0.478   0.429   2.075  0.1668 -0.3805  0.3055
 7071TIP3    H142848   0.482   0.337   2.102  1.1470 -0.2079  0.8335
 7071TIP3    H242849   0.514   0.477   2.150  1.7364  0.2341 -0.7797
 7072TIP3   OH242850   5.259   4.800   0.123  0.1456 -0.0012 -0.2582
 7072TIP3    H142851   5.321   4.787   0.194 -0.3491 -0.8428  0.0383
 7072TIP3    H242852   5.298   4.756   0.048 -0.7973 -1.9694  0.3396
 7073TIP3   OH242853   5.371   2.938   0.775 -0.5106 -0.2387  0.7640
 7073TIP3    H142854   5.356   2.974   0.862  0.9625  1.1120  0.4988
 7073TIP3    H242855   5.325   2.998   0.716  1.4601  0.9734  0.3684
 7074TIP3   OH242856   2.978   1.938   2.415  0.3872  0.6088  0.0087
 7074TIP3    H142857   2.966   1.846   2.438  1.7753  0.5681  0.6932
 7074TIP3    H242858   2.895   1.965   2.375  0.6098 -1.4642 -2.0336
 7075TIP3   OH242859   1.258   3.570   0.001  0.6031 -0.0001 -0.9427
 7075TIP3    H142860   1.199   3.571   0.077  0.6112 -0.9174 -0.9121
 7075TIP3    H242861   1.345   3.558   0.039  0.8346  1.4395 -0.9829
 7076TIP3   OH242862   5.581   4.226   3.838  0.2699 -0.3249  1.1699
 7076TIP3    H142863   5.646   4.286   3.803  0.2653 -0.5964  0.6925
 7076TIP3    H242864   5.631   4.164   3.891  0.2578  0.1810  1.7905
 7077TIP3   OH242865   5.434   0.820   0.954 -0.3875  0.2959 -0.1966
 7077TIP3    H142866   5.367   0.796   0.889 -1.5769  1.7461  0.4450
 7077TIP3    H242867   5.385   0.848   1.031  0.9481 -3.0641  2.1350
 7078TIP3   OH242868   1.143   1.977   1.927 -0.6611  0.2997 -1.1530
 7078TIP3    H142869   1.066   1.934   1.963  0.6948  0.0520  1.7826
 7078TIP3    H242870   1.113   2.066   1.905 -1.6493  0.4706  0.6975
 7079TIP3   OH242871   4.457   2.456   0.113 -0.3631  0.0043  1.0731
 7079TIP3    H142872   4.461   2.399   0.190  2.4875 -0.8673  0.3852
 7079TIP3    H242873   4.524   2.522   0.129  0.4924 -0.3650 -0.7281
 7080TIP3   OH242874   4.828   1.660   2.835 -0.2307  0.4265 -0.3838
 7080TIP3    H142875   4.880   1.580   2.841 -0.0968  0.5562  0.3927
 7080TIP3    H242876   4.738   1.630   2.829 -0.2410  0.2055  0.6499
 7081TIP3   OH242877   2.250   5.543   3.836 -0.4799  0.4579 -0.3725
 7081TIP3    H142878   2.317   5.477   3.856 -1.0323  0.3302  1.2274
 7081TIP3    H242879   2.226   5.526   3.745 -0.9280 -1.8758  0.1021
 7082TIP3   OH242880   4.513   0.583   8.722  0.6213  0.5723  0.1629
 7082TIP3    H142881   4.542   0.632   8.799 -0.7609  1.2409  0.2718
 7082TIP3    H242882   4.533   0.492   8.744  2.1978  0.9325  0.4064
 7083TIP3   OH242883   6.224   5.438   0.928 -0.0383 -0.0387  0.4282
 7083TIP3    H142884   6.220   5.354   0.884  1.3408 -0.3093  0.7725
 7083TIP3    H242885   6.222   5.503   0.858  2.0371 -0.4561 -0.0532
 7084TIP3   OH242886   1.250   0.766   8.137 -0.6397  0.0061  0.3303
 7084TIP3    H142887   1.269   0.808   8.053 -1.5411  0.1421  0.1801
 7084TIP3    H242888   1.286   0.678   8.128 -1.1611 -0.1503 -0.4002
 7085TIP3   OH242889   0.424   2.851   0.361  0.3237  0.2247  0.2658
 7085TIP3    H142890   0.494   2.841   0.296 -0.0116  0.2788 -0.1114
 7085TIP3    H242891   0.402   2.944   0.358 -0.4104  0.0405 -0.3086
 7086TIP3   OH242892   4.184   4.602   0.481  0.1966  0.3836 -0.0358
 7086TIP3    H142893   4.147   4.557   0.405 -0.5849  1.0738 -0.0808
 7086TIP3    H242894   4.250   4.542   0.515 -1.1678 -1.0351  0.2247
 7087TIP3   OH242895   4.234   4.068   2.487 -0.4166  0.0978  0.1438
 7087TIP3    H142896   4.154   4.085   2.537  0.0207  0.1824  0.8203
 7087TIP3    H242897   4.263   4.154   2.459  0.6048  0.3079  1.7272
 7088TIP3   OH242898   2.066   5.715   8.478  0.2007 -0.3703  0.3284
 7088TIP3    H142899   2.119   5.778   8.526 -0.6155 -0.0140  0.7835
 7088TIP3    H242900   2.125   5.642   8.460  1.2843  0.6632 -0.5380
 7089TIP3   OH242901   4.884   5.547   1.426  0.3421  0.3682  0.6208
 7089TIP3    H142902   4.923   5.610   1.365  0.6037  0.5004  0.9199
 7089TIP3    H242903   4.956   5.521   1.483  0.7032 -1.6248 -0.6439
 7090TIP3   OH242904   3.689   3.191   8.715 -0.0499 -0.8096  0.4530
 7090TIP3    H142905   3.720   3.267   8.764 -0.8096  1.1185 -1.8511
 7090TIP3    H242906   3.747   3.188   8.638 -0.8226 -1.7888 -0.1094
 7091TIP3   OH242907   6.503   5.418   1.816  0.3415  0.1235 -0.1360
 7091TIP3    H142908   6.574   5.482   1.818  0.9807 -0.5640  0.0342
 7091TIP3    H242909   6.478   5.408   1.908  2.1712 -1.9021  0.2246
 7092TIP3   OH242910   3.637   4.688   3.721 -0.2767 -0.0256  0.2449
 7092TIP3    H142911   3.591   4.772   3.721  0.6860  0.5288  1.3829
 7092TIP3    H242912   3.706   4.699   3.655  0.3345  0.3743  0.9366
 7093TIP3   OH242913   0.334   0.248   0.078  0.5418  0.2437 -0.9969
 7093TIP3    H142914   0.315   0.340   0.095  0.3263  0.2799 -1.4280
 7093TIP3    H242915   0.254   0.214   0.038  0.3359 -0.3267 -0.1238
 7094TIP3   OH242916   1.509   6.302   7.907  0.2229  0.0909  0.3979
 7094TIP3    H142917   1.604   6.310   7.921  0.5953 -2.0455 -0.5885
 7094TIP3    H242918   1.490   6.367   7.839  0.6846  1.5035  1.5554
 7095TIP3   OH242919   5.615   5.683   0.479  0.5294 -0.1008 -0.4539
 7095TIP3    H142920   5.702   5.719   0.498  1.0477 -1.6635  0.3290
 7095TIP3    H242921   5.627   5.589   0.486 -1.0920 -0.3682 -1.0167
 7096TIP3   OH242922   2.981   6.528   3.004 -0.4250 -0.9373  0.2602
 7096TIP3    H142923   2.966   6.622   3.019  1.4736 -0.2860 -1.4282
 7096TIP3    H242924   2.899   6.486   3.029 -1.5637  1.2555  0.4314
 7097TIP3   OH242925   1.563   0.430   3.272 -0.2201 -0.8150  0.6493
 7097TIP3    H142926   1.645   0.478   3.258 -1.4653  1.0501 -0.7000
 7097TIP3    H242927   1.519   0.478   3.342 -0.8368 -0.8723  0.3070
 7098TIP3   OH242928   0.414   1.467   1.568  0.3684 -0.0937 -0.3961
 7098TIP3    H142929   0.486   1.507   1.519 -1.9352  1.3086 -2.9293
 7098TIP3    H242930   0.414   1.513   1.652  3.6198 -1.6472  0.6416
 7099TIP3   OH242931   0.579   2.241   0.657 -0.9827 -0.7779 -0.1700
 7099TIP3    H142932   0.547   2.199   0.737 -1.1153  2.3961  1.6083
 7099TIP3    H242933   0.674   2.246   0.669 -1.1814  1.8212  1.0820
 7100TIP3   OH242934   6.800   0.406   3.205  0.1548  0.2328  0.2193
 7100TIP3    H142935   6.842   0.322   3.223 -0.0903 -0.2983 -1.4990
 7100TIP3    H242936   6.750   0.426   3.284 -0.2573 -1.5314  0.4349
 7101TIP3   OH242937   1.620   0.995   2.730 -0.1706  0.3435 -0.4530
 7101TIP3    H142938   1.544   0.953   2.688  0.1205  0.1599 -0.8028
 7101TIP3    H242939   1.582   1.064   2.784 -0.8053 -1.4037  1.4551
 7102TIP3   OH242940   5.565   0.471   1.465  0.2971 -0.2561  0.4674
 7102TIP3    H142941   5.492   0.426   1.507 -0.6922  0.2335 -0.6489
 7102TIP3    H242942   5.632   0.403   1.454 -2.0029 -2.2854 -3.3018
 7103TIP3   OH242943   3.824   6.212   2.685  0.5553 -0.8057 -0.8965
 7103TIP3    H142944   3.793   6.210   2.594 -1.4206 -1.1792 -0.2762
 7103TIP3    H242945   3.867   6.128   2.698  0.6140 -0.8592 -1.4150
 7104TIP3   OH242946   5.158   0.031   0.709 -0.0625  0.1443  0.3560
 7104TIP3    H142947   5.090   0.072   0.656 -0.9663 -0.0074  1.3515
 7104TIP3    H242948   5.185  -0.046   0.659 -1.2686 -0.2931  0.3393
 7105TIP3   OH242949   4.549   2.406   1.836  0.6978  0.0375 -0.0700
 7105TIP3    H142950   4.466   2.380   1.798  0.1439  0.8640  0.5516
 7105TIP3    H242951   4.532   2.490   1.879  1.1847 -0.9758  2.2901
 7106TIP3   OH242952   3.597   4.400   1.445 -0.4073 -0.2151 -0.2400
 7106TIP3    H142953   3.528   4.425   1.506 -0.9453 -1.5374 -0.2580
 7106TIP3    H242954   3.651   4.338   1.495  1.4395  1.6136  0.1373
 7107TIP3   OH242955   2.595   5.814   3.007 -0.4440  0.7762 -0.0541
 7107TIP3    H142956   2.663   5.877   3.031  1.0993 -1.4238  1.8509
 7107TIP3    H242957   2.628   5.772   2.927 -0.2256  0.6432  0.1054
 7108TIP3   OH242958   0.613   6.742   1.783  0.2743 -0.0748  0.3039
 7108TIP3    H142959   0.518   6.744   1.776  0.0190 -1.2104  2.4924
 7108TIP3    H242960   0.637   6.652   1.758  0.1899 -1.3165  4.0310
 7109TIP3   OH242961   6.299   6.192   3.530 -0.7825 -0.4259  0.2586
 7109TIP3    H142962   6.210   6.224   3.517 -0.5218 -0.2113 -1.0855
 7109TIP3    H242963   6.351   6.271   3.543 -0.8881 -0.5870  1.8995
 7110TIP3   OH242964   2.900   1.564   2.054  0.0154 -0.2906 -0.0622
 7110TIP3    H142965   2.845   1.516   2.116 -2.0554  0.7753 -0.9896
 7110TIP3    H242966   2.937   1.636   2.105 -2.8536  1.4742 -0.2557
 7111TIP3   OH242967   2.792   4.493   0.290 -0.2906 -0.1652  0.3156
 7111TIP3    H142968   2.833   4.579   0.284 -0.3882 -0.1106  0.4400
 7111TIP3    H242969   2.865   4.432   0.302 -0.2433 -0.0704  0.5126
 7112TIP3   OH242970   0.296   6.208   0.954  0.0567  0.0664 -0.5108
 7112TIP3    H142971   0.313   6.114   0.950  0.3544  0.1201 -0.5213
 7112TIP3    H242972   0.218   6.221   0.901 -0.3792 -0.2686  0.0333
 7113TIP3   OH242973   2.183   3.916   8.641  0.0041 -0.2663 -0.4836
 7113TIP3    H142974   2.277   3.896   8.645  0.0010 -0.2386 -0.2335
 7113TIP3    H242975   2.166   3.931   8.548  0.0254 -1.2874 -0.6565
 7114TIP3   OH242976   2.899   3.441   4.327  0.9358 -0.0838 -0.4105
 7114TIP3    H142977   2.819   3.494   4.323  2.0779  1.8524  0.8422
 7114TIP3    H242978   2.925   3.431   4.235  0.3036  0.9843 -0.7319
 7115TIP3   OH242979   3.786   6.457   0.341 -0.3487  0.4108 -0.0299
 7115TIP3    H142980   3.721   6.387   0.332  0.9462 -0.9548  0.6368
 7115TIP3    H242981   3.746   6.533   0.300 -0.9460 -1.2918 -2.8830
 7116TIP3   OH242982   5.682   1.586   3.013 -0.1331  0.2623  0.3654
 7116TIP3    H142983   5.670   1.527   2.938  1.0287 -0.5636  0.8004
 7116TIP3    H242984   5.765   1.630   2.995 -0.1260  0.4695  0.8960
 7117TIP3   OH242985   2.876   1.720   2.769  0.1273 -0.3477 -0.1191
 7117TIP3    H142986   2.939   1.791   2.784  0.8601 -0.6416 -1.6112
 7117TIP3    H242987   2.812   1.756   2.708 -0.3204 -0.5232  0.2395
 7118TIP3   OH242988   4.140   2.837   2.783  0.4141 -0.3217 -0.1829
 7118TIP3    H142989   4.158   2.800   2.869 -0.9429  0.4255  0.4645
 7118TIP3    H242990   4.089   2.916   2.802  1.5967  0.8330 -1.6019
 7119TIP3   OH242991   1.269   0.097   3.347 -0.0072 -0.5179  0.4836
 7119TIP3    H142992   1.334   0.140   3.293 -2.4928  2.1408 -0.6098
 7119TIP3    H242993   1.280   0.136   3.434  0.4736 -0.8086  0.5563
 7120TIP3   OH242994   1.919   2.244   1.983 -0.6736 -0.6399 -0.1930
 7120TIP3    H142995   1.905   2.316   1.921 -0.2985 -1.7270 -1.6135
 7120TIP3    H242996   1.872   2.271   2.062 -0.1442  1.3539 -0.5008
 7121TIP3   OH242997   1.538   5.589   0.929 -0.2665  0.1144  0.1253
 7121TIP3    H142998   1.620   5.547   0.904 -0.1964  0.4940 -0.2981
 7121TIP3    H242999   1.518   5.648   0.857 -0.3574  0.8174  0.7082
 7122TIP3   OH243000   6.452   5.231   0.315 -0.4012  0.0608  0.7801
 7122TIP3    H143001   6.398   5.245   0.237  0.6513 -3.3274 -0.7425
 7122TIP3    H243002   6.398   5.176   0.372  0.3829 -1.1060  0.4378
 7123TIP3   OH243003   1.272   0.655   2.131 -0.6446 -0.8392  0.0825
 7123TIP3    H143004   1.359   0.692   2.141 -0.5573 -1.6102  3.2991
 7123TIP3    H243005   1.224   0.720   2.080  0.4991  1.9860  2.3446
 7124TIP3   OH243006   4.908   4.705   0.973 -0.1422  0.0051  0.3809
 7124TIP3    H143007   4.859   4.778   0.935  0.5134  0.1029 -0.3064
 7124TIP3    H243008   4.967   4.677   0.903  1.4144  0.4491  1.4642
 7125TIP3   OH243009   4.829   6.425   3.170 -0.2971 -0.3496 -0.0901
 7125TIP3    H143010   4.873   6.393   3.248 -0.7578  1.3094  0.9235
 7125TIP3    H243011   4.846   6.359   3.103 -0.5248 -2.2182  1.5941
 7126TIP3   OH243012   2.558   4.014   1.782 -0.5794 -0.4868 -0.0972
 7126TIP3    H143013   2.537   4.038   1.691  0.4791 -0.8856 -0.4589
 7126TIP3    H243014   2.635   4.066   1.803  0.8222 -2.3668 -0.3718
 7127TIP3   OH243015   6.379   4.814   8.203  0.1922 -0.6896  0.3185
 7127TIP3    H143016   6.332   4.758   8.265  1.0273 -1.1073  0.5919
 7127TIP3    H243017   6.405   4.890   8.254  0.9559 -1.0743  0.5144
 7128TIP3   OH243018   3.309   2.478   2.106 -0.1624 -0.2003 -0.3887
 7128TIP3    H143019   3.293   2.535   2.031  0.5330  0.9809  0.3330
 7128TIP3    H243020   3.404   2.466   2.108 -0.2214 -0.6457  0.0075
 7129TIP3   OH243021   5.462   4.146   2.363  0.1435 -0.2122 -0.1333
 7129TIP3    H143022   5.407   4.089   2.417 -0.1604  0.5443  0.3667
 7129TIP3    H243023   5.449   4.114   2.274  1.4716 -2.1725  0.2955
 7130TIP3   OH243024   3.109   5.235   1.061  0.4702  0.0576 -0.3454
 7130TIP3    H143025   3.020   5.215   1.091 -0.2892 -1.3580 -3.1898
 7130TIP3    H243026   3.150   5.149   1.052  1.9857  0.6757  0.4061
 7131TIP3   OH243027   4.121   1.089   8.420  0.0899  0.0264  0.0516
 7131TIP3    H143028   4.142   0.996   8.419  1.9094  0.3126 -3.0848
 7131TIP3    H243029   4.197   1.130   8.461  0.5233  0.2757 -0.9731
 7132TIP3   OH243030   3.206   4.649   2.196  0.6127  0.3657 -0.1038
 7132TIP3    H143031   3.265   4.701   2.142  0.6114 -0.0748 -0.5451
 7132TIP3    H243032   3.156   4.597   2.133 -1.7112  2.1929  0.1104
 7133TIP3   OH243033   5.314   2.319   2.052 -1.0944 -0.2304  0.0267
 7133TIP3    H143034   5.219   2.327   2.044 -1.3305 -1.8675  0.6935
 7133TIP3    H243035   5.341   2.396   2.101 -2.2570 -0.3455  0.8752
 7134TIP3   OH243036   2.161   5.393   2.832  0.3114 -0.1038  0.6102
 7134TIP3    H143037   2.144   5.316   2.886 -4.0760  1.1987  1.5352
 7134TIP3    H243038   2.115   5.375   2.750  4.2754 -0.7421 -1.7540
 7135TIP3   OH243039   1.246   4.346   1.232 -0.2129  0.2869  0.0874
 7135TIP3    H143040   1.280   4.348   1.321  3.3137 -1.3517 -1.0407
 7135TIP3    H243041   1.201   4.261   1.226  1.8184 -0.8191 -0.3225
 7136TIP3   OH243042   0.530   6.438   2.027 -0.6655  0.6388  0.0452
 7136TIP3    H143043   0.621   6.421   2.001 -1.1156  0.1308 -1.2935
 7136TIP3    H243044   0.509   6.523   1.987 -1.1481  0.1792 -0.7058
 7137TIP3   OH243045   0.300   1.788   3.172 -0.1570  0.2480 -0.4958
 7137TIP3    H143046   0.223   1.841   3.193  0.0958  0.5139 -0.2428
 7137TIP3    H243047   0.315   1.736   3.251 -0.2267  0.0124 -0.6366
 7138TIP3   OH243048   3.992   4.656   2.664 -0.0007 -0.1505 -0.0652
 7138TIP3    H143049   4.015   4.569   2.634  0.9287 -0.1266  0.5095
 7138TIP3    H243050   4.073   4.706   2.655 -0.1554  0.2892  0.8612
 7139TIP3   OH243051   1.769   2.444   0.842  0.1481  0.1499 -0.1838
 7139TIP3    H143052   1.823   2.478   0.770  0.5654  0.5358  0.3022
 7139TIP3    H243053   1.825   2.453   0.919  0.7503 -2.6538 -0.1552
 7140TIP3   OH243054   2.913   1.729   1.815  0.1032  0.3818  0.2086
 7140TIP3    H143055   2.934   1.694   1.902 -0.0780 -1.3400 -0.4148
 7140TIP3    H243056   2.998   1.738   1.772  0.1345  0.5477  0.3030
 7141TIP3   OH243057   0.545   6.852   2.515 -0.2434 -0.6084  0.6872
 7141TIP3    H143058   0.462   6.816   2.545 -1.0247  0.9066  0.4605
 7141TIP3    H243059   0.599   6.858   2.594 -0.6663 -0.8097  0.9939
 7142TIP3   OH243060   4.764   4.251   8.134 -0.0689  0.1321  0.0953
 7142TIP3    H143061   4.751   4.163   8.098  0.0784 -0.5419  1.6125
 7142TIP3    H243062   4.675   4.283   8.150 -0.1388  0.4791 -0.9248
 7143TIP3   OH243063   2.361   6.647   2.554 -0.3709 -0.7943  0.2850
 7143TIP3    H143064   2.385   6.739   2.571 -0.6750 -0.8902  1.3175
 7143TIP3    H243065   2.275   6.637   2.596 -0.4587 -1.4862 -0.0494
 7144TIP3   OH243066   1.311   4.738   0.111  0.2212  0.5043 -0.5402
 7144TIP3    H143067   1.282   4.816   0.063  0.6130 -0.2215 -2.0059
 7144TIP3    H243068   1.400   4.722   0.079  0.7204  0.3260  0.8750
 7145TIP3   OH243069   0.087   4.470   2.631 -0.1673  0.4567 -0.1050
 7145TIP3    H143070   0.069   4.508   2.545  0.3296 -0.6258 -0.7070
 7145TIP3    H243071   0.173   4.428   2.621 -0.6313 -0.6943  0.5584
 7146TIP3   OH243072   6.821   1.125   1.375 -0.2783 -0.5832  0.2832
 7146TIP3    H143073   6.815   1.110   1.470  2.1928 -0.4313  0.5410
 7146TIP3    H243074   6.883   1.197   1.367  0.0318 -1.0145 -1.4674
 7147LIG     O143075   6.535   2.684   6.253 -0.6490 -0.1635 -0.6976
 7147LIG     O243076   6.666   2.899   6.162 -0.8603  0.0322 -0.1240
 7147LIG     O343077   6.665   2.640   6.547 -0.4289  0.3205 -0.0808
 7147LIG     O443078   6.544   3.086   6.125  0.2287  0.2857 -0.1708
 7147LIG     O543079   6.489   3.067   6.430 -0.2665 -0.2742 -0.4859
 7147LIG     O643080   6.814   3.141   6.443  0.5924  0.0380 -0.1995
 7147LIG     O743081   6.830   3.302   6.214  0.1999  0.1825  0.2323
 7147LIG     O843082   6.627   3.208   5.867 -0.5845 -0.1884 -0.0714
 7147LIG     O943083   6.831   3.133   5.936 -0.0795  0.1123 -0.0567
 7147LIG      N43084   6.674   2.316   5.928  0.3207  1.0908  0.1071
 7147LIG     C143085   6.614   2.560   6.069 -0.1428  0.1336  0.0155
 7147LIG     C243086   6.701   2.571   5.940  0.0678  0.9757  0.9363
 7147LIG     C343087   6.544   2.685   6.107 -0.4325 -0.2127  0.4001
 7147LIG     C443088   6.771   2.428   5.938  0.2917  0.7382 -0.3258
 7147LIG     C543089   6.513   2.435   6.070 -0.9133 -0.3610 -0.0879
 7147LIG     C643090   6.701   2.536   6.187 -0.3364  0.1829 -0.3947
 7147LIG     C743091   6.870   2.396   6.063 -0.3749 -0.0250 -0.1162
 7147LIG     C843092   6.588   2.300   6.050  0.0428  0.9516 -0.2152
 7147LIG     C943093   6.624   2.818   6.055  0.3634  0.2046 -0.3421
 7147LIG    C1043094   6.829   2.467   6.186  0.0440 -0.1291 -0.9385
 7147LIG    C1143095   6.799   2.686   5.948 -0.6421 -0.0064 -0.3326
 7147LIG    C1243096   6.644   2.609   6.295 -0.2385  0.1514  0.1021
 7147LIG    C1343097   6.755   2.805   5.991 -0.7714 -0.0491 -0.1396
 7147LIG    C1443098   6.596   2.303   5.800  0.1991 -0.0981 -0.4530
 7147LIG    C1543099   6.890   2.452   6.316 -0.0441  0.0796  0.6457
 7147LIG    C1643100   6.717   2.601   6.421 -0.1957  0.9309  0.8114
 7147LIG    C1743101   6.829   2.518   6.422 -0.4706  0.1685 -0.7571
 7147LIG    C1843102   6.568   2.982   6.218  0.2983 -0.1221 -0.0620
 7147LIG    C1943103   6.609   3.031   6.358  0.3783 -0.2097 -0.0106
 7147LIG    C2043104   6.707   3.157   6.352  0.1189  0.0355  0.3134
 7147LIG    C2143105   6.763   3.175   6.214 -0.2508 -0.3527 -0.1948
 7147LIG    C2243106   6.657   3.177   6.110 -0.3959 -0.3420  0.3087
 7147LIG    C2343107   6.715   3.163   5.967 -0.0199 -0.2018 -0.3472
 7147LIG     H143108   6.639   2.580   5.849 -0.8736 -0.8406  1.3507
 7147LIG     H243109   6.437   2.688   6.080 -1.1128 -2.1052  2.6144
 7147LIG     H343110   6.834   2.427   5.846  0.8973 -1.2215  0.0461
 7147LIG     H443111   6.444   2.441   5.983 -1.7586 -4.5404  0.0737
 7147LIG     H543112   6.450   2.444   6.161 -1.2269  1.6132 -0.4550
 7147LIG     H643113   6.972   2.441   6.052  0.2235 -0.8296  1.7567
 7147LIG     H743114   6.876   2.287   6.083 -0.3633 -0.0742 -0.3802
 7147LIG     H843115   6.653   2.261   6.131  1.6091 -0.3947 -2.0217
 7147LIG     H943116   6.511   2.221   6.031  0.5024  0.3556  0.3625
 7147LIG    H1043117   6.561   2.876   5.984  0.7878 -0.1203 -0.9945
 7147LIG    H1143118   6.894   2.676   5.894 -0.5975  0.1646 -0.2863
 7147LIG    H1243119   6.830   2.883   6.015 -0.1300 -1.0090  1.1145
 7147LIG    H1343120   6.521   2.385   5.794  1.8257  1.4311 -0.6393
 7147LIG    H1443121   6.550   2.202   5.809  0.4652 -0.0456  2.8657
 7147LIG    H1543122   6.656   2.319   5.708 -0.9676  2.1381 -0.8964
 7147LIG    H1643123   6.971   2.380   6.318 -0.5817 -0.6235 -1.2080
 7147LIG    H1743124   6.868   2.501   6.521 -1.0887  0.7743 -0.4001
 7147LIG    H1843125   6.476   2.923   6.233 -0.1716  0.3277 -1.1238
 7147LIG    H1943126   6.663   2.945   6.403 -1.2035 -0.5420  1.3353
 7147LIG    H2043127   6.651   3.250   6.378 -0.5726 -0.4925  0.7559
 7147LIG    H2143128   6.735   2.632   6.612 -0.5178 -2.9629 -0.2144
 7147LIG    H2243129   6.831   3.089   6.194  0.5980  0.5649 -1.3777
 7147LIG    H2343130   6.607   3.276   6.109 -0.6127 -0.4212 -2.2225
 7147LIG    H2443131   6.444   2.985   6.451  0.9036 -0.9625 -0.5787
 7147LIG    H2543132   6.774   3.171   6.525 -0.2058 -0.3860 -0.4286
 7147LIG    H2643133   6.870   3.318   6.300  2.5239  2.1325 -1.1118
 7147LIG    H2743134   6.677   3.224   5.787  0.7073 -0.5780  0.6328
   6.85340   6.85340   8.79486
