Title
43134
    1CHL1    C3    1   3.877   4.056   7.907  0.2281  0.1314 -0.3401
    1CHL1    H3    2   3.788   4.000   7.869 -0.3784  0.6105  0.3417
    1CHL1    O3    3   3.843   4.132   8.025 -0.2087  0.1808 -0.5754
    1CHL1   H3'    4   3.794   4.077   8.086 -0.7964  1.1191 -0.1711
    1CHL1    C4    5   3.998   3.958   7.928  0.5382  0.0729 -0.1896
    1CHL1   H4A    6   4.086   4.014   7.967 -1.5715  2.5547  1.4251
    1CHL1   H4B    7   3.969   3.884   8.005 -0.5576  0.5751 -0.0912
    1CHL1    C5    8   4.038   3.895   7.799 -0.8701 -0.1309  0.5076
    1CHL1    C6    9   4.037   3.762   7.786 -0.3634 -1.0917  0.5901
    1CHL1    H6   10   3.999   3.701   7.869 -1.3250 -0.6802  0.4590
    1CHL1    C7   11   4.075   3.687   7.666 -0.5290 -0.3805  0.6437
    1CHL1   H7A   12   4.129   3.593   7.691  3.6249  0.9207 -2.3042
    1CHL1   H7B   13   3.982   3.652   7.615  0.1093  2.3999 -2.8861
    1CHL1    C8   14   4.139   3.773   7.553 -0.4397 -0.7944 -0.0515
    1CHL1    H8   15   4.240   3.790   7.595 -1.6071 -0.3749  2.8319
    1CHL1   C14   16   4.125   3.710   7.421  1.3115 -0.3112 -0.5947
    1CHL1   H14   17   4.018   3.702   7.391  1.0286 -1.8333  0.7135
    1CHL1   C15   18   4.173   3.567   7.397 -0.4396  0.5855 -0.8896
    1CHL1  H15A   19   4.269   3.537   7.445  0.3669 -1.2099 -3.4391
    1CHL1  H15B   20   4.092   3.496   7.427 -0.8952  1.6699  0.5733
    1CHL1   C16   21   4.213   3.554   7.250  0.0916 -0.2920  0.0298
    1CHL1  H16A   22   4.323   3.545   7.246  0.1450  0.4956 -0.5611
    1CHL1  H16B   23   4.170   3.468   7.193  1.1360 -0.7965 -0.0193
    1CHL1   C17   24   4.189   3.685   7.191 -0.0477 -0.8223  0.5174
    1CHL1   H17   25   4.083   3.686   7.157  0.0121 -1.1341  0.3218
    1CHL1   C13   26   4.206   3.792   7.310  0.3800  0.4846 -0.8596
    1CHL1   C18   27   4.357   3.803   7.344  0.3377  0.3371 -0.4276
    1CHL1  H18A   28   4.404   3.705   7.368  0.1682 -0.2030 -2.1683
    1CHL1  H18B   29   4.409   3.861   7.266  0.6842  2.7065  1.4507
    1CHL1  H18C   30   4.365   3.861   7.438 -0.5012 -0.4623  0.1617
    1CHL1   C12   31   4.138   3.929   7.294  0.1746 -0.6564  0.0599
    1CHL1  H12A   32   4.176   3.993   7.211 -1.4467  0.2037 -0.0572
    1CHL1  H12B   33   4.030   3.911   7.280  0.1241 -1.8679  1.8133
    1CHL1   C11   34   4.137   4.007   7.423 -0.1491 -0.6168 -0.0537
    1CHL1  H11A   35   4.236   4.052   7.445 -0.5264  1.4027 -2.0044
    1CHL1  H11B   36   4.068   4.094   7.432 -0.6466 -1.0854  0.7341
    1CHL1    C9   37   4.079   3.914   7.543 -0.5104  0.0565 -0.9068
    1CHL1    H9   38   3.973   3.902   7.513 -1.1588  2.4396  0.1962
    1CHL1   C10   39   4.071   3.989   7.678  0.0594 -0.5806  0.3485
    1CHL1   C19   40   4.203   4.053   7.702  0.3505 -0.4281 -0.4692
    1CHL1  H19A   41   4.286   3.981   7.685  1.0502 -0.0551  1.1613
    1CHL1  H19B   42   4.225   4.144   7.642 -0.6458  0.3615  0.3240
    1CHL1  H19C   43   4.204   4.084   7.809 -2.8581 -1.6533  0.0101
    1CHL1    C1   44   3.962   4.099   7.668  1.0675 -0.3948  0.4070
    1CHL1   H1A   45   4.001   4.179   7.602  2.1866 -0.2132  1.2745
    1CHL1   H1B   46   3.871   4.053   7.624  0.2527 -0.2326  1.8567
    1CHL1    C2   47   3.927   4.159   7.801 -0.0191 -0.0582  0.1021
    1CHL1   H2A   48   3.850   4.237   7.785  0.1709  0.8140  2.9837
    1CHL1   H2B   49   4.017   4.211   7.839  2.3321 -1.9249 -2.4264
    1CHL1   C20   50   4.269   3.704   7.059  0.3136  0.2510 -0.3561
    1CHL1   H20   51   4.373   3.682   7.090 -0.6255  1.0053  4.2030
    1CHL1   C21   52   4.265   3.853   7.006 -0.5875  0.5741  0.0056
    1CHL1  H21A   53   4.312   3.875   6.908  0.7647  1.2937  0.7867
    1CHL1  H21B   54   4.322   3.922   7.072 -1.5036 -0.0063  1.4495
    1CHL1  H21C   55   4.159   3.886   7.002 -0.7545  0.0697  0.2745
    1CHL1   C22   56   4.215   3.598   6.951  0.2890 -0.1990  0.2021
    1CHL1  H22A   57   4.216   3.496   6.994  3.3843  0.3470  1.6987
    1CHL1  H22B   58   4.111   3.624   6.919 -0.0985 -1.4048  0.4129
    1CHL1   C23   59   4.296   3.599   6.815 -0.4668 -0.3803 -0.8152
    1CHL1  H23A   60   4.304   3.702   6.774 -2.3510  0.3708  0.5815
    1CHL1  H23B   61   4.396   3.558   6.837 -0.8774 -0.1819  1.6497
    1CHL1   C24   62   4.240   3.513   6.706 -0.9759 -0.3092  0.3659
    1CHL1  H24A   63   4.247   3.410   6.747  1.1345 -0.3751 -0.0153
    1CHL1  H24B   64   4.132   3.532   6.692 -1.5337 -3.5361 -0.5701
    1CHL1   C25   65   4.310   3.516   6.569 -0.2929  0.1026 -0.5228
    1CHL1   H25   66   4.260   3.440   6.505  0.3177  0.6907 -1.7554
    1CHL1   C26   67   4.297   3.653   6.496 -0.2936  0.8492  0.1024
    1CHL1  H26A   68   4.349   3.657   6.399  0.2924  1.3045  0.4303
    1CHL1  H26B   69   4.189   3.670   6.480 -0.8478 -0.0275  2.4751
    1CHL1  H26C   70   4.348   3.729   6.560  2.2924 -1.9411  1.6477
    1CHL1   C27   71   4.454   3.470   6.574  0.0944 -0.0901 -0.4392
    1CHL1  H27A   72   4.507   3.473   6.477  0.2390  0.4137 -0.3478
    1CHL1  H27B   73   4.516   3.529   6.645 -0.4875 -0.3782  0.3217
    1CHL1  H27C   74   4.459   3.366   6.613  0.2478  0.4288  0.9658
    2CHL1    C3   75   3.942   5.027   7.547 -0.1308 -0.4503  0.4363
    2CHL1    H3   76   3.906   4.926   7.576 -3.5327  0.2368 -0.9815
    2CHL1    O3   77   3.969   5.090   7.667  0.0359  0.0582 -0.5681
    2CHL1   H3'   78   3.918   5.171   7.675 -0.8432 -0.3787 -1.5789
    2CHL1    C4   79   4.069   5.020   7.457  0.0318  0.7042  0.4633
    2CHL1   H4A   80   4.110   5.123   7.465 -1.7115  1.4611  0.1732
    2CHL1   H4B   81   4.142   4.955   7.510  0.6480  0.5492 -0.5680
    2CHL1    C5   82   4.046   4.969   7.316  0.1032  0.4773 -0.2488
    2CHL1    C6   83   4.122   4.871   7.263  0.5141  0.0535  0.2681
    2CHL1    H6   84   4.212   4.845   7.322  0.8019 -0.9211 -0.5695
    2CHL1    C7   85   4.102   4.819   7.126  1.0606  0.1432 -0.0620
    2CHL1   H7A   86   4.197   4.808   7.069  1.9419  1.0903  1.1596
    2CHL1   H7B   87   4.069   4.713   7.136 -1.7424  0.9141 -0.3749
    2CHL1    C8   88   3.999   4.903   7.045 -0.7243  0.4890  0.5525
    2CHL1    H8   89   4.057   4.996   7.030 -0.9611  0.5704  0.1359
    2CHL1   C14   90   3.951   4.838   6.921 -0.0629  0.3761  0.5454
    2CHL1   H14   91   3.895   4.752   6.963  1.5834 -0.7877  0.4497
    2CHL1   C15   92   4.058   4.780   6.827 -0.0785  0.4400  0.4486
    2CHL1  H15A   93   4.128   4.862   6.804 -0.3703  0.0569 -2.0156
    2CHL1  H15B   94   4.111   4.690   6.866 -0.2914  1.1768  2.5607
    2CHL1   C16   95   3.969   4.735   6.709  0.6356 -0.0541 -0.2369
    2CHL1  H16A   96   4.017   4.775   6.618 -0.9773  1.1980 -0.5821
    2CHL1  H16B   97   3.954   4.625   6.701 -1.7282  0.1908  0.1787
    2CHL1   C17   98   3.833   4.811   6.721  0.1395 -0.1710  0.0453
    2CHL1   H17   99   3.758   4.746   6.772  0.3227  0.3726  1.0380
    2CHL1   C13  100   3.860   4.917   6.828  0.7803  0.1325  0.0441
    2CHL1   C18  101   3.930   5.041   6.762  0.3640  0.6279  0.1561
    2CHL1  H18A  102   3.845   5.105   6.730 -1.5427 -2.2630 -0.9660
    2CHL1  H18B  103   4.008   5.090   6.824  1.1995 -1.0664  0.4886
    2CHL1  H18C  104   3.988   4.998   6.678  2.1052 -1.7953  2.4579
    2CHL1   C12  105   3.733   4.959   6.915 -0.3044  0.1162 -0.3853
    2CHL1  H12A  106   3.664   5.018   6.850  1.5270  1.5511 -1.1487
    2CHL1  H12B  107   3.680   4.868   6.949 -1.8695 -0.3710 -3.6490
    2CHL1   C11  108   3.776   5.038   7.038 -0.6564 -0.3450  0.4582
    2CHL1  H11A  109   3.819   5.134   7.003 -1.4818  0.1015  0.6256
    2CHL1  H11B  110   3.683   5.063   7.094 -0.7525  1.6593 -0.4899
    2CHL1    C9  111   3.881   4.956   7.125 -0.1819 -0.2170  0.4161
    2CHL1    H9  112   3.831   4.861   7.154  1.7162 -1.9945 -1.7949
    2CHL1   C10  113   3.926   5.034   7.250 -0.1064  0.1218 -0.1522
    2CHL1   C19  114   3.965   5.180   7.206  0.4188  0.6929 -0.2763
    2CHL1  H19A  115   4.023   5.192   7.112  1.5073  1.1430  0.4316
    2CHL1  H19B  116   3.872   5.240   7.215  1.0090  1.6160 -0.1762
    2CHL1  H19C  117   4.040   5.227   7.274  0.5117  1.2759 -0.7777
    2CHL1    C1  118   3.807   5.043   7.345  0.3697  0.8739  0.6459
    2CHL1   H1A  119   3.730   5.100   7.288 -1.4763 -2.5860 -0.6020
    2CHL1   H1B  120   3.767   4.940   7.356 -0.9906  1.0225 -1.9664
    2CHL1    C2  121   3.831   5.105   7.479  0.7876  0.5745 -0.1540
    2CHL1   H2A  122   3.736   5.111   7.537  0.6431  1.5668 -0.4711
    2CHL1   H2B  123   3.849   5.214   7.463 -1.2910  1.2054  1.3699
    2CHL1   C20  124   3.782   4.853   6.585  0.9477 -0.1118  0.0538
    2CHL1   H20  125   3.863   4.917   6.544  0.8743  0.0108  0.0968
    2CHL1   C21  126   3.659   4.944   6.604  0.2350  0.0522  0.4665
    2CHL1  H21A  127   3.621   4.970   6.503  0.1758 -0.2637  0.4091
    2CHL1  H21B  128   3.683   5.038   6.659  3.5416  0.0716 -0.7626
    2CHL1  H21C  129   3.586   4.881   6.658  0.8420 -1.3129 -0.2610
    2CHL1   C22  130   3.754   4.728   6.493 -0.1457  0.2873  0.1684
    2CHL1  H22A  131   3.845   4.665   6.479 -1.2123 -1.6785  1.6014
    2CHL1  H22B  132   3.668   4.663   6.519 -1.1881  1.5080 -0.1300
    2CHL1   C23  133   3.721   4.773   6.351 -0.1560  0.2018  0.4345
    2CHL1  H23A  134   3.616   4.801   6.330  0.0488 -0.0273 -0.9976
    2CHL1  H23B  135   3.790   4.851   6.313 -0.1745 -0.0440 -0.1145
    2CHL1   C24  136   3.755   4.662   6.243 -0.1903  0.1424 -0.3558
    2CHL1  H24A  137   3.846   4.609   6.279  0.2488  1.0922 -0.0502
    2CHL1  H24B  138   3.670   4.590   6.241  0.9240 -1.2470  0.6837
    2CHL1   C25  139   3.774   4.712   6.101  0.3647 -0.1317  0.0542
    2CHL1   H25  140   3.856   4.786   6.095  0.6359 -0.3815  0.6009
    2CHL1   C26  141   3.802   4.592   6.008  0.4491  0.5006  0.3784
    2CHL1  H26A  142   3.724   4.566   5.933  0.0048  1.5301  0.4661
    2CHL1  H26B  143   3.887   4.613   5.939  1.2890 -1.7270  0.6679
    2CHL1  H26C  144   3.835   4.504   6.067  1.7798  1.1372  0.6415
    2CHL1   C27  145   3.648   4.784   6.060 -0.4960  0.0056  0.4507
    2CHL1  H27A  146   3.564   4.726   6.104  0.3023 -3.3034 -1.9552
    2CHL1  H27B  147   3.645   4.888   6.098  4.1624  0.6941 -0.4481
    2CHL1  H27C  148   3.626   4.787   5.951 -1.4394  1.7079  0.6536
    3CHL1    C3  149   5.922   4.742   7.485  0.5253 -0.0265 -0.5447
    3CHL1    H3  150   5.865   4.816   7.545  0.6305 -0.7398  0.4742
    3CHL1    O3  151   6.012   4.682   7.580 -0.2418 -0.6771  0.0290
    3CHL1   H3'  152   6.045   4.755   7.632  0.0350 -0.4458 -0.4711
    3CHL1    C4  153   5.833   4.635   7.415 -0.6873  0.1985  0.3155
    3CHL1   H4A  154   5.902   4.554   7.382 -0.3623 -0.5567  2.6396
    3CHL1   H4B  155   5.766   4.589   7.491 -0.0526 -1.0570  0.1509
    3CHL1    C5  156   5.751   4.688   7.292 -0.5713  0.1870 -0.4764
    3CHL1    C6  157   5.622   4.661   7.287  0.2501  0.0488 -0.0430
    3CHL1    H6  158   5.576   4.610   7.372 -0.8160 -0.3720 -0.8613
    3CHL1    C7  159   5.530   4.718   7.176  0.1192  0.0955 -0.6509
    3CHL1   H7A  160   5.463   4.642   7.131 -1.8099  0.0379  2.0708
    3CHL1   H7B  161   5.458   4.791   7.219  0.4567  0.7456 -1.1699
    3CHL1    C8  162   5.614   4.783   7.060  0.2876 -1.0942 -0.3911
    3CHL1    H8  163   5.645   4.701   6.992  2.2003 -0.7813  0.0508
    3CHL1   C14  164   5.522   4.874   6.983  0.0385 -0.2596  0.2559
    3CHL1   H14  165   5.494   4.966   7.039  0.5692 -0.2967  0.5910
    3CHL1   C15  166   5.386   4.825   6.935  0.7997 -0.0120  0.8608
    3CHL1  H15A  167   5.401   4.727   6.886 -1.2900 -0.0232  0.1351
    3CHL1  H15B  168   5.319   4.812   7.023 -1.4319 -2.6809 -1.0600
    3CHL1   C16  169   5.336   4.925   6.833 -0.7437 -0.8330 -0.2671
    3CHL1  H16A  170   5.300   4.868   6.745 -0.9151 -2.3427  0.7435
    3CHL1  H16B  171   5.254   4.992   6.868  0.1728  1.1335 -1.6844
    3CHL1   C17  172   5.463   5.005   6.791 -0.3395 -0.0510  0.2214
    3CHL1   H17  173   5.455   5.097   6.852 -0.4065  0.1152 -0.0332
    3CHL1   C13  174   5.585   4.932   6.855  0.5768  0.0281  0.7280
    3CHL1   C18  175   5.633   4.818   6.757 -0.1880  0.3714 -0.5457
    3CHL1  H18A  176   5.701   4.746   6.808  0.0353  0.1514 -1.1505
    3CHL1  H18B  177   5.545   4.762   6.718  0.6042 -1.1776 -0.2017
    3CHL1  H18C  178   5.683   4.853   6.665  1.0195 -1.8578 -0.7963
    3CHL1   C12  179   5.709   5.015   6.894  0.5912 -0.3391  0.2855
    3CHL1  H12A  180   5.760   5.048   6.801  1.1157  0.5241  0.8652
    3CHL1  H12B  181   5.665   5.099   6.951  2.0368  0.1159  0.7888
    3CHL1   C11  182   5.806   4.942   6.984  0.1150  0.3233  0.2261
    3CHL1  H11A  183   5.859   4.872   6.915 -1.1571 -1.2823  0.8236
    3CHL1  H11B  184   5.873   5.017   7.030  1.9897 -1.4855  0.6356
    3CHL1    C9  185   5.730   4.867   7.104  0.6047 -0.0194  0.0029
    3CHL1    H9  186   5.702   4.944   7.179  0.8010  0.8511 -0.7993
    3CHL1   C10  187   5.830   4.778   7.190  0.4007  0.0904  0.0814
    3CHL1   C19  188   5.902   4.678   7.106 -0.3685 -0.1490  0.5028
    3CHL1  H19A  189   5.842   4.617   7.035 -0.9805 -0.0302  0.9113
    3CHL1  H19B  190   5.990   4.723   7.055 -0.2507  0.9763  1.6556
    3CHL1  H19C  191   5.948   4.599   7.168  1.7856 -1.0279 -2.0169
    3CHL1    C1  192   5.922   4.874   7.255 -0.0265  0.7505 -0.2206
    3CHL1   H1A  193   5.987   4.911   7.172  1.6351 -2.0967 -0.3313
    3CHL1   H1B  194   5.864   4.959   7.296 -0.5507  0.4972 -0.4273
    3CHL1    C2  195   6.006   4.807   7.367  0.4310  0.2286  0.4290
    3CHL1   H2A  196   6.077   4.885   7.402  0.0009  0.7557  0.1306
    3CHL1   H2B  197   6.072   4.735   7.313  0.2802 -0.0245  0.5815
    3CHL1   C20  198   5.469   5.041   6.641  0.5061  0.1713 -0.9479
    3CHL1   H20  199   5.474   4.948   6.582 -0.7014 -0.2958 -0.3416
    3CHL1   C21  200   5.590   5.128   6.602 -0.7633 -0.1820 -0.4295
    3CHL1  H21A  201   5.692   5.092   6.629 -0.8759 -0.4635 -0.3736
    3CHL1  H21B  202   5.583   5.230   6.645 -2.0883  0.5957 -2.3409
    3CHL1  H21C  203   5.599   5.137   6.492  1.3247  3.0297 -0.1368
    3CHL1   C22  204   5.340   5.126   6.600  0.8079  0.0115 -0.3615
    3CHL1  H22A  205   5.243   5.084   6.637  0.8919 -0.3357 -0.5257
    3CHL1  H22B  206   5.348   5.225   6.649 -4.0610  1.3487 -1.6560
    3CHL1   C23  207   5.322   5.147   6.446 -0.0846  0.2490 -0.1581
    3CHL1  H23A  208   5.225   5.199   6.426 -0.0599  0.1134 -0.6453
    3CHL1  H23B  209   5.403   5.218   6.419  1.5584 -1.2542  0.6160
    3CHL1   C24  210   5.312   5.016   6.358 -0.5372  0.6445  0.1052
    3CHL1  H24A  211   5.408   4.961   6.356 -0.7420  0.2825 -0.0195
    3CHL1  H24B  212   5.237   4.954   6.413  1.0689 -1.5726 -0.0325
    3CHL1   C25  213   5.272   5.037   6.218  0.5023  0.4951 -0.3746
    3CHL1   H25  214   5.192   5.113   6.231 -0.4602 -0.7427  1.2927
    3CHL1   C26  215   5.388   5.101   6.138  0.5244 -0.2205 -0.0735
    3CHL1  H26A  216   5.368   5.102   6.028 -2.2345  1.5819  0.3339
    3CHL1  H26B  217   5.390   5.204   6.177 -1.1409 -0.7371  1.5357
    3CHL1  H26C  218   5.483   5.048   6.162  0.0105 -0.2602  2.0107
    3CHL1   C27  219   5.216   4.912   6.159  0.1096  0.0229 -0.4744
    3CHL1  H27A  220   5.155   4.926   6.067  0.1721  0.6957 -0.4202
    3CHL1  H27B  221   5.304   4.851   6.131 -0.9756 -1.9483  0.2359
    3CHL1  H27C  222   5.159   4.855   6.235  0.9956 -0.5931 -0.2598
    4CHL1    C3  223   3.281   3.383   7.660 -0.9185  0.8983 -0.9833
    4CHL1    H3  224   3.211   3.302   7.689 -0.4185  1.4449  2.1966
    4CHL1    O3  225   3.305   3.463   7.779  0.4345 -0.0524 -0.2228
    4CHL1   H3'  226   3.281   3.397   7.846 -0.3591 -1.9629 -2.2661
    4CHL1    C4  227   3.413   3.320   7.619  0.2081  0.0666  0.5348
    4CHL1   H4A  228   3.492   3.398   7.606 -1.6596  1.7918 -1.3668
    4CHL1   H4B  229   3.456   3.258   7.700  2.2711  0.5542 -0.1309
    4CHL1    C5  230   3.405   3.239   7.491 -0.6367 -0.9445 -0.8245
    4CHL1    C6  231   3.443   3.108   7.491  0.6988  0.0592  0.2633
    4CHL1    H6  232   3.478   3.061   7.584 -1.0407  0.5576  1.2326
    4CHL1    C7  233   3.437   3.014   7.374 -0.1338  0.1346 -0.0542
    4CHL1   H7A  234   3.539   2.971   7.363 -0.6435 -1.3057  0.6627
    4CHL1   H7B  235   3.375   2.923   7.382  2.5307 -1.9029 -1.0245
    4CHL1    C8  236   3.402   3.084   7.237 -0.1116 -0.4154  0.1093
    4CHL1    H8  237   3.497   3.126   7.198  0.8306 -3.1399 -0.8281
    4CHL1   C14  238   3.353   2.987   7.123 -0.3611  0.4904 -0.5280
    4CHL1   H14  239   3.258   2.946   7.163 -0.5462  1.1018 -0.3276
    4CHL1   C15  240   3.435   2.867   7.098 -0.8657  0.3532 -1.1166
    4CHL1  H15A  241   3.541   2.894   7.079 -1.2763  1.8355 -1.3890
    4CHL1  H15B  242   3.430   2.794   7.182 -2.8124  1.4762 -0.1698
    4CHL1   C16  243   3.380   2.809   6.963 -1.0145 -0.0149 -0.7770
    4CHL1  H16A  244   3.458   2.785   6.888  0.6405  0.0547  0.8560
    4CHL1  H16B  245   3.326   2.718   6.995 -0.4574  0.9490  3.5350
    4CHL1   C17  246   3.286   2.920   6.916  0.4657 -0.1588  0.1732
    4CHL1   H17  247   3.188   2.891   6.959  0.0914 -2.2285 -1.8600
    4CHL1   C13  248   3.322   3.052   6.988  0.2989 -0.0191 -0.1485
    4CHL1   C18  249   3.440   3.117   6.921  0.1898 -0.2756 -0.0376
    4CHL1  H18A  250   3.487   3.203   6.975 -1.1327  0.3348  0.1725
    4CHL1  H18B  251   3.529   3.056   6.893  0.3794 -0.5413  1.0708
    4CHL1  H18C  252   3.411   3.167   6.826  0.3692 -0.0433  0.0277
    4CHL1   C12  253   3.207   3.156   7.017 -0.7861  0.0408 -0.4022
    4CHL1  H12A  254   3.170   3.211   6.927  2.2051  0.6421 -1.3854
    4CHL1  H12B  255   3.117   3.097   7.047 -0.3744 -0.7155 -0.6204
    4CHL1   C11  256   3.250   3.259   7.123 -0.7673  0.2358 -0.3009
    4CHL1  H11A  257   3.322   3.339   7.094  0.3568  0.0837  1.8732
    4CHL1  H11B  258   3.152   3.306   7.144 -1.7838 -0.9774 -1.9750
    4CHL1    C9  259   3.293   3.195   7.254  0.3600  0.6555  0.5892
    4CHL1    H9  260   3.204   3.142   7.293  1.1551  0.1779  1.7926
    4CHL1   C10  261   3.339   3.302   7.369 -0.0695  0.4110  0.8017
    4CHL1   C19  262   3.447   3.400   7.310 -0.3851 -0.0977 -0.3201
    4CHL1  H19A  263   3.528   3.350   7.252 -0.3278 -0.9860  0.5019
    4CHL1  H19B  264   3.411   3.464   7.227 -1.8356 -0.9019 -0.3327
    4CHL1  H19C  265   3.502   3.458   7.387  0.6816 -3.0116  1.2619
    4CHL1    C1  266   3.214   3.381   7.413  0.5275 -0.3995 -0.3356
    4CHL1   H1A  267   3.183   3.456   7.338  0.4595  0.8092  0.8703
    4CHL1   H1B  268   3.121   3.320   7.426 -0.3398  0.1484 -3.2882
    4CHL1    C2  269   3.230   3.467   7.540 -0.4757 -0.3402 -0.4750
    4CHL1   H2A  270   3.136   3.510   7.581 -0.4546 -0.9532  0.2444
    4CHL1   H2B  271   3.298   3.550   7.513 -0.7970 -0.3241 -1.2747
    4CHL1   C20  272   3.274   2.930   6.767 -0.2815 -0.5182 -0.0167
    4CHL1   H20  273   3.365   2.965   6.714  0.5196  0.1967  1.7756
    4CHL1   C21  274   3.166   3.032   6.739  0.5421  0.2857 -0.0710
    4CHL1  H21A  275   3.087   3.002   6.812 -0.8006 -2.5418 -2.4767
    4CHL1  H21B  276   3.119   3.014   6.640  1.4974  1.1407 -0.7034
    4CHL1  H21C  277   3.195   3.139   6.742 -0.2427  0.5000  0.3574
    4CHL1   C22  278   3.238   2.793   6.713  0.2058 -0.1457 -0.5187
    4CHL1  H22A  279   3.319   2.719   6.726  1.3727  0.8104 -1.9466
    4CHL1  H22B  280   3.150   2.753   6.767 -0.4621  0.5429 -1.0664
    4CHL1   C23  281   3.216   2.781   6.560  0.0357  0.3286  0.4850
    4CHL1  H23A  282   3.110   2.800   6.535 -0.1981 -1.7325 -0.2800
    4CHL1  H23B  283   3.274   2.861   6.509 -0.2085  0.3695  0.2760
    4CHL1   C24  284   3.250   2.650   6.500 -0.1919  0.7352  0.6500
    4CHL1  H24A  285   3.360   2.638   6.505 -0.3469 -1.2269  0.2555
    4CHL1  H24B  286   3.202   2.564   6.552  0.2165  1.4490  2.2937
    4CHL1   C25  287   3.198   2.647   6.354 -0.0419  0.4586 -0.4214
    4CHL1   H25  288   3.097   2.691   6.352 -0.2082  0.1581  0.5699
    4CHL1   C26  289   3.288   2.740   6.267  0.5096  0.2633  0.0403
    4CHL1  H26A  290   3.259   2.847   6.255  0.0295  0.0298 -1.0811
    4CHL1  H26B  291   3.388   2.744   6.316  1.2410  2.4743 -1.4653
    4CHL1  H26C  292   3.283   2.704   6.162 -0.4134  1.2750 -0.2847
    4CHL1   C27  293   3.183   2.505   6.294  0.9955  0.0646 -0.3255
    4CHL1  H27A  294   3.144   2.507   6.190 -0.8265 -0.1387  0.3337
    4CHL1  H27B  295   3.283   2.457   6.285  0.7707 -0.3962 -0.3562
    4CHL1  H27C  296   3.111   2.440   6.348 -1.4715 -0.0841 -3.5229
    5CHL1    C3  297   0.042   0.364   7.775 -0.1794 -0.1452 -0.0988
    5CHL1    H3  298  -0.052   0.308   7.791 -1.5281  2.6738  2.8842
    5CHL1    O3  299   0.065   0.418   7.902  0.9916  0.4070  0.3449
    5CHL1   H3'  300   0.078   0.336   7.950  2.7897  0.2699 -0.3078
    5CHL1    C4  301   0.161   0.270   7.738 -0.5282 -0.0565 -0.2731
    5CHL1   H4A  302   0.251   0.333   7.755 -2.4818  2.2806  2.2787
    5CHL1   H4B  303   0.161   0.188   7.813  1.5101  2.3120  2.5331
    5CHL1    C5  304   0.139   0.226   7.590  0.1703 -0.5968 -0.3351
    5CHL1    C6  305   0.127   0.094   7.565  0.0464  0.6209 -0.0775
    5CHL1    H6  306   0.143   0.025   7.649 -4.6827 -0.9881 -0.2029
    5CHL1    C7  307   0.111   0.028   7.427  0.0664 -0.5169 -0.2104
    5CHL1   H7A  308   0.177  -0.061   7.428 -0.5556 -0.9908 -0.8480
    5CHL1   H7B  309   0.011  -0.016   7.406  0.2706 -1.1851  0.1945
    5CHL1    C8  310   0.135   0.133   7.315  0.2731  0.2976  1.2057
    5CHL1    H8  311   0.242   0.162   7.307 -0.5605  3.0988 -1.6193
    5CHL1   C14  312   0.097   0.068   7.181 -0.4125  0.3591 -0.3202
    5CHL1   H14  313  -0.007   0.038   7.203 -0.3709  2.2005  3.1265
    5CHL1   C15  314   0.182  -0.051   7.149 -0.0225 -0.3026 -0.1616
    5CHL1  H15A  315   0.283  -0.027   7.188  0.0091 -1.9982  0.9006
    5CHL1  H15B  316   0.140  -0.143   7.196 -0.3949 -0.0304  0.0421
    5CHL1   C16  317   0.186  -0.057   6.997  0.5712  0.2635  0.7319
    5CHL1  H16A  318   0.287  -0.024   6.965  0.7540  0.0119  1.0454
    5CHL1  H16B  319   0.169  -0.160   6.960  0.5533  0.7207 -0.6036
    5CHL1   C17  320   0.093   0.061   6.941 -0.0720 -0.0104  0.1168
    5CHL1   H17  321  -0.011   0.019   6.940  0.2713 -0.8824 -0.3706
    5CHL1   C13  322   0.099   0.160   7.059 -0.3628  0.0701 -0.2192
    5CHL1   C18  323   0.243   0.228   7.043 -0.7888 -0.0123 -0.0531
    5CHL1  H18A  324   0.227   0.315   6.976 -3.1550  0.5593  1.1128
    5CHL1  H18B  325   0.279   0.266   7.141  0.8737  1.2132 -1.0843
    5CHL1  H18C  326   0.323   0.159   7.009 -1.0398 -0.6812  0.6726
    5CHL1   C12  327  -0.004   0.275   7.089 -0.0240 -0.0786 -0.5203
    5CHL1  H12A  328  -0.016   0.344   7.003 -0.5144 -2.7874 -2.7813
    5CHL1  H12B  329  -0.100   0.230   7.121 -0.4542  3.0386  3.2865
    5CHL1   C11  330   0.041   0.352   7.220  0.4490 -0.4420  0.4900
    5CHL1  H11A  331   0.132   0.404   7.183  0.7189 -0.2191  1.4361
    5CHL1  H11B  332  -0.046   0.420   7.227  0.7374  0.1897 -1.3889
    5CHL1    C9  333   0.054   0.256   7.347 -0.2694 -0.0357 -0.0929
    5CHL1    H9  334  -0.054   0.234   7.364 -0.6181  0.5144 -1.4178
    5CHL1   C10  335   0.110   0.326   7.474  0.8442 -0.6113 -0.0555
    5CHL1   C19  336   0.236   0.412   7.446  0.0520  0.2630  0.2045
    5CHL1  H19A  337   0.202   0.494   7.380  0.1300 -1.2825 -1.8344
    5CHL1  H19B  338   0.264   0.470   7.537 -2.7561  0.3100  1.1267
    5CHL1  H19C  339   0.323   0.351   7.411  0.9427  0.9040  1.2265
    5CHL1    C1  340   0.002   0.415   7.532  0.1465 -0.1098  0.3988
    5CHL1   H1A  341  -0.007   0.506   7.468  1.1671 -0.2147  0.0881
    5CHL1   H1B  342  -0.092   0.357   7.525 -1.3070  2.2662 -1.7098
    5CHL1    C2  343   0.019   0.473   7.672 -0.3330  0.1615 -0.0479
    5CHL1   H2A  344  -0.068   0.529   7.711 -0.5335  0.6626 -1.2086
    5CHL1   H2B  345   0.101   0.548   7.669  0.1842 -0.4318 -1.4172
    5CHL1   C20  346   0.122   0.096   6.795 -0.9137  0.2023 -0.1555
    5CHL1   H20  347   0.226   0.126   6.772 -0.2886 -2.9389 -1.9785
    5CHL1   C21  348   0.021   0.212   6.772 -0.1650 -0.6289 -0.4113
    5CHL1  H21A  349   0.064   0.297   6.829 -1.3912 -1.1055  1.3063
    5CHL1  H21B  350  -0.075   0.180   6.818 -0.2238 -1.0546 -0.8232
    5CHL1  H21C  351   0.008   0.239   6.665  1.9799 -0.7232 -0.7326
    5CHL1   C22  352   0.070  -0.016   6.694  0.0134  0.3624 -0.4226
    5CHL1  H22A  353   0.131  -0.104   6.725 -0.6952  0.5691  1.6611
    5CHL1  H22B  354  -0.037  -0.038   6.713  0.0145 -0.0868 -0.8887
    5CHL1   C23  355   0.099   0.006   6.539  0.5985 -0.4980 -0.4138
    5CHL1  H23A  356   0.040   0.087   6.490  0.5297 -0.8419 -0.9052
    5CHL1  H23B  357   0.205   0.039   6.538  0.9492 -1.6087 -0.5573
    5CHL1   C24  358   0.076  -0.122   6.460 -0.4628 -0.6952  0.0538
    5CHL1  H24A  359   0.164  -0.186   6.484 -2.2411 -2.7213  1.5720
    5CHL1  H24B  360  -0.010  -0.180   6.500 -0.2063 -1.6878 -0.7800
    5CHL1   C25  361   0.064  -0.112   6.304  0.0858  0.2910 -0.0218
    5CHL1   H25  362  -0.016  -0.036   6.290  1.0608  1.7576  2.0404
    5CHL1   C26  363   0.182  -0.052   6.234 -0.0054 -0.0964 -0.2087
    5CHL1  H26A  364   0.272  -0.117   6.224 -2.1009 -3.4271  0.6394
    5CHL1  H26B  365   0.159  -0.037   6.127  0.2962 -0.3759 -0.3165
    5CHL1  H26C  366   0.221   0.033   6.294  1.5189 -0.1922 -1.0025
    5CHL1   C27  367   0.017  -0.246   6.242  0.0001 -0.2043 -0.5705
    5CHL1  H27A  368   0.095  -0.320   6.267 -0.2150 -1.0697 -2.3344
    5CHL1  H27B  369  -0.083  -0.277   6.280  0.2105 -1.0905 -0.7172
    5CHL1  H27C  370   0.004  -0.249   6.131 -0.5994 -0.0811 -0.5111
    6CHL1    C3  371   1.181   3.748   7.775 -1.0545  0.5563 -0.2460
    6CHL1    H3  372   1.099   3.673   7.783 -0.8545  0.5817  3.4443
    6CHL1    O3  373   1.213   3.789   7.909  0.4747  0.0120 -0.1272
    6CHL1   H3'  374   1.203   3.884   7.894  1.4715 -0.0381 -1.2823
    6CHL1    C4  375   1.307   3.678   7.728  0.2828 -0.1303 -0.2912
    6CHL1   H4A  376   1.386   3.755   7.746 -1.7774  1.2676  4.0393
    6CHL1   H4B  377   1.332   3.602   7.804 -1.4066  1.2461  1.7446
    6CHL1    C5  378   1.296   3.635   7.578 -0.1304  0.2642 -0.4601
    6CHL1    C6  379   1.316   3.508   7.546  0.5652 -0.0764  0.6015
    6CHL1    H6  380   1.336   3.431   7.621 -0.4559  0.2747  1.2548
    6CHL1    C7  381   1.312   3.448   7.406 -0.4978  0.5624  0.2295
    6CHL1   H7A  382   1.396   3.376   7.391 -0.8496  0.4835 -1.5032
    6CHL1   H7B  383   1.219   3.388   7.390 -0.2531 -0.0384  0.9692
    6CHL1    C8  384   1.313   3.562   7.300  0.7779 -0.1009  0.4324
    6CHL1    H8  385   1.413   3.609   7.295  1.7314 -2.0530 -0.2120
    6CHL1   C14  386   1.272   3.500   7.169 -0.3332  0.2936 -0.4864
    6CHL1   H14  387   1.171   3.457   7.185 -1.0016  1.6583 -0.9499
    6CHL1   C15  388   1.361   3.380   7.116  0.0006 -0.0142  0.0103
    6CHL1  H15A  389   1.467   3.410   7.102 -0.9355  3.2130 -1.2402
    6CHL1  H15B  390   1.352   3.294   7.185 -1.1418  1.1296  1.3637
    6CHL1   C16  391   1.306   3.369   6.979 -0.2165  0.0036  0.1931
    6CHL1  H16A  392   1.390   3.374   6.906 -0.3699 -0.2998 -0.0102
    6CHL1  H16B  393   1.247   3.278   6.954 -1.6128  0.4446  1.7420
    6CHL1   C17  394   1.219   3.486   6.947  0.0457  0.1919  0.0422
    6CHL1   H17  395   1.117   3.456   6.982  0.1974 -1.3110 -0.7580
    6CHL1   C13  396   1.256   3.597   7.051  0.9835  0.3244  0.3995
    6CHL1   C18  397   1.394   3.662   7.018  1.9372  0.2560 -0.3003
    6CHL1  H18A  398   1.429   3.734   7.096 -1.0406  1.3361  0.1516
    6CHL1  H18B  399   1.473   3.585   7.004  2.9528  0.6534  2.5391
    6CHL1  H18C  400   1.381   3.710   6.919  2.3428  1.9500  0.4286
    6CHL1   C12  401   1.146   3.701   7.092 -0.4203 -0.1337 -0.3886
    6CHL1  H12A  402   1.125   3.772   7.009 -1.3901 -0.6072 -0.5657
    6CHL1  H12B  403   1.053   3.647   7.119 -0.0573 -0.6783 -0.2162
    6CHL1   C11  404   1.182   3.773   7.222 -0.7774 -0.4052 -0.7535
    6CHL1  H11A  405   1.277   3.829   7.209 -1.1682  1.1593  2.0905
    6CHL1  H11B  406   1.105   3.844   7.259  1.3365  1.0466  1.1286
    6CHL1    C9  407   1.207   3.669   7.342 -0.2234  0.0398  0.2251
    6CHL1    H9  408   1.110   3.619   7.361 -0.4023  0.7106  1.1303
    6CHL1   C10  409   1.253   3.735   7.475  0.0236  0.2293 -0.4137
    6CHL1   C19  410   1.373   3.835   7.457  0.0849  0.3176  0.4766
    6CHL1  H19A  411   1.452   3.781   7.400 -2.2879 -1.3338 -1.4876
    6CHL1  H19B  412   1.352   3.912   7.379 -0.1362  0.4607  0.6757
    6CHL1  H19C  413   1.415   3.869   7.554  2.4192  0.6019 -0.5714
    6CHL1    C1  414   1.135   3.820   7.532 -0.3982 -0.0390 -0.1983
    6CHL1   H1A  415   1.118   3.910   7.470  0.5138  0.5466  0.3805
    6CHL1   H1B  416   1.043   3.759   7.518 -0.2412 -0.2420 -0.3496
    6CHL1    C2  417   1.150   3.862   7.683 -0.0802 -0.0600 -0.0279
    6CHL1   H2A  418   1.069   3.932   7.712 -0.7761  0.7973 -3.6097
    6CHL1   H2B  419   1.237   3.931   7.673  0.3490 -0.5785  0.0886
    6CHL1   C20  420   1.221   3.518   6.794  0.6367 -0.8119  0.4045
    6CHL1   H20  421   1.323   3.551   6.767 -0.3094  1.2647 -0.8508
    6CHL1   C21  422   1.129   3.637   6.767 -0.1619  0.3011 -0.0474
    6CHL1  H21A  423   1.034   3.596   6.806  1.0675 -0.6367  2.1164
    6CHL1  H21B  424   1.113   3.673   6.663 -0.8239  0.1240 -0.0116
    6CHL1  H21C  425   1.159   3.723   6.831  0.1701 -0.4129  0.7655
    6CHL1   C22  426   1.179   3.403   6.695 -0.2331  0.2092  0.3633
    6CHL1  H22A  427   1.216   3.311   6.745  0.1994 -0.6008 -1.3877
    6CHL1  H22B  428   1.068   3.397   6.688 -0.5465  2.5124  2.2117
    6CHL1   C23  429   1.253   3.413   6.561  0.3251 -0.5002  0.0942
    6CHL1  H23A  430   1.229   3.505   6.504  0.4057  0.6635  1.8466
    6CHL1  H23B  431   1.363   3.415   6.582 -0.1168 -1.7726  2.9370
    6CHL1   C24  432   1.217   3.288   6.477  0.2914  0.3733 -0.5843
    6CHL1  H24A  433   1.217   3.194   6.536  0.8395  1.2341  0.8653
    6CHL1  H24B  434   1.118   3.300   6.428  0.0857 -0.7806 -0.4692
    6CHL1   C25  435   1.309   3.257   6.355  0.5479  0.3545  0.2900
    6CHL1   H25  436   1.408   3.219   6.387  0.9859  0.9080 -0.3945
    6CHL1   C26  437   1.235   3.147   6.273 -0.5642  0.6615  0.0934
    6CHL1  H26A  438   1.130   3.169   6.246 -2.0627 -1.9510  3.2128
    6CHL1  H26B  439   1.300   3.127   6.184 -0.1679 -1.2433  0.7643
    6CHL1  H26C  440   1.242   3.064   6.346  1.7262  0.0687 -0.7192
    6CHL1   C27  441   1.325   3.378   6.263 -0.7648  0.8045  0.5228
    6CHL1  H27A  442   1.370   3.343   6.167 -0.7892 -0.1404  0.8560
    6CHL1  H27B  443   1.227   3.429   6.258 -0.0801  2.0802 -1.3135
    6CHL1  H27C  444   1.397   3.439   6.323  2.1520 -0.1761 -1.7243
    7CHL1    C3  445   2.928   1.506   7.912  0.0636 -0.7077 -0.1384
    7CHL1    H3  446   3.034   1.541   7.916 -0.2759  0.3591 -0.1693
    7CHL1    O3  447   2.864   1.542   8.032  0.3416  0.6423  0.0280
    7CHL1   H3'  448   2.859   1.637   8.040  1.2363  0.6904  0.0589
    7CHL1    C4  449   2.867   1.572   7.783 -0.5047  0.2552  0.3588
    7CHL1   H4A  450   2.762   1.536   7.772  0.1287 -2.5351  2.4670
    7CHL1   H4B  451   2.860   1.682   7.792 -1.1781  0.1658  0.9605
    7CHL1    C5  452   2.942   1.524   7.657 -0.2133  0.7522 -0.0308
    7CHL1    C6  453   3.014   1.609   7.578  0.5130 -0.2956 -0.1434
    7CHL1    H6  454   3.004   1.715   7.603 -0.7468  0.5909 -3.7429
    7CHL1    C7  455   3.087   1.563   7.460 -0.8154  0.0629  0.7571
    7CHL1   H7A  456   3.061   1.630   7.375  0.9463  2.5070  2.0215
    7CHL1   H7B  457   3.197   1.553   7.473 -0.7015 -0.0755 -0.2392
    7CHL1    C8  458   3.052   1.417   7.407  0.1337  0.2510  0.0582
    7CHL1    H8  459   2.953   1.419   7.357  1.3953 -2.6797 -2.9054
    7CHL1   C14  460   3.149   1.370   7.301 -0.6507 -0.2202 -0.0247
    7CHL1   H14  461   3.242   1.366   7.362 -1.2542  0.2713  0.9715
    7CHL1   C15  462   3.189   1.454   7.175  0.0915  0.0056  0.3200
    7CHL1  H15A  463   3.104   1.484   7.110  1.9305  0.4159 -2.0660
    7CHL1  H15B  464   3.243   1.547   7.204  0.4149  0.3514 -1.2474
    7CHL1   C16  465   3.280   1.357   7.099 -0.3667 -0.3821  0.6408
    7CHL1  H16A  466   3.283   1.371   6.989 -0.5002 -1.5766  0.4768
    7CHL1  H16B  467   3.379   1.381   7.144 -1.2756 -0.1981  2.6612
    7CHL1   C17  468   3.249   1.211   7.150 -0.0638  0.0044  0.0688
    7CHL1   H17  469   3.336   1.177   7.209 -0.2375 -2.1834 -0.8091
    7CHL1   C13  470   3.127   1.224   7.249  0.1231 -0.1286  0.0068
    7CHL1   C18  471   2.992   1.223   7.171  0.1798  0.4102  0.1683
    7CHL1  H18A  472   3.003   1.283   7.078 -0.7923 -1.0695 -0.9639
    7CHL1  H18B  473   2.963   1.121   7.138 -0.7549  0.7417 -0.0918
    7CHL1  H18C  474   2.903   1.264   7.223 -0.4716  1.4621 -1.6571
    7CHL1   C12  475   3.118   1.132   7.368  0.0676  0.4415  0.0316
    7CHL1  H12A  476   3.112   1.027   7.333 -0.1575  0.2873  0.5331
    7CHL1  H12B  477   3.215   1.137   7.421 -0.2505 -2.5577  1.0839
    7CHL1   C11  478   3.008   1.174   7.468 -0.3947  0.1682 -0.6933
    7CHL1  H11A  479   2.909   1.164   7.420 -0.7646  1.5660 -0.2815
    7CHL1  H11B  480   3.028   1.102   7.550  1.3639  0.6119 -0.6840
    7CHL1    C9  481   3.039   1.318   7.521  0.4519 -0.0758  0.0861
    7CHL1    H9  482   3.141   1.319   7.564  0.0188  3.6231  1.4050
    7CHL1   C10  483   2.942   1.370   7.638 -0.2609  0.1765 -0.2102
    7CHL1   C19  484   2.798   1.311   7.605 -0.4613 -0.5644  0.3246
    7CHL1  H19A  485   2.795   1.200   7.603 -3.5206 -0.6018  1.5075
    7CHL1  H19B  486   2.741   1.343   7.695  1.0448  2.8113  0.2313
    7CHL1  H19C  487   2.747   1.371   7.527  0.8758  0.3844  0.1340
    7CHL1    C1  488   2.995   1.310   7.770  0.1554 -0.6133 -0.2439
    7CHL1   H1A  489   2.994   1.199   7.767  0.5933 -0.6944  1.5163
    7CHL1   H1B  490   3.100   1.345   7.770  0.3704 -0.9226 -3.5892
    7CHL1    C2  491   2.928   1.359   7.898 -0.8342  0.6169  0.1118
    7CHL1   H2A  492   2.982   1.312   7.984  0.0468  1.4052  0.0006
    7CHL1   H2B  493   2.823   1.322   7.898 -0.6722  0.1457  0.3645
    7CHL1   C20  494   3.235   1.110   7.035 -0.4471 -0.4214  0.3368
    7CHL1   H20  495   3.145   1.133   6.975  1.0789  2.8781 -0.9120
    7CHL1   C21  496   3.219   0.967   7.089  0.2026  0.6196 -0.1564
    7CHL1  H21A  497   3.120   0.951   7.137 -0.0861 -0.1261 -0.9730
    7CHL1  H21B  498   3.286   0.941   7.174 -0.1622  0.3673  0.0578
    7CHL1  H21C  499   3.231   0.894   7.006 -0.3379  0.2039  0.1182
    7CHL1   C22  500   3.361   1.121   6.940  0.4512  0.4855 -0.2803
    7CHL1  H22A  501   3.376   1.221   6.892  1.0823 -0.9119 -3.2051
    7CHL1  H22B  502   3.451   1.089   6.995  1.4408 -0.0159 -2.1219
    7CHL1   C23  503   3.335   1.046   6.806  0.1466  0.1635 -0.6214
    7CHL1  H23A  504   3.421   1.056   6.737 -0.8142  0.4193 -1.8273
    7CHL1  H23B  505   3.333   0.940   6.841 -3.2673  0.6514  1.1710
    7CHL1   C24  506   3.213   1.080   6.723 -0.4506 -0.9147 -0.3611
    7CHL1  H24A  507   3.124   1.048   6.781 -0.6619  2.5594  1.5252
    7CHL1  H24B  508   3.201   1.189   6.704 -2.6115 -1.1784 -0.8586
    7CHL1   C25  509   3.205   1.005   6.591 -0.5536 -0.0018 -0.2390
    7CHL1   H25  510   3.269   1.059   6.518 -1.6296  2.9340  0.8547
    7CHL1   C26  511   3.243   0.862   6.609  0.4833  0.1124  0.0118
    7CHL1  H26A  512   3.215   0.796   6.524 -0.2086 -0.2217  0.4937
    7CHL1  H26B  513   3.353   0.857   6.627  0.3905  0.2780  0.6436
    7CHL1  H26C  514   3.204   0.827   6.707  1.5361 -3.6080 -0.7305
    7CHL1   C27  515   3.066   1.002   6.523 -0.8568 -0.3764 -1.7314
    7CHL1  H27A  516   3.031   1.107   6.516 -0.5434  0.2175  2.6488
    7CHL1  H27B  517   3.082   0.941   6.431 -1.5589 -4.3795  0.5305
    7CHL1  H27C  518   2.991   0.945   6.583  1.5424 -2.1311 -0.1537
    8CHL1    C3  519   2.010   4.946   7.501  0.4985  0.9132  0.7184
    8CHL1    H3  520   1.929   4.871   7.510  2.2640 -1.0241  1.3555
    8CHL1    O3  521   2.027   5.007   7.629  0.0600  0.3438  1.1031
    8CHL1   H3'  522   2.122   5.021   7.629  0.2127 -0.5642 -0.4299
    8CHL1    C4  523   2.134   4.873   7.452 -0.6914 -0.8589 -0.4193
    8CHL1   H4A  524   2.229   4.932   7.458  1.1601 -3.5437 -1.3801
    8CHL1   H4B  525   2.161   4.790   7.521 -0.4936  0.1482  0.7580
    8CHL1    C5  526   2.126   4.821   7.313  0.7429 -0.2978 -0.4984
    8CHL1    C6  527   2.156   4.695   7.285  0.3528 -0.5432  0.9028
    8CHL1    H6  528   2.187   4.635   7.371 -3.0208 -0.9478  1.9708
    8CHL1    C7  529   2.166   4.637   7.142  0.6368  0.4094 -0.7675
    8CHL1   H7A  530   2.258   4.581   7.116 -0.4648 -1.0477 -1.7163
    8CHL1   H7B  531   2.091   4.555   7.134  1.1262 -0.2989  1.2346
    8CHL1    C8  532   2.167   4.748   7.039 -0.0143  0.2016  0.3537
    8CHL1    H8  533   2.269   4.790   7.043  0.1510 -0.2175  3.8290
    8CHL1   C14  534   2.155   4.697   6.893 -0.3638  0.7662 -0.3310
    8CHL1   H14  535   2.057   4.646   6.889 -0.3054  0.6852 -0.7744
    8CHL1   C15  536   2.261   4.595   6.837  0.0253 -0.0203 -0.7011
    8CHL1  H15A  537   2.366   4.628   6.852  0.5368 -0.1466 -3.4741
    8CHL1  H15B  538   2.236   4.496   6.879 -2.8944  1.4205  1.3030
    8CHL1   C16  539   2.243   4.593   6.685  0.0858  0.1072 -0.5905
    8CHL1  H16A  540   2.336   4.608   6.626 -0.1810 -0.0258 -1.0561
    8CHL1  H16B  541   2.212   4.491   6.652 -0.3325 -0.5707  1.7551
    8CHL1   C17  542   2.139   4.711   6.655 -0.4959  0.7124 -1.1036
    8CHL1   H17  543   2.040   4.660   6.664 -0.5798  1.1717  1.2483
    8CHL1   C13  544   2.136   4.798   6.786  0.1876 -0.1504 -0.4148
    8CHL1   C18  545   2.260   4.894   6.776 -0.1991 -0.2317  0.4364
    8CHL1  H18A  546   2.290   4.949   6.868  0.7898  0.9963 -0.5808
    8CHL1  H18B  547   2.344   4.834   6.735  1.3142  2.4912 -0.7225
    8CHL1  H18C  548   2.238   4.964   6.692 -0.3828 -1.6413 -0.7260
    8CHL1   C12  549   2.006   4.872   6.817  0.2416  0.0003  0.1311
    8CHL1  H12A  550   1.987   4.941   6.732 -3.6814 -1.1865 -0.1823
    8CHL1  H12B  551   1.923   4.799   6.807 -2.1734  2.5441  0.3676
    8CHL1   C11  552   2.006   4.943   6.957  0.1168  0.1016  0.9074
    8CHL1  H11A  553   2.073   5.030   6.938  1.8357 -1.6085 -1.5012
    8CHL1  H11B  554   1.910   4.989   6.990  0.7124  0.1298  2.7046
    8CHL1    C9  555   2.049   4.850   7.071 -0.8414 -0.9797 -0.6507
    8CHL1    H9  556   1.962   4.781   7.075  0.6915 -2.9475  1.5571
    8CHL1   C10  557   2.076   4.921   7.209  0.4030 -0.4366 -0.7643
    8CHL1   C19  558   2.185   5.025   7.184  0.7708  0.3960 -0.4638
    8CHL1  H19A  559   2.285   4.981   7.164  0.4661 -2.0822  2.6898
    8CHL1  H19B  560   2.163   5.093   7.099  1.4106 -0.2998 -1.2002
    8CHL1  H19C  561   2.211   5.078   7.278 -0.0162  0.7792 -0.4539
    8CHL1    C1  562   1.947   4.993   7.255 -0.2952  0.0455  0.1631
    8CHL1   H1A  563   1.919   5.071   7.182 -1.6421 -1.8026 -1.4222
    8CHL1   H1B  564   1.865   4.918   7.255  0.4384 -0.7856  0.6844
    8CHL1    C2  565   1.952   5.048   7.398 -0.7526  0.0109 -0.3479
    8CHL1   H2A  566   1.856   5.098   7.421  0.0947  1.0464  1.1570
    8CHL1   H2B  567   2.030   5.127   7.392 -2.5510  1.8321 -0.9053
    8CHL1   C20  568   2.166   4.774   6.517 -0.4732 -0.1350  0.1545
    8CHL1   H20  569   2.266   4.821   6.512  0.1451 -1.4800 -0.6923
    8CHL1   C21  570   2.053   4.882   6.492 -0.4437 -0.0791  0.2170
    8CHL1  H21A  571   2.074   4.967   6.561  3.6187 -0.1595 -0.6411
    8CHL1  H21B  572   1.949   4.849   6.508 -0.5109  0.2915  0.5862
    8CHL1  H21C  573   2.068   4.923   6.389 -3.1905  0.7050  0.0670
    8CHL1   C22  574   2.155   4.669   6.404  0.3237 -0.2343  0.0106
    8CHL1  H22A  575   2.226   4.588   6.433 -0.0916 -0.1237  1.4174
    8CHL1  H22B  576   2.055   4.632   6.371  0.8272 -0.8602 -0.8486
    8CHL1   C23  577   2.227   4.724   6.267  0.4900  0.0719 -0.1553
    8CHL1  H23A  578   2.159   4.794   6.214 -0.6217 -0.9832 -0.1661
    8CHL1  H23B  579   2.323   4.771   6.295 -0.5767  1.5420  1.2259
    8CHL1   C24  580   2.268   4.607   6.173 -0.6105 -0.2194  0.2045
    8CHL1  H24A  581   2.292   4.521   6.239  1.1311  0.1334  0.0703
    8CHL1  H24B  582   2.183   4.582   6.107 -1.6570  1.4447  0.8414
    8CHL1   C25  583   2.374   4.638   6.070 -0.1589  0.0475 -0.0313
    8CHL1   H25  584   2.465   4.653   6.133 -0.0089  2.8418 -0.7746
    8CHL1   C26  585   2.393   4.509   5.984  0.1862  0.6533 -0.6410
    8CHL1  H26A  586   2.295   4.488   5.936  1.0483 -1.1816 -1.6701
    8CHL1  H26B  587   2.477   4.525   5.914  1.7631  1.9894  1.4268
    8CHL1  H26C  588   2.415   4.424   6.052  2.6904  2.1826  0.5966
    8CHL1   C27  589   2.366   4.765   5.985 -0.4318  0.7453 -0.4158
    8CHL1  H27A  590   2.448   4.771   5.911 -0.1807  0.2104 -0.1848
    8CHL1  H27B  591   2.265   4.767   5.938 -1.7016  3.5503  2.0939
    8CHL1  H27C  592   2.361   4.853   6.053 -1.0860  0.7060 -0.4089
    9CHL1    C3  593   2.568   2.347   7.687 -0.1399  0.0689 -0.5445
    9CHL1    H3  594   2.652   2.274   7.684 -0.4420 -0.3596  0.8769
    9CHL1    O3  595   2.563   2.410   7.818  0.0075  0.4511  0.3831
    9CHL1   H3'  596   2.494   2.477   7.826 -0.8142 -0.5271  2.3457
    9CHL1    C4  597   2.581   2.452   7.580  0.1355 -0.2805 -0.2185
    9CHL1   H4A  598   2.506   2.532   7.602  0.2854  0.3294 -1.8272
    9CHL1   H4B  599   2.679   2.499   7.601 -0.4355  0.9394 -0.1646
    9CHL1    C5  600   2.576   2.398   7.437  0.2293 -0.1567 -0.2930
    9CHL1    C6  601   2.679   2.421   7.353 -0.0104  0.3125 -0.4654
    9CHL1    H6  602   2.769   2.475   7.386  1.7674 -1.7657 -1.6973
    9CHL1    C7  603   2.667   2.383   7.211  0.0539  0.0431  0.3223
    9CHL1   H7A  604   2.704   2.468   7.151  1.3092  0.5101  1.6921
    9CHL1   H7B  605   2.741   2.308   7.175 -0.5514  0.4104 -1.8458
    9CHL1    C8  606   2.522   2.328   7.168 -0.3519 -0.1435 -0.3979
    9CHL1    H8  607   2.461   2.420   7.153 -1.1436 -0.6791 -0.5027
    9CHL1   C14  608   2.532   2.250   7.042 -0.2588 -0.0738 -0.0305
    9CHL1   H14  609   2.588   2.158   7.069  0.8239  0.5507 -0.0629
    9CHL1   C15  610   2.601   2.315   6.920  0.1258 -0.9388  0.1973
    9CHL1  H15A  611   2.580   2.424   6.914 -3.3633 -1.2694  2.9073
    9CHL1  H15B  612   2.709   2.293   6.911  0.4501  0.5537  0.2037
    9CHL1   C16  613   2.548   2.229   6.799 -0.1317 -0.8808  0.1697
    9CHL1  H16A  614   2.478   2.294   6.743 -0.8509  0.0563  2.0361
    9CHL1  H16B  615   2.623   2.179   6.734  1.9105 -0.5331  2.1325
    9CHL1   C17  616   2.456   2.125   6.860 -0.6601 -0.8043 -0.0861
    9CHL1   H17  617   2.528   2.048   6.894  1.1909  0.4815 -0.8901
    9CHL1   C13  618   2.396   2.194   6.994 -0.5647 -0.2887 -0.6041
    9CHL1   C18  619   2.291   2.307   6.954  0.2206 -0.3865 -0.3415
    9CHL1  H18A  620   2.332   2.401   6.910 -0.3997  1.1650  2.1491
    9CHL1  H18B  621   2.200   2.277   6.899 -0.8841  2.4940 -0.2603
    9CHL1  H18C  622   2.255   2.357   7.047  0.9431  4.6324 -2.4549
    9CHL1   C12  623   2.334   2.104   7.105  0.7432  0.1211  0.8719
    9CHL1  H12A  624   2.233   2.069   7.076 -0.4446  3.0485  1.0866
    9CHL1  H12B  625   2.400   2.016   7.118 -0.2743 -0.4392  2.6785
    9CHL1   C11  626   2.318   2.177   7.237  0.0205  0.6886  0.2350
    9CHL1  H11A  627   2.242   2.257   7.225 -0.6663  0.0280  0.1580
    9CHL1  H11B  628   2.290   2.102   7.314  0.0917  0.3195 -0.0973
    9CHL1    C9  629   2.458   2.240   7.281 -0.1255  0.4962 -0.2889
    9CHL1    H9  630   2.522   2.152   7.302  1.7830  1.7219 -0.7325
    9CHL1   C10  631   2.450   2.317   7.418  0.5053  0.1210  0.0845
    9CHL1   C19  632   2.330   2.411   7.419 -0.5174 -0.0159 -0.1969
    9CHL1  H19A  633   2.318   2.474   7.328 -1.2245 -0.7795 -0.6485
    9CHL1  H19B  634   2.232   2.359   7.424 -1.2587  1.3834  0.4457
    9CHL1  H19C  635   2.324   2.481   7.505 -0.1552  0.2041 -0.3529
    9CHL1    C1  636   2.419   2.210   7.528 -0.4202 -0.3572  0.3475
    9CHL1   H1A  637   2.315   2.175   7.510 -0.2074 -1.1507  0.6229
    9CHL1   H1B  638   2.480   2.118   7.515 -0.3481 -0.2420 -0.1586
    9CHL1    C2  639   2.441   2.274   7.669 -0.8440  0.1614  0.2561
    9CHL1   H2A  640   2.430   2.187   7.737  2.4767  0.4866  1.3853
    9CHL1   H2B  641   2.357   2.339   7.703 -1.0016 -0.7912  1.8106
    9CHL1   C20  642   2.355   2.054   6.764 -0.5217 -0.2325 -0.4960
    9CHL1   H20  643   2.267   2.121   6.766 -0.7534 -0.5447  0.8460
    9CHL1   C21  644   2.311   1.915   6.824 -0.8663 -0.4156  0.1177
    9CHL1  H21A  645   2.211   1.894   6.781 -0.4649 -1.7505 -0.2048
    9CHL1  H21B  646   2.305   1.906   6.934  0.3088 -0.1601  0.2205
    9CHL1  H21C  647   2.386   1.837   6.798  2.0434  1.4047  2.3261
    9CHL1   C22  648   2.391   2.053   6.613  0.0098 -0.4628 -0.4315
    9CHL1  H22A  649   2.404   2.156   6.574  0.9493 -0.8415 -1.1787
    9CHL1  H22B  650   2.492   2.007   6.601  1.4390  1.9837  1.2594
    9CHL1   C23  651   2.275   1.996   6.522 -0.2434  0.0391  0.1586
    9CHL1  H23A  652   2.243   1.893   6.550  0.7987 -0.3626 -0.0742
    9CHL1  H23B  653   2.181   2.051   6.540 -0.4534  0.1673 -1.2221
    9CHL1   C24  654   2.296   2.010   6.370 -0.3332  0.3695  0.1790
    9CHL1  H24A  655   2.336   2.110   6.346 -0.2367  0.1372 -0.6582
    9CHL1  H24B  656   2.360   1.920   6.351 -0.9559 -0.5872  2.3108
    9CHL1   C25  657   2.173   1.983   6.275  0.0804  0.2422 -0.0442
    9CHL1   H25  658   2.086   2.034   6.321 -2.4486 -1.2356 -2.8168
    9CHL1   C26  659   2.193   2.036   6.129 -0.4935  0.2924 -0.0422
    9CHL1  H26A  660   2.117   2.001   6.056  0.9148  0.9973 -1.9333
    9CHL1  H26B  661   2.190   2.147   6.133  1.6237  0.3739  0.2566
    9CHL1  H26C  662   2.296   2.007   6.100 -0.3122  0.8980 -0.0305
    9CHL1   C27  663   2.144   1.828   6.277  0.3189 -0.1700  0.0395
    9CHL1  H27A  664   2.235   1.780   6.237 -1.2097 -1.0984 -2.5945
    9CHL1  H27B  665   2.113   1.794   6.379 -2.8476 -0.3743 -0.8630
    9CHL1  H27C  666   2.061   1.793   6.212  0.1128 -1.6979  1.0585
   10CHL1    C3  667   3.083   5.366   7.713  0.0642 -0.0626  0.1558
   10CHL1    H3  668   3.189   5.370   7.681 -0.0257 -0.4254 -0.1885
   10CHL1    O3  669   3.083   5.341   7.850 -0.5410  0.1224 -0.1257
   10CHL1   H3'  670   2.997   5.365   7.885 -0.4782  1.3794 -0.7768
   10CHL1    C4  671   3.027   5.502   7.684  0.1586  0.0726  0.6578
   10CHL1   H4A  672   2.925   5.503   7.729 -0.7071  2.6524 -1.1238
   10CHL1   H4B  673   3.091   5.574   7.740 -0.5748  1.9242 -0.7708
   10CHL1    C5  674   3.017   5.537   7.544 -0.2824 -0.5902  0.9150
   10CHL1    C6  675   3.084   5.649   7.494  0.0165  0.1859 -0.0983
   10CHL1    H6  676   3.152   5.699   7.565 -1.4120  0.4288  1.1529
   10CHL1    C7  677   3.084   5.699   7.351  0.5092  0.5856 -0.1725
   10CHL1   H7A  678   3.087   5.810   7.343  1.4239  0.4837 -1.6748
   10CHL1   H7B  679   3.175   5.657   7.303 -0.2857 -2.5655  0.8201
   10CHL1    C8  680   2.967   5.621   7.276 -0.0801 -0.8584 -0.4060
   10CHL1    H8  681   2.868   5.664   7.302 -0.9879 -3.4653  0.8366
   10CHL1   C14  682   2.992   5.633   7.123  0.5408  0.2665 -0.5041
   10CHL1   H14  683   3.086   5.576   7.113 -0.0851 -0.9179  0.0983
   10CHL1   C15  684   3.013   5.773   7.065 -0.3381 -0.4494  0.3369
   10CHL1  H15A  685   2.937   5.845   7.103 -0.7762 -0.5456 -0.3550
   10CHL1  H15B  686   3.113   5.819   7.085  0.2912 -0.5803 -2.2412
   10CHL1   C16  687   3.008   5.749   6.917  1.2613 -0.6488 -0.2388
   10CHL1  H16A  688   2.937   5.820   6.870  0.3417 -2.6476 -1.9776
   10CHL1  H16B  689   3.110   5.773   6.880  0.1969  2.2924 -1.6208
   10CHL1   C17  690   2.953   5.609   6.893 -0.1794  0.0900  0.3233
   10CHL1   H17  691   3.037   5.538   6.878  1.9740  3.1331 -4.1540
   10CHL1   C13  692   2.888   5.565   7.030 -0.8095  0.1222  0.0976
   10CHL1   C18  693   2.747   5.628   7.043  0.0996 -0.5019  0.0285
   10CHL1  H18A  694   2.708   5.608   7.145  0.5348  0.4963  0.4008
   10CHL1  H18B  695   2.755   5.737   7.026 -1.4021 -0.4376 -0.4222
   10CHL1  H18C  696   2.663   5.599   6.976 -0.3791  0.7382  0.0838
   10CHL1   C12  697   2.885   5.412   7.058 -0.1082 -0.3511 -0.0191
   10CHL1  H12A  698   2.798   5.365   7.007 -0.0165 -0.5844  0.0414
   10CHL1  H12B  699   2.974   5.364   7.013  0.4503  0.8426 -0.2287
   10CHL1   C11  700   2.871   5.383   7.210 -0.0499  0.5191  0.0998
   10CHL1  H11A  701   2.763   5.393   7.238 -0.0305  0.4359  0.2064
   10CHL1  H11B  702   2.892   5.275   7.224 -0.3059  0.6677  1.8223
   10CHL1    C9  703   2.964   5.469   7.309 -0.8435 -0.1396 -0.5582
   10CHL1    H9  704   3.066   5.431   7.286 -1.5030 -1.3684 -1.6001
   10CHL1   C10  705   2.938   5.444   7.460  0.4802 -0.0274 -0.8587
   10CHL1   C19  706   2.781   5.453   7.488 -0.1896  0.8821  0.8066
   10CHL1  H19A  707   2.747   5.559   7.482 -0.8306  0.8250  2.7121
   10CHL1  H19B  708   2.718   5.385   7.427  2.2291  0.9208 -1.9008
   10CHL1  H19C  709   2.755   5.420   7.591 -2.9782 -1.7462 -0.5434
   10CHL1    C1  710   2.976   5.294   7.495 -0.6941 -0.1360 -0.3631
   10CHL1   H1A  711   2.904   5.222   7.452 -0.0659 -1.0839  0.1326
   10CHL1   H1B  712   3.076   5.268   7.454 -0.1977 -2.3934  1.9914
   10CHL1    C2  713   2.996   5.260   7.640  0.5568 -0.5148  0.1772
   10CHL1   H2A  714   3.046   5.161   7.651  0.3885 -0.6637 -0.3687
   10CHL1   H2B  715   2.906   5.268   7.705  0.8751  1.6079  0.4350
   10CHL1   C20  716   2.874   5.604   6.764 -0.1728 -0.3368  0.0670
   10CHL1   H20  717   2.787   5.673   6.764 -0.9342 -1.1931 -2.4689
   10CHL1   C21  718   2.820   5.457   6.740  0.0394  0.0295 -0.6981
   10CHL1  H21A  719   2.905   5.386   6.750  1.0402  1.4280  1.5978
   10CHL1  H21B  720   2.776   5.446   6.639 -1.5970 -1.7373  0.1381
   10CHL1  H21C  721   2.741   5.434   6.815  1.5746  0.2043  1.0561
   10CHL1   C22  722   2.943   5.647   6.635  0.8494 -0.3339 -0.3857
   10CHL1  H22A  723   2.888   5.612   6.546  1.5971  1.9640 -1.8666
   10CHL1  H22B  724   2.934   5.758   6.625 -0.1655 -0.4044 -0.2998
   10CHL1   C23  725   3.084   5.610   6.606  0.3066  0.5663  0.1243
   10CHL1  H23A  726   3.146   5.663   6.681  2.0286 -0.8708 -0.2040
   10CHL1  H23B  727   3.095   5.500   6.614  1.3055  0.6773  0.3734
   10CHL1   C24  728   3.140   5.660   6.474 -0.1772 -0.2684 -0.1537
   10CHL1  H24A  729   3.121   5.770   6.476  0.0083 -0.2197  1.8887
   10CHL1  H24B  730   3.251   5.657   6.471 -0.0135  2.8598 -1.3757
   10CHL1   C25  731   3.080   5.598   6.344 -0.1825 -0.0983  0.0438
   10CHL1   H25  732   2.973   5.627   6.349  0.2780  1.3920  2.7816
   10CHL1   C26  733   3.143   5.668   6.220 -0.0014  0.3214 -0.3424
   10CHL1  H26A  734   3.129   5.777   6.204 -2.1532 -0.3147 -3.9385
   10CHL1  H26B  735   3.254   5.655   6.219  0.3697  2.4410 -4.0317
   10CHL1  H26C  736   3.102   5.633   6.123 -0.4043  1.1154 -0.4655
   10CHL1   C27  737   3.096   5.449   6.328  0.3152  0.8573 -0.2740
   10CHL1  H27A  738   3.057   5.395   6.417  0.0907  0.7512 -0.4383
   10CHL1  H27B  739   3.035   5.419   6.241 -1.3228 -1.2709  1.5047
   10CHL1  H27C  740   3.202   5.428   6.301  0.2994  0.2606  0.1051
   11CHL1    C3  741   1.881   3.100   7.486  0.0128 -0.5975 -0.1988
   11CHL1    H3  742   1.874   2.991   7.509  2.6312 -0.8461 -0.2220
   11CHL1    O3  743   1.934   3.164   7.600  0.7431  0.2238 -0.0369
   11CHL1   H3'  744   2.027   3.139   7.592  0.0737 -2.3461 -0.7040
   11CHL1    C4  745   1.967   3.137   7.366  0.1907 -0.3527  0.0445
   11CHL1   H4A  746   1.972   3.248   7.364 -1.7717 -0.2271 -0.0838
   11CHL1   H4B  747   2.070   3.097   7.369 -0.2286 -1.5091 -0.3981
   11CHL1    C5  748   1.906   3.092   7.240 -0.3019  0.1270  0.4875
   11CHL1    C6  749   1.974   3.006   7.161  0.7162 -0.1737 -0.1862
   11CHL1    H6  750   2.076   2.974   7.185  2.0197  2.0800 -2.2405
   11CHL1    C7  751   1.927   2.957   7.028  0.6082  0.0455  0.4228
   11CHL1   H7A  752   2.007   2.966   6.953 -1.1448 -2.5049 -1.9758
   11CHL1   H7B  753   1.888   2.852   7.032 -0.2480  0.3799  1.8332
   11CHL1    C8  754   1.802   3.035   6.970  0.6810 -0.4409 -0.3454
   11CHL1    H8  755   1.837   3.130   6.926  0.8394  0.8094  2.3157
   11CHL1   C14  756   1.737   2.947   6.860  0.1059  0.6163  0.3147
   11CHL1   H14  757   1.715   2.845   6.898  0.4272 -0.8418 -3.0454
   11CHL1   C15  758   1.831   2.911   6.739 -0.2247  0.1852  0.5437
   11CHL1  H15A  759   1.880   3.005   6.708 -3.0327  1.1306 -1.4462
   11CHL1  H15B  760   1.901   2.832   6.774 -0.5380  0.1442  1.0857
   11CHL1   C16  761   1.732   2.865   6.634  0.3416 -0.2753  0.1983
   11CHL1  H16A  762   1.731   2.918   6.536 -2.6636 -0.8561 -0.1848
   11CHL1  H16B  763   1.731   2.755   6.621 -2.2799 -0.4976  1.5822
   11CHL1   C17  764   1.584   2.901   6.690  0.2603 -0.7696  0.1342
   11CHL1   H17  765   1.543   2.808   6.735  0.4005  0.3601  2.7696
   11CHL1   C13  766   1.608   3.004   6.803 -0.3232 -0.0569 -0.5713
   11CHL1   C18  767   1.612   3.143   6.732 -0.1012 -0.0933  0.0862
   11CHL1  H18A  768   1.652   3.227   6.793  1.2422 -0.0126 -0.8668
   11CHL1  H18B  769   1.668   3.140   6.636 -0.6378 -4.7133 -0.2911
   11CHL1  H18C  770   1.512   3.171   6.695  0.8090  0.3438 -2.2091
   11CHL1   C12  771   1.509   3.007   6.922  0.2406 -0.0495  0.1423
   11CHL1  H12A  772   1.411   3.050   6.894  0.8438  1.2108 -0.0727
   11CHL1  H12B  773   1.491   2.902   6.955 -1.4458  0.0020 -0.5203
   11CHL1   C11  774   1.563   3.096   7.037  0.3125  0.3391  0.2776
   11CHL1  H11A  775   1.570   3.203   7.010 -0.5429  0.0225 -1.3403
   11CHL1  H11B  776   1.489   3.088   7.119 -0.5530  2.4122 -0.2414
   11CHL1    C9  777   1.702   3.052   7.087 -0.8634 -0.0798  0.0683
   11CHL1    H9  778   1.691   2.946   7.118  3.9334 -1.3933 -1.7766
   11CHL1   C10  779   1.757   3.128   7.209 -0.2658  0.1100  0.2728
   11CHL1   C19  780   1.767   3.280   7.171  0.2105 -0.3924 -0.4905
   11CHL1  H19A  781   1.672   3.334   7.150 -0.5340 -0.9372  1.2514
   11CHL1  H19B  782   1.808   3.340   7.256  0.6630 -0.4830 -0.6452
   11CHL1  H19C  783   1.841   3.298   7.090  0.4287 -0.9786 -0.4281
   11CHL1    C1  784   1.679   3.100   7.339  0.3531 -0.8582  0.0705
   11CHL1   H1A  785   1.574   3.132   7.325  0.5857 -0.9220 -2.1813
   11CHL1   H1B  786   1.679   2.991   7.364  1.9864 -0.7695  0.5496
   11CHL1    C2  787   1.747   3.160   7.468  0.2830 -0.1866 -0.0901
   11CHL1   H2A  788   1.691   3.121   7.557 -0.3480  0.9701  0.0505
   11CHL1   H2B  789   1.744   3.269   7.447  0.7052 -0.2278 -0.3569
   11CHL1   C20  790   1.483   2.929   6.575  0.4523  0.1784  0.2186
   11CHL1   H20  791   1.505   3.026   6.525 -0.6810  1.0754  1.4076
   11CHL1   C21  792   1.349   2.947   6.637  0.6438  0.7023  0.3763
   11CHL1  H21A  793   1.270   2.951   6.559 -0.8367  0.2444  1.8239
   11CHL1  H21B  794   1.350   3.038   6.700  2.3671  0.2356  1.0928
   11CHL1  H21C  795   1.330   2.858   6.700 -0.4472  0.8731  0.3055
   11CHL1   C22  796   1.482   2.816   6.464 -0.3045 -0.6948  0.4922
   11CHL1  H22A  797   1.583   2.792   6.425 -0.9262 -2.2170 -0.3099
   11CHL1  H22B  798   1.448   2.720   6.510  1.2984 -0.2982  2.6518
   11CHL1   C23  799   1.389   2.839   6.339 -0.4278 -0.0880 -0.7424
   11CHL1  H23A  800   1.284   2.835   6.375  0.0483  1.1669  0.9050
   11CHL1  H23B  801   1.415   2.932   6.283 -0.3293  0.0799 -0.4176
   11CHL1   C24  802   1.429   2.730   6.236  0.0545  0.0610  0.0306
   11CHL1  H24A  803   1.537   2.739   6.213  0.4329 -1.2424  1.1426
   11CHL1  H24B  804   1.405   2.634   6.286 -2.5198  1.3544  1.5349
   11CHL1   C25  805   1.351   2.730   6.106 -0.2975 -0.2163  0.6532
   11CHL1   H25  806   1.243   2.733   6.127 -1.1818  0.8012 -3.1879
   11CHL1   C26  807   1.384   2.864   6.021 -0.1515 -0.6301 -0.6431
   11CHL1  H26A  808   1.486   2.856   5.979  0.7605  3.8119  0.2687
   11CHL1  H26B  809   1.311   2.870   5.938  2.1831 -0.8573 -2.8532
   11CHL1  H26C  810   1.375   2.958   6.079 -0.0315 -0.3244 -1.1210
   11CHL1   C27  811   1.385   2.603   6.029 -0.6342 -0.7115 -0.0188
   11CHL1  H27A  812   1.332   2.595   5.931  0.2784 -0.0929 -0.5821
   11CHL1  H27B  813   1.496   2.611   6.022 -0.6739  0.4243  0.3947
   11CHL1  H27C  814   1.368   2.512   6.090 -1.0822 -0.5218  0.1370
   12CHL1    C3  815   2.639   4.837   7.686  0.9778 -0.1423  0.3577
   12CHL1    H3  816   2.694   4.741   7.697 -1.2946 -1.5302  0.1087
   12CHL1    O3  817   2.584   4.869   7.816 -0.0821  0.3047  0.2132
   12CHL1   H3'  818   2.520   4.940   7.804  0.0092  0.0638 -2.2396
   12CHL1    C4  819   2.735   4.955   7.649  1.0935 -0.2427  0.5444
   12CHL1   H4A  820   2.690   5.048   7.689  1.6834 -0.1875  1.0947
   12CHL1   H4B  821   2.834   4.941   7.699  1.4048 -2.8352 -0.6263
   12CHL1    C5  822   2.775   4.943   7.502 -0.6062  0.2609  0.1660
   12CHL1    C6  823   2.904   4.938   7.454 -0.3216 -0.0408 -0.2285
   12CHL1    H6  824   2.983   4.965   7.525 -1.3731 -0.4280  1.1224
   12CHL1    C7  825   2.951   4.936   7.314  0.3342  0.1207 -0.7663
   12CHL1   H7A  826   3.037   5.005   7.302  1.2552 -0.8381  0.1333
   12CHL1   H7B  827   2.984   4.837   7.276  0.2828 -0.3223  0.3020
   12CHL1    C8  828   2.838   4.968   7.213  0.1234  0.0187 -0.8258
   12CHL1    H8  829   2.826   5.078   7.206  1.4706  0.1798 -0.7317
   12CHL1   C14  830   2.877   4.934   7.064 -0.6217 -0.3492 -0.4721
   12CHL1   H14  831   2.877   4.823   7.054 -2.2885 -0.3653 -0.6044
   12CHL1   C15  832   3.012   4.988   7.010 -0.8433  0.0253  0.0547
   12CHL1  H15A  833   3.010   5.089   7.055  0.6621  0.5486 -0.9908
   12CHL1  H15B  834   3.091   4.933   7.064 -2.0970 -3.9513 -1.7912
   12CHL1   C16  835   3.001   4.977   6.857 -0.9440  0.4243 -0.9016
   12CHL1  H16A  836   3.018   5.076   6.810 -0.7969  0.6158 -0.4476
   12CHL1  H16B  837   3.064   4.895   6.818  0.4107  0.3879  1.1740
   12CHL1   C17  838   2.855   4.933   6.831  0.0998  0.1686 -0.8437
   12CHL1   H17  839   2.847   4.824   6.815 -1.8258  0.6206 -3.6616
   12CHL1   C13  840   2.775   4.968   6.961  0.1085 -0.1317 -0.1829
   12CHL1   C18  841   2.741   5.111   6.957  0.2265  0.4337  0.1207
   12CHL1  H18A  842   2.825   5.177   6.924  0.6840  0.0152  0.4416
   12CHL1  H18B  843   2.662   5.128   6.880  2.8959 -0.2960 -3.0347
   12CHL1  H18C  844   2.699   5.158   7.048  1.9343  1.5008  0.3997
   12CHL1   C12  845   2.652   4.883   7.000  0.0667  0.4789 -0.7118
   12CHL1  H12A  846   2.566   4.895   6.930  0.6692  1.6487 -1.2662
   12CHL1  H12B  847   2.688   4.778   7.000  0.2365  0.5220  0.4753
   12CHL1   C11  848   2.605   4.920   7.141  0.5314 -0.6650  0.5753
   12CHL1  H11A  849   2.571   5.025   7.140  1.0859 -0.4818  0.7058
   12CHL1  H11B  850   2.512   4.862   7.160  0.1919 -0.2006  0.3625
   12CHL1    C9  851   2.705   4.903   7.250  0.7069 -0.0344 -0.5730
   12CHL1    H9  852   2.733   4.796   7.251  0.1262 -0.2109 -1.5807
   12CHL1   C10  853   2.658   4.936   7.398 -0.0993 -0.0988 -0.0359
   12CHL1   C19  854   2.590   5.074   7.393  0.0701 -0.2497 -0.2296
   12CHL1  H19A  855   2.658   5.146   7.342  2.6766 -2.0706  0.4232
   12CHL1  H19B  856   2.497   5.074   7.333 -0.7021 -1.3516  0.9302
   12CHL1  H19C  857   2.556   5.109   7.493 -1.9493 -0.1567 -0.9148
   12CHL1    C1  858   2.558   4.821   7.444  0.1281 -0.2020 -0.1684
   12CHL1   H1A  859   2.468   4.819   7.380  0.1968 -0.5399 -0.2593
   12CHL1   H1B  860   2.601   4.721   7.421 -2.8366 -1.8282  0.8169
   12CHL1    C2  861   2.520   4.819   7.590  0.3243  0.2603 -0.2350
   12CHL1   H2A  862   2.466   4.726   7.620 -0.6758  0.6199 -0.8940
   12CHL1   H2B  863   2.445   4.899   7.605  0.1533  0.0967 -0.2026
   12CHL1   C20  864   2.805   4.987   6.700 -0.6595 -0.2233 -0.0855
   12CHL1   H20  865   2.813   5.097   6.709  1.5864 -0.2831 -0.7754
   12CHL1   C21  866   2.656   4.949   6.666  0.2129 -0.2536 -0.5900
   12CHL1  H21A  867   2.637   4.840   6.667 -0.8385 -0.1531  2.8248
   12CHL1  H21B  868   2.616   5.001   6.576 -2.6761 -0.4408  0.4846
   12CHL1  H21C  869   2.589   4.982   6.749  0.5695 -1.5214  0.2372
   12CHL1   C22  870   2.901   4.945   6.583  0.1127  0.3005  0.0899
   12CHL1  H22A  871   2.996   4.998   6.605 -0.0115 -0.3043  2.3106
   12CHL1  H22B  872   2.916   4.836   6.597  0.4126  0.6459  2.9926
   12CHL1   C23  873   2.858   4.961   6.434 -0.4692 -0.1545 -0.1371
   12CHL1  H23A  874   2.929   4.926   6.356 -0.3497  2.3334 -1.2299
   12CHL1  H23B  875   2.767   4.898   6.424  0.0467 -0.8852 -0.2739
   12CHL1   C24  876   2.809   5.107   6.403 -0.1728  0.6467  0.3904
   12CHL1  H24A  877   2.725   5.139   6.469  0.3452  1.0872  0.8488
   12CHL1  H24B  878   2.906   5.157   6.425  2.9831 -2.9836 -3.5797
   12CHL1   C25  879   2.760   5.134   6.255 -0.5755  0.3935  0.6807
   12CHL1   H25  880   2.843   5.097   6.190 -0.0042 -2.9210  3.0357
   12CHL1   C26  881   2.627   5.063   6.223  0.0503  0.1977 -0.2214
   12CHL1  H26A  882   2.612   5.072   6.113  1.3276 -2.5476 -0.6917
   12CHL1  H26B  883   2.629   4.953   6.238  0.2846  0.1040 -0.8922
   12CHL1  H26C  884   2.546   5.111   6.282  0.1983  1.2013 -0.8026
   12CHL1   C27  885   2.753   5.283   6.235 -0.2187  0.5702  0.3252
   12CHL1  H27A  886   2.733   5.311   6.129  0.6269 -0.1350 -0.0313
   12CHL1  H27B  887   2.675   5.330   6.299  0.4050  1.5734  0.3796
   12CHL1  H27C  888   2.842   5.336   6.277 -0.7504  0.6747  1.3635
   13CHL1    C3  889   3.652   3.826   7.695 -0.5486 -0.9360 -0.3850
   13CHL1    H3  890   3.760   3.849   7.704 -0.9507  0.9843  0.0911
   13CHL1    O3  891   3.592   3.829   7.828  0.3351 -0.5661 -0.1100
   13CHL1   H3'  892   3.506   3.791   7.809  0.8902 -1.9415  0.0165
   13CHL1    C4  893   3.590   3.941   7.615 -0.1893  0.6219  0.7200
   13CHL1   H4A  894   3.481   3.918   7.622  0.2643 -2.3607 -0.5627
   13CHL1   H4B  895   3.619   4.037   7.664 -1.3880  1.8003 -0.7720
   13CHL1    C5  896   3.630   3.936   7.470 -0.1283 -0.2487 -0.1390
   13CHL1    C6  897   3.685   4.051   7.418  0.1377 -0.2186  0.2782
   13CHL1    H6  898   3.683   4.147   7.471 -1.0190 -1.0882  1.8824
   13CHL1    C7  899   3.735   4.057   7.269 -0.0463  0.0060 -1.1161
   13CHL1   H7A  900   3.697   4.151   7.222 -0.5189 -0.1060 -0.9655
   13CHL1   H7B  901   3.844   4.078   7.268 -0.0295 -0.0582 -0.8106
   13CHL1    C8  902   3.702   3.929   7.188 -0.4388 -0.2552  0.2962
   13CHL1    H8  903   3.593   3.923   7.165 -0.9278  1.4340  1.9549
   13CHL1   C14  904   3.782   3.919   7.052  0.4239 -0.2639 -0.1535
   13CHL1   H14  905   3.888   3.907   7.083  0.2287  0.7640  0.9899
   13CHL1   C15  906   3.781   4.036   6.954  0.2685 -0.0668 -0.0528
   13CHL1  H15A  907   3.673   4.061   6.949  0.1920  0.0098  1.4337
   13CHL1  H15B  908   3.850   4.114   6.993 -0.4293  0.3918  0.2875
   13CHL1   C16  909   3.826   3.983   6.818 -0.9450 -0.5628  0.3753
   13CHL1  H16A  910   3.766   4.010   6.729  2.6648 -0.9721 -2.3835
   13CHL1  H16B  911   3.932   4.011   6.801 -1.4232  0.4539 -1.0078
   13CHL1   C17  912   3.830   3.828   6.840  0.3627 -1.1286 -0.1096
   13CHL1   H17  913   3.936   3.808   6.866  0.2310 -0.7682  0.7393
   13CHL1   C13  914   3.755   3.789   6.971 -0.3501  0.1449  0.6235
   13CHL1   C18  915   3.606   3.778   6.935  0.1929 -0.5220 -0.1648
   13CHL1  H18A  916   3.543   3.756   7.024 -1.8982 -0.5972 -1.5691
   13CHL1  H18B  917   3.573   3.869   6.879  2.3857  0.4872  0.0991
   13CHL1  H18C  918   3.593   3.697   6.859  2.7813  0.4100 -1.7129
   13CHL1   C12  919   3.805   3.666   7.052  0.1688 -0.1759 -0.3240
   13CHL1  H12A  920   3.799   3.571   6.996 -3.5713  0.1894 -0.8105
   13CHL1  H12B  921   3.913   3.689   7.069 -0.2229  0.8608  1.0133
   13CHL1   C11  922   3.742   3.664   7.193 -0.0146 -0.4370 -0.3184
   13CHL1  H11A  923   3.641   3.632   7.163 -1.2422  1.9889  0.8658
   13CHL1  H11B  924   3.797   3.590   7.255  0.8081 -0.3327 -0.8974
   13CHL1    C9  925   3.724   3.799   7.273 -0.0847 -0.0504 -0.6532
   13CHL1    H9  926   3.828   3.809   7.312 -0.0467  0.8791 -0.9467
   13CHL1   C10  927   3.629   3.798   7.398 -0.4852  0.3766 -0.1249
   13CHL1   C19  928   3.484   3.783   7.349 -0.0684  0.6773  0.1964
   13CHL1  H19A  929   3.419   3.764   7.437  0.5566  1.9833  0.9718
   13CHL1  H19B  930   3.454   3.873   7.290  1.7374  0.9050 -0.4310
   13CHL1  H19C  931   3.468   3.697   7.281 -0.0914 -0.1882  1.2646
   13CHL1    C1  932   3.690   3.693   7.492  0.6565  0.2426 -0.2693
   13CHL1   H1A  933   3.669   3.591   7.451 -0.0898  0.1805  0.2452
   13CHL1   H1B  934   3.799   3.712   7.501  0.5374  1.0547 -0.4964
   13CHL1    C2  935   3.627   3.695   7.632 -0.1055  0.4580 -0.2459
   13CHL1   H2A  936   3.684   3.623   7.695 -1.5403 -0.0841  0.4603
   13CHL1   H2B  937   3.520   3.666   7.636  0.4957 -1.9811 -0.0570
   13CHL1   C20  938   3.794   3.759   6.706  0.2064 -0.2539  0.4069
   13CHL1   H20  939   3.690   3.787   6.681 -0.5966 -3.8433 -0.8873
   13CHL1   C21  940   3.808   3.607   6.723 -0.8260 -0.4083  0.1809
   13CHL1  H21A  941   3.908   3.567   6.695 -1.5303 -1.5756 -0.7902
   13CHL1  H21B  942   3.733   3.565   6.652  0.4325 -0.9856 -0.8460
   13CHL1  H21C  943   3.770   3.563   6.818 -0.8617 -1.4600 -0.2988
   13CHL1   C22  944   3.880   3.806   6.584 -0.6387 -0.3435 -0.5792
   13CHL1  H22A  945   3.874   3.915   6.567 -2.1066 -0.3919 -0.5021
   13CHL1  H22B  946   3.985   3.772   6.596 -0.4089  0.1276 -1.1872
   13CHL1   C23  947   3.832   3.742   6.452  0.3106 -0.6171 -0.5562
   13CHL1  H23A  948   3.894   3.762   6.362  0.4271 -1.8717 -0.7761
   13CHL1  H23B  949   3.840   3.632   6.464  2.9628 -0.4483 -0.0596
   13CHL1   C24  950   3.696   3.788   6.395  1.2351  0.2069  0.1728
   13CHL1  H24A  951   3.617   3.769   6.471  0.0147 -0.2718 -1.1486
   13CHL1  H24B  952   3.702   3.898   6.380 -2.1033  0.5666  0.7533
   13CHL1   C25  953   3.654   3.727   6.253 -0.4974 -0.5805 -0.9929
   13CHL1   H25  954   3.734   3.749   6.179  0.2361  1.4939  0.2951
   13CHL1   C26  955   3.659   3.578   6.256  0.1993 -1.1295 -0.6158
   13CHL1  H26A  956   3.589   3.544   6.335  0.6058  1.9230  1.1963
   13CHL1  H26B  957   3.633   3.533   6.157  0.2373 -0.3765 -0.9744
   13CHL1  H26C  958   3.763   3.551   6.285  0.4401  0.3391 -0.0617
   13CHL1   C27  959   3.529   3.809   6.220  0.6321  0.1861  0.6216
   13CHL1  H27A  960   3.462   3.803   6.308  1.2410 -0.0173  1.0750
   13CHL1  H27B  961   3.549   3.917   6.200 -1.8396  0.3117 -1.8891
   13CHL1  H27C  962   3.477   3.775   6.128  2.0589  0.9263 -0.4899
   14CHL1    C3  963   0.183   6.441   7.875 -0.3377 -0.0531 -0.2623
   14CHL1    H3  964   0.121   6.352   7.851  1.0665 -1.5512  1.3606
   14CHL1    O3  965   0.154   6.484   8.007  0.2452 -0.3630  0.3284
   14CHL1   H3'  966   0.233   6.466   8.059 -1.1860 -1.4736  2.2843
   14CHL1    C4  967   0.327   6.396   7.854 -0.6211  0.3819 -0.3622
   14CHL1   H4A  968   0.402   6.478   7.859  0.1440 -0.3263  0.1093
   14CHL1   H4B  969   0.364   6.320   7.926  2.3213  1.4151 -0.6390
   14CHL1    C5  970   0.344   6.344   7.713  0.4532 -0.0812  0.1395
   14CHL1    C6  971   0.399   6.218   7.696 -0.0169  0.0119  0.9771
   14CHL1    H6  972   0.451   6.173   7.782  1.3157 -0.0795  0.1549
   14CHL1    C7  973   0.428   6.164   7.559 -0.6321  0.2427  0.1449
   14CHL1   H7A  974   0.534   6.131   7.560 -0.4467  0.7987 -0.3641
   14CHL1   H7B  975   0.361   6.080   7.534  0.7622 -0.8466 -0.0940
   14CHL1    C8  976   0.416   6.268   7.446 -0.3223 -0.2150  0.3594
   14CHL1    H8  977   0.509   6.329   7.449 -1.4380  1.6897 -1.2480
   14CHL1   C14  978   0.403   6.204   7.304  0.3869 -0.1274 -0.3375
   14CHL1   H14  979   0.315   6.136   7.309  0.0424  0.3532  0.3425
   14CHL1   C15  980   0.514   6.113   7.252 -0.1799 -0.9339  0.0608
   14CHL1  H15A  981   0.611   6.165   7.266 -0.8409  0.9321 -1.7096
   14CHL1  H15B  982   0.509   6.018   7.309 -0.9657 -0.7633  0.2984
   14CHL1   C16  983   0.488   6.107   7.098 -0.3742 -0.1435 -0.6256
   14CHL1  H16A  984   0.585   6.143   7.055 -0.9035  2.3334  0.0909
   14CHL1  H16B  985   0.452   6.008   7.064 -2.9756  0.9681 -1.3276
   14CHL1   C17  986   0.380   6.214   7.060  0.4247 -0.6300 -0.0605
   14CHL1   H17  987   0.279   6.168   7.059  0.0732  0.0764 -2.2342
   14CHL1   C13  988   0.376   6.309   7.187 -0.3138  0.5726 -0.2102
   14CHL1   C18  989   0.496   6.407   7.178  0.3296 -0.0538  0.2030
   14CHL1  H18A  990   0.547   6.423   7.275 -0.1033  0.3230  0.3771
   14CHL1  H18B  991   0.577   6.369   7.112 -0.9549 -1.6597 -0.5161
   14CHL1  H18C  992   0.472   6.503   7.126 -0.7603 -0.4829 -0.1271
   14CHL1   C12  993   0.241   6.376   7.214 -0.3603  0.1698  0.2365
   14CHL1  H12A  994   0.232   6.454   7.135  0.5140  0.4253  0.3781
   14CHL1  H12B  995   0.151   6.312   7.207 -0.9933  1.2201 -2.5291
   14CHL1   C11  996   0.251   6.445   7.346 -0.0271  0.2763 -0.5150
   14CHL1  H11A  997   0.325   6.526   7.330  1.7334 -1.2666 -0.5239
   14CHL1  H11B  998   0.150   6.490   7.360 -0.1928  0.0241 -0.8970
   14CHL1    C9  999   0.293   6.356   7.470  0.7602  0.0487 -0.4683
   14CHL1    H9 1000   0.211   6.281   7.482  1.5678 -1.2495 -2.5611
   14CHL1   C10 1001   0.294   6.437   7.599  0.2292 -0.6078 -0.0836
   14CHL1   C19 1002   0.387   6.563   7.581 -0.2569  0.4988  0.3528
   14CHL1  H19A 1003   0.334   6.628   7.508  1.3614  2.9871  1.2669
   14CHL1  H19B 1004   0.391   6.621   7.676 -0.7403 -1.1034  1.3916
   14CHL1  H19C 1005   0.490   6.554   7.541 -0.3752 -0.0132  0.1493
   14CHL1    C1 1006   0.154   6.494   7.639  0.1671 -0.2384 -0.0318
   14CHL1   H1A 1007   0.120   6.572   7.568 -1.9725  0.4300  1.6317
   14CHL1   H1B 1008   0.083   6.409   7.638  0.6042 -0.6073 -0.6244
   14CHL1    C2 1009   0.149   6.554   7.778 -0.2597  0.2462 -0.1171
   14CHL1   H2A 1010   0.046   6.595   7.783 -0.3933 -0.1047 -0.0145
   14CHL1   H2B 1011   0.207   6.649   7.782  0.7494 -0.3769  0.2888
   14CHL1   C20 1012   0.390   6.261   6.914  0.2290 -0.7553  0.2123
   14CHL1   H20 1013   0.490   6.309   6.916  0.4326 -1.0125  4.1142
   14CHL1   C21 1014   0.290   6.377   6.893 -0.1178 -1.0570 -1.6191
   14CHL1  H21A 1015   0.284   6.408   6.787 -1.1040 -0.8158 -1.4996
   14CHL1  H21B 1016   0.323   6.463   6.954 -0.9139 -1.7140 -0.1990
   14CHL1  H21C 1017   0.186   6.352   6.924  0.1154 -2.2452 -1.7631
   14CHL1   C22 1018   0.375   6.149   6.814  0.4550 -0.1222 -0.3548
   14CHL1  H22A 1019   0.437   6.065   6.851  2.8689  1.2394 -1.0692
   14CHL1  H22B 1020   0.267   6.125   6.808  0.1153  0.8243  1.1714
   14CHL1   C23 1021   0.436   6.175   6.670  0.3693 -0.2576  0.3064
   14CHL1  H23A 1022   0.402   6.274   6.633  0.6374 -0.3055 -0.0798
   14CHL1  H23B 1023   0.547   6.184   6.673  0.2610  1.8691 -0.6112
   14CHL1   C24 1024   0.406   6.054   6.580 -0.6982 -0.6199  0.2640
   14CHL1  H24A 1025   0.470   5.971   6.615  3.1968  2.3625  0.9201
   14CHL1  H24B 1026   0.309   6.004   6.600 -0.0067 -2.0385  0.1335
   14CHL1   C25 1027   0.428   6.091   6.437 -0.3227 -0.3207  0.3192
   14CHL1   H25 1028   0.515   6.160   6.428 -0.8620  0.2132 -1.0011
   14CHL1   C26 1029   0.438   5.967   6.344  0.1007 -0.1448  0.2479
   14CHL1  H26A 1030   0.458   5.996   6.239  0.7407 -3.2206 -0.5836
   14CHL1  H26B 1031   0.510   5.890   6.377 -0.7440 -1.7693 -1.5259
   14CHL1  H26C 1032   0.341   5.913   6.356 -0.2810  0.0806 -1.5429
   14CHL1   C27 1033   0.301   6.165   6.385  0.2087 -0.5496 -0.5938
   14CHL1  H27A 1034   0.304   6.180   6.275  3.8973  0.2929 -0.5081
   14CHL1  H27B 1035   0.206   6.110   6.397 -0.5430  0.8871  0.2698
   14CHL1  H27C 1036   0.280   6.265   6.428 -2.2578 -0.8153 -1.0724
   15CHL1    C3 1037   2.238   0.398   7.891 -0.2781  0.1482 -0.4844
   15CHL1    H3 1038   2.293   0.305   7.866 -0.3965 -0.9634  2.8830
   15CHL1    O3 1039   2.232   0.400   8.031  0.2191 -0.1092 -0.5489
   15CHL1   H3' 1040   2.305   0.341   8.053 -0.5819 -0.8550  0.2016
   15CHL1    C4 1041   2.312   0.519   7.837 -0.0274  0.4514  0.1613
   15CHL1   H4A 1042   2.262   0.608   7.880  1.1544 -0.2217  3.1911
   15CHL1   H4B 1043   2.413   0.525   7.881 -0.3843  0.7811  0.9559
   15CHL1    C5 1044   2.312   0.524   7.686 -0.8871  0.2675 -0.0548
   15CHL1    C6 1045   2.429   0.537   7.617  0.6405  0.0862 -0.6813
   15CHL1    H6 1046   2.522   0.558   7.672 -0.1917 -0.9338  1.2045
   15CHL1    C7 1047   2.436   0.550   7.466  0.5111 -0.2283 -0.0249
   15CHL1   H7A 1048   2.498   0.638   7.441  1.5609  0.4835  4.2545
   15CHL1   H7B 1049   2.479   0.460   7.417 -2.5211 -0.6124 -2.2576
   15CHL1    C8 1050   2.299   0.575   7.398  0.0904 -0.0478 -0.1337
   15CHL1    H8 1051   2.271   0.681   7.412 -1.2015 -0.3363 -0.3770
   15CHL1   C14 1052   2.310   0.546   7.255  0.4954 -0.1979  0.1794
   15CHL1   H14 1053   2.327   0.437   7.242 -2.0776 -0.6041 -0.4897
   15CHL1   C15 1054   2.433   0.598   7.178 -0.3761 -0.3152  0.0024
   15CHL1  H15A 1055   2.459   0.702   7.208 -1.4881 -0.0503  0.0849
   15CHL1  H15B 1056   2.522   0.535   7.202 -2.1237 -2.5746  0.9674
   15CHL1   C16 1057   2.389   0.590   7.030  0.1721  0.9191  0.4541
   15CHL1  H16A 1058   2.393   0.690   6.980  0.7991 -0.3336 -2.1997
   15CHL1  H16B 1059   2.448   0.514   6.974  1.5305  1.5047  1.0557
   15CHL1   C17 1060   2.235   0.551   7.028  0.1465  0.3823  0.2859
   15CHL1   H17 1061   2.235   0.441   7.011  0.0444  0.6626 -1.6800
   15CHL1   C13 1062   2.190   0.575   7.170 -0.0870 -0.3108  0.6774
   15CHL1   C18 1063   2.153   0.730   7.182 -0.2513  0.1573  0.4072
   15CHL1  H18A 1064   2.074   0.752   7.107 -0.0189 -2.1923 -0.6154
   15CHL1  H18B 1065   2.105   0.767   7.275  1.0490  1.9181  0.4312
   15CHL1  H18C 1066   2.247   0.788   7.171 -1.0914  1.2117 -1.7653
   15CHL1   C12 1067   2.076   0.478   7.229 -0.4832 -0.2965  1.0488
   15CHL1  H12A 1068   1.980   0.500   7.178 -0.1595 -1.4938 -0.1337
   15CHL1  H12B 1069   2.112   0.375   7.210  1.8663  0.4429  1.2108
   15CHL1   C11 1070   2.051   0.513   7.380  0.1641 -0.3270  0.4154
   15CHL1  H11A 1071   1.997   0.610   7.384  0.0363 -0.3004 -1.2315
   15CHL1  H11B 1072   1.980   0.438   7.422 -0.7524 -0.2257 -0.8856
   15CHL1    C9 1073   2.183   0.499   7.463 -0.2463 -0.2587  0.3763
   15CHL1    H9 1074   2.215   0.394   7.442 -1.1377 -0.8183  1.6974
   15CHL1   C10 1075   2.172   0.521   7.619 -0.4421 -0.2683 -0.2579
   15CHL1   C19 1076   2.096   0.653   7.644 -0.5506  0.5970  0.1524
   15CHL1  H19A 1077   2.000   0.644   7.589 -0.1849  2.2526 -0.8371
   15CHL1  H19B 1078   2.083   0.665   7.754  0.9879 -0.0487  0.4336
   15CHL1  H19C 1079   2.149   0.738   7.597 -0.6416  0.4006 -0.3136
   15CHL1    C1 1080   2.097   0.403   7.684 -0.2500  0.0225 -0.5419
   15CHL1   H1A 1081   1.992   0.415   7.649 -0.6996 -4.2971 -1.1472
   15CHL1   H1B 1082   2.132   0.307   7.642 -2.1324 -1.1691  0.4776
   15CHL1    C2 1083   2.096   0.392   7.839 -0.3616 -0.0057 -0.1853
   15CHL1   H2A 1084   2.055   0.294   7.870  4.1980 -2.4666 -1.1571
   15CHL1   H2B 1085   2.037   0.474   7.886 -1.3085  0.4586 -2.0594
   15CHL1   C20 1086   2.157   0.594   6.911  0.1864 -0.1978  0.5341
   15CHL1   H20 1087   2.140   0.704   6.920  1.3289  0.1331 -0.9128
   15CHL1   C21 1088   2.020   0.526   6.906  0.3462  0.0299 -0.6030
   15CHL1  H21A 1089   1.974   0.570   6.996  2.7060  0.2045  0.6081
   15CHL1  H21B 1090   2.003   0.416   6.900 -2.2046 -0.0189  3.8201
   15CHL1  H21C 1091   1.965   0.561   6.816  0.6369  1.2426 -0.3268
   15CHL1   C22 1092   2.222   0.582   6.775  0.4549 -0.2378 -0.1673
   15CHL1  H22A 1093   2.156   0.625   6.696  0.4249 -1.7052 -0.9689
   15CHL1  H22B 1094   2.317   0.640   6.773  0.1089  0.4916  2.1179
   15CHL1   C23 1095   2.252   0.440   6.714  0.8680  0.3757  0.2394
   15CHL1  H23A 1096   2.296   0.377   6.794  2.7909  0.3634 -0.7584
   15CHL1  H23B 1097   2.152   0.399   6.687  1.2684  0.4290 -1.4666
   15CHL1   C24 1098   2.344   0.437   6.591  0.7769 -0.5147 -0.2308
   15CHL1  H24A 1099   2.442   0.471   6.629  1.1086  0.1344 -1.5776
   15CHL1  H24B 1100   2.350   0.332   6.556  2.8310 -1.1514  1.8292
   15CHL1   C25 1101   2.290   0.505   6.462 -0.4358 -0.3533 -0.8004
   15CHL1   H25 1102   2.252   0.608   6.476 -0.3651 -0.1570 -1.9633
   15CHL1   C26 1103   2.411   0.511   6.369  0.1989 -0.5079  0.6843
   15CHL1  H26A 1104   2.377   0.563   6.276 -0.1982 -1.6745  0.1604
   15CHL1  H26B 1105   2.498   0.562   6.414  1.9980  0.5462 -3.4928
   15CHL1  H26C 1106   2.454   0.412   6.346 -0.2281 -0.3827 -0.7771
   15CHL1   C27 1107   2.182   0.423   6.401  0.5372  0.1427 -0.1801
   15CHL1  H27A 1108   2.221   0.331   6.352 -0.1173  0.2979 -1.0235
   15CHL1  H27B 1109   2.099   0.395   6.470  0.2345 -0.9137 -0.9383
   15CHL1  H27C 1110   2.137   0.482   6.319 -0.3278 -0.2649 -0.0197
   16CHL1    C3 1111   6.655   0.957   7.679 -0.1641 -0.0978  0.3153
   16CHL1    H3 1112   6.705   1.047   7.637  0.9076 -0.7092  0.2477
   16CHL1    O3 1113   6.651   0.973   7.819 -0.0322  0.3077 -0.3774
   16CHL1   H3' 1114   6.564   0.940   7.843 -0.4949  2.0997  0.5656
   16CHL1    C4 1115   6.518   0.937   7.617 -0.0517 -0.2472  0.9119
   16CHL1   H4A 1116   6.471   0.850   7.667 -1.8470 -0.2850 -0.7219
   16CHL1   H4B 1117   6.452   1.024   7.635 -1.1463 -0.0610 -3.0654
   16CHL1    C5 1118   6.532   0.929   7.466 -0.5053 -0.0613  0.4194
   16CHL1    C6 1119   6.469   1.016   7.383  0.5626  0.0020  0.8695
   16CHL1    H6 1120   6.411   1.094   7.433  1.3096  1.1206  0.0253
   16CHL1    C7 1121   6.466   1.005   7.237 -0.0138  0.2061 -0.3267
   16CHL1   H7A 1122   6.367   1.025   7.190  1.0377 -0.3109 -2.9473
   16CHL1   H7B 1123   6.534   1.085   7.200  0.3366 -0.5048 -1.2753
   16CHL1    C8 1124   6.517   0.870   7.184 -0.4201 -0.0622  0.0353
   16CHL1    H8 1125   6.441   0.790   7.200  0.3717 -0.6328  1.0643
   16CHL1   C14 1126   6.537   0.872   7.039 -0.3876  0.1357 -0.1244
   16CHL1   H14 1127   6.617   0.948   7.025 -2.0648  1.6535 -2.3233
   16CHL1   C15 1128   6.429   0.927   6.943  0.7565 -0.5104  0.0052
   16CHL1  H15A 1129   6.330   0.887   6.974 -0.0330  2.1891  1.2633
   16CHL1  H15B 1130   6.414   1.036   6.957  0.9578 -0.3820 -0.7312
   16CHL1   C16 1131   6.461   0.885   6.805 -0.0046  0.0308 -0.3523
   16CHL1  H16A 1132   6.381   0.817   6.770  1.0577 -1.2929 -0.3163
   16CHL1  H16B 1133   6.473   0.971   6.736 -1.5179  0.0183 -0.6545
   16CHL1   C17 1134   6.589   0.798   6.814  0.4504  0.1410 -0.5150
   16CHL1   H17 1135   6.667   0.877   6.807  0.6893  0.0300  0.6780
   16CHL1   C13 1136   6.592   0.751   6.962  0.1394  0.5380  0.1603
   16CHL1   C18 1137   6.496   0.633   6.976  0.4404 -0.7048 -0.0349
   16CHL1  H18A 1138   6.520   0.555   6.901  1.5888 -0.3021 -0.1110
   16CHL1  H18B 1139   6.499   0.577   7.072 -2.8915 -0.1495  0.5002
   16CHL1  H18C 1140   6.390   0.666   6.969  0.4672 -0.7309 -0.6113
   16CHL1   C12 1141   6.732   0.722   7.035 -0.3597 -0.3334 -0.1611
   16CHL1  H12A 1142   6.759   0.623   6.994 -4.7744 -2.1633  0.8203
   16CHL1  H12B 1143   6.801   0.802   7.001  0.9164 -0.1241  2.6082
   16CHL1   C11 1144   6.725   0.715   7.188  1.0909 -0.5882 -0.0776
   16CHL1  H11A 1145   6.665   0.623   7.207  1.6086 -0.8140  0.5367
   16CHL1  H11B 1146   6.825   0.691   7.231  1.0343 -1.7587 -0.5622
   16CHL1    C9 1147   6.649   0.834   7.258 -0.1395 -0.6269  0.3423
   16CHL1    H9 1148   6.712   0.923   7.236 -0.1589 -0.8929 -0.8831
   16CHL1   C10 1149   6.627   0.823   7.411  0.3651 -0.1602 -0.3193
   16CHL1   C19 1150   6.553   0.687   7.441 -0.0262 -0.0439 -0.5583
   16CHL1  H19A 1151   6.453   0.683   7.393 -0.1313 -3.2162 -0.2348
   16CHL1  H19B 1152   6.619   0.610   7.397 -0.4158 -0.7188  0.0312
   16CHL1  H19C 1153   6.548   0.668   7.550  0.6816 -1.1589 -0.7138
   16CHL1    C1 1154   6.762   0.825   7.489 -0.1936  0.2870 -0.1226
   16CHL1   H1A 1155   6.806   0.726   7.464  2.1739  1.0932  0.5327
   16CHL1   H1B 1156   6.825   0.909   7.453 -0.0148  1.0893  1.9427
   16CHL1    C2 1157   6.755   0.843   7.644 -0.3663 -0.2106 -0.1543
   16CHL1   H2A 1158   6.860   0.873   7.665 -0.9416  3.4020 -1.6719
   16CHL1   H2B 1159   6.723   0.748   7.692  0.2698 -0.0699  0.5605
   16CHL1   C20 1160   6.611   0.698   6.706  1.0269 -0.7109  0.8778
   16CHL1   H20 1161   6.537   0.616   6.706 -0.3863  0.4702 -0.9873
   16CHL1   C21 1162   6.754   0.640   6.699 -0.3522  0.8855 -0.0787
   16CHL1  H21A 1163   6.764   0.575   6.610  0.4518 -0.2442  0.8059
   16CHL1  H21B 1164   6.770   0.568   6.783 -1.5328 -1.9282 -2.0955
   16CHL1  H21C 1165   6.828   0.722   6.707 -1.0788  1.5578 -0.0851
   16CHL1   C22 1166   6.585   0.763   6.565  0.4363  0.0343  0.8310
   16CHL1  H22A 1167   6.607   0.686   6.488  2.0156  0.6186  0.6596
   16CHL1  H22B 1168   6.476   0.784   6.557  0.2008 -0.8683  1.4976
   16CHL1   C23 1169   6.666   0.895   6.526 -0.0533  0.2288  0.0717
   16CHL1  H23A 1170   6.667   0.968   6.610 -0.1233  0.0183  0.2562
   16CHL1  H23B 1171   6.774   0.874   6.516  0.1759  1.5915 -0.4870
   16CHL1   C24 1172   6.630   0.952   6.390 -0.2110 -0.4570  0.3282
   16CHL1  H24A 1173   6.521   0.964   6.376  0.0256  0.0357 -1.3355
   16CHL1  H24B 1174   6.675   1.053   6.385  0.3470 -0.7463 -1.2807
   16CHL1   C25 1175   6.682   0.885   6.254  0.0660  0.1125  0.6646
   16CHL1   H25 1176   6.787   0.908   6.226  0.0639 -1.6276 -0.9256
   16CHL1   C26 1177   6.662   0.731   6.236  0.1969 -0.1432 -0.1958
   16CHL1  H26A 1178   6.553   0.716   6.253  0.5544 -2.2617  0.5392
   16CHL1  H26B 1179   6.674   0.706   6.128  2.3828 -0.5970  0.1137
   16CHL1  H26C 1180   6.725   0.668   6.302  1.1714  1.0594  0.0428
   16CHL1   C27 1181   6.596   0.964   6.146 -0.7358  0.2884 -0.2796
   16CHL1  H27A 1182   6.602   1.072   6.171 -0.3830 -0.2344  2.1787
   16CHL1  H27B 1183   6.616   0.942   6.040 -1.6463  0.4932 -0.5062
   16CHL1  H27C 1184   6.492   0.924   6.146 -0.7563  0.3412 -0.2713
   17CHL1    C3 1185   5.630   0.376   7.335 -0.0171  0.9605 -0.7458
   17CHL1    H3 1186   5.555   0.446   7.292 -1.5123  1.0827  1.8701
   17CHL1    O3 1187   5.668   0.418   7.469  0.5101 -0.1110 -0.2305
   17CHL1   H3' 1188   5.734   0.357   7.503 -1.2072 -2.0426 -0.1244
   17CHL1    C4 1189   5.559   0.234   7.326  0.3687 -1.2622  0.0422
   17CHL1   H4A 1190   5.633   0.158   7.358  0.6829 -0.6309  0.8556
   17CHL1   H4B 1191   5.478   0.239   7.402 -0.2813 -1.1788 -0.6375
   17CHL1    C5 1192   5.514   0.215   7.187  0.5725 -0.0761  0.3678
   17CHL1    C6 1193   5.384   0.189   7.158  0.0166  0.0435 -0.6657
   17CHL1    H6 1194   5.314   0.186   7.243 -1.5288 -0.0299 -1.8754
   17CHL1    C7 1195   5.322   0.172   7.021 -0.2988 -0.0324 -0.5488
   17CHL1   H7A 1196   5.242   0.096   7.018 -0.6012  0.3044 -2.6742
   17CHL1   H7B 1197   5.274   0.269   6.995 -1.6204 -0.4863  0.1188
   17CHL1    C8 1198   5.429   0.141   6.921  0.2018 -0.1007 -0.0942
   17CHL1    H8 1199   5.451   0.034   6.940  0.6881 -0.0684 -0.4554
   17CHL1   C14 1200   5.384   0.164   6.780  0.0391  0.5055  0.3301
   17CHL1   H14 1201   5.361   0.273   6.774 -1.2716  0.2980  1.0545
   17CHL1   C15 1202   5.242   0.104   6.736  0.8026 -0.4213 -0.1658
   17CHL1  H15A 1203   5.239  -0.002   6.768  2.4058 -0.8625 -1.3361
   17CHL1  H15B 1204   5.155   0.160   6.777 -0.2595 -2.1071 -0.0102
   17CHL1   C16 1205   5.238   0.113   6.585 -0.3243 -0.2473  0.0129
   17CHL1  H16A 1206   5.199   0.015   6.550  0.4404 -0.1474 -1.1790
   17CHL1  H16B 1207   5.161   0.188   6.557 -0.5706 -0.2285  0.7265
   17CHL1   C17 1208   5.381   0.160   6.539 -0.6296 -0.3120  0.1901
   17CHL1   H17 1209   5.377   0.270   6.523  0.0758 -0.3069  0.0220
   17CHL1   C13 1210   5.475   0.133   6.666  1.1109  0.5191  0.6088
   17CHL1   C18 1211   5.523  -0.014   6.665 -0.7027  0.1076  0.3428
   17CHL1  H18A 1212   5.577  -0.034   6.760 -0.8587 -1.6987  0.0939
   17CHL1  H18B 1213   5.434  -0.079   6.651 -1.7958  1.2997  1.5319
   17CHL1  H18C 1214   5.601  -0.022   6.586 -0.8240  0.3850  0.1947
   17CHL1   C12 1215   5.586   0.230   6.677 -0.4563 -0.1182  0.4682
   17CHL1  H12A 1216   5.666   0.193   6.609 -1.3927 -0.6116 -0.3844
   17CHL1  H12B 1217   5.560   0.334   6.649 -2.8275 -0.5342  0.9428
   17CHL1   C11 1218   5.648   0.227   6.817 -0.1568  0.1175 -0.0234
   17CHL1  H11A 1219   5.705   0.132   6.818  0.9475  0.7200 -1.4649
   17CHL1  H11B 1220   5.722   0.308   6.834  0.3156 -0.5773  1.2932
   17CHL1    C9 1221   5.554   0.234   6.938  1.1675  0.3568  0.2893
   17CHL1    H9 1222   5.509   0.335   6.931 -1.3201 -0.7590 -0.9457
   17CHL1   C10 1223   5.626   0.218   7.077  1.5373  0.2302 -0.5794
   17CHL1   C19 1224   5.712   0.089   7.083 -0.0251  0.4503 -0.0760
   17CHL1  H19A 1225   5.800   0.093   7.016 -1.6411 -1.8862 -2.5549
   17CHL1  H19B 1226   5.759   0.076   7.183  1.7283  1.6674 -0.7039
   17CHL1  H19C 1227   5.651  -0.003   7.069  0.0901  0.6674 -2.4191
   17CHL1    C1 1228   5.707   0.346   7.100 -1.0636  0.1886  0.8676
   17CHL1   H1A 1229   5.795   0.347   7.032 -1.3014  0.6349  0.5592
   17CHL1   H1B 1230   5.643   0.434   7.074 -0.4234 -0.3760 -3.3576
   17CHL1    C2 1231   5.752   0.371   7.243 -0.4496 -0.1550 -0.4119
   17CHL1   H2A 1232   5.813   0.461   7.261 -0.4998 -0.4826  1.6357
   17CHL1   H2B 1233   5.820   0.290   7.277 -0.1735  0.5423  0.7201
   17CHL1   C20 1234   5.427   0.094   6.401  0.4018  0.3379  1.0076
   17CHL1   H20 1235   5.442  -0.016   6.400 -2.4252 -0.1286 -0.7826
   17CHL1   C21 1236   5.566   0.147   6.353  0.4583 -0.0297  0.0533
   17CHL1  H21A 1237   5.647   0.104   6.415  0.9251  1.4512  0.4962
   17CHL1  H21B 1238   5.562   0.258   6.354 -0.7404 -0.0308 -1.1751
   17CHL1  H21C 1239   5.587   0.126   6.246  0.6478  0.8791 -0.0989
   17CHL1   C22 1240   5.318   0.116   6.285  0.3228 -0.7922 -0.2737
   17CHL1  H22A 1241   5.354   0.061   6.195  2.6573 -0.1409  0.1718
   17CHL1  H22B 1242   5.229   0.064   6.326 -0.2673  2.3670  2.9045
   17CHL1   C23 1243   5.283   0.264   6.244  0.0165  0.0678  0.1525
   17CHL1  H23A 1244   5.234   0.318   6.328  1.7075  1.4385  0.3090
   17CHL1  H23B 1245   5.386   0.301   6.230  1.0385 -2.7750 -0.6054
   17CHL1   C24 1246   5.188   0.268   6.117  0.1859 -0.7355 -0.1833
   17CHL1  H24A 1247   5.239   0.227   6.027 -0.8944 -2.1284 -0.1981
   17CHL1  H24B 1248   5.100   0.204   6.140 -2.0171  1.5505 -1.7109
   17CHL1   C25 1249   5.140   0.409   6.075 -0.5580 -0.8731 -0.1663
   17CHL1   H25 1250   5.218   0.485   6.095 -0.7392 -0.4847 -0.9060
   17CHL1   C26 1251   5.103   0.417   5.921 -1.3441 -0.2497 -0.6988
   17CHL1  H26A 1252   5.083   0.524   5.898  0.5583  0.5906  1.2776
   17CHL1  H26B 1253   5.190   0.380   5.864 -1.5143 -1.2829 -0.3032
   17CHL1  H26C 1254   5.019   0.347   5.902 -0.1183 -1.6878 -0.9640
   17CHL1   C27 1255   5.018   0.450   6.159 -0.2424 -0.3242 -0.8251
   17CHL1  H27A 1256   5.010   0.561   6.161  2.4853 -0.0665 -0.7222
   17CHL1  H27B 1257   4.918   0.404   6.143 -0.5345  0.2120 -0.5677
   17CHL1  H27C 1258   5.039   0.423   6.265  1.6214  0.2999 -1.0027
   18CHL1    C3 1259   2.606   4.288   7.469  0.6908 -0.4253 -0.3279
   18CHL1    H3 1260   2.566   4.186   7.449 -1.2426  0.2914 -0.3102
   18CHL1    O3 1261   2.613   4.302   7.610  0.0087  0.0535  0.1638
   18CHL1   H3' 1262   2.694   4.259   7.636  0.2606  2.6640  4.9088
   18CHL1    C4 1263   2.744   4.314   7.415  0.0270  0.4689  0.3117
   18CHL1   H4A 1264   2.796   4.408   7.445  3.5283 -1.2855  0.1654
   18CHL1   H4B 1265   2.811   4.247   7.473  0.6468  1.3764  0.6721
   18CHL1    C5 1266   2.746   4.294   7.265 -0.5421 -0.5035  0.2509
   18CHL1    C6 1267   2.818   4.196   7.212  0.3964 -0.8318 -0.1988
   18CHL1    H6 1268   2.890   4.142   7.276 -0.6152 -0.1163  1.6070
   18CHL1    C7 1269   2.828   4.167   7.062  0.3922  0.6510  0.1203
   18CHL1   H7A 1270   2.928   4.133   7.030 -0.2088 -1.4666  0.3289
   18CHL1   H7B 1271   2.756   4.088   7.032  0.8089  0.5912 -0.7351
   18CHL1    C8 1272   2.786   4.296   6.985  0.0277  0.1116 -0.2603
   18CHL1    H8 1273   2.868   4.368   7.004 -0.8828  1.0860  0.0452
   18CHL1   C14 1274   2.768   4.270   6.839  0.0449 -0.6352  0.1956
   18CHL1   H14 1275   2.686   4.196   6.841  1.0899 -1.8495  2.7729
   18CHL1   C15 1276   2.883   4.193   6.768  0.5485 -0.5518  0.0707
   18CHL1  H15A 1277   2.973   4.244   6.809  0.2880  2.1539 -2.4164
   18CHL1  H15B 1278   2.873   4.084   6.787  0.6727 -0.6792 -0.5863
   18CHL1   C16 1279   2.860   4.224   6.615 -0.2856  0.2286  0.0103
   18CHL1  H16A 1280   2.943   4.289   6.581 -0.5794  0.3119 -0.5605
   18CHL1  H16B 1281   2.849   4.128   6.560 -0.4585 -1.1830  2.3755
   18CHL1   C17 1282   2.726   4.315   6.614 -0.9880 -0.3063 -0.0959
   18CHL1   H17 1283   2.655   4.230   6.609  0.0542 -1.1971 -0.1516
   18CHL1   C13 1284   2.717   4.379   6.756 -0.0252  0.1023 -0.0422
   18CHL1   C18 1285   2.829   4.493   6.758  0.1388  0.8093 -0.1264
   18CHL1  H18A 1286   2.928   4.456   6.722  0.0615  1.8846 -1.5454
   18CHL1  H18B 1287   2.802   4.582   6.698  1.2509  0.5524 -1.0538
   18CHL1  H18C 1288   2.834   4.537   6.860 -1.9424 -0.6422  0.6756
   18CHL1   C12 1289   2.581   4.436   6.801 -0.4365  0.0847 -0.4895
   18CHL1  H12A 1290   2.559   4.537   6.759  0.4315  0.6224  0.3031
   18CHL1  H12B 1291   2.505   4.360   6.775 -1.7498  1.0038  0.5322
   18CHL1   C11 1292   2.589   4.467   6.953 -0.0057  0.1275 -0.4812
   18CHL1  H11A 1293   2.639   4.564   6.973 -0.4637  0.0176  1.4345
   18CHL1  H11B 1294   2.486   4.490   6.991  0.4513 -1.4423  1.9590
   18CHL1    C9 1295   2.653   4.354   7.038  0.4041  0.0117 -0.4602
   18CHL1    H9 1296   2.591   4.262   7.042  2.9932 -1.8050  0.5860
   18CHL1   C10 1297   2.662   4.394   7.189  0.1470 -0.1748  0.0371
   18CHL1   C19 1298   2.738   4.530   7.198 -0.5411  0.3018  0.1465
   18CHL1  H19A 1299   2.670   4.613   7.168  0.0944  0.1469 -1.8582
   18CHL1  H19B 1300   2.759   4.551   7.305 -0.8304 -2.1515  0.7421
   18CHL1  H19C 1301   2.835   4.521   7.146  0.3469  1.0571  1.5796
   18CHL1    C1 1302   2.520   4.395   7.252 -1.1889  0.1669  0.2910
   18CHL1   H1A 1303   2.457   4.477   7.211 -0.6702 -0.4196 -1.8456
   18CHL1   H1B 1304   2.458   4.307   7.221  0.8272 -1.6617  1.2210
   18CHL1    C2 1305   2.517   4.396   7.407  0.9278 -0.3462 -0.1891
   18CHL1   H2A 1306   2.414   4.364   7.433 -0.1209  1.0818 -2.3214
   18CHL1   H2B 1307   2.536   4.490   7.463 -0.0944 -1.7954  2.7941
   18CHL1   C20 1308   2.701   4.404   6.478 -0.2937 -0.5013 -0.9732
   18CHL1   H20 1309   2.718   4.514   6.489  0.5777 -0.3694 -3.1515
   18CHL1   C21 1310   2.554   4.384   6.436 -0.4036 -0.1146 -0.2767
   18CHL1  H21A 1311   2.532   4.276   6.426 -0.8452 -0.3845  2.6780
   18CHL1  H21B 1312   2.534   4.439   6.341 -1.9170  1.0546  0.6782
   18CHL1  H21C 1313   2.486   4.417   6.517 -1.3287  0.1444 -1.1262
   18CHL1   C22 1314   2.796   4.347   6.363 -0.2815 -0.3384 -0.3716
   18CHL1  H22A 1315   2.897   4.377   6.398 -1.6879  2.7474  1.4903
   18CHL1  H22B 1316   2.789   4.236   6.366  1.9777 -0.5177  0.2829
   18CHL1   C23 1317   2.768   4.408   6.230 -0.0193  0.3601 -0.0169
   18CHL1  H23A 1318   2.671   4.381   6.182  0.4957 -0.8394 -0.4416
   18CHL1  H23B 1319   2.768   4.517   6.246 -2.5923  0.2548  1.1224
   18CHL1   C24 1320   2.859   4.365   6.118  0.0861  0.0144  0.1797
   18CHL1  H24A 1321   2.872   4.444   6.041 -0.3699  0.4068  0.4983
   18CHL1  H24B 1322   2.962   4.347   6.155  0.3684 -0.3814 -0.7699
   18CHL1   C25 1323   2.797   4.244   6.038  0.4981  0.5231 -0.3962
   18CHL1   H25 1324   2.688   4.237   6.055  0.3775 -0.9577 -1.5818
   18CHL1   C26 1325   2.812   4.265   5.889  0.3395  0.1894  0.4783
   18CHL1  H26A 1326   2.748   4.354   5.867 -0.2616  0.1699  2.0059
   18CHL1  H26B 1327   2.914   4.287   5.852  1.0075  0.6839  2.4710
   18CHL1  H26C 1328   2.766   4.184   5.829 -1.6244  1.5894 -0.0254
   18CHL1   C27 1329   2.842   4.106   6.081 -0.2871 -0.4915 -0.6447
   18CHL1  H27A 1330   2.807   4.094   6.185 -2.5525 -0.3212 -1.3367
   18CHL1  H27B 1331   2.790   4.027   6.023 -0.9519 -0.3661 -0.2163
   18CHL1  H27C 1332   2.950   4.087   6.063  0.0870 -0.2961  1.2198
   19CHL1    C3 1333   6.691   1.549   7.675  0.2465  0.1655 -0.8898
   19CHL1    H3 1334   6.672   1.651   7.637 -1.5367  1.0210  2.0111
   19CHL1    O3 1335   6.694   1.551   7.818 -0.2845  0.4629 -0.2577
   19CHL1   H3' 1336   6.721   1.462   7.841 -1.9103 -0.1545 -0.5723
   19CHL1    C4 1337   6.599   1.441   7.632  0.8263 -0.8762 -0.4170
   19CHL1   H4A 1338   6.617   1.337   7.668  1.6596 -0.5754  0.0621
   19CHL1   H4B 1339   6.495   1.468   7.663  0.8440 -2.3775  1.0958
   19CHL1    C5 1340   6.600   1.416   7.481 -0.0734  0.6042  0.1802
   19CHL1    C6 1341   6.492   1.427   7.404  0.3732 -0.4156 -0.7471
   19CHL1    H6 1342   6.394   1.435   7.453  0.9163  1.8325  0.1005
   19CHL1    C7 1343   6.487   1.424   7.257 -0.6339 -0.2727 -0.2630
   19CHL1   H7A 1344   6.404   1.362   7.216  0.0245 -1.1039 -0.3753
   19CHL1   H7B 1345   6.469   1.528   7.222 -0.0135 -0.5357 -1.3916
   19CHL1    C8 1346   6.619   1.374   7.196 -0.1292 -0.4477 -0.6217
   19CHL1    H8 1347   6.623   1.264   7.208  1.6715 -0.2986  0.5437
   19CHL1   C14 1348   6.627   1.412   7.045  0.1900  0.5872 -0.7137
   19CHL1   H14 1349   6.624   1.522   7.034  0.1046  0.5072 -1.5959
   19CHL1   C15 1350   6.520   1.353   6.954 -0.7698 -0.2557  0.3641
   19CHL1  H15A 1351   6.496   1.247   6.973  1.8048 -0.4337  3.6542
   19CHL1  H15B 1352   6.425   1.411   6.957  0.5870  2.2086 -0.8800
   19CHL1   C16 1353   6.583   1.353   6.814 -0.0208  0.1783 -1.4006
   19CHL1  H16A 1354   6.577   1.249   6.777 -0.3132 -1.2919  2.3808
   19CHL1  H16B 1355   6.533   1.426   6.746  0.0523  0.7861 -0.8177
   19CHL1   C17 1356   6.733   1.393   6.836 -0.5301  0.0207  0.0667
   19CHL1   H17 1357   6.733   1.502   6.814 -0.5267  0.0920  0.4224
   19CHL1   C13 1358   6.761   1.368   6.986  0.3802  0.5999  0.1930
   19CHL1   C18 1359   6.797   1.219   7.007  0.5683  0.3850  0.4857
   19CHL1  H18A 1360   6.799   1.194   7.115 -0.3407  1.4516  0.7637
   19CHL1  H18B 1361   6.725   1.160   6.946 -0.8185  0.7527  1.7163
   19CHL1  H18C 1362   6.899   1.198   6.967 -0.0501 -0.0447 -0.9403
   19CHL1   C12 1363   6.879   1.444   7.049  0.7414 -0.1744  0.2818
   19CHL1  H12A 1364   6.978   1.423   7.004  0.9712 -0.8889  1.0958
   19CHL1  H12B 1365   6.850   1.547   7.018  1.3286  0.6472  2.3530
   19CHL1   C11 1366   6.875   1.441   7.204  0.2162  0.2766  0.3713
   19CHL1  H11A 1367   6.913   1.339   7.226 -0.7033 -0.0621  0.4592
   19CHL1  H11B 1368   6.949   1.514   7.240  0.5212  0.3043 -0.2964
   19CHL1    C9 1369   6.733   1.444   7.272 -0.2618  0.0244  0.3438
   19CHL1    H9 1370   6.693   1.548   7.270 -0.7237 -0.1529  0.2418
   19CHL1   C10 1371   6.744   1.415   7.421  0.2563 -0.9735 -0.2136
   19CHL1   C19 1372   6.782   1.267   7.455 -0.1686 -0.0529  0.7151
   19CHL1  H19A 1373   6.766   1.240   7.561 -0.8779 -2.2775  0.1054
   19CHL1  H19B 1374   6.729   1.197   7.386  0.5900  0.2719 -0.2227
   19CHL1  H19C 1375   6.891   1.259   7.436 -0.8751 -0.4447 -4.8753
   19CHL1    C1 1376   6.849   1.510   7.487 -0.1565  0.3295  0.0221
   19CHL1   H1A 1377   6.948   1.463   7.468 -0.5648 -1.2648  1.6186
   19CHL1   H1B 1378   6.846   1.612   7.443  0.3068  1.3400  2.1965
   19CHL1    C2 1379   6.835   1.508   7.640 -0.8669  0.7147 -0.1713
   19CHL1   H2A 1380   6.913   1.583   7.664 -0.2078  0.2536 -0.8275
   19CHL1   H2B 1381   6.869   1.408   7.674 -1.6085 -0.9500 -3.7691
   19CHL1   C20 1382   6.827   1.331   6.727 -0.3604  0.0862 -0.6482
   19CHL1   H20 1383   6.819   1.223   6.748  1.6606 -0.5928 -2.8631
   19CHL1   C21 1384   6.975   1.375   6.734  0.0508  0.5378  0.5151
   19CHL1  H21A 1385   7.021   1.337   6.828 -1.3175 -0.0721  0.9601
   19CHL1  H21B 1386   6.977   1.486   6.726  1.5690  0.5378  0.5047
   19CHL1  H21C 1387   7.028   1.331   6.647 -3.6403  3.1302 -3.4632
   19CHL1   C22 1388   6.778   1.356   6.580  0.1020 -0.2010  0.1265
   19CHL1  H22A 1389   6.852   1.302   6.518 -0.4328 -1.3450  0.4324
   19CHL1  H22B 1390   6.672   1.329   6.557  0.3991  0.4397 -2.1420
   19CHL1   C23 1391   6.793   1.505   6.535 -0.1757 -0.1957  0.4233
   19CHL1  H23A 1392   6.729   1.568   6.600 -1.5234  0.8018 -1.7427
   19CHL1  H23B 1393   6.899   1.536   6.545  0.0439 -1.4405  2.4149
   19CHL1   C24 1394   6.751   1.523   6.388  0.5750  0.5540 -0.5252
   19CHL1  H24A 1395   6.830   1.475   6.327 -0.5745 -1.9373 -0.1895
   19CHL1  H24B 1396   6.651   1.481   6.364  1.2335 -0.7939 -1.0006
   19CHL1   C25 1397   6.737   1.680   6.351 -0.1832 -0.2000  0.4493
   19CHL1   H25 1398   6.714   1.701   6.245  0.3055 -0.5547  0.2654
   19CHL1   C26 1399   6.631   1.753   6.429 -0.4810  0.0159 -0.2112
   19CHL1  H26A 1400   6.655   1.750   6.538 -1.1273 -1.0181 -0.0893
   19CHL1  H26B 1401   6.631   1.861   6.403  0.0835  0.9327  3.0507
   19CHL1  H26C 1402   6.527   1.717   6.417 -0.6985  0.7948 -0.7747
   19CHL1   C27 1403   6.876   1.750   6.368  0.3135  0.1120  0.7489
   19CHL1  H27A 1404   6.908   1.736   6.474  1.1781  0.0059  0.4803
   19CHL1  H27B 1405   6.963   1.708   6.313  1.0839 -0.9655  2.6791
   19CHL1  H27C 1406   6.861   1.859   6.350  0.4409  0.4081  2.2465
   20CHL1    C3 1407   5.396   1.289   7.800 -0.0396  0.0907 -0.3519
   20CHL1    H3 1408   5.493   1.310   7.750  0.8610  1.2725  1.7587
   20CHL1    O3 1409   5.420   1.240   7.932 -0.4786 -0.5895 -0.7828
   20CHL1   H3' 1410   5.332   1.242   7.970 -0.1703 -1.3347 -0.0070
   20CHL1    C4 1411   5.313   1.421   7.818  0.2008  0.9294  0.1054
   20CHL1   H4A 1412   5.236   1.387   7.890  1.6898 -0.2652  1.1840
   20CHL1   H4B 1413   5.377   1.494   7.873  0.1840  0.6711  0.4691
   20CHL1    C5 1414   5.262   1.468   7.681 -1.4205 -0.3832 -0.1460
   20CHL1    C6 1415   5.278   1.595   7.649  0.3977 -0.4232  0.9192
   20CHL1    H6 1416   5.319   1.663   7.724  1.1983 -0.7372  0.7756
   20CHL1    C7 1417   5.236   1.657   7.523 -0.3369 -0.8393 -0.2917
   20CHL1   H7A 1418   5.191   1.755   7.549  0.9675 -0.2271 -0.2351
   20CHL1   H7B 1419   5.323   1.667   7.454  0.7388 -2.0134  0.8337
   20CHL1    C8 1420   5.131   1.570   7.446 -0.2568  0.3401 -0.0643
   20CHL1    H8 1421   5.027   1.578   7.484 -1.1159  1.2037 -2.4181
   20CHL1   C14 1422   5.122   1.616   7.297  0.3994 -0.1044  0.4650
   20CHL1   H14 1423   5.221   1.608   7.249  0.2517 -1.3756  0.3398
   20CHL1   C15 1424   5.086   1.762   7.274 -0.6338 -0.3755  0.1107
   20CHL1  H15A 1425   4.995   1.785   7.333 -1.6666 -0.6907 -1.2907
   20CHL1  H15B 1426   5.161   1.836   7.310 -0.1710 -1.1487  0.7492
   20CHL1   C16 1427   5.046   1.765   7.125  0.0659  0.0208 -0.3334
   20CHL1  H16A 1428   4.947   1.815   7.117  0.9894  1.8524 -0.9612
   20CHL1  H16B 1429   5.115   1.820   7.058 -0.5831 -1.2432 -2.1168
   20CHL1   C17 1430   5.050   1.622   7.068 -0.0533  0.5463 -0.1682
   20CHL1   H17 1431   5.152   1.602   7.029  0.2252  0.5558  0.5420
   20CHL1   C13 1432   5.036   1.536   7.195 -0.2158  0.5758  0.1304
   20CHL1   C18 1433   4.887   1.538   7.240  0.1271 -0.4232  0.4902
   20CHL1  H18A 1434   4.887   1.494   7.342 -1.5421 -1.8883 -0.0706
   20CHL1  H18B 1435   4.842   1.639   7.239  2.3364  0.6067 -0.8984
   20CHL1  H18C 1436   4.821   1.468   7.183  0.6905 -0.8577  0.3550
   20CHL1   C12 1437   5.091   1.391   7.201  0.0400 -0.1787  0.6762
   20CHL1  H12A 1438   5.026   1.315   7.153  0.8642 -0.5691  0.1379
   20CHL1  H12B 1439   5.189   1.395   7.148 -1.0211 -3.0319 -1.8141
   20CHL1   C11 1440   5.099   1.344   7.349  0.5072  0.1993  0.3217
   20CHL1  H11A 1441   5.000   1.331   7.398  0.5668 -0.8667  0.1919
   20CHL1  H11B 1442   5.127   1.236   7.343 -0.3120  0.0603 -2.2484
   20CHL1    C9 1443   5.186   1.430   7.443 -1.0692 -0.7100  1.0159
   20CHL1    H9 1444   5.281   1.446   7.388 -2.0090 -1.1565 -0.8454
   20CHL1   C10 1445   5.210   1.361   7.581 -0.3387 -0.1326 -0.5362
   20CHL1   C19 1446   5.070   1.317   7.632 -0.2953 -0.2058  0.4893
   20CHL1  H19A 1447   5.061   1.280   7.736 -0.9753 -1.9293 -0.1548
   20CHL1  H19B 1448   4.993   1.394   7.609 -2.2044 -2.2844 -0.3801
   20CHL1  H19C 1449   5.043   1.240   7.556  0.4898 -0.3476  0.3415
   20CHL1    C1 1450   5.293   1.240   7.575  0.1975  0.3961 -0.2545
   20CHL1   H1A 1451   5.253   1.147   7.528  2.4242 -0.2619 -0.9672
   20CHL1   H1B 1452   5.387   1.260   7.520 -0.0444  0.1112 -0.7772
   20CHL1    C2 1453   5.325   1.179   7.713 -0.4918  0.1203  0.2520
   20CHL1   H2A 1454   5.388   1.087   7.706  0.2839  0.6189  0.5935
   20CHL1   H2B 1455   5.232   1.151   7.767 -0.0122 -1.2502  0.4132
   20CHL1   C20 1456   4.952   1.592   6.955 -0.0723 -0.2193  0.0197
   20CHL1   H20 1457   4.849   1.606   6.991 -0.8817 -1.5940 -1.6133
   20CHL1   C21 1458   4.971   1.450   6.895 -0.1205 -0.6275  0.0170
   20CHL1  H21A 1459   5.081   1.440   6.886  0.0394  1.4344 -1.0275
   20CHL1  H21B 1460   4.929   1.438   6.793 -3.9329  1.3186  1.1379
   20CHL1  H21C 1461   4.925   1.377   6.965 -1.8697 -0.3278 -0.7548
   20CHL1   C22 1462   4.976   1.692   6.839  0.6347  0.5321  0.2068
   20CHL1  H22A 1463   4.994   1.794   6.879 -1.2435  1.2057 -0.5425
   20CHL1  H22B 1464   5.068   1.668   6.782  0.3444  0.9771 -0.4634
   20CHL1   C23 1465   4.859   1.705   6.740  0.2093  0.1525 -0.3947
   20CHL1  H23A 1466   4.830   1.600   6.715  1.7730 -0.2101 -0.8423
   20CHL1  H23B 1467   4.773   1.761   6.781 -0.7312  0.3771 -2.5462
   20CHL1   C24 1468   4.903   1.762   6.604  0.4697  0.1971  0.0691
   20CHL1  H24A 1469   4.940   1.867   6.605 -0.4622  0.6140 -2.5674
   20CHL1  H24B 1470   4.987   1.703   6.562  1.0222  0.8596  0.2180
   20CHL1   C25 1471   4.787   1.765   6.498  0.1460  0.1354 -0.1832
   20CHL1   H25 1472   4.842   1.818   6.417  1.0995 -0.2204  0.2129
   20CHL1   C26 1473   4.753   1.623   6.450  0.2774 -0.1339  0.1034
   20CHL1  H26A 1474   4.847   1.568   6.430  0.4277  0.2788 -0.3380
   20CHL1  H26B 1475   4.701   1.570   6.533 -0.3604 -0.2377 -0.3576
   20CHL1  H26C 1476   4.689   1.621   6.360  0.0204  2.0022  0.2012
   20CHL1   C27 1477   4.664   1.843   6.548 -0.9092 -0.4867  0.9172
   20CHL1  H27A 1478   4.587   1.871   6.473 -1.2680 -1.0928  1.0512
   20CHL1  H27B 1479   4.609   1.795   6.632 -0.4195 -1.4143  0.7177
   20CHL1  H27C 1480   4.700   1.941   6.586  3.2169 -1.9714  1.2670
   21CHL1    C3 1481   5.639   3.638   7.847  0.0511  0.4846  0.1883
   21CHL1    H3 1482   5.701   3.547   7.861 -1.0697 -0.3029  0.2078
   21CHL1    O3 1483   5.589   3.681   7.973 -0.4047 -0.2488 -0.5663
   21CHL1   H3' 1484   5.512   3.735   7.952 -0.5457  0.7595  2.1380
   21CHL1    C4 1485   5.724   3.751   7.791  0.0335  0.6354 -0.8528
   21CHL1   H4A 1486   5.675   3.849   7.806 -2.1128 -0.6211  0.8124
   21CHL1   H4B 1487   5.815   3.755   7.855  0.2417 -1.8973 -0.8790
   21CHL1    C5 1488   5.757   3.733   7.650 -0.4814 -0.1517  0.1171
   21CHL1    C6 1489   5.880   3.754   7.605  0.4518  0.0183  0.2880
   21CHL1    H6 1490   5.952   3.786   7.682  0.3364  2.4048 -0.5034
   21CHL1    C7 1491   5.915   3.755   7.454  0.7909 -0.5597 -0.3529
   21CHL1   H7A 1492   5.992   3.835   7.447  0.9401 -0.6067  0.6452
   21CHL1   H7B 1493   5.967   3.660   7.430  0.6063 -0.9698  0.8248
   21CHL1    C8 1494   5.790   3.784   7.364 -0.5656  0.3971  0.7215
   21CHL1    H8 1495   5.756   3.888   7.383  0.5637  1.0538 -0.7233
   21CHL1   C14 1496   5.824   3.769   7.215  0.6194  0.0684 -0.5362
   21CHL1   H14 1497   5.871   3.669   7.215  1.6296  0.5172  0.4048
   21CHL1   C15 1498   5.940   3.860   7.166  0.1011 -0.0027 -0.5103
   21CHL1  H15A 1499   5.946   3.960   7.214  0.6202 -0.3966  0.2652
   21CHL1  H15B 1500   6.033   3.811   7.201  0.2402  0.8994  0.4051
   21CHL1   C16 1501   5.915   3.862   7.017  0.2066  0.3399 -0.7216
   21CHL1  H16A 1502   5.891   3.965   6.984 -2.7169 -0.0443 -0.0675
   21CHL1  H16B 1503   6.000   3.814   6.964 -0.4974 -3.8578  1.5053
   21CHL1   C17 1504   5.783   3.791   6.981  0.3095 -0.1962 -0.0263
   21CHL1   H17 1505   5.823   3.691   6.953  3.9317  1.2856 -0.6452
   21CHL1   C13 1506   5.707   3.782   7.118  0.1458  0.1691  0.3270
   21CHL1   C18 1507   5.640   3.923   7.136  0.1656 -0.1778  0.3784
   21CHL1  H18A 1508   5.693   4.016   7.106 -1.6097  1.6558  2.5856
   21CHL1  H18B 1509   5.548   3.926   7.074  1.0143  1.5279 -0.8649
   21CHL1  H18C 1510   5.615   3.946   7.242 -2.4365  2.3570 -0.6639
   21CHL1   C12 1511   5.603   3.669   7.157 -0.8946  0.0306 -0.0726
   21CHL1  H12A 1512   5.512   3.691   7.097  0.0671 -1.1624 -2.0573
   21CHL1  H12B 1513   5.640   3.568   7.130  1.8087  0.4217  1.8557
   21CHL1   C11 1514   5.563   3.671   7.306  0.5540 -0.6214  0.0503
   21CHL1  H11A 1515   5.498   3.760   7.313  0.5628 -0.7453  3.0072
   21CHL1  H11B 1516   5.493   3.587   7.324 -0.0323 -0.2448 -0.4334
   21CHL1    C9 1517   5.687   3.679   7.407  0.5670  0.5380  0.1358
   21CHL1    H9 1518   5.734   3.578   7.400  0.0068  0.3859 -2.5629
   21CHL1   C10 1519   5.640   3.693   7.556 -0.2288 -0.0730  0.1617
   21CHL1   C19 1520   5.541   3.814   7.555 -0.0956 -0.1128 -0.0315
   21CHL1  H19A 1521   5.511   3.862   7.650  3.0622  1.0899  0.4877
   21CHL1  H19B 1522   5.581   3.905   7.504 -1.0565  0.4695  0.2200
   21CHL1  H19C 1523   5.436   3.797   7.522  0.0831  2.3472 -2.2305
   21CHL1    C1 1524   5.567   3.566   7.617  0.2261  0.0243 -0.1551
   21CHL1   H1A 1525   5.486   3.529   7.550  0.6125 -2.6995  0.7467
   21CHL1   H1B 1526   5.637   3.479   7.615 -2.6538 -2.5823  2.2991
   21CHL1    C2 1527   5.516   3.603   7.761 -0.4450 -0.3141  0.1839
   21CHL1   H2A 1528   5.459   3.516   7.801 -0.2418  0.7764  3.0321
   21CHL1   H2B 1529   5.455   3.695   7.752 -1.2933 -0.9070 -0.3169
   21CHL1   C20 1530   5.715   3.858   6.866  0.0717 -0.5511 -0.1244
   21CHL1   H20 1531   5.692   3.964   6.887  0.8307  0.0516 -2.0460
   21CHL1   C21 1532   5.583   3.787   6.832 -0.7713  0.3263  0.3463
   21CHL1  H21A 1533   5.512   3.797   6.917 -0.4394  0.9492  0.5511
   21CHL1  H21B 1534   5.605   3.679   6.814  0.4503  0.9359 -2.3277
   21CHL1  H21C 1535   5.535   3.814   6.736 -0.2586 -1.5958 -0.5033
   21CHL1   C22 1536   5.804   3.861   6.742  0.2463  0.0048  0.6066
   21CHL1  H22A 1537   5.901   3.906   6.769  0.2366 -0.3021  1.1679
   21CHL1  H22B 1538   5.813   3.758   6.702  0.4464 -0.2189  1.2118
   21CHL1   C23 1539   5.761   3.963   6.627 -0.2326 -0.5028 -0.2158
   21CHL1  H23A 1540   5.666   3.933   6.580  0.3566 -2.0367 -0.4913
   21CHL1  H23B 1541   5.749   4.069   6.659  0.3226 -0.2646 -0.7550
   21CHL1   C24 1542   5.881   3.976   6.518 -0.8864 -0.7626 -0.2613
   21CHL1  H24A 1543   5.972   4.030   6.552 -0.2886 -1.3241 -0.9316
   21CHL1  H24B 1544   5.915   3.871   6.502 -1.9149 -1.0553 -0.6476
   21CHL1   C25 1545   5.838   4.045   6.391 -0.3745  0.1325 -0.1310
   21CHL1   H25 1546   5.802   4.148   6.409  0.8575  0.6915 -0.7619
   21CHL1   C26 1547   5.960   4.079   6.300  0.5989  0.2619 -0.1619
   21CHL1  H26A 1548   5.937   4.149   6.218 -0.4308  0.0096 -0.1022
   21CHL1  H26B 1549   6.036   4.130   6.363  0.6667 -1.4021  1.1894
   21CHL1  H26C 1550   6.012   3.987   6.265  0.5416  0.5612 -1.0511
   21CHL1   C27 1551   5.748   3.955   6.306  0.1053 -0.6931 -0.2560
   21CHL1  H27A 1552   5.771   3.848   6.324 -0.2728 -0.5967  0.9141
   21CHL1  H27B 1553   5.641   3.967   6.333 -0.2703  0.7234 -2.1685
   21CHL1  H27C 1554   5.744   3.985   6.200 -0.0219 -1.7471 -0.5647
   22CHL1    C3 1555   6.282   6.198   7.734 -0.3872 -0.2386  0.2792
   22CHL1    H3 1556   6.372   6.260   7.714  0.1756 -1.1179  0.0309
   22CHL1    O3 1557   6.242   6.244   7.863 -0.3476 -0.3857  0.5720
   22CHL1   H3' 1558   6.163   6.195   7.887 -0.9595  0.6370  0.6826
   22CHL1    C4 1559   6.165   6.230   7.637 -0.4919 -0.1222 -0.3111
   22CHL1   H4A 1560   6.073   6.182   7.676  0.4477 -2.2317 -0.5296
   22CHL1   H4B 1561   6.150   6.340   7.639 -3.4934 -0.3891 -1.8379
   22CHL1    C5 1562   6.187   6.199   7.494  0.7395  0.4369 -0.3568
   22CHL1    C6 1563   6.174   6.290   7.393  0.0140 -0.6736 -1.2913
   22CHL1    H6 1564   6.146   6.393   7.418  1.1548 -0.7536  0.5343
   22CHL1    C7 1565   6.183   6.263   7.253  0.1422  0.4796 -0.5770
   22CHL1   H7A 1566   6.098   6.312   7.200 -0.7148  0.5667  0.8074
   22CHL1   H7B 1567   6.279   6.297   7.210 -0.2795 -0.0346 -1.9844
   22CHL1    C8 1568   6.188   6.110   7.225  0.2855  0.3766 -0.1796
   22CHL1    H8 1569   6.084   6.077   7.242  0.1046  0.6128 -0.7974
   22CHL1   C14 1570   6.241   6.088   7.080  0.5025  0.0068  0.2084
   22CHL1   H14 1571   6.341   6.130   7.058  0.0675  1.1269  0.2778
   22CHL1   C15 1572   6.161   6.143   6.959 -0.8021 -0.1622  0.4012
   22CHL1  H15A 1573   6.052   6.126   6.970 -0.9959  0.0311 -1.0613
   22CHL1  H15B 1574   6.202   6.245   6.944 -0.0535 -0.1804  2.0613
   22CHL1   C16 1575   6.207   6.054   6.845 -1.0220  0.1775 -0.0795
   22CHL1  H16A 1576   6.116   6.032   6.785 -1.0078 -0.4973  0.1409
   22CHL1  H16B 1577   6.271   6.117   6.780 -2.2179  1.5026 -0.0235
   22CHL1   C17 1578   6.275   5.933   6.905 -0.3737 -0.2136 -0.4675
   22CHL1   H17 1579   6.384   5.950   6.899 -0.8003  2.4756 -3.8650
   22CHL1   C13 1580   6.245   5.938   7.054 -0.3904 -0.4184 -0.1300
   22CHL1   C18 1581   6.110   5.865   7.076 -0.0362 -0.0016 -0.4301
   22CHL1  H18A 1582   6.032   5.907   7.009 -0.2999  0.5956  0.2382
   22CHL1  H18B 1583   6.112   5.756   7.053  2.1208 -0.4913  1.7092
   22CHL1  H18C 1584   6.069   5.884   7.177 -3.7320 -0.2616 -1.7360
   22CHL1   C12 1585   6.354   5.871   7.139  0.2181 -0.3028  0.2504
   22CHL1  H12A 1586   6.358   5.765   7.107  1.0728 -0.1601 -0.1327
   22CHL1  H12B 1587   6.451   5.922   7.121 -0.6247  0.8521 -1.3550
   22CHL1   C11 1588   6.322   5.892   7.292 -0.3407  0.2626 -0.4261
   22CHL1  H11A 1589   6.229   5.833   7.309 -2.0252  2.5191 -1.2424
   22CHL1  H11B 1590   6.408   5.855   7.352 -0.3467  0.9147 -0.0016
   22CHL1    C9 1591   6.281   6.036   7.329 -0.2195 -0.0544 -0.1234
   22CHL1    H9 1592   6.375   6.096   7.324 -0.1053 -0.2888 -0.8762
   22CHL1   C10 1593   6.230   6.051   7.472 -0.1311  0.6062 -0.6844
   22CHL1   C19 1594   6.113   5.965   7.503 -1.2493  0.1868  0.5715
   22CHL1  H19A 1595   6.151   5.861   7.511  0.2904  0.6802 -0.0394
   22CHL1  H19B 1596   6.063   5.988   7.600 -0.9539  1.6151  0.4011
   22CHL1  H19C 1597   6.031   5.979   7.429  0.2764 -0.9676 -1.4217
   22CHL1    C1 1598   6.351   6.029   7.579 -0.2665 -0.6223  0.6545
   22CHL1   H1A 1599   6.397   5.928   7.569  2.1300  0.2686  1.7750
   22CHL1   H1B 1600   6.433   6.095   7.542 -0.6270 -1.1885 -1.2386
   22CHL1    C2 1601   6.317   6.050   7.723 -0.0468  0.2452  0.0164
   22CHL1   H2A 1602   6.405   6.035   7.789  0.3193  1.6989 -0.1095
   22CHL1   H2B 1603   6.233   5.984   7.755  0.3599 -0.9202 -1.2224
   22CHL1   C20 1604   6.264   5.805   6.824  0.1201 -0.6836 -0.5649
   22CHL1   H20 1605   6.284   5.723   6.896  1.2800 -2.1789 -2.5059
   22CHL1   C21 1606   6.380   5.808   6.723  0.4782 -0.0774  0.8110
   22CHL1  H21A 1607   6.479   5.803   6.774  0.9216 -3.2139 -0.1076
   22CHL1  H21B 1608   6.365   5.898   6.660 -2.2126 -0.1767  1.1819
   22CHL1  H21C 1609   6.365   5.715   6.664 -0.5338  0.9782 -0.6425
   22CHL1   C22 1610   6.129   5.771   6.761  0.5175 -0.5486  0.1606
   22CHL1  H22A 1611   6.055   5.790   6.842 -0.9268 -0.7171 -1.0523
   22CHL1  H22B 1612   6.107   5.846   6.682  1.4698 -0.1998  0.2133
   22CHL1   C23 1613   6.119   5.628   6.713  1.0410  0.1260 -0.1460
   22CHL1  H23A 1614   6.179   5.613   6.621 -0.7384  1.7730 -1.6773
   22CHL1  H23B 1615   6.167   5.558   6.784 -1.0831 -2.3598 -1.0110
   22CHL1   C24 1616   5.975   5.578   6.692 -0.1817 -0.2556  0.3140
   22CHL1  H24A 1617   5.917   5.587   6.786 -0.6953  1.0255 -0.1043
   22CHL1  H24B 1618   5.929   5.642   6.613  0.7099  0.6883  0.5393
   22CHL1   C25 1619   5.973   5.434   6.647  0.2584  0.0883  0.0869
   22CHL1   H25 1620   6.042   5.416   6.561 -0.7782 -0.3989 -0.6669
   22CHL1   C26 1621   6.009   5.322   6.751 -0.1919 -0.4555  0.7513
   22CHL1  H26A 1622   6.104   5.331   6.808 -0.0579  1.3604  0.3297
   22CHL1  H26B 1623   5.926   5.313   6.824 -0.5125 -0.3413  0.4085
   22CHL1  H26C 1624   6.018   5.231   6.688  1.1670 -0.7757  1.3796
   22CHL1   C27 1625   5.837   5.406   6.597  0.4865  0.1715  0.6949
   22CHL1  H27A 1626   5.826   5.458   6.499  1.6963  0.8235  0.8856
   22CHL1  H27B 1627   5.824   5.298   6.573 -0.4504  0.3099  0.5667
   22CHL1  H27C 1628   5.759   5.430   6.672 -1.1822  1.7415 -1.3948
   23CHL1    C3 1629   4.613   4.110   7.735  0.5050  0.3818 -0.4743
   23CHL1    H3 1630   4.553   4.017   7.745 -0.4314  0.9727 -0.4973
   23CHL1    O3 1631   4.612   4.160   7.868 -0.4606 -0.1099 -0.8353
   23CHL1   H3' 1632   4.636   4.252   7.857  0.7450 -0.1137  1.1760
   23CHL1    C4 1633   4.755   4.079   7.688 -0.1389  0.6272  0.4742
   23CHL1   H4A 1634   4.821   4.168   7.680  0.6117 -0.0485 -1.2661
   23CHL1   H4B 1635   4.808   4.016   7.762 -1.9135 -0.3930  0.9290
   23CHL1    C5 1636   4.728   4.015   7.550 -0.2084  0.6105 -0.0197
   23CHL1    C6 1637   4.773   3.892   7.519  0.1763  0.5041  0.8316
   23CHL1    H6 1638   4.804   3.824   7.599 -2.1576 -0.9850  0.5739
   23CHL1    C7 1639   4.775   3.839   7.380 -0.3821  0.3948  0.6604
   23CHL1   H7A 1640   4.864   3.775   7.362 -0.8215  0.4000 -1.9179
   23CHL1   H7B 1641   4.697   3.761   7.370 -1.3835  1.4074  0.3202
   23CHL1    C8 1642   4.768   3.952   7.273 -0.3139  0.5445  0.0515
   23CHL1    H8 1643   4.866   4.002   7.282  0.8317 -1.7709  1.4672
   23CHL1   C14 1644   4.753   3.890   7.128 -0.0809 -0.1381 -0.5279
   23CHL1   H14 1645   4.658   3.834   7.142  0.0593 -0.9196 -2.4747
   23CHL1   C15 1646   4.847   3.780   7.083  0.1720 -0.4965  0.6622
   23CHL1  H15A 1647   4.950   3.821   7.094  0.5221 -0.3237 -2.3717
   23CHL1  H15B 1648   4.839   3.683   7.136 -0.9866  0.0433  1.5151
   23CHL1   C16 1649   4.818   3.766   6.932 -0.4542 -0.4351  0.2149
   23CHL1  H16A 1650   4.901   3.800   6.867 -0.3911  1.3016  1.1502
   23CHL1  H16B 1651   4.779   3.665   6.906 -0.7050 -0.3979  0.4338
   23CHL1   C17 1652   4.709   3.875   6.900  0.8744  0.3614 -0.2997
   23CHL1   H17 1653   4.614   3.824   6.925  0.0191  1.9104 -0.2736
   23CHL1   C13 1654   4.726   3.980   7.010 -0.5295 -0.0318  0.2299
   23CHL1   C18 1655   4.856   4.061   6.993 -0.7376  0.1476 -0.3794
   23CHL1  H18A 1656   4.876   4.113   7.089  1.7223 -1.6699  0.1896
   23CHL1  H18B 1657   4.947   4.002   6.970 -1.8578 -1.8330  0.0834
   23CHL1  H18C 1658   4.835   4.127   6.906 -1.4128 -0.6804 -0.8507
   23CHL1   C12 1659   4.612   4.078   7.052 -0.2309  0.2655  0.0951
   23CHL1  H12A 1660   4.609   4.166   6.984  1.8475  0.5996  0.3736
   23CHL1  H12B 1661   4.522   4.014   7.060  1.1067 -1.8174 -0.6513
   23CHL1   C11 1662   4.620   4.142   7.195 -0.2773 -0.3242  0.4489
   23CHL1  H11A 1663   4.691   4.228   7.192 -1.2423  0.5192  1.0914
   23CHL1  H11B 1664   4.523   4.190   7.217 -0.3613  0.1540 -0.8569
   23CHL1    C9 1665   4.655   4.048   7.310 -1.1458  0.1264  0.2052
   23CHL1    H9 1666   4.569   3.979   7.319 -1.0270 -0.2056 -0.9940
   23CHL1   C10 1667   4.676   4.117   7.449 -0.6282  1.1965  0.4738
   23CHL1   C19 1668   4.759   4.244   7.427 -0.2215  0.0213 -0.8137
   23CHL1  H19A 1669   4.776   4.286   7.529 -0.1588 -1.2517 -0.2872
   23CHL1  H19B 1670   4.855   4.233   7.372 -0.8543  1.3981 -2.2938
   23CHL1  H19C 1671   4.693   4.325   7.389 -1.1520 -0.3038  0.0541
   23CHL1    C1 1672   4.538   4.152   7.500  0.0810 -0.0202 -0.1672
   23CHL1   H1A 1673   4.487   4.226   7.435 -1.6000  1.0801  2.2806
   23CHL1   H1B 1674   4.481   4.057   7.506 -0.1314  0.1468  0.4494
   23CHL1    C2 1675   4.540   4.209   7.643 -0.9671  0.5605 -0.7549
   23CHL1   H2A 1676   4.437   4.213   7.685 -0.6868  0.0804  0.0069
   23CHL1   H2B 1677   4.586   4.310   7.649 -0.5493  0.4510 -1.8400
   23CHL1   C20 1678   4.708   3.922   6.760 -0.0962  0.4952  0.3138
   23CHL1   H20 1679   4.804   3.976   6.747  0.5038 -0.1281  1.8693
   23CHL1   C21 1680   4.584   4.007   6.730  0.1459  0.3007  0.9796
   23CHL1  H21A 1681   4.596   4.106   6.777  2.8235  1.3646 -1.6748
   23CHL1  H21B 1682   4.497   3.945   6.764  0.4754 -1.4685 -1.1658
   23CHL1  H21C 1683   4.566   4.036   6.625  0.3967  1.1596  1.1675
   23CHL1   C22 1684   4.715   3.801   6.653 -0.9242 -0.3195 -0.7027
   23CHL1  H22A 1685   4.796   3.732   6.688  0.1046  1.7127  1.1282
   23CHL1  H22B 1686   4.627   3.734   6.662  0.2200 -1.5799  2.2339
   23CHL1   C23 1687   4.742   3.852   6.509  0.1667 -0.7177 -0.6912
   23CHL1  H23A 1688   4.666   3.930   6.487  0.5460 -0.1751 -0.1098
   23CHL1  H23B 1689   4.841   3.899   6.494  0.9184 -2.0955 -0.1892
   23CHL1   C24 1690   4.733   3.734   6.409  0.5033  1.0123  0.2429
   23CHL1  H24A 1691   4.820   3.665   6.415  0.3073  0.6860 -0.5322
   23CHL1  H24B 1692   4.641   3.675   6.431  1.6245 -1.2649 -0.8932
   23CHL1   C25 1693   4.723   3.780   6.267 -0.2674  0.0078 -0.5986
   23CHL1   H25 1694   4.630   3.841   6.267 -1.4849 -1.7229  1.2040
   23CHL1   C26 1695   4.854   3.859   6.236 -0.2968  0.3819 -0.5523
   23CHL1  H26A 1696   4.949   3.805   6.258 -0.5164  1.2445  3.3924
   23CHL1  H26B 1697   4.856   3.877   6.127  1.5136  1.9317 -0.3185
   23CHL1  H26C 1698   4.846   3.957   6.290 -0.9536 -1.7186  3.6050
   23CHL1   C27 1699   4.692   3.663   6.172  0.3558 -0.7859 -0.1574
   23CHL1  H27A 1700   4.775   3.590   6.172  1.2376  0.1984 -0.3616
   23CHL1  H27B 1701   4.599   3.606   6.193  0.9322 -2.1042 -1.0413
   23CHL1  H27C 1702   4.687   3.713   6.073  1.6322 -1.5450 -0.6175
   24CHL1    C3 1703   1.064   4.897   7.991  0.5777  0.7458 -0.2234
   24CHL1    H3 1704   1.076   5.007   7.995  0.6410  0.7082  2.1516
   24CHL1    O3 1705   1.027   4.860   8.122 -0.1081 -0.4802  0.1487
   24CHL1   H3' 1706   0.967   4.787   8.108  0.0069 -1.1570  2.6216
   24CHL1    C4 1707   0.945   4.870   7.898  0.8283  0.0443 -0.4327
   24CHL1   H4A 1708   0.912   4.764   7.901 -0.6638  0.4960  2.5582
   24CHL1   H4B 1709   0.858   4.923   7.941 -0.9917 -2.4881 -0.7793
   24CHL1    C5 1710   0.971   4.895   7.748  0.7070 -0.6027 -0.1663
   24CHL1    C6 1711   0.891   4.978   7.677  0.1374 -0.6811 -0.4510
   24CHL1    H6 1712   0.798   5.013   7.724  0.1849  1.1272 -1.6226
   24CHL1    C7 1713   0.902   5.016   7.533 -0.3369 -0.0212 -0.5099
   24CHL1   H7A 1714   0.798   5.006   7.494  0.1663 -0.6539 -1.7316
   24CHL1   H7B 1715   0.930   5.120   7.504 -1.6891 -0.0426 -2.0580
   24CHL1    C8 1716   0.990   4.916   7.465 -0.1878  0.3009 -0.4911
   24CHL1    H8 1717   0.934   4.820   7.455 -0.3557  0.4524 -1.0642
   24CHL1   C14 1718   1.021   4.958   7.324  0.0503 -0.0984  0.3549
   24CHL1   H14 1719   1.080   5.052   7.332  0.7646 -0.4581 -0.4615
   24CHL1   C15 1720   0.905   4.981   7.229  0.7651 -0.0611 -0.2082
   24CHL1  H15A 1721   0.846   4.891   7.254  0.4796  0.2348  0.2015
   24CHL1  H15B 1722   0.830   5.062   7.244 -1.5910 -1.4443 -3.3492
   24CHL1   C16 1723   0.966   4.990   7.092  0.1106  0.0341 -0.7159
   24CHL1  H16A 1724   0.915   4.920   7.022  0.0052  0.7943 -1.4216
   24CHL1  H16B 1725   0.957   5.092   7.049 -1.7615  0.4024  0.4472
   24CHL1   C17 1726   1.116   4.943   7.111 -0.1612  0.3340 -0.2144
   24CHL1   H17 1727   1.179   5.034   7.123  2.1202 -1.3701  1.7423
   24CHL1   C13 1728   1.128   4.879   7.247 -0.6504  0.2647 -0.3251
   24CHL1   C18 1729   1.080   4.732   7.237 -0.0951  0.9095 -0.4196
   24CHL1  H18A 1730   1.026   4.700   7.328 -1.4138  1.0361 -1.1235
   24CHL1  H18B 1731   1.013   4.726   7.148  2.4076 -0.4061 -2.3579
   24CHL1  H18C 1732   1.171   4.672   7.216 -0.6701 -0.1412  0.0227
   24CHL1   C12 1733   1.256   4.888   7.328  0.5680 -0.2634 -0.2955
   24CHL1  H12A 1734   1.344   4.843   7.278 -1.4420 -1.7416 -2.7196
   24CHL1  H12B 1735   1.277   4.997   7.334 -0.1972 -0.0914 -0.6172
   24CHL1   C11 1736   1.240   4.827   7.474 -0.1092 -0.0783  0.5870
   24CHL1  H11A 1737   1.220   4.718   7.461  0.0966  0.0074 -0.5386
   24CHL1  H11B 1738   1.334   4.832   7.532 -0.0665  0.1448  0.4979
   24CHL1    C9 1739   1.121   4.894   7.548  0.3433 -0.2056  0.5337
   24CHL1    H9 1740   1.156   4.996   7.573 -0.9983  0.3929  0.0655
   24CHL1   C10 1741   1.091   4.832   7.688 -0.2733 -0.2726  0.1066
   24CHL1   C19 1742   1.080   4.686   7.672 -0.0543 -0.3888  0.6998
   24CHL1  H19A 1743   1.046   4.626   7.758  0.7536 -0.1526  1.1935
   24CHL1  H19B 1744   1.009   4.661   7.590  0.6416  0.4753 -0.2011
   24CHL1  H19C 1745   1.173   4.633   7.641  0.6608  1.2505 -0.1205
   24CHL1    C1 1746   1.208   4.863   7.788 -0.4148  0.0565  0.2395
   24CHL1   H1A 1747   1.291   4.801   7.747 -0.1187  0.9243 -0.4920
   24CHL1   H1B 1748   1.238   4.970   7.787 -1.1537  0.2826 -1.4593
   24CHL1    C2 1749   1.183   4.820   7.931  0.1962  0.4446 -0.0280
   24CHL1   H2A 1750   1.271   4.833   7.998 -0.2635  0.8225  0.5077
   24CHL1   H2B 1751   1.161   4.711   7.932 -0.3016  0.5251 -1.0380
   24CHL1   C20 1752   1.179   4.869   6.996 -0.7791  0.6248  0.3248
   24CHL1   H20 1753   1.146   4.763   6.994  0.0428  0.3693  0.1307
   24CHL1   C21 1754   1.331   4.862   7.004  0.0479  0.7142  0.0662
   24CHL1  H21A 1755   1.385   4.826   6.914  2.3682 -1.0736  2.0283
   24CHL1  H21B 1756   1.371   4.803   7.089  1.1723 -0.0403 -0.9559
   24CHL1  H21C 1757   1.365   4.967   7.016  1.2823  0.3942 -0.5364
   24CHL1   C22 1758   1.145   4.937   6.860 -0.1061  0.6320  0.3211
   24CHL1  H22A 1759   1.050   4.993   6.871 -1.9740 -1.7971 -2.1255
   24CHL1  H22B 1760   1.216   5.019   6.836 -2.1036  2.2743 -0.2664
   24CHL1   C23 1761   1.127   4.844   6.741  0.1144 -0.2432 -1.1913
   24CHL1  H23A 1762   1.204   4.765   6.728 -0.0727 -0.3829 -1.4712
   24CHL1  H23B 1763   1.032   4.790   6.763 -0.5238  0.5694 -1.9073
   24CHL1   C24 1764   1.099   4.928   6.610 -0.3273  0.2497  0.2725
   24CHL1  H24A 1765   0.997   4.971   6.619  0.2341  1.7285 -0.0593
   24CHL1  H24B 1766   1.170   5.013   6.615  1.0886 -0.8094 -0.9697
   24CHL1   C25 1767   1.136   4.853   6.477  0.3757  0.1930  0.8870
   24CHL1   H25 1768   1.116   4.746   6.498 -1.5213  0.0936 -1.0658
   24CHL1   C26 1769   1.037   4.894   6.364  0.5822  0.1896  0.0168
   24CHL1  H26A 1770   1.047   5.002   6.341  1.0109  0.7471  2.5091
   24CHL1  H26B 1771   1.057   4.829   6.276 -0.3305 -3.7182  2.4326
   24CHL1  H26C 1772   0.933   4.879   6.400  0.2272  1.7102 -0.3534
   24CHL1   C27 1773   1.283   4.867   6.434  0.2637  0.0551  0.3425
   24CHL1  H27A 1774   1.312   4.972   6.413  0.8854 -0.3517 -0.8893
   24CHL1  H27B 1775   1.350   4.821   6.510 -1.3924 -0.8482  1.3275
   24CHL1  H27C 1776   1.287   4.809   6.340 -0.9349 -0.0454  0.3408
   25CHL1    C3 1777   5.342   0.756   7.585  0.0317  0.3065  0.5714
   25CHL1    H3 1778   5.436   0.815   7.575 -0.3869  1.0343  0.8157
   25CHL1    O3 1779   5.310   0.767   7.723  0.2604 -0.1901  0.5400
   25CHL1   H3' 1780   5.236   0.708   7.740 -0.0444 -0.0889 -0.3544
   25CHL1    C4 1781   5.223   0.823   7.516 -0.1331  0.6765 -0.1538
   25CHL1   H4A 1782   5.123   0.781   7.541  0.6200 -0.4889  1.0619
   25CHL1   H4B 1783   5.209   0.925   7.558 -2.2186 -0.6231  2.5942
   25CHL1    C5 1784   5.253   0.819   7.369 -0.3415 -0.3046 -0.2481
   25CHL1    C6 1785   5.257   0.938   7.310  0.0790  0.3672  1.0856
   25CHL1    H6 1786   5.239   1.030   7.367  0.5139  1.9737 -1.2233
   25CHL1    C7 1787   5.267   0.939   7.160 -0.2035 -0.7891 -0.0329
   25CHL1   H7A 1788   5.206   1.022   7.116  0.6788 -2.7574 -5.8598
   25CHL1   H7B 1789   5.368   0.951   7.116 -0.6627 -0.2168 -0.9915
   25CHL1    C8 1790   5.210   0.812   7.097  0.6512  0.3210  0.4924
   25CHL1    H8 1791   5.100   0.807   7.111  0.5295  0.7971 -0.1813
   25CHL1   C14 1792   5.237   0.812   6.945  0.0689  0.1469  0.4943
   25CHL1   H14 1793   5.348   0.807   6.945  0.0902 -0.6415 -1.5745
   25CHL1   C15 1794   5.203   0.942   6.864  0.5037 -0.0363  0.6292
   25CHL1  H15A 1795   5.102   0.976   6.895  0.6643 -0.4175  1.5970
   25CHL1  H15B 1796   5.283   1.016   6.884  2.2524 -1.9564  1.1113
   25CHL1   C16 1797   5.186   0.891   6.721  0.4550 -1.0044  0.0147
   25CHL1  H16A 1798   5.084   0.899   6.679  0.3836 -1.8247  0.0052
   25CHL1  H16B 1799   5.261   0.937   6.653 -0.4634  1.1576  0.3956
   25CHL1   C17 1800   5.220   0.727   6.717 -0.2081 -0.1323 -0.2983
   25CHL1   H17 1801   5.329   0.709   6.710  0.0228  0.9863  0.2990
   25CHL1   C13 1802   5.188   0.691   6.864 -0.6178 -0.4459  0.5582
   25CHL1   C18 1803   5.033   0.683   6.879  0.7698 -0.4171 -0.0247
   25CHL1  H18A 1804   4.986   0.589   6.842  0.4830 -0.1999 -0.2202
   25CHL1  H18B 1805   5.004   0.683   6.986  1.9717 -0.8216  0.3143
   25CHL1  H18C 1806   4.980   0.767   6.830 -0.3825 -1.4699 -0.6459
   25CHL1   C12 1807   5.267   0.575   6.919 -0.1867  0.2136 -0.0300
   25CHL1  H12A 1808   5.220   0.484   6.877 -1.9590  1.2044 -0.3146
   25CHL1  H12B 1809   5.373   0.587   6.889 -0.1333  0.1745  0.1426
   25CHL1   C11 1810   5.267   0.555   7.071 -0.3192  0.3948  0.2466
   25CHL1  H11A 1811   5.182   0.494   7.107  0.8231  0.1796  2.7748
   25CHL1  H11B 1812   5.359   0.498   7.097 -1.0866  0.2320  2.9379
   25CHL1    C9 1813   5.282   0.692   7.151 -0.8687 -0.3964 -0.1620
   25CHL1    H9 1814   5.390   0.717   7.162 -0.4968 -2.5421  2.2323
   25CHL1   C10 1815   5.252   0.682   7.307  0.7035 -0.9206  0.7544
   25CHL1   C19 1816   5.110   0.624   7.319  0.2896  0.5849 -0.6765
   25CHL1  H19A 1817   5.116   0.515   7.295 -2.9413  0.0980  0.2125
   25CHL1  H19B 1818   5.080   0.629   7.426 -0.0240 -0.6997 -0.6788
   25CHL1  H19C 1819   5.031   0.663   7.251 -1.6896  0.6522  1.5220
   25CHL1    C1 1820   5.355   0.597   7.385 -0.0681  0.4558 -0.6422
   25CHL1   H1A 1821   5.360   0.492   7.348  3.1820 -0.0964  1.0269
   25CHL1   H1B 1822   5.449   0.651   7.361 -0.2176  0.9637 -0.0921
   25CHL1    C2 1823   5.343   0.610   7.537  0.8508  0.4353  0.5603
   25CHL1   H2A 1824   5.429   0.553   7.579 -0.0119 -2.3745 -1.1438
   25CHL1   H2B 1825   5.253   0.553   7.567  0.9257  0.2611  0.4597
   25CHL1   C20 1826   5.158   0.660   6.598 -0.3085  0.4330 -0.0361
   25CHL1   H20 1827   5.052   0.693   6.603 -0.3332  0.1712  1.8703
   25CHL1   C21 1828   5.150   0.507   6.611  0.6499 -0.5772  0.4944
   25CHL1  H21A 1829   5.251   0.466   6.634  0.6831 -1.8679 -1.6973
   25CHL1  H21B 1830   5.129   0.456   6.514 -1.2789 -1.5166  1.3574
   25CHL1  H21C 1831   5.081   0.466   6.687  0.4541  0.2879  0.7942
   25CHL1   C22 1832   5.218   0.693   6.459 -0.4427 -0.0556 -0.4613
   25CHL1  H22A 1833   5.146   0.676   6.376  1.3492 -0.3875 -2.0177
   25CHL1  H22B 1834   5.234   0.803   6.456 -0.0372 -0.1070 -0.1884
   25CHL1   C23 1835   5.347   0.627   6.424 -0.3282  0.5177 -0.5835
   25CHL1  H23A 1836   5.419   0.641   6.508 -2.0862  1.5867  0.8372
   25CHL1  H23B 1837   5.332   0.517   6.411 -0.5259  0.3618  0.7320
   25CHL1   C24 1838   5.413   0.682   6.298  0.0369  0.2650  0.2923
   25CHL1  H24A 1839   5.331   0.667   6.225 -0.6662  1.2855  0.8536
   25CHL1  H24B 1840   5.434   0.791   6.305 -0.5564  0.5297 -1.5899
   25CHL1   C25 1841   5.544   0.609   6.255  0.5320  0.3992  0.2757
   25CHL1   H25 1842   5.529   0.503   6.287  0.0038  0.5583  0.5608
   25CHL1   C26 1843   5.564   0.614   6.104 -0.2871 -0.0148  0.4770
   25CHL1  H26A 1844   5.475   0.609   6.037 -1.6060  0.2473  2.1322
   25CHL1  H26B 1845   5.616   0.710   6.081  0.5528 -0.5765 -0.0002
   25CHL1  H26C 1846   5.627   0.525   6.087  0.8966  0.8417  0.2629
   25CHL1   C27 1847   5.666   0.658   6.327 -0.9680  0.2940  0.2504
   25CHL1  H27A 1848   5.686   0.760   6.287 -2.2253 -0.0336 -1.3380
   25CHL1  H27B 1849   5.653   0.652   6.437  0.8320 -0.5255  0.4531
   25CHL1  H27C 1850   5.756   0.597   6.305 -0.4594  1.5018 -1.1356
   26CHL1    C3 1851   2.060   2.749   7.587  0.0295 -0.1128 -0.6748
   26CHL1    H3 1852   2.045   2.855   7.557 -0.7795  0.0844  0.3847
   26CHL1    O3 1853   2.163   2.747   7.697 -0.2445  0.5416  0.3124
   26CHL1   H3' 1854   2.138   2.826   7.746 -3.7578  1.9402 -3.2405
   26CHL1    C4 1855   1.925   2.686   7.640  0.0262 -0.3339  0.3292
   26CHL1   H4A 1856   1.959   2.585   7.669 -0.4062  0.0504  2.2806
   26CHL1   H4B 1857   1.889   2.737   7.732  2.0645  0.5882  0.6676
   26CHL1    C5 1858   1.824   2.672   7.527  0.5955 -0.0215 -0.2764
   26CHL1    C6 1859   1.704   2.725   7.536  0.1360 -0.0305 -0.7196
   26CHL1    H6 1860   1.677   2.774   7.631 -0.0555  0.0981 -0.8405
   26CHL1    C7 1861   1.597   2.717   7.427  0.1752 -0.2538  0.2536
   26CHL1   H7A 1862   1.496   2.695   7.469 -0.4600 -2.8349 -2.2794
   26CHL1   H7B 1863   1.599   2.807   7.362  4.4112 -1.4074 -1.5340
   26CHL1    C8 1864   1.630   2.610   7.318  0.8548  1.2869 -0.0984
   26CHL1    H8 1865   1.609   2.514   7.371  2.5613  1.5775  1.2351
   26CHL1   C14 1866   1.543   2.625   7.199  0.2875 -0.1226  1.1381
   26CHL1   H14 1867   1.581   2.714   7.145  1.6935 -2.2300 -1.6444
   26CHL1   C15 1868   1.392   2.639   7.215  0.6594  0.1684  0.3101
   26CHL1  H15A 1869   1.371   2.561   7.291 -0.0376 -0.1548 -0.2110
   26CHL1  H15B 1870   1.371   2.741   7.253  0.2435  1.9230 -4.0033
   26CHL1   C16 1871   1.337   2.611   7.076  0.1466 -0.2647  0.0547
   26CHL1  H16A 1872   1.250   2.543   7.082 -0.8347  0.8370 -1.0557
   26CHL1  H16B 1873   1.303   2.707   7.031  0.2747 -0.2631 -0.0409
   26CHL1   C17 1874   1.452   2.562   6.987 -0.0691  1.0978 -0.1810
   26CHL1   H17 1875   1.494   2.649   6.934  0.6673  0.3602 -0.8306
   26CHL1   C13 1876   1.564   2.521   7.090  0.1072 -0.0974  0.0194
   26CHL1   C18 1877   1.523   2.382   7.143  0.3430 -0.8677 -0.1277
   26CHL1  H18A 1878   1.590   2.344   7.223 -0.8604 -1.3996  0.6482
   26CHL1  H18B 1879   1.422   2.383   7.189  0.2786  1.4568 -0.2050
   26CHL1  H18C 1880   1.517   2.296   7.072  1.1450 -2.4241  1.6091
   26CHL1   C12 1881   1.704   2.528   7.040  0.3412  0.3198  0.0158
   26CHL1  H12A 1882   1.723   2.463   6.951  1.2553 -0.6246  0.8755
   26CHL1  H12B 1883   1.713   2.633   7.006  0.6841  1.5017  3.3771
   26CHL1   C11 1884   1.801   2.517   7.152 -0.7787 -0.3038 -0.1214
   26CHL1  H11A 1885   1.808   2.411   7.185 -0.1014 -0.1802  0.1416
   26CHL1  H11B 1886   1.907   2.535   7.126 -0.4609 -0.8968  0.7295
   26CHL1    C9 1887   1.776   2.612   7.275 -0.7149  0.0999 -0.1349
   26CHL1    H9 1888   1.785   2.717   7.239 -0.7459  1.5342  3.5762
   26CHL1   C10 1889   1.869   2.592   7.401 -0.3363 -0.1488 -0.0846
   26CHL1   C19 1890   1.891   2.441   7.441  0.0821  0.8042  0.8576
   26CHL1  H19A 1891   1.931   2.391   7.350 -0.5474  2.5507 -0.4318
   26CHL1  H19B 1892   1.952   2.426   7.533  1.8963  1.0230 -0.2574
   26CHL1  H19C 1893   1.791   2.397   7.455 -1.4040  3.5146 -0.4820
   26CHL1    C1 1894   2.012   2.650   7.360  0.0679 -0.1399 -0.4584
   26CHL1   H1A 1895   2.049   2.581   7.282  1.2582 -1.0151  0.8344
   26CHL1   H1B 1896   2.005   2.755   7.324  2.6220  0.1084 -0.3865
   26CHL1    C2 1897   2.114   2.657   7.476  0.4615 -0.4204 -0.2388
   26CHL1   H2A 1898   2.207   2.695   7.429  0.1456 -0.7099 -1.1213
   26CHL1   H2B 1899   2.129   2.558   7.524 -0.2761 -0.1622  0.5489
   26CHL1   C20 1900   1.397   2.462   6.881  0.4622  0.0612 -0.4073
   26CHL1   H20 1901   1.336   2.379   6.924  1.8802 -0.9898 -0.3488
   26CHL1   C21 1902   1.503   2.400   6.804  0.1698 -0.3323  0.6739
   26CHL1  H21A 1903   1.463   2.328   6.729 -3.3429  0.4979  1.5748
   26CHL1  H21B 1904   1.590   2.354   6.856  3.2207  1.6817 -2.1952
   26CHL1  H21C 1905   1.546   2.471   6.730 -0.1108 -1.4439 -0.6001
   26CHL1   C22 1906   1.302   2.541   6.792  0.3688  0.8115  0.3014
   26CHL1  H22A 1907   1.206   2.563   6.843 -0.5253 -1.3319 -0.3064
   26CHL1  H22B 1908   1.344   2.636   6.754  0.6431  1.3704  1.9426
   26CHL1   C23 1909   1.245   2.477   6.660 -0.4398 -0.3373  0.3639
   26CHL1  H23A 1910   1.334   2.452   6.599  0.0941 -0.1488  1.0573
   26CHL1  H23B 1911   1.193   2.386   6.697  0.0204 -0.7655 -0.0306
   26CHL1   C24 1912   1.151   2.584   6.592  0.0032  0.1797  0.3341
   26CHL1  H24A 1913   1.062   2.598   6.656 -0.2209  1.1806 -0.1773
   26CHL1  H24B 1914   1.213   2.676   6.596  0.9867 -0.3863 -1.1297
   26CHL1   C25 1915   1.111   2.544   6.451 -0.3476  0.5536 -0.3410
   26CHL1   H25 1916   1.204   2.522   6.394 -1.7147  0.6269 -2.6849
   26CHL1   C26 1917   1.024   2.412   6.453 -0.5050 -0.1106  0.4232
   26CHL1  H26A 1918   0.930   2.430   6.509 -1.4693 -1.1436 -0.8021
   26CHL1  H26B 1919   0.996   2.385   6.349  3.0289  0.4444 -0.8086
   26CHL1  H26C 1920   1.078   2.323   6.492  0.0276  0.6492  1.4747
   26CHL1   C27 1921   1.025   2.647   6.393 -0.6877  0.4590  0.5479
   26CHL1  H27A 1922   0.989   2.616   6.292  0.0830 -0.4975  0.5581
   26CHL1  H27B 1923   0.938   2.648   6.463 -1.1025 -1.1933  0.0859
   26CHL1  H27C 1924   1.070   2.749   6.392 -2.8776  1.5512 -2.0349
   27CHL1    C3 1925   0.329   5.693   7.768  0.1621  0.0867 -0.3006
   27CHL1    H3 1926   0.219   5.691   7.757 -0.1609  0.4336  2.1317
   27CHL1    O3 1927   0.359   5.695   7.908  0.5780 -0.2544 -0.1900
   27CHL1   H3' 1928   0.287   5.642   7.943  1.3105 -1.3330 -0.2741
   27CHL1    C4 1929   0.386   5.567   7.709  0.4544  0.3331  0.0504
   27CHL1   H4A 1930   0.495   5.569   7.735 -0.2421  1.3654  3.4516
   27CHL1   H4B 1931   0.340   5.486   7.770 -2.2139  0.6578 -1.3890
   27CHL1    C5 1932   0.360   5.542   7.560 -0.2146  0.2615 -0.3614
   27CHL1    C6 1933   0.283   5.448   7.520 -0.4216  0.1472  0.7280
   27CHL1    H6 1934   0.243   5.370   7.588 -0.9194  0.6655  1.0378
   27CHL1    C7 1935   0.245   5.436   7.380 -0.4795  0.3980 -0.4468
   27CHL1   H7A 1936   0.248   5.327   7.357  0.8913  0.0351  1.2407
   27CHL1   H7B 1937   0.140   5.470   7.367 -1.4298 -1.8787  0.6026
   27CHL1    C8 1938   0.331   5.520   7.278  0.8483  0.0526 -0.2025
   27CHL1    H8 1939   0.428   5.466   7.274  0.8471  0.0116  0.3235
   27CHL1   C14 1940   0.256   5.521   7.144 -1.2157 -0.1918  0.3771
   27CHL1   H14 1941   0.165   5.582   7.159 -0.9800 -0.2200  2.1476
   27CHL1   C15 1942   0.206   5.392   7.095 -0.3285  0.0140  0.0113
   27CHL1  H15A 1943   0.285   5.314   7.107  0.6061  0.9604  0.1150
   27CHL1  H15B 1944   0.120   5.355   7.156 -0.5372 -0.0837 -0.3416
   27CHL1   C16 1945   0.180   5.419   6.951 -0.4488 -0.0576  0.0153
   27CHL1  H16A 1946   0.207   5.326   6.895  0.3853  1.1460 -1.6625
   27CHL1  H16B 1947   0.072   5.424   6.929 -0.1053 -0.2829 -1.8276
   27CHL1   C17 1948   0.254   5.551   6.904  0.3386  0.3310  0.1391
   27CHL1   H17 1949   0.176   5.628   6.889  0.9605  0.8032 -0.7892
   27CHL1   C13 1950   0.340   5.586   7.033  0.3786 -0.3593 -0.2421
   27CHL1   C18 1951   0.478   5.511   7.020 -0.1631 -0.3341  0.3180
   27CHL1  H18A 1952   0.536   5.498   7.114  1.6601  0.4837 -0.6586
   27CHL1  H18B 1953   0.456   5.412   6.974 -2.8638  1.0687 -1.6461
   27CHL1  H18C 1954   0.533   5.570   6.944  0.4059 -1.9302 -0.5611
   27CHL1   C12 1955   0.338   5.736   7.076 -0.1859 -0.0014  0.4687
   27CHL1  H12A 1956   0.386   5.810   7.009 -0.9104 -0.5360 -0.6597
   27CHL1  H12B 1957   0.234   5.775   7.082  0.4346  1.6673  1.0017
   27CHL1   C11 1958   0.397   5.755   7.214 -0.6991  0.0989 -0.3200
   27CHL1  H11A 1959   0.499   5.716   7.196 -1.4617 -2.3537  0.2832
   27CHL1  H11B 1960   0.395   5.859   7.254 -0.4590 -0.0151 -0.0105
   27CHL1    C9 1961   0.341   5.654   7.331 -0.3029 -0.8421  1.0691
   27CHL1    H9 1962   0.236   5.686   7.343 -0.2596  0.3228 -1.1278
   27CHL1   C10 1963   0.402   5.668   7.471 -0.0676  0.9065 -0.0472
   27CHL1   C19 1964   0.566   5.656   7.445  0.6672  0.3133  0.0490
   27CHL1  H19A 1965   0.598   5.753   7.402 -1.8744  1.7402  1.1605
   27CHL1  H19B 1966   0.617   5.645   7.544  1.3955  1.0526 -0.2302
   27CHL1  H19C 1967   0.601   5.575   7.378 -1.6961 -0.1221 -0.7726
   27CHL1    C1 1968   0.365   5.805   7.537  0.3138 -0.5149  0.1800
   27CHL1   H1A 1969   0.422   5.881   7.479 -2.7223  0.5779 -1.5826
   27CHL1   H1B 1970   0.265   5.843   7.507 -0.0977 -0.4067  1.6012
   27CHL1    C2 1971   0.392   5.812   7.690  0.5132 -0.2090  0.5815
   27CHL1   H2A 1972   0.348   5.908   7.724  2.2545  1.3976 -1.4816
   27CHL1   H2B 1973   0.501   5.814   7.706  0.2522  1.6698  2.5209
   27CHL1   C20 1974   0.325   5.546   6.773 -0.3049  0.4216 -0.1045
   27CHL1   H20 1975   0.409   5.472   6.764 -0.9393 -0.2165 -1.0465
   27CHL1   C21 1976   0.387   5.682   6.734 -0.1845 -0.0081  1.2088
   27CHL1  H21A 1977   0.438   5.680   6.635 -2.0494 -6.2851 -0.1146
   27CHL1  H21B 1978   0.466   5.716   6.803 -0.0843 -0.3597  1.2690
   27CHL1  H21C 1979   0.307   5.759   6.721 -0.0909  0.4455  3.0289
   27CHL1   C22 1980   0.225   5.495   6.661  0.0028 -1.0536  0.2187
   27CHL1  H22A 1981   0.199   5.388   6.677 -0.9568 -1.0485 -1.1422
   27CHL1  H22B 1982   0.133   5.556   6.678  1.7964  1.0495  3.5317
   27CHL1   C23 1983   0.270   5.509   6.516 -0.7739  0.3170  0.0845
   27CHL1  H23A 1984   0.260   5.608   6.466  2.2748  0.3078 -0.7619
   27CHL1  H23B 1985   0.379   5.484   6.517 -0.9176 -0.3806 -0.7942
   27CHL1   C24 1986   0.220   5.391   6.429 -0.4687 -0.0552 -0.5837
   27CHL1  H24A 1987   0.234   5.292   6.476 -0.5156 -0.1965 -0.8642
   27CHL1  H24B 1988   0.110   5.394   6.412 -0.9541  1.9429  2.1208
   27CHL1   C25 1989   0.285   5.379   6.286  0.0676  0.2249 -1.3398
   27CHL1   H25 1990   0.394   5.356   6.292 -0.2482 -1.2795 -0.7471
   27CHL1   C26 1991   0.240   5.254   6.199  0.4690 -0.0383 -0.0502
   27CHL1  H26A 1992   0.130   5.258   6.190  0.4450 -0.6794 -0.0938
   27CHL1  H26B 1993   0.281   5.247   6.096  1.3891  0.9108  0.2334
   27CHL1  H26C 1994   0.274   5.163   6.253 -0.4135 -0.9658 -0.9956
   27CHL1   C27 1995   0.258   5.507   6.202 -0.7458 -0.9067  0.2114
   27CHL1  H27A 1996   0.147   5.519   6.200 -0.4316  3.3137 -1.7769
   27CHL1  H27B 1997   0.303   5.597   6.250 -0.6438  0.8993 -3.0049
   27CHL1  H27C 1998   0.289   5.507   6.096 -0.1136 -0.5833  0.3915
   28CHL1    C3 1999   5.768   1.648   7.660  0.2537 -0.0472 -1.0139
   28CHL1    H3 2000   5.664   1.642   7.696  0.9600 -0.3240  1.1135
   28CHL1    O3 2001   5.841   1.672   7.784 -0.3256 -0.4275  0.0283
   28CHL1   H3' 2002   5.919   1.616   7.777 -0.8036 -1.1221  0.1138
   28CHL1    C4 2003   5.812   1.518   7.600  1.0993 -0.0009 -0.6379
   28CHL1   H4A 2004   5.918   1.544   7.577  0.5785  2.5983 -0.3921
   28CHL1   H4B 2005   5.799   1.442   7.681 -2.2707 -0.2100 -1.2125
   28CHL1    C5 2006   5.752   1.489   7.466 -0.1029 -0.4696  0.4631
   28CHL1    C6 2007   5.686   1.377   7.449 -0.1886  0.4975 -0.3331
   28CHL1    H6 2008   5.666   1.305   7.531  2.3504 -0.0930 -0.1427
   28CHL1    C7 2009   5.603   1.344   7.326  0.5377  0.3072 -0.2004
   28CHL1   H7A 2010   5.612   1.237   7.300 -2.5360  0.2925 -1.7172
   28CHL1   H7B 2011   5.495   1.350   7.352  0.2662 -0.1982 -1.1655
   28CHL1    C8 2012   5.627   1.436   7.207  0.3949  0.1828  0.5943
   28CHL1    H8 2013   5.727   1.401   7.173  0.2929 -0.3334  0.8193
   28CHL1   C14 2014   5.515   1.421   7.112 -0.1681  0.1285 -0.3394
   28CHL1   H14 2015   5.427   1.466   7.162 -0.5402 -0.1390 -0.7377
   28CHL1   C15 2016   5.466   1.277   7.068 -0.1323  0.2945  0.7370
   28CHL1  H15A 2017   5.559   1.216   7.072 -0.2080 -0.1043 -1.7061
   28CHL1  H15B 2018   5.387   1.243   7.138 -0.0486  1.6681  1.5241
   28CHL1   C16 2019   5.407   1.301   6.930  0.6613  0.6549  0.2067
   28CHL1  H16A 2020   5.467   1.245   6.855  0.6569  3.5328 -2.1362
   28CHL1  H16B 2021   5.296   1.289   6.935  0.3988  2.2034 -0.8538
   28CHL1   C17 2022   5.416   1.445   6.896 -0.2312 -0.3850 -0.3896
   28CHL1   H17 2023   5.331   1.502   6.940  0.3139  0.5997 -0.5631
   28CHL1   C13 2024   5.540   1.497   6.978  0.1941  0.6689  0.0160
   28CHL1   C18 2025   5.683   1.451   6.918 -0.0375  0.2679 -0.0567
   28CHL1  H18A 2026   5.768   1.476   6.986 -0.6316  2.1304  0.0466
   28CHL1  H18B 2027   5.675   1.341   6.909  0.6933  0.2185 -0.1714
   28CHL1  H18C 2028   5.697   1.495   6.817 -0.4729  0.5830  0.0188
   28CHL1   C12 2029   5.540   1.645   7.021  0.4407 -0.0247  0.0007
   28CHL1  H12A 2030   5.580   1.699   6.932 -0.4002 -0.1587 -0.4653
   28CHL1  H12B 2031   5.436   1.673   7.048  0.3437 -1.1691  0.8714
   28CHL1   C11 2032   5.647   1.674   7.134  0.3380  0.4386 -0.7605
   28CHL1  H11A 2033   5.744   1.669   7.081  0.2330 -0.9845 -0.8516
   28CHL1  H11B 2034   5.631   1.776   7.177  1.4808 -0.1395  1.1501
   28CHL1    C9 2035   5.638   1.578   7.257  0.4997  0.1798 -0.2221
   28CHL1    H9 2036   5.540   1.607   7.301 -0.1465 -0.1453 -1.3985
   28CHL1   C10 2037   5.740   1.605   7.363 -0.4247 -0.5729 -0.9584
   28CHL1   C19 2038   5.879   1.621   7.300 -0.0207  0.4839 -0.1914
   28CHL1  H19A 2039   5.953   1.632   7.382 -0.5658  3.1006  0.0492
   28CHL1  H19B 2040   5.893   1.538   7.228  1.2912  1.0013 -0.5573
   28CHL1  H19C 2041   5.889   1.714   7.240 -0.5334  0.0851 -0.9094
   28CHL1    C1 2042   5.713   1.739   7.441 -0.2481 -0.2529  0.5946
   28CHL1   H1A 2043   5.727   1.828   7.376 -0.8211  0.0160  0.8323
   28CHL1   H1B 2044   5.606   1.734   7.472 -0.4053  0.5375  0.2088
   28CHL1    C2 2045   5.796   1.764   7.568 -0.3833 -0.1891  0.2996
   28CHL1   H2A 2046   5.744   1.853   7.611 -0.9730  0.0194 -0.8086
   28CHL1   H2B 2047   5.901   1.794   7.550  0.4751 -2.2571  1.5737
   28CHL1   C20 2048   5.412   1.491   6.748  0.5891 -0.0400  0.4419
   28CHL1   H20 2049   5.510   1.463   6.705  1.1546  0.5410  1.3182
   28CHL1   C21 2050   5.384   1.647   6.733  0.2490  0.2841  0.6365
   28CHL1  H21A 2051   5.276   1.668   6.752  0.9178  2.4612  2.4487
   28CHL1  H21B 2052   5.410   1.681   6.631  0.4912 -0.3846  0.4723
   28CHL1  H21C 2053   5.437   1.707   6.810  0.2104  1.3056 -0.1153
   28CHL1   C22 2054   5.318   1.405   6.663 -0.4226 -0.0710 -0.0826
   28CHL1  H22A 2055   5.347   1.302   6.692 -0.8848 -0.1271  0.1991
   28CHL1  H22B 2056   5.212   1.421   6.692  0.1736  2.7460  0.8510
   28CHL1   C23 2057   5.332   1.422   6.509 -0.1488 -0.7240 -0.6670
   28CHL1  H23A 2058   5.309   1.525   6.472  0.0218 -0.2174  0.5919
   28CHL1  H23B 2059   5.438   1.401   6.481  0.2481  0.0151  0.2073
   28CHL1   C24 2060   5.238   1.332   6.433 -0.1000  0.2818  0.0818
   28CHL1  H24A 2061   5.141   1.356   6.483  0.9067  3.4720  0.7177
   28CHL1  H24B 2062   5.220   1.369   6.330 -2.3793  1.6735  0.8848
   28CHL1   C25 2063   5.275   1.186   6.433  0.2983  0.4903  0.3969
   28CHL1   H25 2064   5.282   1.147   6.537 -0.8702 -0.8081  0.0221
   28CHL1   C26 2065   5.148   1.116   6.381  0.4708  0.9499 -0.7158
   28CHL1  H26A 2066   5.100   1.166   6.294 -1.9677  0.6765  0.3865
   28CHL1  H26B 2067   5.159   1.013   6.341  1.6191  1.1461 -0.9234
   28CHL1  H26C 2068   5.060   1.111   6.449 -0.0770 -0.8596 -1.4977
   28CHL1   C27 2069   5.399   1.175   6.343 -0.0517 -0.5664  0.3067
   28CHL1  H27A 2070   5.490   1.225   6.380  0.5007 -1.0903 -0.3279
   28CHL1  H27B 2071   5.433   1.069   6.342 -1.3337 -0.9961 -0.5513
   28CHL1  H27C 2072   5.375   1.227   6.248  2.9556  3.0047  1.2680
   29CHL1    C3 2073   3.684   6.686   4.629 -0.7894 -0.6962  0.0951
   29CHL1    H3 2074   3.729   6.584   4.631 -0.5554 -0.6170  2.8543
   29CHL1    O3 2075   3.642   6.679   4.499  0.3119  0.5917  0.5276
   29CHL1   H3' 2076   3.546   6.677   4.507  0.4147  0.7595  2.1604
   29CHL1    C4 2077   3.580   6.721   4.732 -0.3299  0.3658 -0.4013
   29CHL1   H4A 2078   3.523   6.816   4.723 -1.4384  0.0426  2.1308
   29CHL1   H4B 2079   3.508   6.636   4.728 -0.4305  0.4940 -3.1793
   29CHL1    C5 2080   3.644   6.716   4.874 -0.1068 -0.5649  0.0878
   29CHL1    C6 2081   3.598   6.625   4.961 -0.3141 -0.4287  0.1939
   29CHL1    H6 2082   3.501   6.578   4.940 -0.8229  0.4085  0.6273
   29CHL1    C7 2083   3.650   6.600   5.095  0.1742 -1.2544  0.2815
   29CHL1   H7A 2084   3.560   6.606   5.160 -0.4465 -0.8320 -0.5902
   29CHL1   H7B 2085   3.693   6.499   5.109  0.2701 -0.8476  3.9296
   29CHL1    C8 2086   3.753   6.717   5.144  0.7304  0.6814  0.7070
   29CHL1    H8 2087   3.684   6.800   5.170 -0.6351  0.4112 -1.6946
   29CHL1   C14 2088   3.840   6.678   5.260  0.4433  0.4459  0.4216
   29CHL1   H14 2089   3.901   6.591   5.230  0.2261  0.3795  0.1733
   29CHL1   C15 2090   3.757   6.622   5.374  0.2285  0.1597  0.5317
   29CHL1  H15A 2091   3.667   6.686   5.382 -0.1492 -0.3226  0.2144
   29CHL1  H15B 2092   3.730   6.517   5.350  1.1417  0.3119 -1.3498
   29CHL1   C16 2093   3.857   6.637   5.490  0.8433  0.5039 -0.3807
   29CHL1  H16A 2094   3.799   6.695   5.565 -0.5690 -2.0712  0.6456
   29CHL1  H16B 2095   3.891   6.544   5.540  2.0317  1.3568  0.4377
   29CHL1   C17 2096   3.978   6.720   5.443  0.3927 -0.5434 -0.1933
   29CHL1   H17 2097   4.051   6.640   5.418 -1.6276 -1.9666 -1.9059
   29CHL1   C13 2098   3.926   6.785   5.318 -0.1535 -0.6104  0.3231
   29CHL1   C18 2099   3.841   6.912   5.358 -0.4752  0.9947  0.0577
   29CHL1  H18A 2100   3.759   6.881   5.427 -0.8178  1.8621  0.0569
   29CHL1  H18B 2101   3.906   6.985   5.410  1.1228  0.0926 -0.6034
   29CHL1  H18C 2102   3.789   6.971   5.279  3.0024  1.4618 -2.0632
   29CHL1   C12 2103   4.024   6.825   5.198  0.1601 -0.3395  0.1253
   29CHL1  H12A 2104   4.083   6.907   5.244  1.9319 -1.6090  0.2211
   29CHL1  H12B 2105   4.093   6.741   5.173 -1.2964 -1.1068 -1.5509
   29CHL1   C11 2106   3.942   6.867   5.076  0.6178  0.6667 -0.3178
   29CHL1  H11A 2107   3.898   6.967   5.096  0.0605  0.2525  0.5331
   29CHL1  H11B 2108   3.997   6.894   4.982  0.6478 -0.2026 -0.5548
   29CHL1    C9 2109   3.843   6.758   5.022 -0.5786 -0.6310 -0.3564
   29CHL1    H9 2110   3.919   6.680   5.004 -0.0195 -0.0964 -0.3500
   29CHL1   C10 2111   3.769   6.798   4.895 -0.2777 -0.4153 -0.4523
   29CHL1   C19 2112   3.723   6.951   4.910  0.2292  0.5617 -0.3127
   29CHL1  H19A 2113   3.640   6.959   4.984 -0.0036 -3.0034 -0.0198
   29CHL1  H19B 2114   3.803   7.026   4.923 -1.4876  2.4849 -0.3273
   29CHL1  H19C 2115   3.674   6.987   4.817 -3.7304 -0.1298  1.2768
   29CHL1    C1 2116   3.863   6.786   4.773 -0.0250 -0.7527  0.3508
   29CHL1   H1A 2117   3.927   6.876   4.772 -1.0420  0.0566 -2.9545
   29CHL1   H1B 2118   3.918   6.690   4.784 -0.3642 -1.1177 -0.9327
   29CHL1    C2 2119   3.789   6.787   4.631  0.0856  0.5173 -0.3485
   29CHL1   H2A 2120   3.863   6.763   4.552  1.4682 -4.5501  2.0242
   29CHL1   H2B 2121   3.754   6.891   4.614  0.4890  0.6369 -0.4668
   29CHL1   C20 2122   4.047   6.793   5.561 -0.8677 -0.1693 -0.3370
   29CHL1   H20 2123   3.979   6.866   5.611  0.3403 -0.2356  1.4957
   29CHL1   C21 2124   4.173   6.869   5.506  0.1559 -0.0981 -0.2087
   29CHL1  H21A 2125   4.240   6.804   5.447  1.4754  1.1168 -0.1215
   29CHL1  H21B 2126   4.234   6.894   5.596  0.1338 -0.4387 -0.0985
   29CHL1  H21C 2127   4.157   6.960   5.443  0.9826  0.5548  0.4891
   29CHL1   C22 2128   4.096   6.694   5.670  0.3046  0.0703  0.4689
   29CHL1  H22A 2129   4.005   6.630   5.680 -0.1335 -0.1105 -3.4434
   29CHL1  H22B 2130   4.181   6.633   5.633  0.8301  0.4132  1.0799
   29CHL1   C23 2131   4.135   6.760   5.804 -0.0494  0.0411 -0.0515
   29CHL1  H23A 2132   4.117   6.679   5.877 -0.6650 -1.4352 -1.7632
   29CHL1  H23B 2133   4.237   6.802   5.819 -0.3033  1.1890 -1.2757
   29CHL1   C24 2134   4.043   6.878   5.844  0.0406  0.0617 -0.6018
   29CHL1  H24A 2135   4.033   6.968   5.778  0.3980  2.1550  2.0326
   29CHL1  H24B 2136   3.938   6.843   5.842  0.1014 -0.1774  0.1118
   29CHL1   C25 2137   4.072   6.931   5.984 -0.0301 -0.5194  0.1094
   29CHL1   H25 2138   4.113   6.855   6.054 -0.0473 -0.0253  0.6675
   29CHL1   C26 2139   4.180   7.036   5.972 -0.0696 -0.7110  0.1701
   29CHL1  H26A 2140   4.196   7.097   6.063 -1.2591  1.7268 -1.1704
   29CHL1  H26B 2141   4.275   6.996   5.931  0.2967  0.2628  0.0544
   29CHL1  H26C 2142   4.153   7.105   5.889  2.9096 -0.2255 -0.4898
   29CHL1   C27 2143   3.944   6.986   6.049 -0.0227  0.9577 -0.4115
   29CHL1  H27A 2144   3.975   7.058   6.128  0.7112 -0.8905  1.0626
   29CHL1  H27B 2145   3.875   7.032   5.975  1.1456  2.3665 -0.6635
   29CHL1  H27C 2146   3.886   6.910   6.105 -0.6573  0.9232 -1.0993
   30CHL1    C3 2147   6.437   1.059   4.489  0.7021 -0.2292 -0.1153
   30CHL1    H3 2148   6.441   1.170   4.486 -0.2551 -0.1906 -0.6036
   30CHL1    O3 2149   6.437   1.018   4.354 -0.5302  0.1637  0.2431
   30CHL1   H3' 2150   6.526   1.031   4.321 -0.4298  2.1490  1.1773
   30CHL1    C4 2151   6.554   0.989   4.561  0.6976 -0.3019 -0.2969
   30CHL1   H4A 2152   6.553   0.881   4.536 -0.5193  0.1709 -2.5478
   30CHL1   H4B 2153   6.644   1.030   4.510  2.0137  1.7451  3.3316
   30CHL1    C5 2154   6.548   1.024   4.713 -0.9353 -0.0162  0.7863
   30CHL1    C6 2155   6.655   1.081   4.768 -0.0770 -0.3040 -0.7436
   30CHL1    H6 2156   6.748   1.099   4.711 -1.0761 -0.0472 -2.3326
   30CHL1    C7 2157   6.671   1.108   4.914  0.2007 -0.1910  0.2138
   30CHL1   H7A 2158   6.774   1.077   4.942  0.2678 -1.9597 -1.7675
   30CHL1   H7B 2159   6.647   1.213   4.941 -1.6300 -0.2004 -1.1920
   30CHL1    C8 2160   6.570   1.015   4.997  0.0509  0.0306  1.0512
   30CHL1    H8 2161   6.601   0.910   4.981 -2.3495 -0.9582  2.2810
   30CHL1   C14 2162   6.582   1.054   5.143  0.4468 -0.0209  0.1936
   30CHL1   H14 2163   6.544   1.156   5.165  1.3947  0.0995  1.4294
   30CHL1   C15 2164   6.727   1.047   5.200  0.1167  0.0941  0.1400
   30CHL1  H15A 2165   6.771   0.948   5.175 -2.2561 -0.3199 -3.0511
   30CHL1  H15B 2166   6.792   1.128   5.159 -1.1931  0.2620 -1.7278
   30CHL1   C16 2167   6.690   1.063   5.349 -0.2950 -0.6565  0.0725
   30CHL1  H16A 2168   6.747   0.980   5.396  1.6900  0.6377  0.0834
   30CHL1  H16B 2169   6.727   1.158   5.393 -0.0077 -0.6966 -0.0802
   30CHL1   C17 2170   6.535   1.044   5.371  0.3231  0.3469 -0.0724
   30CHL1   H17 2171   6.492   1.146   5.371  0.5176  0.4476  1.1543
   30CHL1   C13 2172   6.483   0.982   5.236 -0.2448  0.1483  0.5606
   30CHL1   C18 2173   6.509   0.830   5.241  0.2706 -0.3894  0.1611
   30CHL1  H18A 2174   6.537   0.788   5.141  1.9935  0.8929  0.0573
   30CHL1  H18B 2175   6.602   0.815   5.300  0.3501 -0.2411  0.0746
   30CHL1  H18C 2176   6.427   0.776   5.292  1.6348 -1.7461  0.9997
   30CHL1   C12 2177   6.341   1.023   5.185 -0.6720 -0.4477 -0.0620
   30CHL1  H12A 2178   6.278   0.963   5.254  1.6127 -2.3623  0.4809
   30CHL1  H12B 2179   6.311   1.130   5.192  0.0705 -0.0432 -2.2249
   30CHL1   C11 2180   6.323   0.979   5.037 -0.3434  0.5309 -0.2792
   30CHL1  H11A 2181   6.324   0.868   5.031  0.6892  0.4534  0.9910
   30CHL1  H11B 2182   6.224   1.003   4.992 -0.6465  1.0496  0.6521
   30CHL1    C9 2183   6.427   1.041   4.948  0.1146  0.1403  0.4068
   30CHL1    H9 2184   6.416   1.151   4.943  0.8659  0.2644  1.3536
   30CHL1   C10 2185   6.421   0.994   4.798  1.0202  0.4080  0.6997
   30CHL1   C19 2186   6.414   0.836   4.791 -0.1317  0.1785  0.0111
   30CHL1  H19A 2187   6.494   0.783   4.848 -0.9500  0.9008  1.9151
   30CHL1  H19B 2188   6.316   0.804   4.832  0.6352 -0.2848  1.5766
   30CHL1  H19C 2189   6.415   0.799   4.686  0.3981 -0.1575  0.1293
   30CHL1    C1 2190   6.295   1.051   4.718  0.2679  0.0099 -0.0641
   30CHL1   H1A 2191   6.200   1.003   4.750  0.1591 -2.5721 -3.5909
   30CHL1   H1B 2192   6.288   1.160   4.737  1.3064 -0.2836  2.2939
   30CHL1    C2 2193   6.297   1.028   4.565 -0.3546 -0.1790  0.2995
   30CHL1   H2A 2194   6.225   1.092   4.510  2.9412  2.1951 -1.6496
   30CHL1   H2B 2195   6.274   0.920   4.558  0.5606 -0.3745  0.1105
   30CHL1   C20 2196   6.498   0.976   5.499 -0.0594 -0.2970  0.0261
   30CHL1   H20 2197   6.542   0.874   5.491 -0.0565 -0.1873 -1.6088
   30CHL1   C21 2198   6.345   0.966   5.530  0.7258  0.2267  0.1458
   30CHL1  H21A 2199   6.311   0.860   5.528 -2.9393  1.2424  1.3245
   30CHL1  H21B 2200   6.283   1.020   5.456 -1.4135  0.1523  1.7705
   30CHL1  H21C 2201   6.311   1.004   5.629 -1.0991 -1.1541  0.1134
   30CHL1   C22 2202   6.567   1.041   5.616  0.0295 -0.3066 -0.0267
   30CHL1  H22A 2203   6.523   1.005   5.711  0.3168  0.9303  0.5886
   30CHL1  H22B 2204   6.677   1.023   5.614  0.3657  1.0705  2.4204
   30CHL1   C23 2205   6.550   1.190   5.640  0.3540 -0.1676 -0.2789
   30CHL1  H23A 2206   6.577   1.257   5.556  0.7708 -0.3508 -0.2921
   30CHL1  H23B 2207   6.442   1.211   5.656  0.5270  0.2345  0.4244
   30CHL1   C24 2208   6.638   1.227   5.763  0.1090  0.1028 -0.6845
   30CHL1  H24A 2209   6.598   1.168   5.848 -0.4296 -1.1345 -1.7670
   30CHL1  H24B 2210   6.745   1.207   5.744  0.2535 -0.1735  0.3489
   30CHL1   C25 2211   6.603   1.377   5.796 -0.4886 -0.4709 -0.1023
   30CHL1   H25 2212   6.492   1.387   5.794 -0.9909 -3.2712  3.1043
   30CHL1   C26 2213   6.633   1.409   5.944 -0.3621 -0.2923 -0.3213
   30CHL1  H26A 2214   6.608   1.514   5.969 -1.5498 -0.7370  0.4343
   30CHL1  H26B 2215   6.565   1.347   6.006  0.1638 -0.1614  0.3862
   30CHL1  H26C 2216   6.740   1.392   5.966  0.0639  1.1594 -1.1322
   30CHL1   C27 2217   6.675   1.479   5.697  0.0451  0.1464 -0.7560
   30CHL1  H27A 2218   6.647   1.585   5.715 -0.8230 -0.0177 -1.1170
   30CHL1  H27B 2219   6.780   1.467   5.731  0.1035  0.2825 -0.8895
   30CHL1  H27C 2220   6.681   1.448   5.590  2.3447 -0.5143 -0.4950
   31CHL1    C3 2221   6.688   0.645   4.321 -0.0275 -0.1011  0.3853
   31CHL1    H3 2222   6.620   0.730   4.341 -0.3716  0.3420 -2.2733
   31CHL1    O3 2223   6.688   0.620   4.183 -0.0210  0.2071  0.9715
   31CHL1   H3' 2224   6.745   0.544   4.176  1.1132  0.8860  2.2564
   31CHL1    C4 2225   6.828   0.681   4.361 -0.8756  0.6695  1.3069
   31CHL1   H4A 2226   6.900   0.606   4.322 -1.8575  0.2245  0.3165
   31CHL1   H4B 2227   6.857   0.774   4.306  1.4942 -0.8123 -0.1530
   31CHL1    C5 2228   6.838   0.694   4.512  0.3135 -0.6824 -0.0272
   31CHL1    C6 2229   6.886   0.803   4.574 -1.2622 -0.7687 -0.1250
   31CHL1    H6 2230   6.911   0.897   4.523 -2.3326  0.0872  0.8846
   31CHL1    C7 2231   6.907   0.816   4.719  0.3352  0.4293  0.3840
   31CHL1   H7A 2232   7.014   0.838   4.739  1.0329 -1.2522 -1.2314
   31CHL1   H7B 2233   6.851   0.906   4.753 -2.0354  0.8633 -3.8831
   31CHL1    C8 2234   6.878   0.688   4.801  0.3790 -0.0030  0.1365
   31CHL1    H8 2235   6.965   0.623   4.777  2.7259  1.3676  4.0623
   31CHL1   C14 2236   6.880   0.720   4.951  0.6022  0.3397 -1.1597
   31CHL1   H14 2237   6.788   0.780   4.961 -0.0921 -0.9144  0.3887
   31CHL1   C15 2238   7.000   0.806   5.013  0.6204  0.4877  0.4036
   31CHL1  H15A 2239   7.098   0.765   4.978 -0.3969 -3.0970  1.2837
   31CHL1  H15B 2240   6.984   0.915   5.004 -0.4415  0.4210  1.4123
   31CHL1   C16 2241   6.971   0.790   5.163 -0.1459  0.2803  0.3805
   31CHL1  H16A 2242   7.063   0.759   5.217 -0.1407  4.3548  3.1850
   31CHL1  H16B 2243   6.948   0.879   5.225  0.8499  0.3526  0.6660
   31CHL1   C17 2244   6.862   0.677   5.181 -0.2378 -0.3647 -0.0017
   31CHL1   H17 2245   6.768   0.734   5.196 -0.1184 -0.2192  0.1925
   31CHL1   C13 2246   6.854   0.604   5.040 -0.1690 -0.7546 -0.1209
   31CHL1   C18 2247   6.973   0.509   5.033 -0.4051  0.0091 -0.0042
   31CHL1  H18A 2248   7.075   0.550   5.045 -0.2921  0.2777 -1.6582
   31CHL1  H18B 2249   6.952   0.424   5.102  1.5472  1.3689  2.4048
   31CHL1  H18C 2250   6.979   0.460   4.933  1.2519  1.3677 -0.6225
   31CHL1   C12 2251   6.721   0.541   4.999  0.3339  0.2528 -0.8175
   31CHL1  H12A 2252   6.710   0.448   5.060  2.7002 -0.1568 -0.9294
   31CHL1  H12B 2253   6.633   0.607   5.012  0.8536  0.8247 -0.1012
   31CHL1   C11 2254   6.721   0.493   4.850  0.6741 -0.7331  0.3344
   31CHL1  H11A 2255   6.803   0.418   4.843 -0.0326 -1.6504  1.5485
   31CHL1  H11B 2256   6.625   0.454   4.811 -0.4980  1.9425  0.3569
   31CHL1    C9 2257   6.754   0.616   4.755  0.1075 -0.1443  0.0350
   31CHL1    H9 2258   6.668   0.683   4.775  0.0360 -0.3852  0.5489
   31CHL1   C10 2259   6.780   0.578   4.602  0.2696  0.4776  0.6355
   31CHL1   C19 2260   6.869   0.447   4.596  0.0007 -0.4384 -0.0019
   31CHL1  H19A 2261   6.958   0.458   4.662 -0.6911  0.0229  0.8843
   31CHL1  H19B 2262   6.826   0.348   4.620 -0.9986 -0.2134 -0.7946
   31CHL1  H19C 2263   6.911   0.439   4.494  0.1061  2.8580 -0.3474
   31CHL1    C1 2264   6.641   0.537   4.543  0.0217  0.1146  0.3198
   31CHL1   H1A 2265   6.612   0.444   4.596 -1.1982  0.2623 -0.0497
   31CHL1   H1B 2266   6.559   0.606   4.576 -0.0632  1.2088 -1.9845
   31CHL1    C2 2267   6.645   0.520   4.392  0.4325  0.2482  0.1040
   31CHL1   H2A 2268   6.542   0.499   4.357  0.5013 -0.5512  0.3662
   31CHL1   H2B 2269   6.713   0.437   4.365  1.3968  0.6896  1.0795
   31CHL1   C20 2270   6.873   0.592   5.320 -0.0906  0.1195 -0.2549
   31CHL1   H20 2271   6.976   0.552   5.324 -0.7255 -1.5272  0.4503
   31CHL1   C21 2272   6.774   0.474   5.327  0.6023 -0.0658 -0.2632
   31CHL1  H21A 2273   6.671   0.502   5.298  0.5091  0.0773  0.1981
   31CHL1  H21B 2274   6.777   0.418   5.423 -0.6063  1.3946  0.6589
   31CHL1  H21C 2275   6.794   0.392   5.255 -0.8895 -1.3124  0.6806
   31CHL1   C22 2276   6.850   0.690   5.443  0.3852 -0.0128 -0.0569
   31CHL1  H22A 2277   6.924   0.772   5.433  1.7872 -1.2448 -0.0798
   31CHL1  H22B 2278   6.751   0.740   5.440 -0.0996 -0.8788  0.8532
   31CHL1   C23 2279   6.860   0.632   5.586 -0.3167  0.2699  0.4970
   31CHL1  H23A 2280   6.771   0.576   5.621 -1.8989  0.6792 -2.5170
   31CHL1  H23B 2281   6.941   0.557   5.574 -1.2946 -0.6352 -0.8767
   31CHL1   C24 2282   6.891   0.742   5.685  0.1768  0.1282 -0.0070
   31CHL1  H24A 2283   6.964   0.803   5.628  0.9528 -1.2176 -0.4990
   31CHL1  H24B 2284   6.796   0.793   5.714 -0.7312 -0.6141 -1.5684
   31CHL1   C25 2285   6.952   0.697   5.815 -0.9850  0.3292  0.0685
   31CHL1   H25 2286   7.045   0.642   5.790 -0.1141  1.6092  0.4479
   31CHL1   C26 2287   6.995   0.819   5.903 -0.2365  0.3835  0.1048
   31CHL1  H26A 2288   7.092   0.862   5.870  1.2619 -1.0158  2.4419
   31CHL1  H26B 2289   6.914   0.895   5.898 -1.4644 -0.9549 -1.6888
   31CHL1  H26C 2290   6.997   0.770   6.002 -2.2420  1.3973  0.7003
   31CHL1   C27 2291   6.856   0.598   5.888 -0.3142 -0.5829  0.1547
   31CHL1  H27A 2292   6.828   0.514   5.822 -0.8274 -1.6316  1.6745
   31CHL1  H27B 2293   6.912   0.557   5.975 -0.9852  1.4802  1.6607
   31CHL1  H27C 2294   6.764   0.658   5.908 -0.3933 -0.5397 -0.3192
   32CHL1    C3 2295   5.816   0.357   4.294  0.3643  0.0506  0.1726
   32CHL1    H3 2296   5.894   0.283   4.322 -0.4764  0.1671  3.1389
   32CHL1    O3 2297   5.818   0.394   4.158  0.1464 -0.1849  0.6352
   32CHL1   H3' 2298   5.763   0.471   4.144 -0.2300 -0.6613 -0.6871
   32CHL1    C4 2299   5.679   0.286   4.334  0.2690  0.4067  0.3892
   32CHL1   H4A 2300   5.593   0.350   4.305  0.5799  0.6280 -0.0708
   32CHL1   H4B 2301   5.670   0.191   4.276 -1.4474  1.2601 -0.8414
   32CHL1    C5 2302   5.684   0.258   4.486  0.7796  0.0850  0.0856
   32CHL1    C6 2303   5.677   0.136   4.535  0.9975  0.4212 -0.6952
   32CHL1    H6 2304   5.662   0.056   4.461 -2.0043  0.1458  0.0803
   32CHL1    C7 2305   5.663   0.095   4.680  0.6138  0.0192 -0.1690
   32CHL1   H7A 2306   5.577   0.027   4.692  1.8636 -1.4277  0.9866
   32CHL1   H7B 2307   5.753   0.040   4.716  0.9764  0.9265  0.3542
   32CHL1    C8 2308   5.636   0.215   4.769  0.0816 -0.2407  0.6504
   32CHL1    H8 2309   5.529   0.242   4.762 -0.0815 -0.7727  1.0507
   32CHL1   C14 2310   5.660   0.185   4.916  0.3022 -0.0611 -0.1424
   32CHL1   H14 2311   5.770   0.166   4.920  0.3573  0.4339  1.1001
   32CHL1   C15 2312   5.602   0.057   4.970  0.4921 -0.0644 -0.5105
   32CHL1  H15A 2313   5.493   0.062   4.949  0.5652  1.0026 -0.6799
   32CHL1  H15B 2314   5.643  -0.043   4.947 -0.2316 -0.6461  0.6441
   32CHL1   C16 2315   5.631   0.074   5.119 -0.5408  0.6151 -0.8510
   32CHL1  H16A 2316   5.536   0.061   5.174 -0.0505 -0.0849 -0.1514
   32CHL1  H16B 2317   5.707   0.006   5.164 -1.4577  0.8418  1.1194
   32CHL1   C17 2318   5.681   0.217   5.142 -0.5050 -0.2506 -0.4084
   32CHL1   H17 2319   5.792   0.207   5.152 -0.4843  1.0116  0.8858
   32CHL1   C13 2320   5.644   0.298   5.018  0.3014 -0.2168  0.0003
   32CHL1   C18 2321   5.498   0.351   5.027  0.3666  0.5916  0.8800
   32CHL1  H18A 2322   5.491   0.460   5.007  1.5201  0.2165 -2.1033
   32CHL1  H18B 2323   5.425   0.300   4.960  0.1486  0.4130  1.2473
   32CHL1  H18C 2324   5.445   0.331   5.122 -0.8534 -4.6039 -0.5387
   32CHL1   C12 2325   5.737   0.413   4.971 -0.0659  0.0647 -0.0433
   32CHL1  H12A 2326   5.711   0.499   5.036 -1.1024 -0.0115 -0.3339
   32CHL1  H12B 2327   5.845   0.397   4.989  0.1852  1.6643  0.0390
   32CHL1   C11 2328   5.704   0.450   4.826 -0.7883  0.3155  0.1084
   32CHL1  H11A 2329   5.600   0.489   4.822 -0.2180  1.7646 -2.6953
   32CHL1  H11B 2330   5.777   0.530   4.803 -0.8899  0.3374 -0.1436
   32CHL1    C9 2331   5.720   0.335   4.723 -0.3047 -0.3074  0.3626
   32CHL1    H9 2332   5.826   0.305   4.738  0.0482 -0.3573 -1.9061
   32CHL1   C10 2333   5.693   0.384   4.579 -0.0552 -0.3604  0.1566
   32CHL1   C19 2334   5.563   0.475   4.566  0.2744  0.2470 -0.3524
   32CHL1  H19A 2335   5.586   0.572   4.615  0.3790  0.7398 -1.3448
   32CHL1  H19B 2336   5.533   0.488   4.460 -0.9671 -1.8418 -0.3012
   32CHL1  H19C 2337   5.480   0.426   4.620 -0.2754  0.0302 -1.3788
   32CHL1    C1 2338   5.820   0.466   4.530  0.1217  0.2207 -0.3564
   32CHL1   H1A 2339   5.816   0.570   4.567  0.7182  1.2413 -2.9377
   32CHL1   H1B 2340   5.906   0.407   4.569 -1.2647 -0.7581  1.3581
   32CHL1    C2 2341   5.833   0.482   4.375  0.1302  0.7305  0.4761
   32CHL1   H2A 2342   5.931   0.530   4.355  0.5486 -0.2605  0.0501
   32CHL1   H2B 2343   5.755   0.560   4.360 -0.4612 -0.0345 -0.5317
   32CHL1   C20 2344   5.645   0.264   5.287 -0.4014  0.1781  0.4207
   32CHL1   H20 2345   5.534   0.271   5.285 -0.3213  2.0411 -0.2267
   32CHL1   C21 2346   5.713   0.409   5.307  0.1068 -0.4364 -0.0720
   32CHL1  H21A 2347   5.686   0.452   5.406 -1.1611 -0.3339 -0.4464
   32CHL1  H21B 2348   5.652   0.474   5.240 -0.3094  3.0059  3.2318
   32CHL1  H21C 2349   5.823   0.403   5.296  0.3879 -0.0299  2.1059
   32CHL1   C22 2350   5.685   0.170   5.408  0.4869 -0.9418  0.0305
   32CHL1  H22A 2351   5.662   0.067   5.375 -2.2431  0.2377 -2.2565
   32CHL1  H22B 2352   5.793   0.187   5.428 -0.2796  1.1149  3.1160
   32CHL1   C23 2353   5.616   0.204   5.544 -0.2667 -0.7262  0.0816
   32CHL1  H23A 2354   5.620   0.314   5.555 -1.5250 -0.3897 -2.1050
   32CHL1  H23B 2355   5.509   0.176   5.531  0.1506 -1.0032 -4.4735
   32CHL1   C24 2356   5.688   0.140   5.669 -0.1276  0.1482  0.2960
   32CHL1  H24A 2357   5.708   0.038   5.631  0.8671  1.0793 -1.8201
   32CHL1  H24B 2358   5.791   0.181   5.678  0.2035 -0.7151  0.6067
   32CHL1   C25 2359   5.618   0.164   5.807 -0.4040  0.4307 -0.3828
   32CHL1   H25 2360   5.618   0.272   5.831  2.0882  0.3939  0.0413
   32CHL1   C26 2361   5.468   0.136   5.829 -0.3851  0.6965 -0.0406
   32CHL1  H26A 2362   5.460   0.025   5.817 -1.8299  0.9283 -1.6946
   32CHL1  H26B 2363   5.436   0.163   5.932 -3.0771  1.7981 -1.0510
   32CHL1  H26C 2364   5.403   0.186   5.753  0.6830  0.2128 -1.3188
   32CHL1   C27 2365   5.694   0.097   5.925 -0.4335 -0.6174  0.5813
   32CHL1  H27A 2366   5.664  -0.009   5.935 -1.4997 -0.2343  1.6775
   32CHL1  H27B 2367   5.801   0.077   5.904 -0.9845 -0.8115 -2.4242
   32CHL1  H27C 2368   5.678   0.145   6.024 -2.3629 -1.6600  0.8117
   33CHL1    C3 2369   3.126   1.567   4.450 -0.4406 -0.0823  0.3539
   33CHL1    H3 2370   3.233   1.593   4.432 -1.3334  2.6151 -1.7572
   33CHL1    O3 2371   3.077   1.532   4.322 -0.3995 -0.8165  0.3709
   33CHL1   H3' 2372   3.147   1.477   4.286  0.1428 -0.1028  0.3060
   33CHL1    C4 2373   3.110   1.438   4.530  0.5658 -0.3486 -0.0289
   33CHL1   H4A 2374   3.004   1.408   4.524 -0.3348  2.7026 -2.1068
   33CHL1   H4B 2375   3.167   1.357   4.479  0.6100 -2.1275  2.6677
   33CHL1    C5 2376   3.153   1.460   4.674  0.3855  0.5506  0.7014
   33CHL1    C6 2377   3.238   1.376   4.735 -0.6031 -0.0368  0.2807
   33CHL1    H6 2378   3.284   1.298   4.673  0.9350  0.6280  0.5388
   33CHL1    C7 2379   3.268   1.380   4.881 -0.8952 -1.3753 -0.4848
   33CHL1   H7A 2380   3.282   1.281   4.929 -1.1730 -1.5539 -0.7696
   33CHL1   H7B 2381   3.367   1.427   4.897 -1.7208  0.5434 -0.7178
   33CHL1    C8 2382   3.177   1.473   4.965 -0.0191 -0.4344 -0.1217
   33CHL1    H8 2383   3.079   1.422   4.967  0.9029 -2.3300 -0.5755
   33CHL1   C14 2384   3.235   1.490   5.105 -0.2834 -0.3371 -0.0451
   33CHL1   H14 2385   3.341   1.522   5.092 -0.0978 -1.8324 -2.9657
   33CHL1   C15 2386   3.245   1.368   5.196  0.1975 -0.2195  0.6956
   33CHL1  H15A 2387   3.148   1.316   5.205  0.1186 -0.0336  0.9293
   33CHL1  H15B 2388   3.334   1.308   5.167  0.7457  1.4604 -1.3390
   33CHL1   C16 2389   3.269   1.444   5.337  0.0065  0.4329  0.7666
   33CHL1  H16A 2390   3.197   1.409   5.413  0.1951  0.8059  1.1223
   33CHL1  H16B 2391   3.374   1.419   5.362 -0.2074 -1.4966 -0.1268
   33CHL1   C17 2392   3.251   1.594   5.317  0.5441  0.3132  0.3106
   33CHL1   H17 2393   3.355   1.627   5.296  0.4512  1.3483  1.4237
   33CHL1   C13 2394   3.169   1.598   5.183 -0.0676 -0.6126 -1.3260
   33CHL1   C18 2395   3.015   1.567   5.226 -1.3657  0.0125  0.2321
   33CHL1  H18A 2396   2.965   1.648   5.283 -3.2544  0.1503 -1.5058
   33CHL1  H18B 2397   2.960   1.545   5.132 -0.7383  1.4046 -0.4937
   33CHL1  H18C 2398   2.998   1.475   5.286  0.8199 -1.0732 -0.7224
   33CHL1   C12 2399   3.187   1.726   5.103 -0.0658 -0.0203 -0.0562
   33CHL1  H12A 2400   3.148   1.818   5.151 -1.9887 -0.5620 -0.5146
   33CHL1  H12B 2401   3.296   1.745   5.088 -0.0721  2.0803  1.9637
   33CHL1   C11 2402   3.108   1.727   4.967  0.6577  0.3659 -0.1271
   33CHL1  H11A 2403   3.002   1.707   4.992  0.8500  0.6275  0.9605
   33CHL1  H11B 2404   3.129   1.814   4.901  1.8747  0.8876  0.9162
   33CHL1    C9 2405   3.158   1.607   4.884 -0.5906 -0.6017  0.5426
   33CHL1    H9 2406   3.262   1.632   4.855 -0.3830 -2.5899 -0.5891
   33CHL1   C10 2407   3.093   1.586   4.741 -0.2307 -0.1461 -0.1564
   33CHL1   C19 2408   2.946   1.569   4.773  0.4271  0.4176 -0.1827
   33CHL1  H19A 2409   2.878   1.555   4.686 -2.1518  0.3058  1.7140
   33CHL1  H19B 2410   2.911   1.486   4.839  0.2070  1.2267  0.7354
   33CHL1  H19C 2411   2.898   1.660   4.816  0.4849  0.7769 -0.8728
   33CHL1    C1 2412   3.099   1.712   4.651  0.3141  0.2160  0.1141
   33CHL1   H1A 2413   3.024   1.787   4.685 -1.1018  0.1226 -2.5111
   33CHL1   H1B 2414   3.195   1.767   4.655  0.8943 -0.8234  0.7398
   33CHL1    C2 2415   3.053   1.688   4.506  0.2929  0.1781 -0.0004
   33CHL1   H2A 2416   3.085   1.772   4.440 -2.3717  0.2312 -1.3609
   33CHL1   H2B 2417   2.942   1.680   4.498  0.4191 -0.1097 -1.7723
   33CHL1   C20 2418   3.206   1.667   5.439 -0.3161 -1.5103  0.1582
   33CHL1   H20 2419   3.104   1.637   5.468 -0.6453 -1.3070 -0.7667
   33CHL1   C21 2420   3.204   1.827   5.414 -0.3671 -0.4243 -0.1761
   33CHL1  H21A 2421   3.114   1.848   5.353 -0.7429 -1.0530  0.1456
   33CHL1  H21B 2422   3.299   1.862   5.370  0.4389 -0.3429  1.5505
   33CHL1  H21C 2423   3.186   1.887   5.506  0.5254  0.1547 -0.3630
   33CHL1   C22 2424   3.308   1.635   5.555 -0.4385 -1.0157 -0.3907
   33CHL1  H22A 2425   3.287   1.532   5.593  0.6523 -0.4637  1.8855
   33CHL1  H22B 2426   3.416   1.644   5.532 -0.4246 -2.2235 -0.8561
   33CHL1   C23 2427   3.291   1.721   5.685  0.5349  0.7256  0.0894
   33CHL1  H23A 2428   3.345   1.818   5.677  0.5885  0.8619  1.7237
   33CHL1  H23B 2429   3.181   1.736   5.697  0.4208  0.5628 -0.7103
   33CHL1   C24 2430   3.361   1.652   5.805  0.0229  0.4342 -0.1743
   33CHL1  H24A 2431   3.330   1.545   5.812  0.4554  0.3473  0.3788
   33CHL1  H24B 2432   3.464   1.636   5.767  0.0319 -0.0487  0.0458
   33CHL1   C25 2433   3.364   1.720   5.948  0.7133 -1.0080  0.9326
   33CHL1   H25 2434   3.257   1.720   5.979  0.5907  1.5336  0.7114
   33CHL1   C26 2435   3.435   1.642   6.054  0.1956 -0.5212  0.2575
   33CHL1  H26A 2436   3.544   1.632   6.034  0.9285  2.6778  1.9336
   33CHL1  H26B 2437   3.432   1.698   6.151 -0.4101 -0.2366  0.0794
   33CHL1  H26C 2438   3.393   1.541   6.071  3.4239 -2.2996 -1.4368
   33CHL1   C27 2439   3.405   1.867   5.941 -0.3464  0.4633  0.3101
   33CHL1  H27A 2440   3.324   1.923   5.888 -0.0323  0.5747 -0.0579
   33CHL1  H27B 2441   3.418   1.912   6.042 -1.5361  1.7441 -0.0634
   33CHL1  H27C 2442   3.506   1.880   5.897  0.4402  1.4272  2.2705
   34CHL1    C3 2443   2.095   6.614   4.672  0.6003 -0.0064 -0.1754
   34CHL1    H3 2444   1.993   6.570   4.682  0.7509 -0.5531 -1.0100
   34CHL1    O3 2445   2.127   6.641   4.539 -0.0501 -0.2421  0.1390
   34CHL1   H3' 2446   2.212   6.683   4.550 -0.5959  0.3584  2.9545
   34CHL1    C4 2447   2.092   6.748   4.762  0.0106  0.3740 -0.5403
   34CHL1   H4A 2448   2.192   6.795   4.759  0.7093 -0.9889  0.0420
   34CHL1   H4B 2449   2.015   6.820   4.727  0.7042  1.9310  0.9940
   34CHL1    C5 2450   2.055   6.709   4.907  0.7010  0.2756  0.7005
   34CHL1    C6 2451   1.948   6.758   4.968  0.8300  0.0549  0.0468
   34CHL1    H6 2452   1.896   6.845   4.926  0.3314 -0.3101 -0.1073
   34CHL1    C7 2453   1.914   6.725   5.119  0.7594  0.0555 -0.4781
   34CHL1   H7A 2454   1.871   6.819   5.160  1.8102  1.0077 -1.4835
   34CHL1   H7B 2455   1.839   6.643   5.119  0.1562  0.4690  2.7091
   34CHL1    C8 2456   2.042   6.670   5.181 -0.3949 -0.1995 -0.0273
   34CHL1    H8 2457   2.115   6.754   5.181 -0.3625 -0.1669  2.5046
   34CHL1   C14 2458   2.023   6.624   5.333  0.1594  0.4637 -0.5337
   34CHL1   H14 2459   1.945   6.544   5.333 -0.2410  0.8511 -0.6662
   34CHL1   C15 2460   1.957   6.735   5.427 -0.2413  0.8147  0.1124
   34CHL1  H15A 2461   2.023   6.823   5.412 -0.4820  0.6551 -2.2959
   34CHL1  H15B 2462   1.848   6.757   5.420 -0.4580  1.0305  2.9480
   34CHL1   C16 2463   1.975   6.668   5.564 -1.2322  0.2576  0.2989
   34CHL1  H16A 2464   2.022   6.734   5.641  1.7619 -1.4271  0.0552
   34CHL1  H16B 2465   1.882   6.624   5.605 -0.4696 -0.5384  1.2456
   34CHL1   C17 2466   2.080   6.552   5.548 -0.3462  0.4588  0.0429
   34CHL1   H17 2467   2.026   6.455   5.545 -2.5713  1.5880  1.4302
   34CHL1   C13 2468   2.139   6.572   5.411 -0.5293 -0.4215 -0.2982
   34CHL1   C18 2469   2.251   6.677   5.408  0.5726  0.0598 -0.3472
   34CHL1  H18A 2470   2.350   6.649   5.451  0.2902 -0.6324 -0.1218
   34CHL1  H18B 2471   2.276   6.711   5.305  2.4127  1.6110  0.5452
   34CHL1  H18C 2472   2.223   6.770   5.461 -0.7629 -1.2356  1.3009
   34CHL1   C12 2473   2.186   6.440   5.330 -0.2498 -0.3203 -0.0682
   34CHL1  H12A 2474   2.267   6.377   5.372  0.6133 -1.3444 -3.0432
   34CHL1  H12B 2475   2.096   6.374   5.331  2.2086 -3.9590 -0.2940
   34CHL1   C11 2476   2.218   6.466   5.180 -0.1801 -0.3107 -0.4698
   34CHL1  H11A 2477   2.323   6.501   5.178  0.6105 -2.2926  1.7731
   34CHL1  H11B 2478   2.226   6.367   5.130 -1.8257  0.4076 -2.3178
   34CHL1    C9 2479   2.109   6.558   5.103 -0.3285  0.1838  0.1185
   34CHL1    H9 2480   2.026   6.486   5.082  0.1233 -0.1001 -0.7229
   34CHL1   C10 2481   2.157   6.608   4.967  0.1739  0.7425  0.2147
   34CHL1   C19 2482   2.293   6.672   4.980 -0.0706  0.2759 -0.2893
   34CHL1  H19A 2483   2.321   6.721   4.885  0.7194  1.0542  0.3271
   34CHL1  H19B 2484   2.308   6.743   5.065  0.5550 -1.5949  1.2326
   34CHL1  H19C 2485   2.365   6.588   4.993 -0.2877  0.2420  0.7543
   34CHL1    C1 2486   2.166   6.483   4.879 -0.6314  0.4769  0.1718
   34CHL1   H1A 2487   2.249   6.419   4.916 -1.4150  0.5590  2.1857
   34CHL1   H1B 2488   2.078   6.415   4.884 -2.8437  2.9406 -1.8109
   34CHL1    C2 2489   2.190   6.511   4.728  0.0306 -0.6070 -0.5501
   34CHL1   H2A 2490   2.201   6.416   4.671 -2.0623 -0.3624 -1.4377
   34CHL1   H2B 2491   2.292   6.554   4.714 -0.1436 -0.4209 -1.2850
   34CHL1   C20 2492   2.188   6.542   5.666 -0.4383 -0.4593  0.2127
   34CHL1   H20 2493   2.241   6.639   5.676  0.8200 -0.7516 -2.6838
   34CHL1   C21 2494   2.310   6.446   5.640 -0.1310 -0.3038  0.3517
   34CHL1  H21A 2495   2.276   6.352   5.591  0.3991 -1.2331  1.7112
   34CHL1  H21B 2496   2.347   6.420   5.742  1.4477 -1.7230 -0.5279
   34CHL1  H21C 2497   2.395   6.485   5.580 -0.8312  0.3408 -0.2382
   34CHL1   C22 2498   2.122   6.502   5.795 -0.4968  0.0082 -0.0933
   34CHL1  H22A 2499   2.021   6.548   5.800 -0.5220  0.1755 -1.6563
   34CHL1  H22B 2500   2.112   6.391   5.802  0.3371 -0.0611  0.1031
   34CHL1   C23 2501   2.200   6.555   5.912 -0.9357  0.2069 -0.4516
   34CHL1  H23A 2502   2.309   6.533   5.910 -1.2723 -1.6428 -0.7612
   34CHL1  H23B 2503   2.177   6.661   5.935  0.8389  0.5046  0.0343
   34CHL1   C24 2504   2.144   6.487   6.042 -0.0904  0.8514  0.1061
   34CHL1  H24A 2505   2.034   6.482   6.054 -0.4405  1.9208 -2.0670
   34CHL1  H24B 2506   2.181   6.382   6.040 -3.2100 -0.3431 -0.6560
   34CHL1   C25 2507   2.197   6.547   6.173 -0.4540 -0.7426 -0.0087
   34CHL1   H25 2508   2.160   6.651   6.183 -1.3425 -1.1862  1.8356
   34CHL1   C26 2509   2.140   6.477   6.296  0.4356 -0.2177  0.4317
   34CHL1  H26A 2510   2.030   6.474   6.282  0.5158 -1.9457 -0.1663
   34CHL1  H26B 2511   2.193   6.379   6.303  0.2083 -0.2067  3.8724
   34CHL1  H26C 2512   2.175   6.530   6.386  1.7378  1.7980 -1.1809
   34CHL1   C27 2513   2.352   6.556   6.181  0.1523  0.6829 -0.1963
   34CHL1  H27A 2514   2.403   6.458   6.188 -1.6776 -0.2284  1.2416
   34CHL1  H27B 2515   2.383   6.599   6.084 -1.0222 -2.3712 -2.0755
   34CHL1  H27C 2516   2.379   6.618   6.269  0.4420 -0.9960  0.9480
   35CHL1    C3 2517   4.391   3.300   4.599  0.6669 -0.4095  0.1272
   35CHL1    H3 2518   4.284   3.326   4.582  0.4013 -0.1998  1.9466
   35CHL1    O3 2519   4.441   3.266   4.474  0.5584 -0.5326 -0.4434
   35CHL1   H3' 2520   4.435   3.348   4.425 -1.0520  0.3532  1.1413
   35CHL1    C4 2521   4.460   3.423   4.648 -0.4522 -0.5773 -0.3410
   35CHL1   H4A 2522   4.569   3.408   4.663 -0.4777  0.6080  1.1641
   35CHL1   H4B 2523   4.447   3.511   4.581  0.8377 -0.8912 -1.0492
   35CHL1    C5 2524   4.402   3.450   4.782  0.1971 -0.3523 -0.5496
   35CHL1    C6 2525   4.336   3.566   4.814  0.2153  0.7975  0.0100
   35CHL1    H6 2526   4.336   3.643   4.735  1.6102  0.7230 -0.0964
   35CHL1    C7 2527   4.276   3.619   4.948 -0.1043 -0.3229  0.9545
   35CHL1   H7A 2528   4.309   3.724   4.962 -0.9519 -0.0152  0.7253
   35CHL1   H7B 2529   4.165   3.633   4.947  0.0668  1.2235  0.2443
   35CHL1    C8 2530   4.326   3.533   5.064  0.2066  0.8053 -0.2770
   35CHL1    H8 2531   4.434   3.555   5.083  0.8795 -1.4240 -1.1904
   35CHL1   C14 2532   4.249   3.556   5.195  0.2160 -0.2604 -0.4171
   35CHL1   H14 2533   4.143   3.530   5.179  0.0992 -1.3581  1.8061
   35CHL1   C15 2534   4.236   3.698   5.254  0.2474 -0.9505 -0.7601
   35CHL1  H15A 2535   4.333   3.752   5.261 -0.3222  0.0948 -0.6658
   35CHL1  H15B 2536   4.167   3.747   5.182  0.9397 -0.1032 -0.8658
   35CHL1   C16 2537   4.181   3.676   5.391  0.5474  1.1371 -0.9277
   35CHL1  H16A 2538   4.234   3.734   5.470 -1.9332 -0.9171  2.5508
   35CHL1  H16B 2539   4.079   3.719   5.394  1.5334  3.5957 -0.4451
   35CHL1   C17 2540   4.184   3.520   5.428 -0.0996 -0.1136  0.1741
   35CHL1   H17 2541   4.081   3.481   5.414 -1.1269  1.4056  2.7941
   35CHL1   C13 2542   4.280   3.467   5.314  0.6620 -0.0791 -0.4035
   35CHL1   C18 2543   4.423   3.480   5.365  0.8329 -0.1364 -0.2115
   35CHL1  H18A 2544   4.434   3.571   5.427  1.9585  0.8841 -1.8298
   35CHL1  H18B 2545   4.435   3.393   5.433 -0.7196 -0.6867 -0.5920
   35CHL1  H18C 2546   4.500   3.475   5.286 -2.0957  0.8144 -3.3775
   35CHL1   C12 2547   4.266   3.316   5.275  0.3015  0.4973 -0.3899
   35CHL1  H12A 2548   4.297   3.255   5.363 -1.8477  0.0612  0.1254
   35CHL1  H12B 2549   4.163   3.282   5.252 -0.7748  3.1611  0.0244
   35CHL1   C11 2550   4.347   3.286   5.147 -0.0731 -0.2271 -0.3108
   35CHL1  H11A 2551   4.455   3.294   5.171  0.2110 -0.9095 -1.2925
   35CHL1  H11B 2552   4.316   3.184   5.117 -0.8863 -0.3033  0.7544
   35CHL1    C9 2553   4.322   3.382   5.027  0.4436 -0.5129 -0.1897
   35CHL1    H9 2554   4.214   3.375   5.001 -0.0215 -0.9482  1.7128
   35CHL1   C10 2555   4.402   3.339   4.897  0.3470 -0.7149  0.5418
   35CHL1   C19 2556   4.552   3.318   4.931  0.5597  0.6646 -0.1760
   35CHL1  H19A 2557   4.585   3.390   5.008 -0.6910 -0.1584  1.1955
   35CHL1  H19B 2558   4.558   3.215   4.973  0.2119  0.6398 -0.1783
   35CHL1  H19C 2559   4.614   3.326   4.839  0.4207  4.1988 -0.0771
   35CHL1    C1 2560   4.348   3.209   4.829  0.3389  0.0439  0.2518
   35CHL1   H1A 2561   4.373   3.135   4.908 -1.4238  0.8452  1.6098
   35CHL1   H1B 2562   4.241   3.233   4.817  0.3891  0.9937  1.4320
   35CHL1    C2 2563   4.404   3.176   4.691 -0.0029 -1.2145 -0.1605
   35CHL1   H2A 2564   4.351   3.091   4.642  2.0350 -1.5920 -1.8389
   35CHL1   H2B 2565   4.515   3.165   4.698  0.2564  0.2698 -1.5183
   35CHL1   C20 2566   4.213   3.492   5.582 -0.0468 -0.6461  0.5083
   35CHL1   H20 2567   4.311   3.540   5.604 -0.8702  1.5587 -0.3731
   35CHL1   C21 2568   4.210   3.346   5.623  0.2517  0.0819  0.7474
   35CHL1  H21A 2569   4.116   3.295   5.596  0.5529 -1.0061  1.6895
   35CHL1  H21B 2570   4.203   3.331   5.733 -1.2118  2.7179  1.1173
   35CHL1  H21C 2571   4.292   3.291   5.573  0.6236  2.9841 -2.1960
   35CHL1   C22 2572   4.124   3.566   5.676  0.1001 -0.1299  0.1298
   35CHL1  H22A 2573   4.085   3.664   5.641  1.1664  0.2134 -0.1202
   35CHL1  H22B 2574   4.031   3.510   5.699  1.7895 -3.0752  0.3345
   35CHL1   C23 2575   4.188   3.589   5.812  0.5429 -0.6335 -0.3102
   35CHL1  H23A 2576   4.216   3.494   5.862  2.2124 -0.0935 -0.1322
   35CHL1  H23B 2577   4.280   3.650   5.797  0.3460  1.3101  4.4579
   35CHL1   C24 2578   4.102   3.676   5.907 -0.0736  0.0897  1.1123
   35CHL1  H24A 2579   4.114   3.785   5.885 -1.5765  0.0661  0.0760
   35CHL1  H24B 2580   3.994   3.651   5.908 -0.5671  0.9898 -4.0135
   35CHL1   C25 2581   4.155   3.651   6.054 -0.3202 -0.1983 -0.5444
   35CHL1   H25 2582   4.106   3.555   6.080 -3.4875  1.4668  0.2367
   35CHL1   C26 2583   4.307   3.667   6.059  0.5213  0.4781  0.3033
   35CHL1  H26A 2584   4.342   3.759   6.006  0.7588 -0.3431 -1.0118
   35CHL1  H26B 2585   4.354   3.672   6.159 -0.2454  0.0527  0.6905
   35CHL1  H26C 2586   4.349   3.573   6.018  0.7879 -0.4823  2.6459
   35CHL1   C27 2587   4.092   3.756   6.143  0.8441  0.6463 -0.4495
   35CHL1  H27A 2588   4.124   3.741   6.248  1.1867 -0.9554 -0.7643
   35CHL1  H27B 2589   4.120   3.859   6.112  0.2962 -0.0084 -3.3580
   35CHL1  H27C 2590   3.981   3.753   6.136  0.4649  5.3181  0.1798
   36CHL1    C3 2591   0.591   4.936   4.374 -0.7420  0.7173 -0.2645
   36CHL1    H3 2592   0.671   4.912   4.447 -0.3382  3.1409  0.1679
   36CHL1    O3 2593   0.619   4.931   4.236 -0.5865 -0.7562  0.1862
   36CHL1   H3' 2594   0.555   4.991   4.197 -0.1174  0.0252  0.5878
   36CHL1    C4 2595   0.475   4.841   4.396 -0.0602  0.1806  0.3240
   36CHL1   H4A 2596   0.390   4.852   4.326 -1.9278  0.0793  2.4571
   36CHL1   H4B 2597   0.521   4.741   4.379 -1.0808 -0.2823  0.2380
   36CHL1    C5 2598   0.429   4.852   4.537 -0.3357 -0.3152 -0.5945
   36CHL1    C6 2599   0.434   4.744   4.623 -0.0111  0.2657 -0.3477
   36CHL1    H6 2600   0.450   4.645   4.578 -0.8939 -0.0176 -0.0524
   36CHL1    C7 2601   0.393   4.737   4.771 -0.2770  0.0291 -0.2361
   36CHL1   H7A 2602   0.325   4.649   4.778 -0.0128 -0.3075 -1.5584
   36CHL1   H7B 2603   0.487   4.725   4.828 -0.9646 -2.0170  0.5517
   36CHL1    C8 2604   0.336   4.879   4.810 -0.3273 -0.0033 -0.2043
   36CHL1    H8 2605   0.227   4.875   4.789 -0.3021  0.3640 -0.4336
   36CHL1   C14 2606   0.373   4.895   4.959  0.2073 -0.3486  0.4993
   36CHL1   H14 2607   0.484   4.900   4.962  0.2546 -0.6950 -0.4565
   36CHL1   C15 2608   0.340   4.770   5.045  0.0185 -0.1465 -0.8784
   36CHL1  H15A 2609   0.238   4.748   5.007  0.5754 -1.4316 -1.7111
   36CHL1  H15B 2610   0.404   4.679   5.043 -0.9977 -0.8906 -0.6822
   36CHL1   C16 2611   0.333   4.828   5.191  0.1386 -0.4349 -1.1974
   36CHL1  H16A 2612   0.236   4.808   5.240  0.6542  0.3086  0.1897
   36CHL1  H16B 2613   0.419   4.786   5.248 -0.9408 -0.0840  0.7748
   36CHL1   C17 2614   0.364   4.982   5.178  0.3455  0.7727 -0.2133
   36CHL1   H17 2615   0.475   4.982   5.176  0.5671 -2.3654  2.9148
   36CHL1   C13 2616   0.323   5.018   5.031  0.0295  0.2042 -0.0619
   36CHL1   C18 2617   0.167   5.037   5.019  0.2201 -0.5262  0.2148
   36CHL1  H18A 2618   0.123   4.942   5.058 -0.3632 -0.8306 -1.1365
   36CHL1  H18B 2619   0.124   5.124   5.072 -0.8220  0.1111 -1.5902
   36CHL1  H18C 2620   0.133   5.055   4.915 -0.5706 -0.2596  0.5167
   36CHL1   C12 2621   0.394   5.139   4.961  0.4941  0.3974 -0.3454
   36CHL1  H12A 2622   0.350   5.234   4.998  0.4802  0.1965  0.1671
   36CHL1  H12B 2623   0.503   5.125   4.981  0.7150  0.4014 -1.5011
   36CHL1   C11 2624   0.368   5.130   4.802  0.5083 -0.2187 -0.8179
   36CHL1  H11A 2625   0.263   5.158   4.780 -0.0571 -1.4163  0.2295
   36CHL1  H11B 2626   0.429   5.211   4.756  0.2954  1.8828  2.2495
   36CHL1    C9 2627   0.413   4.996   4.746  0.1395  0.3951  0.0507
   36CHL1    H9 2628   0.521   4.988   4.769  0.1600  1.8348  0.5419
   36CHL1   C10 2629   0.403   4.995   4.591 -0.3143  0.4372  0.4724
   36CHL1   C19 2630   0.259   5.023   4.545 -0.1795  0.0329 -1.1279
   36CHL1  H19A 2631   0.249   5.001   4.437  0.1975  0.4245 -1.2429
   36CHL1  H19B 2632   0.173   4.972   4.595 -1.6885  1.1043 -2.5082
   36CHL1  H19C 2633   0.235   5.131   4.559 -0.1229 -0.1614  0.7035
   36CHL1    C1 2634   0.497   5.108   4.536 -0.3698  0.1714  0.2749
   36CHL1   H1A 2635   0.447   5.207   4.536  1.3239  1.2147 -3.1852
   36CHL1   H1B 2636   0.590   5.123   4.595  0.5547  1.2027 -1.3617
   36CHL1    C2 2637   0.540   5.080   4.391  0.2725  0.3299  0.2305
   36CHL1   H2A 2638   0.621   5.153   4.374  2.8592 -2.6405 -1.2575
   36CHL1   H2B 2639   0.445   5.089   4.333  0.0021 -0.4034  0.5412
   36CHL1   C20 2640   0.329   5.078   5.294 -0.2571 -0.2854 -0.0042
   36CHL1   H20 2641   0.219   5.079   5.309 -0.1567  1.5662  0.8200
   36CHL1   C21 2642   0.360   5.227   5.271  0.5221 -0.6651 -0.2473
   36CHL1  H21A 2643   0.289   5.283   5.206  2.1240  0.4783 -1.0809
   36CHL1  H21B 2644   0.460   5.247   5.228 -0.1401  0.1385 -1.4890
   36CHL1  H21C 2645   0.356   5.278   5.370 -1.6044 -0.9191 -0.1611
   36CHL1   C22 2646   0.388   5.034   5.432  0.1104  0.0234  1.3977
   36CHL1  H22A 2647   0.418   4.927   5.430 -0.7122 -0.2229  1.8612
   36CHL1  H22B 2648   0.485   5.087   5.440  2.8602 -3.3409 -3.6937
   36CHL1   C23 2649   0.291   5.052   5.548 -0.2924 -0.6383  0.0078
   36CHL1  H23A 2650   0.298   5.157   5.585  0.7144 -0.5927 -0.2716
   36CHL1  H23B 2651   0.190   5.024   5.510 -1.5709 -1.0077  3.3506
   36CHL1   C24 2652   0.313   4.953   5.662  0.0743 -0.1208  0.0235
   36CHL1  H24A 2653   0.310   4.853   5.613  3.0859 -1.0958  1.5214
   36CHL1  H24B 2654   0.410   4.963   5.717  0.9030  1.4899 -1.6379
   36CHL1   C25 2655   0.206   4.969   5.779 -0.2115 -0.2688 -0.6405
   36CHL1   H25 2656   0.102   4.969   5.739  0.2345  1.3362 -1.9044
   36CHL1   C26 2657   0.217   4.849   5.881  0.6341 -0.1301  0.0044
   36CHL1  H26A 2658   0.225   4.759   5.817  1.5315  0.0581 -0.1635
   36CHL1  H26B 2659   0.313   4.855   5.937  2.3726 -2.0796 -2.5785
   36CHL1  H26C 2660   0.132   4.844   5.952  0.5033 -1.0117 -0.2055
   36CHL1   C27 2661   0.224   5.100   5.868 -0.1678 -0.3895  0.5292
   36CHL1  H27A 2662   0.323   5.102   5.917  1.8749  0.4567 -3.2254
   36CHL1  H27B 2663   0.214   5.193   5.808  0.5768 -0.7079 -0.1110
   36CHL1  H27C 2664   0.140   5.113   5.939  0.6360  2.6679  1.0466
   37CHL1    C3 2665   1.206   0.991   4.778 -0.0757 -0.1884 -0.6081
   37CHL1    H3 2666   1.274   0.919   4.829 -0.4133  1.3120  2.2017
   37CHL1    O3 2667   1.228   0.983   4.639 -0.4110  0.3220 -0.4305
   37CHL1   H3' 2668   1.149   1.023   4.601 -1.2793 -1.0619 -0.1686
   37CHL1    C4 2669   1.062   0.957   4.817 -0.4160 -0.4663 -0.4762
   37CHL1   H4A 2670   0.996   1.027   4.762  0.8550  2.0262  0.9955
   37CHL1   H4B 2671   1.037   0.854   4.785 -2.4225 -1.1044  2.6446
   37CHL1    C5 2672   1.046   0.964   4.973 -0.3508  0.0855  0.5963
   37CHL1    C6 2673   1.009   0.853   5.048 -0.2948 -0.2200  0.0387
   37CHL1    H6 2674   0.992   0.757   4.998 -1.6191  0.0388 -0.0510
   37CHL1    C7 2675   0.990   0.866   5.200  0.6462  0.2972  0.2902
   37CHL1   H7A 2676   0.894   0.824   5.238  0.8450  0.8413  1.4330
   37CHL1   H7B 2677   1.067   0.812   5.258  0.7419 -0.3356 -0.4139
   37CHL1    C8 2678   0.980   1.015   5.242  0.1798 -0.3172 -0.6525
   37CHL1    H8 2679   0.879   1.049   5.212 -0.3497 -0.4894  0.8791
   37CHL1   C14 2680   0.987   1.027   5.399 -0.4851 -0.0342  0.4596
   37CHL1   H14 2681   1.089   0.988   5.421 -0.3667  0.7185  1.2716
   37CHL1   C15 2682   0.895   0.935   5.481 -0.3058 -0.4065  0.2757
   37CHL1  H15A 2683   0.791   0.947   5.444 -1.1104 -1.1075  2.1531
   37CHL1  H15B 2684   0.927   0.829   5.472  0.6549 -0.1344  0.3175
   37CHL1   C16 2685   0.910   1.000   5.623  0.1745 -0.2844  0.1575
   37CHL1  H16A 2686   0.809   1.020   5.664  0.6748  2.7737  0.0974
   37CHL1  H16B 2687   0.972   0.934   5.688 -0.5642 -1.4439 -0.2780
   37CHL1   C17 2688   0.985   1.129   5.605 -0.0984 -0.0184 -0.6170
   37CHL1   H17 2689   1.091   1.103   5.623 -0.2868 -1.3297 -1.2533
   37CHL1   C13 2690   0.977   1.167   5.453 -0.8552  0.5302 -0.4222
   37CHL1   C18 2691   0.839   1.225   5.425 -0.7367 -0.2310  0.0679
   37CHL1  H18A 2692   0.832   1.327   5.468 -1.6099  0.9366 -2.6224
   37CHL1  H18B 2693   0.798   1.232   5.322  0.1587  1.1418 -0.2179
   37CHL1  H18C 2694   0.756   1.160   5.462 -0.2360 -1.2676 -0.6081
   37CHL1   C12 2695   1.088   1.250   5.396 -0.3304 -0.0787 -0.1751
   37CHL1  H12A 2696   1.076   1.357   5.425  1.9373  0.0258  0.4958
   37CHL1  H12B 2697   1.182   1.202   5.430 -0.1838  0.2769 -0.0756
   37CHL1   C11 2698   1.087   1.252   5.245  0.2832 -0.2909 -0.9857
   37CHL1  H11A 2699   0.986   1.288   5.216  0.6622  1.1194 -0.6468
   37CHL1  H11B 2700   1.166   1.316   5.201 -1.8705  0.9456 -3.3494
   37CHL1    C9 2701   1.089   1.104   5.183  0.1717  0.1016  0.1443
   37CHL1    H9 2702   1.183   1.060   5.220  1.3345 -1.0505 -3.7297
   37CHL1   C10 2703   1.080   1.103   5.028  0.4302  0.4024  0.3916
   37CHL1   C19 2704   0.963   1.199   4.991 -0.7359  0.1339 -0.1138
   37CHL1  H19A 2705   0.949   1.197   4.880  0.4042  0.7092 -0.2862
   37CHL1  H19B 2706   0.864   1.171   5.033 -0.6443  0.2511  0.1813
   37CHL1  H19C 2707   0.990   1.301   5.028 -0.7021 -0.1462  0.6448
   37CHL1    C1 2708   1.214   1.155   4.969  0.1526 -0.3175  0.4031
   37CHL1   H1A 2709   1.232   1.253   5.018  3.3136 -0.4780 -0.2039
   37CHL1   H1B 2710   1.296   1.089   5.004 -0.3234 -0.2875  1.6339
   37CHL1    C2 2711   1.232   1.143   4.819  0.0032 -0.0253  0.3603
   37CHL1   H2A 2712   1.339   1.148   4.789 -0.3817 -1.2268 -1.3705
   37CHL1   H2B 2713   1.167   1.207   4.756 -2.7038 -0.9061  2.0821
   37CHL1   C20 2714   0.933   1.232   5.715 -0.4657 -0.0461  0.0238
   37CHL1   H20 2715   0.830   1.265   5.692 -0.2219 -0.0968 -1.2505
   37CHL1   C21 2716   1.028   1.354   5.708  0.2921  0.2540 -0.0645
   37CHL1  H21A 2717   1.016   1.418   5.618 -1.8691  1.1249  0.7769
   37CHL1  H21B 2718   1.138   1.334   5.711  0.3329 -0.1360 -2.5133
   37CHL1  H21C 2719   0.996   1.418   5.793  0.8899 -1.4305  1.5108
   37CHL1   C22 2720   0.921   1.164   5.854  0.8832  0.7424 -0.9940
   37CHL1  H22A 2721   0.867   1.068   5.859 -0.0988  1.3488  1.2374
   37CHL1  H22B 2722   1.026   1.159   5.892  1.2910 -0.1007 -2.1826
   37CHL1   C23 2723   0.832   1.256   5.946 -0.3117  0.3489  0.5215
   37CHL1  H23A 2724   0.895   1.348   5.948  1.4599 -0.8151  1.1218
   37CHL1  H23B 2725   0.737   1.274   5.893 -1.5457 -0.6724  2.2747
   37CHL1   C24 2726   0.820   1.190   6.087 -0.1787  0.5644  0.1734
   37CHL1  H24A 2727   0.773   1.091   6.069 -0.0126  0.7637 -1.4481
   37CHL1  H24B 2728   0.918   1.177   6.137  0.8626  0.3738 -1.8386
   37CHL1   C25 2729   0.732   1.275   6.180 -0.4960 -0.7056 -1.3361
   37CHL1   H25 2730   0.628   1.278   6.142 -1.0661 -2.0076  0.0224
   37CHL1   C26 2731   0.739   1.215   6.324 -0.3286 -0.5334 -0.1592
   37CHL1  H26A 2732   0.673   1.270   6.394 -0.3474 -2.3611  1.3397
   37CHL1  H26B 2733   0.708   1.109   6.312  1.2609 -0.8847 -1.5425
   37CHL1  H26C 2734   0.840   1.223   6.369 -0.8898  0.2765  0.9906
   37CHL1   C27 2735   0.782   1.423   6.190 -0.1496 -0.3725  0.2111
   37CHL1  H27A 2736   0.710   1.486   6.246  0.5501  1.0144 -0.4214
   37CHL1  H27B 2737   0.878   1.435   6.243  0.6064 -0.9487 -0.9879
   37CHL1  H27C 2738   0.793   1.458   6.085  0.6838 -1.8900 -0.2430
   38CHL1    C3 2739   3.507   6.203   4.558 -0.0246  0.9852 -0.3777
   38CHL1    H3 2740   3.591   6.272   4.576 -0.0998  0.4690  2.3630
   38CHL1    O3 2741   3.501   6.159   4.421 -0.1488 -0.1456 -0.0609
   38CHL1   H3' 2742   3.502   6.243   4.375 -2.0110  0.5365  1.0359
   38CHL1    C4 2743   3.522   6.082   4.652  0.4103  0.5862  0.1521
   38CHL1   H4A 2744   3.435   6.017   4.628 -1.0059  1.7451  1.9015
   38CHL1   H4B 2745   3.614   6.022   4.630  0.0433 -0.7292  1.9874
   38CHL1    C5 2746   3.518   6.133   4.790  0.6435  0.3393 -0.4186
   38CHL1    C6 2747   3.623   6.113   4.868 -0.2578 -0.2720 -0.5578
   38CHL1    H6 2748   3.713   6.059   4.833  0.7339  0.0661  1.3275
   38CHL1    C7 2749   3.634   6.171   5.008  0.6146 -0.4702 -0.3886
   38CHL1   H7A 2750   3.681   6.094   5.073  0.9927 -1.2481 -1.5529
   38CHL1   H7B 2751   3.683   6.270   5.020 -0.3939 -0.0653  0.5938
   38CHL1    C8 2752   3.491   6.193   5.071 -0.3755 -0.0547  0.0868
   38CHL1    H8 2753   3.457   6.088   5.081  0.0864 -0.2323 -0.2091
   38CHL1   C14 2754   3.501   6.253   5.205  0.4320  0.0532  0.1076
   38CHL1   H14 2755   3.532   6.358   5.186 -0.2603  0.3858  0.7784
   38CHL1   C15 2756   3.594   6.198   5.323 -0.0829  0.2167 -0.0077
   38CHL1  H15A 2757   3.570   6.091   5.342 -1.1497  0.4947  0.2657
   38CHL1  H15B 2758   3.699   6.225   5.298 -0.6020  0.6813 -1.8477
   38CHL1   C16 2759   3.543   6.267   5.448  0.6467 -0.4032  0.1846
   38CHL1  H16A 2760   3.527   6.199   5.534 -0.3689  0.3735  0.6295
   38CHL1  H16B 2761   3.617   6.341   5.486 -0.4862  0.5361  0.6092
   38CHL1   C17 2762   3.414   6.347   5.405  0.4443 -0.4590  0.2673
   38CHL1   H17 2763   3.448   6.450   5.383  1.7652 -0.6754  1.1238
   38CHL1   C13 2764   3.365   6.289   5.275  0.0626 -0.2918  0.3275
   38CHL1   C18 2765   3.288   6.162   5.311 -0.8436  0.2043 -0.0481
   38CHL1  H18A 2766   3.295   6.087   5.230  0.1455  2.4290 -2.1651
   38CHL1  H18B 2767   3.324   6.116   5.405  1.9818  1.3256 -0.4774
   38CHL1  H18C 2768   3.181   6.175   5.338 -1.2072 -1.3783 -0.6400
   38CHL1   C12 2769   3.292   6.387   5.179 -1.2065  0.1775  1.1869
   38CHL1  H12A 2770   3.193   6.413   5.222 -1.3194  1.5676  0.1448
   38CHL1  H12B 2771   3.350   6.481   5.170  0.1775 -0.7674 -0.4586
   38CHL1   C11 2772   3.265   6.320   5.044  0.1529  0.7765 -0.0169
   38CHL1  H11A 2773   3.219   6.220   5.062  0.8226  0.2178 -1.2842
   38CHL1  H11B 2774   3.194   6.370   4.975 -3.0053 -1.5351  1.2943
   38CHL1    C9 2775   3.402   6.280   4.974  0.1127  0.2677  0.4892
   38CHL1    H9 2776   3.461   6.373   4.959  1.5622 -0.7378 -0.3244
   38CHL1   C10 2777   3.389   6.212   4.834  0.0605 -0.2675  0.6881
   38CHL1   C19 2778   3.267   6.117   4.831  0.6721  0.3825 -0.1390
   38CHL1  H19A 2779   3.263   6.058   4.737  1.9813  0.8810 -0.5220
   38CHL1  H19B 2780   3.264   6.038   4.909 -1.4690  1.5246  1.0572
   38CHL1  H19C 2781   3.169   6.169   4.839 -1.5043 -3.4616  0.6616
   38CHL1    C1 2782   3.363   6.325   4.724 -1.0425  0.1455 -0.5536
   38CHL1   H1A 2783   3.267   6.369   4.759 -0.3106  0.0382  1.7524
   38CHL1   H1B 2784   3.440   6.404   4.735  0.9437 -1.2783 -3.1619
   38CHL1    C2 2785   3.378   6.283   4.574 -0.3400 -0.4409 -0.5697
   38CHL1   H2A 2786   3.383   6.378   4.518  0.0918 -0.2101 -0.1559
   38CHL1   H2B 2787   3.291   6.218   4.549 -1.1407 -0.2984  1.6097
   38CHL1   C20 2788   3.311   6.361   5.523  1.1429 -0.2349  1.0392
   38CHL1   H20 2789   3.278   6.267   5.572 -0.1299 -1.1627 -1.4401
   38CHL1   C21 2790   3.184   6.450   5.475 -0.1267  0.3769 -0.0786
   38CHL1  H21A 2791   3.223   6.536   5.417 -1.0712  0.5604 -0.4584
   38CHL1  H21B 2792   3.129   6.473   5.568 -3.7636 -1.0692 -1.6834
   38CHL1  H21C 2793   3.122   6.377   5.419 -2.0368 -1.0642  3.5861
   38CHL1   C22 2794   3.387   6.440   5.635 -0.0898 -0.0517 -0.1314
   38CHL1  H22A 2795   3.478   6.383   5.662 -1.4099 -2.1395  0.2194
   38CHL1  H22B 2796   3.418   6.539   5.597  0.6365  1.1922  3.3391
   38CHL1   C23 2797   3.313   6.472   5.769 -0.0433  0.0653  1.4997
   38CHL1  H23A 2798   3.224   6.534   5.746  0.2851 -0.1501 -0.5627
   38CHL1  H23B 2799   3.277   6.376   5.812 -4.1451  0.0413 -1.3735
   38CHL1   C24 2800   3.392   6.552   5.872  0.3000 -0.5339 -0.2715
   38CHL1  H24A 2801   3.488   6.500   5.892 -0.7292 -2.5977 -0.3571
   38CHL1  H24B 2802   3.412   6.655   5.835  0.2301 -0.5359 -0.3148
   38CHL1   C25 2803   3.316   6.553   6.010  0.3912 -0.6116 -0.0561
   38CHL1   H25 2804   3.209   6.569   5.986 -0.0106 -2.0029  0.7714
   38CHL1   C26 2805   3.330   6.425   6.095  0.5785  0.0865 -0.1648
   38CHL1  H26A 2806   3.266   6.424   6.186  0.5734  1.1747 -0.1402
   38CHL1  H26B 2807   3.305   6.337   6.031 -0.3008 -0.4564  0.8966
   38CHL1  H26C 2808   3.433   6.407   6.133  0.1003 -1.2616  0.5664
   38CHL1   C27 2809   3.361   6.678   6.090 -0.1453 -0.5060  0.0410
   38CHL1  H27A 2810   3.468   6.665   6.116 -0.2664 -1.2191  0.2210
   38CHL1  H27B 2811   3.347   6.771   6.031  4.2798 -0.0260 -0.6036
   38CHL1  H27C 2812   3.306   6.698   6.185 -1.4219  1.1710 -1.0057
   39CHL1    C3 2813   0.086   6.526   4.405 -0.4982  0.0636  0.1019
   39CHL1    H3 2814   0.139   6.622   4.423  0.6868 -0.4284 -0.6329
   39CHL1    O3 2815   0.083   6.493   4.270  0.4681  0.2438 -0.3464
   39CHL1   H3' 2816   0.034   6.411   4.264 -0.5924  0.5591  2.4696
   39CHL1    C4 2817   0.160   6.416   4.475 -0.3132 -0.2689 -0.5686
   39CHL1   H4A 2818   0.122   6.313   4.454 -1.6333 -0.0776  0.7112
   39CHL1   H4B 2819   0.264   6.408   4.436 -0.7529  1.7278 -2.3237
   39CHL1    C5 2820   0.168   6.434   4.624  0.9429 -0.3419 -0.3045
   39CHL1    C6 2821   0.281   6.456   4.691  0.3912  0.3254  0.1894
   39CHL1    H6 2822   0.375   6.452   4.633  1.1128  0.2959  1.3320
   39CHL1    C7 2823   0.295   6.470   4.840 -0.1871  0.2642  0.4088
   39CHL1   H7A 2824   0.365   6.392   4.876 -0.0792  1.8134  3.9763
   39CHL1   H7B 2825   0.335   6.569   4.870 -0.9308  0.8689 -0.5112
   39CHL1    C8 2826   0.166   6.432   4.913  0.4475 -0.1157  0.2352
   39CHL1    H8 2827   0.160   6.322   4.909 -1.0227 -0.0996  1.0990
   39CHL1   C14 2828   0.177   6.472   5.054  0.7029 -0.7119 -0.2294
   39CHL1   H14 2829   0.177   6.583   5.043  1.8199 -0.5262  1.2779
   39CHL1   C15 2830   0.306   6.450   5.142  0.1853 -0.0649  0.1010
   39CHL1  H15A 2831   0.339   6.346   5.123  1.8358  0.5573 -0.5771
   39CHL1  H15B 2832   0.378   6.527   5.107  1.3730 -0.1322  2.2305
   39CHL1   C16 2833   0.259   6.473   5.286 -0.3238 -0.4953 -0.1889
   39CHL1  H16A 2834   0.287   6.384   5.347  0.5803 -0.4763 -0.5656
   39CHL1  H16B 2835   0.307   6.560   5.335 -0.6493 -0.2067 -0.3748
   39CHL1   C17 2836   0.101   6.488   5.278  0.1586 -0.2925  0.4365
   39CHL1   H17 2837   0.070   6.594   5.264 -2.1465 -1.0978 -1.2372
   39CHL1   C13 2838   0.058   6.431   5.137 -0.3980  0.0850  0.6267
   39CHL1   C18 2839   0.053   6.279   5.150  0.0959 -0.7472  0.2221
   39CHL1  H18A 2840  -0.010   6.250   5.236  0.0042  0.6452  0.6489
   39CHL1  H18B 2841   0.021   6.231   5.055  2.9173 -2.9688  0.2350
   39CHL1  H18C 2842   0.159   6.247   5.166 -0.3672 -1.9907  1.0299
   39CHL1   C12 2843  -0.072   6.504   5.072  0.2178  0.3755 -0.2974
   39CHL1  H12A 2844  -0.163   6.470   5.126  0.7732 -1.7397 -0.5987
   39CHL1  H12B 2845  -0.058   6.613   5.081  1.1185  0.1433  1.5566
   39CHL1   C11 2846  -0.098   6.462   4.925 -0.4599  0.7618  0.4679
   39CHL1  H11A 2847  -0.125   6.355   4.940 -1.6188  1.0753  0.6527
   39CHL1  H11B 2848  -0.186   6.521   4.894 -1.2808 -0.5280  0.2742
   39CHL1    C9 2849   0.036   6.481   4.845  0.6148  0.2760  0.2039
   39CHL1    H9 2850   0.042   6.592   4.836 -1.0356  0.3540 -0.4597
   39CHL1   C10 2851   0.024   6.434   4.692 -0.5620 -0.1969 -0.3893
   39CHL1   C19 2852  -0.027   6.284   4.693 -0.0065 -0.3597  0.5564
   39CHL1  H19A 2853  -0.028   6.236   4.593 -0.0567 -2.0046  1.3099
   39CHL1  H19B 2854   0.034   6.221   4.761 -0.9078  0.5281  2.2408
   39CHL1  H19C 2855  -0.129   6.281   4.736  0.0711 -0.0755  0.7597
   39CHL1    C1 2856  -0.067   6.531   4.619  0.5550 -0.0871  0.3426
   39CHL1   H1A 2857  -0.174   6.511   4.637  0.6523  0.8884  2.3122
   39CHL1   H1B 2858  -0.035   6.632   4.653 -1.1303  1.8424 -3.1847
   39CHL1    C2 2859  -0.059   6.515   4.463  0.4616  0.4645  0.3294
   39CHL1   H2A 2860  -0.116   6.603   4.427 -1.3259 -0.6553  0.2867
   39CHL1   H2B 2861  -0.118   6.428   4.426 -2.1266  2.3029 -0.2023
   39CHL1   C20 2862   0.036   6.443   5.407  0.4153  0.9796 -0.2864
   39CHL1   H20 2863   0.053   6.336   5.431  0.3171  0.4431 -2.4490
   39CHL1   C21 2864  -0.116   6.466   5.391  0.4727  0.2089  0.4225
   39CHL1  H21A 2865  -0.165   6.436   5.486 -3.0969 -1.6889 -1.8053
   39CHL1  H21B 2866  -0.160   6.394   5.318  1.0469 -1.2743  1.4806
   39CHL1  H21C 2867  -0.146   6.571   5.369 -0.5081 -0.1954 -0.2437
   39CHL1   C22 2868   0.075   6.522   5.537 -0.2872 -0.7310  0.3081
   39CHL1  H22A 2869   0.180   6.558   5.531 -0.7845  0.9998  1.2125
   39CHL1  H22B 2870   0.020   6.618   5.529 -1.0199 -1.1779 -0.1225
   39CHL1   C23 2871   0.036   6.451   5.667 -0.1790  1.0472 -0.4803
   39CHL1  H23A 2872   0.048   6.525   5.749 -2.1507  1.8249 -0.8154
   39CHL1  H23B 2873  -0.075   6.444   5.665 -0.1140 -0.0172 -1.0427
   39CHL1   C24 2874   0.105   6.314   5.692 -0.2010 -0.8708  0.2209
   39CHL1  H24A 2875   0.079   6.254   5.601  1.8353  1.0601 -1.7536
   39CHL1  H24B 2876   0.216   6.316   5.687 -0.2485  0.2936 -0.7267
   39CHL1   C25 2877   0.065   6.237   5.817  0.1874 -0.2511 -0.3385
   39CHL1   H25 2878  -0.046   6.237   5.825  0.2130  2.4999  1.1166
   39CHL1   C26 2879   0.098   6.089   5.807 -0.6967 -0.3785  0.7877
   39CHL1  H26A 2880   0.046   6.033   5.727 -0.5225 -0.6391  0.8583
   39CHL1  H26B 2881   0.206   6.078   5.786 -1.5861 -2.8566 -3.7573
   39CHL1  H26C 2882   0.077   6.047   5.908 -0.3449  1.6022  1.7503
   39CHL1   C27 2883   0.121   6.288   5.953 -0.2713 -0.0830 -0.1663
   39CHL1  H27A 2884   0.228   6.261   5.952 -0.4339 -1.1859  2.8609
   39CHL1  H27B 2885   0.118   6.399   5.948  1.3412  0.0327  0.8671
   39CHL1  H27C 2886   0.078   6.244   6.045  0.5667  1.0160  0.7710
   40CHL1    C3 2887   1.901   5.963   4.423 -0.2390 -0.2249 -0.1672
   40CHL1    H3 2888   1.876   5.855   4.426  0.6331 -0.4379 -0.4263
   40CHL1    O3 2889   1.920   6.008   4.290 -0.0175  0.0080 -0.0098
   40CHL1   H3' 2890   1.910   6.103   4.301  1.8954  0.2875 -0.3358
   40CHL1    C4 2891   1.795   6.045   4.498 -0.5118  0.3922  0.4141
   40CHL1   H4A 2892   1.772   6.145   4.455 -0.7083 -0.5314 -1.7685
   40CHL1   H4B 2893   1.711   5.982   4.461 -1.3535  0.8316  1.5242
   40CHL1    C5 2894   1.789   6.040   4.646  0.6412 -0.6389  0.4345
   40CHL1    C6 2895   1.673   6.033   4.717 -0.0864  0.1033 -0.3537
   40CHL1    H6 2896   1.578   6.027   4.662 -0.5655 -0.2216  0.4969
   40CHL1    C7 2897   1.663   6.040   4.867 -0.2124 -0.7563  0.3014
   40CHL1   H7A 2898   1.595   6.122   4.899  1.3518  0.5646  0.3648
   40CHL1   H7B 2899   1.610   5.950   4.905 -1.9094  0.2163  0.3529
   40CHL1    C8 2900   1.799   6.060   4.938 -0.1316 -0.5653  0.3297
   40CHL1    H8 2901   1.826   6.166   4.956  0.6518 -0.5513 -0.8024
   40CHL1   C14 2902   1.791   5.999   5.079  0.2007  0.2199  0.6260
   40CHL1   H14 2903   1.775   5.891   5.057  0.6200  0.4058 -0.6590
   40CHL1   C15 2904   1.670   6.051   5.167  0.7774  0.6452 -0.3201
   40CHL1  H15A 2905   1.646   6.160   5.167 -0.0784  0.5029 -2.1835
   40CHL1  H15B 2906   1.571   6.010   5.136  0.4096 -0.2379  1.8823
   40CHL1   C16 2907   1.713   6.008   5.310 -0.1200 -0.5900  0.2504
   40CHL1  H16A 2908   1.726   6.094   5.379 -2.3225 -0.0873  0.1223
   40CHL1  H16B 2909   1.635   5.949   5.364  0.0194 -0.6338  0.4065
   40CHL1   C17 2910   1.851   5.932   5.293 -0.5682 -0.0403 -0.0915
   40CHL1   H17 2911   1.829   5.826   5.268 -0.3678 -0.0870 -0.0710
   40CHL1   C13 2912   1.914   5.996   5.165  0.9796 -0.1236  0.2794
   40CHL1   C18 2913   1.963   6.142   5.195 -0.2835  0.0350  0.5470
   40CHL1  H18A 2914   2.058   6.134   5.253 -0.4894 -1.0267  0.7592
   40CHL1  H18B 2915   1.997   6.191   5.101 -0.5650 -0.6823  0.0547
   40CHL1  H18C 2916   1.886   6.205   5.243 -1.7089  0.1002 -1.6912
   40CHL1   C12 2917   2.021   5.916   5.087 -0.7869  0.3046  0.4761
   40CHL1  H12A 2918   2.120   5.908   5.137 -1.3224  0.7846  1.6576
   40CHL1  H12B 2919   1.992   5.810   5.076  0.7183 -0.1627  0.7823
   40CHL1   C11 2920   2.048   5.973   4.945  0.3456 -0.3142 -0.2628
   40CHL1  H11A 2921   2.112   6.064   4.941  1.0558 -0.7520  0.6848
   40CHL1  H11B 2922   2.114   5.898   4.896  0.5479 -1.5203  1.7387
   40CHL1    C9 2923   1.910   5.990   4.862  0.2228 -0.0539  0.6998
   40CHL1    H9 2924   1.877   5.884   4.855  0.9513 -0.1937 -1.1289
   40CHL1   C10 2925   1.927   6.040   4.716 -0.1169  0.2889  0.4644
   40CHL1   C19 2926   2.002   6.179   4.721  0.5329 -0.2377 -0.1973
   40CHL1  H19A 2927   2.015   6.213   4.616  2.0692  1.0935  0.3814
   40CHL1  H19B 2928   1.945   6.256   4.778 -2.7605 -1.6873 -1.2740
   40CHL1  H19C 2929   2.103   6.158   4.761  1.6355  1.9367 -1.6286
   40CHL1    C1 2930   2.029   5.950   4.636  0.3165  0.4548 -0.1916
   40CHL1   H1A 2931   2.128   5.948   4.686 -0.0909 -1.4205  0.6056
   40CHL1   H1B 2932   1.992   5.846   4.650 -0.1805  0.9118  2.4506
   40CHL1    C2 2933   2.043   5.979   4.489  0.6591 -0.2535 -0.0298
   40CHL1   H2A 2934   2.118   5.916   4.436  0.0973  0.4872 -1.7852
   40CHL1   H2B 2935   2.079   6.083   4.477 -0.0558 -0.0022 -0.0543
   40CHL1   C20 2936   1.942   5.920   5.416  0.6294 -0.4583 -0.6832
   40CHL1   H20 2937   1.991   6.020   5.420  1.7184 -0.9360 -1.6511
   40CHL1   C21 2938   2.039   5.800   5.417  0.1156 -0.0346  0.9476
   40CHL1  H21A 2939   2.120   5.819   5.343  1.1089  3.0243  2.6157
   40CHL1  H21B 2940   1.999   5.697   5.404  0.0423  0.0610  0.4061
   40CHL1  H21C 2941   2.094   5.806   5.513 -0.5963 -0.3831  1.3876
   40CHL1   C22 2942   1.858   5.904   5.548 -0.3702  0.2626  0.0476
   40CHL1  H22A 2943   1.757   5.862   5.527 -0.3039 -0.0191  0.2834
   40CHL1  H22B 2944   1.895   5.826   5.619 -1.8455  0.2519  0.8395
   40CHL1   C23 2945   1.847   6.036   5.634 -0.2315  0.6294  0.1941
   40CHL1  H23A 2946   1.926   6.107   5.605  0.4873  1.5164  3.7651
   40CHL1  H23B 2947   1.747   6.082   5.618 -0.1656  1.2163  1.3557
   40CHL1   C24 2948   1.859   6.003   5.783  0.5338  0.1295  0.3476
   40CHL1  H24A 2949   1.812   6.085   5.841  0.3848 -0.3559  0.9248
   40CHL1  H24B 2950   1.784   5.923   5.799 -1.0536  1.2656 -1.0465
   40CHL1   C25 2951   1.996   5.967   5.834 -0.0027  0.4229  0.2291
   40CHL1   H25 2952   2.040   5.901   5.756  1.7096  0.3749  1.1804
   40CHL1   C26 2953   2.086   6.085   5.842  0.0279 -0.7615  0.2232
   40CHL1  H26A 2954   2.193   6.058   5.855 -0.5841 -2.4724  2.2344
   40CHL1  H26B 2955   2.068   6.155   5.757 -3.0787  0.6913  1.9028
   40CHL1  H26C 2956   2.069   6.147   5.932 -0.3112  0.7132 -0.8201
   40CHL1   C27 2957   1.984   5.870   5.955 -0.4610 -0.5526 -0.3879
   40CHL1  H27A 2958   1.942   5.772   5.927  3.1568 -1.4594 -3.4874
   40CHL1  H27B 2959   2.087   5.857   5.996 -0.3224  2.3017  0.4335
   40CHL1  H27C 2960   1.931   5.925   6.036  0.4232  0.3786 -0.4064
   41CHL1    C3 2961   5.641   2.312   4.535  0.0828  0.1760  0.3043
   41CHL1    H3 2962   5.531   2.302   4.545  0.1950  0.5890  2.5579
   41CHL1    O3 2963   5.683   2.293   4.398 -0.8260 -0.5848  0.9655
   41CHL1   H3' 2964   5.634   2.359   4.348 -0.6354 -0.6930  0.6378
   41CHL1    C4 2965   5.689   2.447   4.592  0.2483  0.3042  0.4980
   41CHL1   H4A 2966   5.794   2.456   4.558  0.4320 -0.3497  0.8920
   41CHL1   H4B 2967   5.636   2.529   4.537  0.2524  0.1820  0.3105
   41CHL1    C5 2968   5.681   2.456   4.745  0.1904 -0.0352  0.0370
   41CHL1    C6 2969   5.633   2.569   4.799 -0.0595 -0.6243 -0.2835
   41CHL1    H6 2970   5.597   2.653   4.739  1.9723  0.5417  0.0330
   41CHL1    C7 2971   5.612   2.598   4.947  0.1481 -0.1402 -0.7437
   41CHL1   H7A 2972   5.651   2.700   4.966  1.3115 -0.3809 -1.7076
   41CHL1   H7B 2973   5.505   2.590   4.973  0.1608 -1.7245 -1.0684
   41CHL1    C8 2974   5.696   2.493   5.026  0.4477 -0.1519  0.1302
   41CHL1    H8 2975   5.802   2.526   5.026 -0.1950  2.1031 -1.0264
   41CHL1   C14 2976   5.658   2.496   5.171 -0.1632  0.2355 -0.2757
   41CHL1   H14 2977   5.552   2.464   5.184 -0.4277  0.5840 -1.4264
   41CHL1   C15 2978   5.657   2.636   5.234 -0.0326 -0.2363 -0.1474
   41CHL1  H15A 2979   5.742   2.701   5.204 -0.8788  1.5111  1.0169
   41CHL1  H15B 2980   5.558   2.687   5.231 -0.0527 -0.0208  2.1250
   41CHL1   C16 2981   5.684   2.614   5.385  0.7493  0.5011  0.3689
   41CHL1  H16A 2982   5.785   2.646   5.419  2.5336 -0.8971 -3.1345
   41CHL1  H16B 2983   5.599   2.646   5.450 -0.8501 -1.9217 -0.4161
   41CHL1   C17 2984   5.691   2.456   5.396 -0.8015  0.0743  0.1026
   41CHL1   H17 2985   5.591   2.420   5.428  0.1837 -0.5603  2.7829
   41CHL1   C13 2986   5.739   2.407   5.260 -0.5574  0.3667 -0.4240
   41CHL1   C18 2987   5.897   2.437   5.254 -0.3686  1.2078  0.7857
   41CHL1  H18A 2988   5.937   2.411   5.153 -1.2996 -1.5878  1.0489
   41CHL1  H18B 2989   5.923   2.542   5.278  1.0871  0.3543  3.3947
   41CHL1  H18C 2990   5.952   2.371   5.324  0.2303  2.5795  1.6466
   41CHL1   C12 2991   5.711   2.264   5.216 -0.6693  0.0536  0.5710
   41CHL1  H12A 2992   5.768   2.196   5.283 -1.1055 -1.3609 -0.4485
   41CHL1  H12B 2993   5.604   2.240   5.234 -0.3088 -1.4174  0.9182
   41CHL1   C11 2994   5.745   2.245   5.067 -0.2691 -0.2050 -0.4281
   41CHL1  H11A 2995   5.856   2.241   5.059 -0.1091  0.3177  1.2397
   41CHL1  H11B 2996   5.705   2.149   5.028  2.9145 -1.8136 -0.0463
   41CHL1    C9 2997   5.684   2.350   4.972 -0.2806 -0.4394 -0.3058
   41CHL1    H9 2998   5.573   2.343   4.970 -0.6395  2.7138  1.4168
   41CHL1   C10 2999   5.724   2.334   4.825 -0.5841 -0.3910  0.0117
   41CHL1   C19 3000   5.880   2.325   4.820  0.1069 -0.5842  0.0941
   41CHL1  H19A 3001   5.925   2.328   4.719  2.3077 -1.6499  0.9808
   41CHL1  H19B 3002   5.926   2.411   4.873 -0.7796  0.3633 -0.6231
   41CHL1  H19C 3003   5.918   2.233   4.868  0.5348  0.5090  1.9652
   41CHL1    C1 3004   5.668   2.200   4.765 -0.9488 -0.0136 -0.0488
   41CHL1   H1A 3005   5.699   2.106   4.816 -1.3603 -0.3837 -0.4688
   41CHL1   H1B 3006   5.558   2.209   4.779 -1.1021  1.0943 -1.7698
   41CHL1    C2 3007   5.700   2.194   4.621 -0.2725  1.0191  0.1071
   41CHL1   H2A 3008   5.646   2.104   4.585  0.5286  0.4894  0.2014
   41CHL1   H2B 3009   5.808   2.175   4.602 -0.3716  1.5775 -1.1446
   41CHL1   C20 3010   5.765   2.421   5.530 -0.0861  0.2013  0.7076
   41CHL1   H20 3011   5.865   2.470   5.527  0.3908 -0.2417 -6.0510
   41CHL1   C21 3012   5.781   2.268   5.538 -0.2015  0.0985 -0.5764
   41CHL1  H21A 3013   5.694   2.203   5.514  1.1814 -2.3753  0.7606
   41CHL1  H21B 3014   5.812   2.233   5.638  1.9292  1.0586 -0.8486
   41CHL1  H21C 3015   5.858   2.228   5.468 -1.1933  0.0381 -1.6623
   41CHL1   C22 3016   5.679   2.479   5.658 -0.2376  0.6264  0.0992
   41CHL1  H22A 3017   5.662   2.588   5.650  0.3135  0.8488  1.7460
   41CHL1  H22B 3018   5.581   2.430   5.675  0.6220 -0.2195  3.2987
   41CHL1   C23 3019   5.752   2.477   5.793  0.1078 -0.3264 -0.0624
   41CHL1  H23A 3020   5.745   2.375   5.835 -2.2578 -0.4139 -0.5654
   41CHL1  H23B 3021   5.856   2.509   5.770 -0.2851  0.3946 -0.8867
   41CHL1   C24 3022   5.685   2.565   5.903  0.5103  0.5153  0.5594
   41CHL1  H24A 3023   5.690   2.674   5.881 -1.7259  1.1322  2.5804
   41CHL1  H24B 3024   5.575   2.555   5.890  0.3167  4.0977 -1.8217
   41CHL1   C25 3025   5.730   2.542   6.054 -0.5721  0.0043 -0.7736
   41CHL1   H25 3026   5.695   2.440   6.081 -0.2883  0.0094 -0.3683
   41CHL1   C26 3027   5.885   2.544   6.072 -0.1679  0.3364  0.2521
   41CHL1  H26A 3028   5.919   2.462   6.005 -0.1675 -0.4619  1.2091
   41CHL1  H26B 3029   5.928   2.639   6.034  0.1899  1.3086  2.8436
   41CHL1  H26C 3030   5.917   2.516   6.175 -1.0872 -0.0577  0.4362
   41CHL1   C27 3031   5.668   2.645   6.150 -0.2322  0.2220  0.5078
   41CHL1  H27A 3032   5.701   2.748   6.124  0.4252 -0.9476 -4.1192
   41CHL1  H27B 3033   5.561   2.621   6.132 -0.3220  1.3402 -0.5900
   41CHL1  H27C 3034   5.709   2.633   6.253 -0.4547  2.9068  0.9894
   42CHL1    C3 3035   4.228   2.518   4.373  0.0134 -0.0783 -0.1983
   42CHL1    H3 3036   4.334   2.551   4.383 -0.2044  2.1722 -3.5937
   42CHL1    O3 3037   4.219   2.465   4.238 -0.5240  0.2661  0.4928
   42CHL1   H3' 3038   4.126   2.450   4.222 -0.6212  0.2720  1.0321
   42CHL1    C4 3039   4.180   2.408   4.475  0.8035 -0.5545 -0.4441
   42CHL1   H4A 3040   4.078   2.386   4.438 -0.0410  3.1219 -0.6331
   42CHL1   H4B 3041   4.246   2.319   4.467 -0.0827 -1.1965 -0.8229
   42CHL1    C5 3042   4.180   2.461   4.622  0.7492 -0.7414 -0.1264
   42CHL1    C6 3043   4.238   2.385   4.711 -0.2724  0.7449  0.4528
   42CHL1    H6 3044   4.278   2.285   4.690  1.0186  1.3938 -0.2303
   42CHL1    C7 3045   4.227   2.432   4.858  0.1033 -0.4100  0.4178
   42CHL1   H7A 3046   4.180   2.356   4.925  1.5559 -1.7325 -0.0089
   42CHL1   H7B 3047   4.329   2.436   4.902 -0.7049  0.0824  2.3468
   42CHL1    C8 3048   4.164   2.569   4.882  0.2450  0.4929 -0.0275
   42CHL1    H8 3049   4.056   2.550   4.899  0.1038  0.5764 -0.8005
   42CHL1   C14 3050   4.224   2.628   5.007  0.3331 -0.5063 -0.2986
   42CHL1   H14 3051   4.331   2.649   4.986 -0.1919  1.3248 -1.3959
   42CHL1   C15 3052   4.217   2.542   5.132  1.1579  0.3413 -0.5029
   42CHL1  H15A 3053   4.116   2.499   5.141  2.4613 -3.2512 -1.5507
   42CHL1  H15B 3054   4.296   2.464   5.125 -0.3251 -1.2929  0.5873
   42CHL1   C16 3055   4.244   2.635   5.249  0.1235  0.6042  0.3406
   42CHL1  H16A 3056   4.168   2.624   5.329 -0.9254  0.3264 -0.6725
   42CHL1  H16B 3057   4.344   2.602   5.283  0.0339  0.9860  0.9825
   42CHL1   C17 3058   4.244   2.779   5.178 -0.2515 -0.7336 -0.9061
   42CHL1   H17 3059   4.349   2.812   5.158 -0.5556  1.7418  1.0616
   42CHL1   C13 3060   4.176   2.767   5.044 -0.0798  0.4397  0.0892
   42CHL1   C18 3061   4.020   2.764   5.062 -0.8429 -0.7381 -0.2063
   42CHL1  H18A 3062   3.964   2.728   4.973 -2.0950  0.5116  0.0446
   42CHL1  H18B 3063   4.002   2.692   5.145  0.4759 -0.1038  0.6551
   42CHL1  H18C 3064   3.992   2.869   5.082 -1.1428 -0.2765 -2.6891
   42CHL1   C12 3065   4.221   2.861   4.934  0.4693 -0.1569 -0.5406
   42CHL1  H12A 3066   4.182   2.960   4.966 -0.2812 -1.0063  1.3796
   42CHL1  H12B 3067   4.332   2.859   4.936  0.4709 -1.2877 -0.7274
   42CHL1   C11 3068   4.156   2.816   4.805  0.4136  0.2117  0.3447
   42CHL1  H11A 3069   4.045   2.822   4.813  0.3265 -0.8653  0.0315
   42CHL1  H11B 3070   4.191   2.888   4.727  0.1766  0.7942  0.7689
   42CHL1    C9 3071   4.193   2.666   4.775  0.4596 -0.9976 -0.4390
   42CHL1    H9 3072   4.303   2.666   4.762  0.4778  1.8679 -1.1055
   42CHL1   C10 3073   4.124   2.612   4.650  0.1972  0.1724  0.4754
   42CHL1   C19 3074   3.967   2.621   4.654 -0.1095 -0.6873  0.4218
   42CHL1  H19A 3075   3.914   2.592   4.561 -0.6809  0.4527  0.3719
   42CHL1  H19B 3076   3.926   2.568   4.743  0.1662 -2.6248 -0.5674
   42CHL1  H19C 3077   3.938   2.728   4.664 -1.1218 -0.8651 -0.4776
   42CHL1    C1 3078   4.169   2.709   4.534 -0.4086  0.1576 -0.2264
   42CHL1   H1A 3079   4.105   2.799   4.539  0.0394  0.5923 -1.7889
   42CHL1   H1B 3080   4.274   2.744   4.542 -0.7531  0.9175  1.2718
   42CHL1    C2 3081   4.145   2.646   4.394  0.3461 -0.5187  0.3706
   42CHL1   H2A 3082   4.176   2.721   4.319  3.3347 -0.1473  1.8339
   42CHL1   H2B 3083   4.038   2.622   4.374  0.1392  0.4402  0.3011
   42CHL1   C20 3084   4.188   2.892   5.275  0.0860  0.3198 -0.1459
   42CHL1   H20 3085   4.140   2.965   5.206  1.6418 -0.1065 -1.7364
   42CHL1   C21 3086   4.315   2.955   5.338  0.9573 -0.2905 -0.2286
   42CHL1  H21A 3087   4.352   2.875   5.407  1.4310 -1.1855 -1.4797
   42CHL1  H21B 3088   4.267   3.039   5.392 -3.4718 -3.4727  1.3495
   42CHL1  H21C 3089   4.386   2.989   5.261  0.1352 -0.2505 -0.9821
   42CHL1   C22 3090   4.085   2.847   5.389 -0.5556 -0.9307 -0.3581
   42CHL1  H22A 3091   4.000   2.787   5.349  1.0885 -2.4787 -1.7361
   42CHL1  H22B 3092   4.144   2.778   5.454  1.3255  1.5121  0.6645
   42CHL1   C23 3093   4.030   2.968   5.469  0.2669  0.9490 -0.2072
   42CHL1  H23A 3094   3.967   2.929   5.552  1.7679  1.6918  1.3391
   42CHL1  H23B 3095   4.110   3.018   5.527  0.3744  1.1664 -0.5423
   42CHL1   C24 3096   3.941   3.063   5.387 -0.2386 -0.2452 -0.0751
   42CHL1  H24A 3097   4.007   3.132   5.331 -0.9443 -0.1886 -0.8676
   42CHL1  H24B 3098   3.886   3.005   5.310  2.1823 -0.7579 -1.5257
   42CHL1   C25 3099   3.853   3.144   5.483  0.1169 -0.5199  0.2039
   42CHL1   H25 3100   3.918   3.174   5.568 -0.7886 -0.8679  1.0441
   42CHL1   C26 3101   3.813   3.272   5.404 -0.2355  0.6796 -0.3607
   42CHL1  H26A 3102   3.900   3.338   5.385  0.3564 -0.0252 -0.1453
   42CHL1  H26B 3103   3.777   3.238   5.305 -0.0480 -2.6203  0.5963
   42CHL1  H26C 3104   3.737   3.331   5.460 -2.2997 -1.1693 -1.1050
   42CHL1   C27 3105   3.729   3.065   5.535 -0.1871 -0.7035  0.0556
   42CHL1  H27A 3106   3.664   3.148   5.569  1.0066 -0.6515  2.5086
   42CHL1  H27B 3107   3.681   3.004   5.456  2.0488 -1.1360 -1.0686
   42CHL1  H27C 3108   3.738   3.002   5.627 -1.8894 -1.9059 -0.5539
   43CHL1    C3 3109   4.228   0.242   4.399 -0.5535 -0.6160 -0.3478
   43CHL1    H3 3110   4.237   0.353   4.405 -1.3089 -0.4394 -1.9035
   43CHL1    O3 3111   4.190   0.195   4.269 -0.2493 -0.6318 -0.2177
   43CHL1   H3' 3112   4.107   0.242   4.256  0.6676  0.8457 -1.0155
   43CHL1    C4 3113   4.364   0.169   4.422  0.5068  0.2464  0.0079
   43CHL1   H4A 3114   4.344   0.060   4.414 -0.5637  0.1332  3.0673
   43CHL1   H4B 3115   4.427   0.201   4.336 -0.3055  2.4273  0.1654
   43CHL1    C5 3116   4.415   0.206   4.560 -0.2957 -0.0669 -0.3811
   43CHL1    C6 3117   4.536   0.268   4.582 -0.1936  0.1853  0.0674
   43CHL1    H6 3118   4.601   0.301   4.500 -3.2986  1.0380 -2.2536
   43CHL1    C7 3119   4.602   0.297   4.711  0.2785 -0.0908  1.0813
   43CHL1   H7A 3120   4.709   0.267   4.712  0.0257 -1.0532  2.4935
   43CHL1   H7B 3121   4.615   0.407   4.719  3.9016 -0.4697  2.0512
   43CHL1    C8 3122   4.519   0.250   4.837 -1.0227  0.7536 -0.5954
   43CHL1    H8 3123   4.542   0.142   4.848  0.5578  1.1332  0.0012
   43CHL1   C14 3124   4.552   0.331   4.965 -0.3265  0.6621 -0.0690
   43CHL1   H14 3125   4.522   0.437   4.953 -0.1442  0.9552  1.7920
   43CHL1   C15 3126   4.702   0.342   4.995  0.2481 -0.2266  0.0784
   43CHL1  H15A 3127   4.744   0.241   4.977  0.8801  0.0612 -0.0841
   43CHL1  H15B 3128   4.750   0.421   4.934  0.1750  0.8156  1.3134
   43CHL1   C16 3129   4.699   0.375   5.147 -0.8958  0.0807 -0.5756
   43CHL1  H16A 3130   4.755   0.298   5.204  0.3171  1.0556 -0.4067
   43CHL1  H16B 3131   4.744   0.476   5.154 -0.8482  0.3288 -3.4402
   43CHL1   C17 3132   4.554   0.377   5.193  0.2891  0.4605 -1.1827
   43CHL1   H17 3133   4.515   0.480   5.175 -2.8415 -0.4385 -0.1893
   43CHL1   C13 3134   4.478   0.291   5.086 -0.4312  0.0585 -0.8264
   43CHL1   C18 3135   4.519   0.139   5.126  0.0593  0.1277  0.0987
   43CHL1  H18A 3136   4.460   0.082   5.051 -1.1540  1.0314  0.3452
   43CHL1  H18B 3137   4.628   0.118   5.118  0.2539 -1.1639  3.9990
   43CHL1  H18C 3138   4.472   0.112   5.223 -1.1158  1.6053 -0.0235
   43CHL1   C12 3139   4.326   0.308   5.066 -0.3536  0.4167 -0.3974
   43CHL1  H12A 3140   4.269   0.275   5.155  0.6760 -0.8629 -0.1811
   43CHL1  H12B 3141   4.312   0.417   5.053 -0.3777  0.3921 -0.5875
   43CHL1   C11 3142   4.282   0.235   4.935  0.1579  0.1398 -0.3655
   43CHL1  H11A 3143   4.283   0.126   4.957  1.5439  0.0611 -0.7630
   43CHL1  H11B 3144   4.175   0.252   4.910  0.0641  0.5626  0.2829
   43CHL1    C9 3145   4.366   0.261   4.810  0.1588  0.4857  0.2058
   43CHL1    H9 3146   4.352   0.368   4.782 -0.5792 -0.1132 -1.8688
   43CHL1   C10 3147   4.317   0.173   4.679 -0.6392 -1.0605 -0.5402
   43CHL1   C19 3148   4.296   0.017   4.715 -0.1281  0.0230 -0.0311
   43CHL1  H19A 3149   4.265  -0.026   4.618  2.8521 -0.8056 -0.7234
   43CHL1  H19B 3150   4.392  -0.035   4.737  0.0876  1.1907  2.0700
   43CHL1  H19C 3151   4.227   0.010   4.802  0.0433 -3.1634 -0.0310
   43CHL1    C1 3152   4.175   0.227   4.644  0.0646 -0.1430  0.0854
   43CHL1   H1A 3153   4.104   0.188   4.720 -1.0291 -2.1306 -1.8668
   43CHL1   H1B 3154   4.168   0.337   4.656  3.7961  0.3709 -1.2490
   43CHL1    C2 3155   4.132   0.189   4.500 -0.1596 -0.0756  0.1847
   43CHL1   H2A 3156   4.032   0.237   4.492  0.1066  0.5396  0.4496
   43CHL1   H2B 3157   4.110   0.088   4.461 -0.2883  0.8891 -2.4829
   43CHL1   C20 3158   4.523   0.354   5.342  0.4024 -0.1877 -0.1217
   43CHL1   H20 3159   4.568   0.258   5.374  0.3683 -0.1063  0.1732
   43CHL1   C21 3160   4.376   0.342   5.373  0.3004 -0.4295 -0.2710
   43CHL1  H21A 3161   4.356   0.338   5.483  1.1076  0.5023 -0.0837
   43CHL1  H21B 3162   4.331   0.244   5.346  0.7179 -1.3367  2.0885
   43CHL1  H21C 3163   4.321   0.424   5.322 -0.6964 -0.3588  0.8487
   43CHL1   C22 3164   4.576   0.463   5.429 -0.4288 -0.2951  0.5435
   43CHL1  H22A 3165   4.556   0.561   5.380 -1.4786 -1.5586 -1.7087
   43CHL1  H22B 3166   4.534   0.459   5.532  0.3923 -0.6455  0.8725
   43CHL1   C23 3167   4.729   0.443   5.454  0.2620  0.0656 -0.0429
   43CHL1  H23A 3168   4.746   0.349   5.510  3.2255  1.2169  1.1417
   43CHL1  H23B 3169   4.796   0.441   5.365  0.5233 -0.1639  0.1586
   43CHL1   C24 3170   4.789   0.543   5.556  0.3064  0.3000  0.5655
   43CHL1  H24A 3171   4.710   0.562   5.631  0.8043 -0.0342  1.1825
   43CHL1  H24B 3172   4.878   0.514   5.617  1.0867  1.1286 -0.1651
   43CHL1   C25 3173   4.825   0.682   5.506 -0.1189  0.8729  0.3472
   43CHL1   H25 3174   4.741   0.706   5.438 -1.1919 -0.6578  1.0736
   43CHL1   C26 3175   4.836   0.780   5.623 -0.2306 -0.0003 -0.1239
   43CHL1  H26A 3176   4.926   0.758   5.684  1.0320  2.4162 -0.9819
   43CHL1  H26B 3177   4.830   0.885   5.587  0.5291 -0.0944 -0.5449
   43CHL1  H26C 3178   4.745   0.782   5.686 -0.2297 -0.4146 -0.1080
   43CHL1   C27 3179   4.955   0.694   5.426  0.6300  0.1281 -0.6202
   43CHL1  H27A 3180   4.961   0.617   5.346  0.5274 -1.0768  0.4963
   43CHL1  H27B 3181   4.974   0.797   5.389  0.6695 -0.2387 -1.6803
   43CHL1  H27C 3182   5.044   0.684   5.492 -0.1393  2.5686  0.8919
   44CHL1    C3 3183   2.348   1.102   4.601  0.6301  0.2438 -0.3240
   44CHL1    H3 3184   2.353   1.199   4.657 -1.9399  1.8683 -2.6605
   44CHL1    O3 3185   2.397   1.119   4.471  1.0621 -0.0135 -0.0423
   44CHL1   H3' 3186   2.444   1.036   4.462 -1.5671 -1.7334  0.9904
   44CHL1    C4 3187   2.429   0.992   4.670 -0.2373  0.8377 -0.1492
   44CHL1   H4A 3188   2.416   0.895   4.617 -3.9213 -0.5213  2.7775
   44CHL1   H4B 3189   2.539   1.010   4.671  0.3400 -2.1151  0.2218
   44CHL1    C5 3190   2.372   0.976   4.812 -0.2619  0.0837 -0.0808
   44CHL1    C6 3191   2.460   1.003   4.904  0.5746 -0.3685  0.5687
   44CHL1    H6 3192   2.565   1.027   4.880  0.2163 -0.5482 -1.2442
   44CHL1    C7 3193   2.430   0.995   5.052  0.2373  0.2801 -0.6702
   44CHL1   H7A 3194   2.513   0.958   5.117  1.5648  2.4116 -1.0548
   44CHL1   H7B 3195   2.415   1.098   5.090  1.4505 -0.1018  0.9999
   44CHL1    C8 3196   2.289   0.922   5.077  0.0420 -0.0071  0.1157
   44CHL1    H8 3197   2.317   0.815   5.069  0.4718  0.1867 -1.2710
   44CHL1   C14 3198   2.241   0.953   5.219  0.0655 -0.2489  0.2373
   44CHL1   H14 3199   2.201   1.056   5.232 -2.2822 -1.0748 -0.0535
   44CHL1   C15 3200   2.345   0.949   5.333 -0.6339  0.8314  0.7662
   44CHL1  H15A 3201   2.431   0.884   5.304 -0.6896  1.6046 -1.3008
   44CHL1  H15B 3202   2.373   1.055   5.347 -4.3195  2.3262 -1.7368
   44CHL1   C16 3203   2.263   0.902   5.450 -0.3808  0.1257  0.2136
   44CHL1  H16A 3204   2.300   0.799   5.472 -0.3847 -0.4921 -2.2956
   44CHL1  H16B 3205   2.277   0.967   5.539  2.0036 -1.7619  1.3510
   44CHL1   C17 3206   2.112   0.895   5.412  0.2418  0.2886 -0.6187
   44CHL1   H17 3207   2.095   1.005   5.416  2.0283  0.5755  2.1226
   44CHL1   C13 3208   2.122   0.860   5.266 -0.3346 -0.7062 -0.3937
   44CHL1   C18 3209   2.165   0.712   5.250  0.4622  0.1326  0.5981
   44CHL1  H18A 3210   2.195   0.686   5.146  0.2681 -2.5455  1.1314
   44CHL1  H18B 3211   2.254   0.684   5.309  0.0368 -0.7175  0.8512
   44CHL1  H18C 3212   2.079   0.648   5.280  1.3299 -0.6191  1.5397
   44CHL1   C12 3213   1.998   0.903   5.170 -0.4123  0.7748 -0.2403
   44CHL1  H12A 3214   1.911   0.834   5.181 -1.5434  1.6863 -2.7110
   44CHL1  H12B 3215   1.964   1.002   5.205 -0.2370  0.4544  0.8935
   44CHL1   C11 3216   2.043   0.892   5.025 -0.3039  0.2324  0.8591
   44CHL1  H11A 3217   2.045   0.782   5.008 -1.4376  0.4737 -0.9899
   44CHL1  H11B 3218   1.959   0.925   4.961 -0.1552 -1.7387 -0.4454
   44CHL1    C9 3219   2.178   0.964   4.987  0.1261 -0.6323  0.1344
   44CHL1    H9 3220   2.153   1.072   4.996 -3.4786 -1.4764  2.2205
   44CHL1   C10 3221   2.225   0.943   4.840  0.1479 -0.4486  0.2039
   44CHL1   C19 3222   2.187   0.793   4.804  0.0690 -0.3023 -0.4207
   44CHL1  H19A 3223   2.242   0.776   4.709  0.8013  0.5451 -0.1629
   44CHL1  H19B 3224   2.229   0.733   4.888  0.2168  0.7553  0.2820
   44CHL1  H19C 3225   2.078   0.782   4.785 -0.2138 -1.1713  1.4819
   44CHL1    C1 3226   2.147   1.041   4.749 -0.4268  0.1661  0.0834
   44CHL1   H1A 3227   2.037   1.027   4.753 -0.7017  1.7237 -1.0793
   44CHL1   H1B 3228   2.154   1.140   4.799 -2.6771  0.6196 -0.3708
   44CHL1    C2 3229   2.195   1.063   4.603  0.3007  0.4205  0.4905
   44CHL1   H2A 3230   2.135   1.143   4.555  0.7788  0.2627 -0.3789
   44CHL1   H2B 3231   2.178   0.966   4.552 -1.6956  0.0716  1.7016
   44CHL1   C20 3232   2.025   0.809   5.508 -1.2096  0.0937  0.2419
   44CHL1   H20 3233   2.035   0.698   5.507 -1.7392  0.0160  1.6125
   44CHL1   C21 3234   1.878   0.831   5.477  0.3797  0.6569 -0.1805
   44CHL1  H21A 3235   1.826   0.747   5.528  2.2760 -0.3887  0.1091
   44CHL1  H21B 3236   1.858   0.831   5.368 -1.1034 -2.3814 -0.0303
   44CHL1  H21C 3237   1.851   0.930   5.518  2.7638  1.4175 -0.3319
   44CHL1   C22 3238   2.058   0.831   5.656  0.9849 -0.7677 -0.9616
   44CHL1  H22A 3239   2.166   0.813   5.674  0.9309  0.1853  0.5600
   44CHL1  H22B 3240   2.038   0.941   5.660  0.5341 -0.8690 -0.2465
   44CHL1   C23 3241   1.957   0.758   5.751 -0.2150  0.3522 -1.2123
   44CHL1  H23A 3242   1.863   0.816   5.762 -0.3962 -0.2542  0.8999
   44CHL1  H23B 3243   1.924   0.656   5.722 -0.9644  0.1736  0.1758
   44CHL1   C24 3244   2.026   0.751   5.891  0.6114  0.0754 -0.1190
   44CHL1  H24A 3245   2.109   0.680   5.871 -0.0078 -0.1579 -2.1138
   44CHL1  H24B 3246   2.076   0.847   5.916  1.3195  0.4742 -2.7712
   44CHL1   C25 3247   1.933   0.695   6.004 -0.4774 -0.1588  0.6402
   44CHL1   H25 3248   1.869   0.613   5.966 -1.3530  0.5256  0.6197
   44CHL1   C26 3249   2.016   0.622   6.108  0.0843  0.1242 -0.2450
   44CHL1  H26A 3250   1.954   0.609   6.200 -0.5540  1.6997 -0.4324
   44CHL1  H26B 3251   2.059   0.531   6.061 -0.1721  0.0264 -0.2931
   44CHL1  H26C 3252   2.099   0.685   6.146  0.0319  0.2034 -0.2624
   44CHL1   C27 3253   1.831   0.800   6.058 -0.4556 -0.2085  0.0125
   44CHL1  H27A 3254   1.741   0.758   6.108  0.4418 -0.9994  1.0315
   44CHL1  H27B 3255   1.875   0.882   6.120 -2.0065  1.1798 -0.6566
   44CHL1  H27C 3256   1.788   0.849   5.968 -2.8760 -3.1129 -0.5533
   45CHL1    C3 3257   3.012   6.051   4.472  0.1538 -0.2654  0.3814
   45CHL1    H3 3258   3.085   6.120   4.520 -0.4200  1.2511 -0.8316
   45CHL1    O3 3259   3.012   6.080   4.333 -0.2393 -0.2022 -0.2961
   45CHL1   H3' 3260   3.103   6.071   4.304 -1.3070 -0.0936 -4.2864
   45CHL1    C4 3261   3.043   5.907   4.498 -0.3015  0.5284 -0.4802
   45CHL1   H4A 3262   2.974   5.844   4.440  1.2968  0.5587 -2.5180
   45CHL1   H4B 3263   3.144   5.888   4.456 -0.0219 -1.0206  0.8027
   45CHL1    C5 3264   3.033   5.859   4.640 -0.6928  0.3423 -0.6041
   45CHL1    C6 3265   3.128   5.798   4.713  0.4219 -0.1552  0.5567
   45CHL1    H6 3266   3.225   5.781   4.665 -0.0662  2.2083 -1.4605
   45CHL1    C7 3267   3.114   5.744   4.849 -0.3696 -0.4310 -0.0796
   45CHL1   H7A 3268   3.167   5.648   4.864 -1.4429 -0.7254  2.1375
   45CHL1   H7B 3269   3.177   5.808   4.915  0.0991 -1.0611  0.1006
   45CHL1    C8 3270   2.971   5.738   4.907 -0.2150  0.2818 -0.0903
   45CHL1    H8 3271   2.918   5.653   4.858 -1.6352  0.4040  1.1594
   45CHL1   C14 3272   2.971   5.699   5.053  0.0601 -0.8792 -0.6339
   45CHL1   H14 3273   3.043   5.767   5.103 -1.1075  0.5647 -0.8079
   45CHL1   C15 3274   3.030   5.558   5.086 -0.1596 -0.0848  0.0021
   45CHL1  H15A 3275   2.991   5.479   5.017 -0.1487  0.0798 -0.1938
   45CHL1  H15B 3276   3.140   5.546   5.090  0.0877  2.0139  0.6883
   45CHL1   C16 3277   2.978   5.546   5.226 -0.0346  0.4568 -0.4363
   45CHL1  H16A 3278   2.945   5.440   5.234  4.2513 -1.0124  1.0077
   45CHL1  H16B 3279   3.061   5.548   5.301 -0.5176 -1.3896  0.2065
   45CHL1   C17 3280   2.866   5.650   5.256 -0.3538 -0.0141 -0.4188
   45CHL1   H17 3281   2.922   5.732   5.305  1.8121 -2.5169  1.6236
   45CHL1   C13 3282   2.828   5.696   5.114 -0.0116 -0.1645  0.3494
   45CHL1   C18 3283   2.738   5.588   5.040 -0.8202 -0.6547  0.3439
   45CHL1  H18A 3284   2.729   5.610   4.932 -0.3579 -0.3388  0.3682
   45CHL1  H18B 3285   2.778   5.485   5.055  1.1734 -0.2664 -1.8339
   45CHL1  H18C 3286   2.635   5.596   5.082  0.0927  2.3237  2.3429
   45CHL1   C12 3287   2.777   5.837   5.090 -0.4018 -0.4349  0.3378
   45CHL1  H12A 3288   2.677   5.864   5.131 -0.0287  2.4174 -0.3925
   45CHL1  H12B 3289   2.847   5.910   5.136 -2.0602  1.5424 -0.0875
   45CHL1   C11 3290   2.757   5.869   4.938  0.4458 -0.0731  0.0025
   45CHL1  H11A 3291   2.683   5.801   4.890 -0.5263 -0.1223  1.5288
   45CHL1  H11B 3292   2.713   5.967   4.911 -1.1633 -1.0851 -1.2430
   45CHL1    C9 3293   2.894   5.867   4.868 -0.9867 -0.1577  0.2113
   45CHL1    H9 3294   2.951   5.950   4.916  0.4129 -0.7643 -0.3690
   45CHL1   C10 3295   2.895   5.891   4.710  0.1065  0.5426  0.3977
   45CHL1   C19 3296   2.799   5.794   4.638  0.4794 -0.0715  0.6330
   45CHL1  H19A 3297   2.830   5.690   4.662 -0.0243 -0.5532 -0.6756
   45CHL1  H19B 3298   2.697   5.809   4.677 -0.1566 -0.9916 -0.5978
   45CHL1  H19C 3299   2.785   5.806   4.528  0.4392  0.1259  0.6593
   45CHL1    C1 3300   2.868   6.041   4.682  0.7091  0.0269  0.2644
   45CHL1   H1A 3301   2.761   6.048   4.710 -0.1256 -0.0335 -2.6559
   45CHL1   H1B 3302   2.934   6.090   4.757 -0.0996  0.8687  0.4397
   45CHL1    C2 3303   2.878   6.091   4.539 -0.3601 -0.6808  0.6503
   45CHL1   H2A 3304   2.866   6.201   4.547  0.7835 -0.5791  1.0722
   45CHL1   H2B 3305   2.802   6.044   4.472 -0.1401 -1.0014  0.6244
   45CHL1   C20 3306   2.749   5.597   5.338 -0.4940  0.4490  0.9558
   45CHL1   H20 3307   2.688   5.535   5.269 -0.4769  1.2417  0.2051
   45CHL1   C21 3308   2.672   5.720   5.391  0.8195 -0.1419  0.0628
   45CHL1  H21A 3309   2.731   5.803   5.438 -1.2655  2.3389 -1.4085
   45CHL1  H21B 3310   2.596   5.686   5.464  2.4641 -2.8598  0.6416
   45CHL1  H21C 3311   2.613   5.763   5.308 -0.4123  0.9298  1.4261
   45CHL1   C22 3312   2.791   5.506   5.456 -0.3458 -0.5179 -0.0130
   45CHL1  H22A 3313   2.700   5.474   5.512  0.0344 -3.4224 -0.8744
   45CHL1  H22B 3314   2.830   5.411   5.413 -1.2751 -0.8250 -0.1892
   45CHL1   C23 3315   2.896   5.556   5.555  0.5473 -0.0691  0.5590
   45CHL1  H23A 3316   2.994   5.569   5.505  1.0998  0.5308  1.7630
   45CHL1  H23B 3317   2.874   5.661   5.586 -0.2865 -0.1079  0.1471
   45CHL1   C24 3318   2.898   5.469   5.685  0.7121  0.2511  0.0062
   45CHL1  H24A 3319   2.803   5.464   5.742  0.1474 -2.8182 -1.0546
   45CHL1  H24B 3320   2.921   5.363   5.660  2.8415  1.0266 -1.6928
   45CHL1   C25 3321   2.994   5.526   5.787  0.3487 -0.4243 -0.2300
   45CHL1   H25 3322   3.095   5.531   5.740  0.2578 -1.2024 -0.5199
   45CHL1   C26 3323   2.968   5.672   5.824 -0.1043 -0.9253  0.3570
   45CHL1  H26A 3324   3.051   5.702   5.892 -2.5690 -0.4135  3.3921
   45CHL1  H26B 3325   2.969   5.746   5.741  1.2986 -1.2132  0.0916
   45CHL1  H26C 3326   2.867   5.677   5.870  0.0013  0.5639  0.4851
   45CHL1   C27 3327   3.004   5.440   5.922 -0.0551 -0.2012  0.2544
   45CHL1  H27A 3328   2.996   5.333   5.895 -1.8373 -0.1007  0.2523
   45CHL1  H27B 3329   3.082   5.475   5.993 -0.5675 -2.4885  2.0647
   45CHL1  H27C 3330   2.908   5.461   5.974  0.5743 -0.3694  1.5488
   46CHL1    C3 3331   5.277   2.447   4.429 -0.5157 -0.2871  0.4680
   46CHL1    H3 3332   5.377   2.411   4.463 -0.1909 -2.1668 -2.1469
   46CHL1    O3 3333   5.267   2.408   4.292  0.3756  0.7833  0.6513
   46CHL1   H3' 3334   5.173   2.408   4.272  0.7542 -1.0598 -1.6271
   46CHL1    C4 3335   5.170   2.369   4.507  0.6727 -0.0421  0.2323
   46CHL1   H4A 3336   5.069   2.401   4.473  0.3095  0.3289  1.5903
   46CHL1   H4B 3337   5.178   2.259   4.494 -1.9154 -0.1910 -0.7411
   46CHL1    C5 3338   5.176   2.412   4.651  0.4090 -0.3497  0.5165
   46CHL1    C6 3339   5.213   2.331   4.750  0.3358  0.1371 -0.0289
   46CHL1    H6 3340   5.240   2.225   4.743 -0.0934 -0.2804  3.0467
   46CHL1    C7 3341   5.225   2.369   4.899  0.1462  0.1585  0.2581
   46CHL1   H7A 3342   5.172   2.293   4.959 -0.4661 -0.2646 -0.7832
   46CHL1   H7B 3343   5.329   2.379   4.936 -0.4139 -0.7330  2.1518
   46CHL1    C8 3344   5.143   2.502   4.927  0.2001 -0.2967 -0.0797
   46CHL1    H8 3345   5.034   2.482   4.926 -0.3116  1.9966 -2.5843
   46CHL1   C14 3346   5.178   2.551   5.066 -0.5817 -0.2190 -0.1684
   46CHL1   H14 3347   5.287   2.570   5.058 -0.1949 -1.8650  0.7608
   46CHL1   C15 3348   5.178   2.449   5.182 -0.0989  0.1259 -0.5022
   46CHL1  H15A 3349   5.079   2.399   5.179  0.2081 -0.7224  1.5265
   46CHL1  H15B 3350   5.259   2.374   5.182  0.1437  0.3614  0.9801
   46CHL1   C16 3351   5.204   2.535   5.314 -1.0104 -0.5086  0.0854
   46CHL1  H16A 3352   5.133   2.517   5.397  0.5545  2.1993  2.1750
   46CHL1  H16B 3353   5.309   2.529   5.349 -0.6427  0.3663 -0.8207
   46CHL1   C17 3354   5.178   2.684   5.264  0.2916  0.2354  0.1879
   46CHL1   H17 3355   5.276   2.731   5.239 -0.6833  1.8174 -0.7822
   46CHL1   C13 3356   5.116   2.681   5.117  0.0192  0.2752  0.3468
   46CHL1   C18 3357   4.965   2.653   5.129 -0.0780  0.2447  0.1125
   46CHL1  H18A 3358   4.906   2.742   5.160 -1.3986 -0.8909  0.9595
   46CHL1  H18B 3359   4.915   2.645   5.030 -1.6491  1.0309  0.7982
   46CHL1  H18C 3360   4.935   2.567   5.192  1.1280  0.3357  0.8500
   46CHL1   C12 3361   5.154   2.799   5.020  0.5001 -0.8237 -0.8483
   46CHL1  H12A 3362   5.105   2.898   5.034  0.0635 -1.0153 -1.0049
   46CHL1  H12B 3363   5.258   2.834   5.040 -0.1437 -0.1617  1.7561
   46CHL1   C11 3364   5.127   2.749   4.867  0.1959 -0.3518  0.4507
   46CHL1  H11A 3365   5.016   2.743   4.870  0.1946  0.1574  2.4170
   46CHL1  H11B 3366   5.166   2.831   4.802  1.9523 -1.1596  0.4337
   46CHL1    C9 3367   5.182   2.608   4.831 -0.0906 -0.0766  0.9525
   46CHL1    H9 3368   5.292   2.614   4.845  0.5070 -2.1989 -1.8888
   46CHL1   C10 3369   5.163   2.565   4.687  0.6726 -0.8092  0.0830
   46CHL1   C19 3370   5.020   2.604   4.653 -0.0513  0.3658  0.2166
   46CHL1  H19A 3371   4.984   2.561   4.557 -0.8862 -0.9527  1.0812
   46CHL1  H19B 3372   4.949   2.571   4.732 -3.2870 -1.0823 -2.9835
   46CHL1  H19C 3373   4.996   2.712   4.651 -1.5583  0.0617  0.3826
   46CHL1    C1 3374   5.256   2.638   4.594  0.4340  0.7567 -0.1869
   46CHL1   H1A 3375   5.254   2.748   4.608 -0.2407  0.9449 -1.5548
   46CHL1   H1B 3376   5.359   2.608   4.621  0.4067  1.6138  0.9110
   46CHL1    C2 3377   5.258   2.598   4.445  0.0477 -0.2501  0.0126
   46CHL1   H2A 3378   5.349   2.640   4.398 -1.6505  2.7600 -0.8744
   46CHL1   H2B 3379   5.167   2.623   4.386  1.9284  0.9142 -2.6006
   46CHL1   C20 3380   5.115   2.780   5.366 -0.4002 -0.7842  0.4695
   46CHL1   H20 3381   5.016   2.741   5.400  0.2468 -1.5305  1.5647
   46CHL1   C21 3382   5.123   2.922   5.308  0.0718 -0.4762  0.4616
   46CHL1  H21A 3383   5.222   2.942   5.262  0.2027 -1.1729  0.4203
   46CHL1  H21B 3384   5.113   2.998   5.388 -2.6295  1.6327 -1.7171
   46CHL1  H21C 3385   5.045   2.934   5.230  0.6188  0.2401  0.0164
   46CHL1   C22 3386   5.196   2.770   5.498 -0.0098  0.9634 -0.2950
   46CHL1  H22A 3387   5.205   2.662   5.523 -0.5082  0.5328 -1.8577
   46CHL1  H22B 3388   5.303   2.798   5.487  0.9009 -0.6835  3.1204
   46CHL1   C23 3389   5.132   2.847   5.618  0.5511 -0.5089 -0.0678
   46CHL1  H23A 3390   5.133   2.957   5.604 -0.8048 -0.3636  0.8311
   46CHL1  H23B 3391   5.024   2.822   5.623  0.4784  0.0959  2.7384
   46CHL1   C24 3392   5.201   2.799   5.750  0.3969 -0.0073 -0.1245
   46CHL1  H24A 3393   5.179   2.692   5.770 -0.2348  0.1933  0.3047
   46CHL1  H24B 3394   5.311   2.807   5.734  0.2541  1.0837 -0.6430
   46CHL1   C25 3395   5.153   2.880   5.868  0.4036  0.2926 -0.6260
   46CHL1   H25 3396   5.042   2.880   5.873  0.4099  1.9907  0.6781
   46CHL1   C26 3397   5.202   2.807   5.999  0.0771 -0.2966  0.4470
   46CHL1  H26A 3398   5.312   2.822   6.004 -0.1353  1.9903 -0.4984
   46CHL1  H26B 3399   5.155   2.845   6.092  1.4477  0.8007  0.7294
   46CHL1  H26C 3400   5.171   2.701   5.989 -0.3780 -0.0886 -0.5264
   46CHL1   C27 3401   5.194   3.028   5.857 -0.2347 -0.8402  0.0830
   46CHL1  H27A 3402   5.300   3.036   5.824 -1.0669 -0.4746 -2.7350
   46CHL1  H27B 3403   5.144   3.079   5.772 -1.2382  0.4860  1.3995
   46CHL1  H27C 3404   5.173   3.079   5.954  2.5447  0.3196  0.1583
   47CHL1    C3 3405   5.724   5.360   4.343  0.4716  0.0666  0.4014
   47CHL1    H3 3406   5.749   5.257   4.376  1.2573  0.2695  0.4584
   47CHL1    O3 3407   5.716   5.361   4.199 -0.0149  0.6270  0.2154
   47CHL1   H3' 3408   5.675   5.446   4.182 -0.4545  0.3084 -0.3668
   47CHL1    C4 3409   5.591   5.394   4.407  0.6113  0.2344  0.9851
   47CHL1   H4A 3410   5.565   5.493   4.362  0.1605 -1.0143 -1.7167
   47CHL1   H4B 3411   5.507   5.339   4.360  2.5390 -1.1238 -1.0784
   47CHL1    C5 3412   5.594   5.390   4.559 -0.3661  0.3113  0.5341
   47CHL1    C6 3413   5.507   5.315   4.630 -0.5308  0.1684 -0.4309
   47CHL1    H6 3414   5.428   5.266   4.570 -0.4561  1.3362 -1.5117
   47CHL1    C7 3415   5.499   5.299   4.775 -0.5572  0.3646  0.1862
   47CHL1   H7A 3416   5.398   5.300   4.822  0.0372 -0.2604  1.5331
   47CHL1   H7B 3417   5.550   5.203   4.796  0.2897  0.8432  0.3639
   47CHL1    C8 3418   5.585   5.413   4.847  0.1613  0.1563  0.0024
   47CHL1    H8 3419   5.526   5.506   4.835 -1.0327 -0.8246 -2.4910
   47CHL1   C14 3420   5.609   5.385   4.991 -0.2726  0.2053 -0.0873
   47CHL1   H14 3421   5.684   5.304   5.005 -1.4066 -1.1144 -1.3139
   47CHL1   C15 3422   5.493   5.333   5.076 -0.8300  0.3149 -0.2035
   47CHL1  H15A 3423   5.408   5.402   5.054 -0.1393  1.3065  0.1243
   47CHL1  H15B 3424   5.468   5.227   5.057  2.2899 -0.3825 -1.1156
   47CHL1   C16 3425   5.546   5.348   5.222 -0.1766 -0.0141  0.5068
   47CHL1  H16A 3426   5.466   5.398   5.280 -1.3318  0.6528 -1.5546
   47CHL1  H16B 3427   5.554   5.244   5.260 -3.8500 -2.0156 -3.2987
   47CHL1   C17 3428   5.683   5.418   5.211  0.2570 -0.1450  1.0996
   47CHL1   H17 3429   5.765   5.343   5.214 -0.6995 -1.2194  1.1427
   47CHL1   C13 3430   5.688   5.489   5.074  0.1136  0.1245  0.6451
   47CHL1   C18 3431   5.604   5.619   5.080  0.0707  0.8239  0.1452
   47CHL1  H18A 3432   5.604   5.665   4.979 -0.2328  0.9997  0.2228
   47CHL1  H18B 3433   5.500   5.608   5.120 -0.7504  2.5163 -1.3995
   47CHL1  H18C 3434   5.654   5.693   5.146 -0.2547 -0.2423  1.6518
   47CHL1   C12 3435   5.823   5.513   5.011  0.2533 -0.1643  1.1750
   47CHL1  H12A 3436   5.880   5.591   5.067 -0.1747 -1.8791  4.2061
   47CHL1  H12B 3437   5.896   5.430   5.018  1.2935  0.7152  0.9584
   47CHL1   C11 3438   5.811   5.540   4.859  0.4235 -0.5429  0.1394
   47CHL1  H11A 3439   5.775   5.645   4.848  1.5660 -0.3396 -2.3070
   47CHL1  H11B 3440   5.912   5.559   4.816 -0.8111  0.1310 -2.7010
   47CHL1    C9 3441   5.720   5.438   4.778 -0.1818  1.2206 -0.6580
   47CHL1    H9 3442   5.775   5.342   4.789 -1.3362  0.3132 -2.2910
   47CHL1   C10 3443   5.708   5.466   4.624 -0.4478  0.0185 -0.3596
   47CHL1   C19 3444   5.675   5.615   4.600  0.5075  0.0304 -0.5589
   47CHL1  H19A 3445   5.568   5.626   4.624  0.0563 -0.0839 -2.3864
   47CHL1  H19B 3446   5.739   5.682   4.660 -0.9868 -0.2307  1.4213
   47CHL1  H19C 3447   5.689   5.638   4.492 -0.3307 -1.6831 -1.0729
   47CHL1    C1 3448   5.842   5.447   4.548 -0.2387 -0.0579  0.0075
   47CHL1   H1A 3449   5.912   5.531   4.570 -2.0390  1.4432  0.2541
   47CHL1   H1B 3450   5.890   5.352   4.581 -0.5230 -0.6777 -1.3181
   47CHL1    C2 3451   5.835   5.445   4.395 -0.6999 -0.3918  0.8138
   47CHL1   H2A 3452   5.926   5.392   4.360  0.2707 -0.8861  3.8526
   47CHL1   H2B 3453   5.822   5.547   4.353 -0.4883 -1.3272 -1.7031
   47CHL1   C20 3454   5.703   5.508   5.338  0.0776 -0.5057  0.3324
   47CHL1   H20 3455   5.641   5.600   5.324  1.6784  0.3828 -1.3514
   47CHL1   C21 3456   5.849   5.556   5.347  0.2636 -0.0599 -0.3553
   47CHL1  H21A 3457   5.912   5.474   5.388 -0.2590 -0.3070 -0.0396
   47CHL1  H21B 3458   5.861   5.651   5.404  1.0554 -0.1578 -0.3429
   47CHL1  H21C 3459   5.893   5.576   5.247 -0.4457 -1.2424 -0.9235
   47CHL1   C22 3460   5.663   5.440   5.468 -0.1124  0.6318 -0.2773
   47CHL1  H22A 3461   5.555   5.412   5.468  0.2911 -1.0649  0.0026
   47CHL1  H22B 3462   5.727   5.349   5.472  0.7412  1.2381  0.3763
   47CHL1   C23 3463   5.679   5.512   5.600  0.1384  0.2599 -0.6863
   47CHL1  H23A 3464   5.771   5.575   5.607  1.0860 -1.2808  1.7535
   47CHL1  H23B 3465   5.601   5.592   5.601  1.6420  1.7970  0.7196
   47CHL1   C24 3466   5.662   5.424   5.721  0.4319  0.7441 -0.5649
   47CHL1  H24A 3467   5.557   5.389   5.717  1.0565 -1.0992 -1.9430
   47CHL1  H24B 3468   5.730   5.337   5.709  0.3537  0.4166  1.1274
   47CHL1   C25 3469   5.691   5.489   5.857  0.6532  0.1749 -1.2441
   47CHL1   H25 3470   5.798   5.521   5.858  0.4418  1.0146 -2.5689
   47CHL1   C26 3471   5.591   5.609   5.882  0.1572 -0.4363 -0.2541
   47CHL1  H26A 3472   5.481   5.591   5.885 -0.2762  1.9706 -0.2559
   47CHL1  H26B 3473   5.598   5.656   5.982 -2.2017 -1.0648  0.2657
   47CHL1  H26C 3474   5.612   5.680   5.799  0.6834 -0.2856  0.0071
   47CHL1   C27 3475   5.663   5.388   5.972 -0.2465  0.3508  0.4791
   47CHL1  H27A 3476   5.562   5.397   6.017 -1.2988  1.7846 -1.9894
   47CHL1  H27B 3477   5.693   5.283   5.955  0.2257  0.4548  0.6507
   47CHL1  H27C 3478   5.710   5.416   6.069  0.2447  1.9045 -0.1708
   48CHL1    C3 3479   0.552   1.099   4.560 -0.4864  0.2916  0.1901
   48CHL1    H3 3480   0.489   1.008   4.559  0.2456 -0.2236  0.2649
   48CHL1    O3 3481   0.596   1.111   4.429  0.6392 -0.2407 -0.1642
   48CHL1   H3' 3482   0.692   1.111   4.429  0.8247  2.2228 -3.8936
   48CHL1    C4 3483   0.478   1.225   4.606 -0.8883 -0.1529  0.1538
   48CHL1   H4A 3484   0.536   1.319   4.603 -1.8357  0.4255 -3.1092
   48CHL1   H4B 3485   0.396   1.240   4.533 -0.0271 -0.1607 -0.8357
   48CHL1    C5 3486   0.426   1.220   4.754 -1.0788 -0.9019  0.0195
   48CHL1    C6 3487   0.299   1.235   4.787 -0.1471 -0.7027 -0.3428
   48CHL1    H6 3488   0.229   1.239   4.702 -0.1016 -0.7971 -0.3851
   48CHL1    C7 3489   0.242   1.236   4.925 -0.3485 -0.0348 -0.4057
   48CHL1   H7A 3490   0.169   1.316   4.947 -0.7088 -0.9023  1.7961
   48CHL1   H7B 3491   0.191   1.138   4.937 -0.4256 -0.2941 -2.4489
   48CHL1    C8 3492   0.363   1.237   5.025 -0.2732  0.0272 -0.3122
   48CHL1    H8 3493   0.403   1.340   5.026  0.8473 -0.3895 -0.2418
   48CHL1   C14 3494   0.312   1.207   5.160 -0.3113 -1.1210 -0.3528
   48CHL1   H14 3495   0.259   1.110   5.148 -0.6134 -1.0086  0.0402
   48CHL1   C15 3496   0.211   1.310   5.221 -1.1646 -0.0936 -0.2842
   48CHL1  H15A 3497   0.256   1.412   5.211  0.9044 -1.0676 -1.6924
   48CHL1  H15B 3498   0.112   1.307   5.171 -0.2005  0.9473 -2.3976
   48CHL1   C16 3499   0.211   1.282   5.368  0.3368 -0.1363  0.7349
   48CHL1  H16A 3500   0.247   1.378   5.410  2.1019  0.6374 -2.2884
   48CHL1  H16B 3501   0.108   1.261   5.403  1.6242 -2.9479  3.2897
   48CHL1   C17 3502   0.314   1.173   5.391  0.1122 -0.1456 -0.5801
   48CHL1   H17 3503   0.256   1.079   5.376 -0.9738 -0.4192  3.8046
   48CHL1   C13 3504   0.414   1.182   5.271 -0.0055 -0.0146  0.2736
   48CHL1   C18 3505   0.496   1.311   5.299 -0.0985  0.1029 -0.9549
   48CHL1  H18A 3506   0.534   1.349   5.201 -1.8303  1.5244 -1.1331
   48CHL1  H18B 3507   0.442   1.392   5.353  1.4780 -0.1737  1.1524
   48CHL1  H18C 3508   0.589   1.294   5.358 -0.5505 -1.2996 -0.6320
   48CHL1   C12 3509   0.506   1.068   5.225 -0.5633  0.0818 -0.7488
   48CHL1  H12A 3510   0.581   1.042   5.302 -1.8402  1.5868  1.0796
   48CHL1  H12B 3511   0.450   0.974   5.203  0.4513 -0.6482 -0.2484
   48CHL1   C11 3512   0.577   1.093   5.096  0.4606 -0.0161  0.1703
   48CHL1  H11A 3513   0.654   1.167   5.126  0.9344 -0.8726  1.0871
   48CHL1  H11B 3514   0.638   1.005   5.066  2.8834  2.6968 -3.8943
   48CHL1    C9 3515   0.478   1.138   4.982  0.4539  0.4989  0.1096
   48CHL1    H9 3516   0.423   1.046   4.955 -0.7601  1.9989 -3.0923
   48CHL1   C10 3517   0.546   1.187   4.855 -0.0053 -1.5063  0.6858
   48CHL1   C19 3518   0.634   1.310   4.866 -0.3181 -0.2743  0.4263
   48CHL1  H19A 3519   0.690   1.334   4.773  0.2111 -3.4598 -0.1899
   48CHL1  H19B 3520   0.584   1.398   4.913  0.6799 -0.0502  1.1116
   48CHL1  H19C 3521   0.715   1.283   4.938  0.5872  1.2934  0.0360
   48CHL1    C1 3522   0.630   1.074   4.803  0.2102 -0.1998  0.8057
   48CHL1   H1A 3523   0.717   1.070   4.872  0.0284 -0.9074  1.0034
   48CHL1   H1B 3524   0.572   0.980   4.815 -0.7010 -0.0631 -1.7280
   48CHL1    C2 3525   0.675   1.082   4.654 -1.0422  0.1421  0.2540
   48CHL1   H2A 3526   0.728   0.988   4.625 -0.7076 -0.1549  1.7831
   48CHL1   H2B 3527   0.748   1.165   4.644 -0.1061 -0.7023 -0.0661
   48CHL1   C20 3528   0.366   1.168   5.535 -0.0668 -0.2099 -0.2473
   48CHL1   H20 3529   0.432   1.256   5.552 -1.1802  1.2568 -2.8601
   48CHL1   C21 3530   0.452   1.047   5.561 -0.0480 -0.1383 -0.2566
   48CHL1  H21A 3531   0.550   1.036   5.508  0.2586  0.9024  0.0740
   48CHL1  H21B 3532   0.391   0.957   5.540  0.0391 -0.0913 -0.7331
   48CHL1  H21C 3533   0.472   1.047   5.670 -0.8205  0.0848 -0.1063
   48CHL1   C22 3534   0.250   1.186   5.640  0.0971  0.5214 -0.1731
   48CHL1  H22A 3535   0.182   1.271   5.616 -2.3240 -1.3410 -0.3575
   48CHL1  H22B 3536   0.190   1.093   5.626 -0.1757  0.4265  1.5184
   48CHL1   C23 3537   0.295   1.201   5.792 -0.0770  0.3951 -0.7528
   48CHL1  H23A 3538   0.349   1.115   5.838  0.8380  1.8447  1.0112
   48CHL1  H23B 3539   0.370   1.283   5.792 -0.5372  0.8796  1.4618
   48CHL1   C24 3540   0.184   1.253   5.890  0.4300 -0.1390  0.4929
   48CHL1  H24A 3541   0.133   1.331   5.830  1.1416 -1.2976 -1.7353
   48CHL1  H24B 3542   0.119   1.165   5.910 -2.1580  1.2608 -1.2511
   48CHL1   C25 3543   0.256   1.318   6.012  0.1238  0.0688  0.2992
   48CHL1   H25 3544   0.352   1.263   6.015  0.8933  1.3562 -0.1435
   48CHL1   C26 3545   0.278   1.461   5.983 -0.0093  0.3937 -0.2124
   48CHL1  H26A 3546   0.344   1.513   6.056  2.1518 -0.9454 -1.0968
   48CHL1  H26B 3547   0.318   1.479   5.880 -1.5451 -1.3304 -1.1677
   48CHL1  H26C 3548   0.179   1.507   6.005  0.2916  0.3296  1.3451
   48CHL1   C27 3549   0.190   1.294   6.154 -0.0952 -0.5386  0.0968
   48CHL1  H27A 3550   0.250   1.336   6.237 -2.7026 -1.1388  2.4350
   48CHL1  H27B 3551   0.093   1.347   6.158 -1.6809 -3.2223 -0.4623
   48CHL1  H27C 3552   0.175   1.184   6.165  3.5490 -1.2861 -1.0197
   49CHL1    C3 3553   1.478   5.140   4.082 -0.6038 -0.0421  0.4688
   49CHL1    H3 3554   1.533   5.046   4.101  0.2891  0.8347  2.5136
   49CHL1    O3 3555   1.468   5.182   3.951  0.6620  0.1829 -0.0398
   49CHL1   H3' 3556   1.405   5.123   3.909  0.4032 -0.4823  1.2158
   49CHL1    C4 3557   1.342   5.117   4.142  0.7973 -0.1261 -0.2788
   49CHL1   H4A 3558   1.279   5.208   4.135  1.6785  0.7087  1.8186
   49CHL1   H4B 3559   1.290   5.045   4.076 -0.5261  0.3790  0.1869
   49CHL1    C5 3560   1.344   5.075   4.286  0.0833  0.6021 -0.2123
   49CHL1    C6 3561   1.291   4.955   4.329  0.9176 -0.2857 -0.0764
   49CHL1    H6 3562   1.248   4.885   4.256  0.8582 -0.9980  0.6187
   49CHL1    C7 3563   1.286   4.917   4.473 -0.6395  0.3223 -0.2735
   49CHL1   H7A 3564   1.199   4.863   4.515  0.9500 -2.1504  0.1058
   49CHL1   H7B 3565   1.369   4.844   4.489 -0.2621  0.3698 -1.7929
   49CHL1    C8 3566   1.320   5.034   4.569 -0.4131 -0.7131 -0.1776
   49CHL1    H8 3567   1.224   5.089   4.572 -0.5889 -1.0275  0.1090
   49CHL1   C14 3568   1.339   4.981   4.710  0.1662 -0.3780  0.2505
   49CHL1   H14 3569   1.436   4.927   4.709  0.7605  0.6528  0.4958
   49CHL1   C15 3570   1.245   4.874   4.771  0.2161 -0.0490  0.4891
   49CHL1  H15A 3571   1.138   4.879   4.741  0.9685  1.9349 -2.3608
   49CHL1  H15B 3572   1.285   4.776   4.738 -0.2846 -0.2805  0.5618
   49CHL1   C16 3573   1.267   4.888   4.923 -0.4567  0.1798  0.0571
   49CHL1  H16A 3574   1.176   4.924   4.976 -1.6750 -0.7791 -1.3206
   49CHL1  H16B 3575   1.301   4.793   4.968 -0.6528 -0.2822 -0.7547
   49CHL1   C17 3576   1.382   4.992   4.929  0.7923 -0.2299  1.0696
   49CHL1   H17 3577   1.479   4.941   4.911  1.2363  1.1557 -0.7413
   49CHL1   C13 3578   1.366   5.087   4.814 -0.4675 -0.1751  0.1252
   49CHL1   C18 3579   1.241   5.164   4.832  0.6891  0.1056 -0.3076
   49CHL1  H18A 3580   1.215   5.235   4.751  0.1330  0.8657  0.5304
   49CHL1  H18B 3581   1.153   5.105   4.864  0.9086  1.0260  2.1975
   49CHL1  H18C 3582   1.258   5.239   4.912 -2.1088  1.1270 -0.5769
   49CHL1   C12 3583   1.489   5.163   4.775  0.3726 -0.1372  0.2972
   49CHL1  H12A 3584   1.517   5.247   4.842  1.4264  0.1463 -0.4692
   49CHL1  H12B 3585   1.576   5.095   4.763  0.0217 -0.5137 -0.1597
   49CHL1   C11 3586   1.476   5.226   4.634  0.2081 -0.2463 -0.8217
   49CHL1  H11A 3587   1.400   5.307   4.643  0.3758 -0.1709  0.0374
   49CHL1  H11B 3588   1.574   5.270   4.605 -0.3792  0.9210 -1.0915
   49CHL1    C9 3589   1.431   5.128   4.518  0.3712  0.2828 -0.1622
   49CHL1    H9 3590   1.513   5.053   4.518 -0.4823 -0.6765  0.2023
   49CHL1   C10 3591   1.413   5.177   4.375 -0.2162  0.1559 -0.1747
   49CHL1   C19 3592   1.319   5.303   4.382  0.3672 -0.0475 -0.2836
   49CHL1  H19A 3593   1.231   5.282   4.447 -0.4839 -0.3675 -1.5148
   49CHL1  H19B 3594   1.376   5.387   4.427 -0.3843 -0.2709  1.1546
   49CHL1  H19C 3595   1.278   5.323   4.281 -0.4392 -0.5561 -0.0652
   49CHL1    C1 3596   1.554   5.215   4.314  0.9961  0.3545 -0.5848
   49CHL1   H1A 3597   1.600   5.295   4.376  0.6746 -0.0064  0.1304
   49CHL1   H1B 3598   1.613   5.121   4.315 -2.0724 -1.7006 -0.2854
   49CHL1    C2 3599   1.549   5.251   4.168  0.3940  0.1619 -0.0213
   49CHL1   H2A 3600   1.650   5.268   4.124  0.3162  1.3803  0.2343
   49CHL1   H2B 3601   1.499   5.347   4.143 -0.5718 -0.8444 -2.2898
   49CHL1   C20 3602   1.390   5.047   5.078 -0.3931 -0.1820 -0.2401
   49CHL1   H20 3603   1.298   5.106   5.095 -1.3088 -1.0586 -1.9187
   49CHL1   C21 3604   1.511   5.143   5.104  1.1182  0.0985 -0.2417
   49CHL1  H21A 3605   1.482   5.242   5.063  1.4063  1.0171  1.6650
   49CHL1  H21B 3606   1.605   5.109   5.055  1.0491 -0.6733  0.1417
   49CHL1  H21C 3607   1.529   5.167   5.211 -0.7757 -2.4777  0.7453
   49CHL1   C22 3608   1.393   4.940   5.187  0.3827  0.4444  0.6774
   49CHL1  H22A 3609   1.320   4.857   5.180  1.1652 -0.1343 -1.0735
   49CHL1  H22B 3610   1.496   4.898   5.183  0.8278  1.5672 -0.3421
   49CHL1   C23 3611   1.373   4.984   5.335  0.3525 -0.4464  0.0894
   49CHL1  H23A 3612   1.407   4.900   5.399  4.0747 -0.1149 -1.2273
   49CHL1  H23B 3613   1.449   5.064   5.350 -0.8723  0.4482  1.8869
   49CHL1   C24 3614   1.234   5.028   5.389  0.0303  0.0466 -1.0729
   49CHL1  H24A 3615   1.190   5.105   5.323  2.0393  3.6451  1.4623
   49CHL1  H24B 3616   1.165   4.944   5.414  0.5703  0.4521  2.2396
   49CHL1   C25 3617   1.246   5.108   5.527  0.8905 -0.0397 -0.0057
   49CHL1   H25 3618   1.290   5.209   5.508  2.1476 -0.3580  0.9976
   49CHL1   C26 3619   1.110   5.126   5.598  0.1579 -0.3051  0.0097
   49CHL1  H26A 3620   1.038   5.183   5.535  0.6553 -1.3351 -1.5526
   49CHL1  H26B 3621   1.049   5.034   5.614 -1.6991  0.7553 -0.5655
   49CHL1  H26C 3622   1.112   5.169   5.700 -0.8453  1.2929 -0.5934
   49CHL1   C27 3623   1.330   5.038   5.632  0.1155 -0.8142  0.3789
   49CHL1  H27A 3624   1.329   5.082   5.734 -0.9508  2.6769 -0.9814
   49CHL1  H27B 3625   1.291   4.935   5.643  0.6744 -1.1976 -1.0502
   49CHL1  H27C 3626   1.439   5.029   5.614  0.1171 -1.4906  0.6926
   50CHL1    C3 3627   6.441   2.534   4.696  1.0248  0.0947 -0.1498
   50CHL1    H3 3628   6.449   2.423   4.691  1.3101  0.1376 -0.6833
   50CHL1    O3 3629   6.431   2.578   4.564  0.3453  0.3745  0.0185
   50CHL1   H3' 3630   6.342   2.554   4.537  1.3131 -1.3082 -1.9925
   50CHL1    C4 3631   6.309   2.567   4.777  0.0033 -0.6553 -0.3794
   50CHL1   H4A 3632   6.290   2.676   4.775 -0.5052 -0.7510 -1.4212
   50CHL1   H4B 3633   6.220   2.518   4.733 -2.1462  2.5619  0.0387
   50CHL1    C5 3634   6.320   2.534   4.922  0.1286 -0.3276 -0.9930
   50CHL1    C6 3635   6.237   2.443   4.980 -0.2331  0.2308  0.0721
   50CHL1    H6 3636   6.158   2.393   4.923 -2.0887  2.1844  0.8388
   50CHL1    C7 3637   6.243   2.402   5.128  0.6293 -0.3751  0.5926
   50CHL1   H7A 3638   6.136   2.410   5.158  0.2536  1.6392 -0.9922
   50CHL1   H7B 3639   6.273   2.298   5.153  1.7066 -0.1455  0.2937
   50CHL1    C8 3640   6.317   2.510   5.205 -0.1712 -0.3050  0.2442
   50CHL1    H8 3641   6.252   2.600   5.211  0.5797  0.2379  0.4177
   50CHL1   C14 3642   6.336   2.463   5.346  0.0128 -0.4729 -0.3770
   50CHL1   H14 3643   6.394   2.368   5.339  0.9299 -0.1759  1.9966
   50CHL1   C15 3644   6.208   2.426   5.422  0.2987 -0.9655 -0.3848
   50CHL1  H15A 3645   6.139   2.512   5.424 -1.5342 -2.3855  0.2488
   50CHL1  H15B 3646   6.166   2.326   5.397 -1.1472 -1.0789  2.1462
   50CHL1   C16 3647   6.260   2.411   5.569 -0.3553  0.1603 -0.7327
   50CHL1  H16A 3648   6.206   2.463   5.651  2.2920 -0.9479  1.9061
   50CHL1  H16B 3649   6.256   2.301   5.586 -2.1423  0.4514  1.0467
   50CHL1   C17 3650   6.405   2.453   5.572 -0.2059  0.1452 -0.0621
   50CHL1   H17 3651   6.476   2.375   5.538 -0.1614  0.3654 -0.4862
   50CHL1   C13 3652   6.424   2.543   5.446  0.2309 -0.5294  0.2103
   50CHL1   C18 3653   6.365   2.684   5.464  0.3069  0.4240  0.4046
   50CHL1  H18A 3654   6.328   2.720   5.366 -2.1008 -1.7043  0.4270
   50CHL1  H18B 3655   6.269   2.676   5.518 -0.4195  2.6146 -0.4624
   50CHL1  H18C 3656   6.433   2.754   5.518  2.8443  0.3270 -2.3887
   50CHL1   C12 3657   6.557   2.558   5.377  0.2161 -0.7793  0.0465
   50CHL1  H12A 3658   6.627   2.619   5.438  0.3022  0.8817 -1.6106
   50CHL1  H12B 3659   6.594   2.454   5.361  0.3774 -0.6375 -0.5078
   50CHL1   C11 3660   6.549   2.621   5.236 -0.7100 -0.5080 -0.6902
   50CHL1  H11A 3661   6.510   2.724   5.250  0.1152 -0.2301 -0.3807
   50CHL1  H11B 3662   6.648   2.640   5.188 -0.3834  1.4020  0.6215
   50CHL1    C9 3663   6.458   2.539   5.146 -0.2558  0.2373  0.8556
   50CHL1    H9 3664   6.506   2.439   5.134 -1.3722 -0.0242 -2.1781
   50CHL1   C10 3665   6.441   2.598   4.998 -0.2674  0.1599 -0.6980
   50CHL1   C19 3666   6.427   2.751   5.013 -0.8081 -0.4771 -0.0411
   50CHL1  H19A 3667   6.350   2.766   5.091  0.4886 -0.8348  1.3386
   50CHL1  H19B 3668   6.529   2.791   5.032 -1.4912  0.9287  0.8306
   50CHL1  H19C 3669   6.400   2.796   4.915  0.8367  0.1866 -0.2201
   50CHL1    C1 3670   6.564   2.557   4.912 -0.5228  0.2712 -0.5913
   50CHL1   H1A 3671   6.659   2.600   4.949  0.7555 -1.7778 -1.3318
   50CHL1   H1B 3672   6.572   2.446   4.914 -2.6994  0.0484 -1.7583
   50CHL1    C2 3673   6.565   2.594   4.766  0.4623  0.5374 -0.1545
   50CHL1   H2A 3674   6.651   2.543   4.719  0.7690  1.1394 -0.2564
   50CHL1   H2B 3675   6.577   2.704   4.755  0.9135  0.2669 -3.2203
   50CHL1   C20 3676   6.469   2.499   5.705 -0.9757  0.1862  0.4509
   50CHL1   H20 3677   6.575   2.526   5.684 -1.3715  2.3401  0.9157
   50CHL1   C21 3678   6.475   2.376   5.803 -0.8548 -0.7203  0.4237
   50CHL1  H21A 3679   6.373   2.345   5.836 -1.9744  0.7651 -1.4373
   50CHL1  H21B 3680   6.542   2.395   5.890  0.5587 -2.6286 -0.1900
   50CHL1  H21C 3681   6.513   2.289   5.747  0.6465  2.4443 -3.9977
   50CHL1   C22 3682   6.410   2.621   5.780  0.8888  0.0115  0.6615
   50CHL1  H22A 3683   6.434   2.713   5.721  0.8574  0.0284  0.6752
   50CHL1  H22B 3684   6.300   2.613   5.773  0.7953  1.9803 -0.8482
   50CHL1   C23 3685   6.455   2.631   5.923 -0.7817 -0.1254  0.3831
   50CHL1  H23A 3686   6.429   2.539   5.980  0.2777 -0.9611 -0.4263
   50CHL1  H23B 3687   6.564   2.652   5.923 -1.1855  2.3550 -1.2054
   50CHL1   C24 3688   6.412   2.751   6.007  0.3467 -0.7495  0.0208
   50CHL1  H24A 3689   6.466   2.840   5.969  0.2047 -0.8152 -0.3457
   50CHL1  H24B 3690   6.304   2.775   5.997  0.6457  2.0486  2.2214
   50CHL1   C25 3691   6.445   2.727   6.152 -0.5605 -0.4136 -0.9033
   50CHL1   H25 3692   6.540   2.670   6.160 -0.8791 -0.7014  2.1872
   50CHL1   C26 3693   6.469   2.855   6.236 -0.3785 -0.0034 -0.4316
   50CHL1  H26A 3694   6.385   2.926   6.244 -0.8319 -0.5375 -0.3911
   50CHL1  H26B 3695   6.500   2.823   6.338 -0.8628  1.9208  0.3616
   50CHL1  H26C 3696   6.558   2.914   6.206 -0.8029  1.0757  0.3940
   50CHL1   C27 3697   6.337   2.636   6.230  0.3079 -0.1585 -0.2439
   50CHL1  H27A 3698   6.325   2.541   6.173  0.1720 -0.6449  0.5789
   50CHL1  H27B 3699   6.372   2.617   6.333 -2.4531 -0.2579  0.7465
   50CHL1  H27C 3700   6.235   2.679   6.239  0.0798 -0.6653 -0.3823
   51CHL1    C3 3701   4.802   3.506   4.281  0.0436 -0.3000  0.5306
   51CHL1    H3 3702   4.698   3.469   4.297  0.0004 -1.5893 -2.1295
   51CHL1    O3 3703   4.826   3.488   4.140 -0.6015 -0.5418 -0.8571
   51CHL1   H3' 3704   4.816   3.393   4.131 -1.5699 -0.7074  1.4006
   51CHL1    C4 3705   4.785   3.655   4.311  0.2194 -0.6147  0.4668
   51CHL1   H4A 3706   4.869   3.717   4.274 -1.2899  1.2154 -0.0768
   51CHL1   H4B 3707   4.704   3.697   4.248  1.3837 -0.4114 -0.9598
   51CHL1    C5 3708   4.762   3.685   4.461 -0.2909 -0.1929  0.0942
   51CHL1    C6 3709   4.657   3.756   4.505 -0.6210  0.3928  0.8000
   51CHL1    H6 3710   4.585   3.802   4.436 -0.1508  0.1306  0.1287
   51CHL1    C7 3711   4.617   3.783   4.649 -0.2272 -0.0647  0.1337
   51CHL1   H7A 3712   4.582   3.889   4.656  0.0952  0.0753 -0.3733
   51CHL1   H7B 3713   4.537   3.712   4.678 -0.1988  0.5920  1.9794
   51CHL1    C8 3714   4.733   3.753   4.741  0.3282 -0.3641 -1.0578
   51CHL1    H8 3715   4.816   3.826   4.730 -0.7263  0.7566 -1.8459
   51CHL1   C14 3716   4.687   3.745   4.884  0.1252  0.6419 -0.4764
   51CHL1   H14 3717   4.613   3.662   4.897 -1.2519  1.6271 -1.7162
   51CHL1   C15 3718   4.609   3.864   4.938  0.2699  0.4360 -0.2838
   51CHL1  H15A 3719   4.655   3.960   4.907  0.6680 -0.0654 -1.2651
   51CHL1  H15B 3720   4.508   3.857   4.893  0.3129  2.3952 -0.7595
   51CHL1   C16 3721   4.619   3.845   5.087 -0.2446  0.1222  0.3449
   51CHL1  H16A 3722   4.667   3.931   5.139  0.6522 -0.4885  0.5534
   51CHL1  H16B 3723   4.518   3.834   5.132  0.4327  2.9664  2.8957
   51CHL1   C17 3724   4.719   3.735   5.117  0.1873  0.6679  0.0464
   51CHL1   H17 3725   4.667   3.637   5.127  2.8891 -0.7510  1.1431
   51CHL1   C13 3726   4.801   3.713   4.992 -0.1309  0.3056  0.5684
   51CHL1   C18 3727   4.909   3.819   4.979 -0.2190 -1.0447 -0.6767
   51CHL1  H18A 3728   4.982   3.805   4.897  0.2314  0.3113 -0.5288
   51CHL1  H18B 3729   4.860   3.919   4.978  3.2322  0.8303  0.7795
   51CHL1  H18C 3730   4.965   3.827   5.074  1.3157  0.1267 -1.6305
   51CHL1   C12 3731   4.848   3.573   4.958 -0.6623  0.2248  0.0417
   51CHL1  H12A 3732   4.929   3.540   5.026 -0.1080  1.1686 -0.1417
   51CHL1  H12B 3733   4.768   3.496   4.964 -0.0062 -0.3283  3.0944
   51CHL1   C11 3734   4.894   3.559   4.811  0.0214  0.0080  0.4494
   51CHL1  H11A 3735   4.981   3.627   4.798  0.3869  0.1131  2.9381
   51CHL1  H11B 3736   4.914   3.450   4.795 -3.1102 -0.8074  1.3122
   51CHL1    C9 3737   4.793   3.612   4.704 -0.3056  0.3661 -0.4499
   51CHL1    H9 3738   4.705   3.544   4.710 -0.5146  0.7512  1.4461
   51CHL1   C10 3739   4.852   3.609   4.558 -0.1686  0.4576 -0.2431
   51CHL1   C19 3740   4.983   3.685   4.551  0.3733  0.2624  0.1604
   51CHL1  H19A 3741   5.062   3.648   4.620 -0.2837  0.0778  0.8164
   51CHL1  H19B 3742   5.015   3.670   4.445 -1.8452 -2.2252 -0.2709
   51CHL1  H19C 3743   4.975   3.796   4.549 -1.5614  0.1701 -2.2371
   51CHL1    C1 3744   4.874   3.462   4.518 -0.5485  0.3886  0.0910
   51CHL1   H1A 3745   4.961   3.431   4.580  0.4914  0.8145 -1.1161
   51CHL1   H1B 3746   4.776   3.411   4.532 -0.0512 -0.7319 -0.4456
   51CHL1    C2 3747   4.910   3.439   4.375 -0.1213  0.0174 -0.1038
   51CHL1   H2A 3748   4.909   3.330   4.357 -0.6331  0.0488 -0.2785
   51CHL1   H2B 3749   5.011   3.477   4.347 -0.9240  2.1563 -0.2928
   51CHL1   C20 3750   4.797   3.752   5.247  0.3568 -0.8148 -0.5610
   51CHL1   H20 3751   4.859   3.844   5.239  0.1841 -0.6953 -0.5272
   51CHL1   C21 3752   4.894   3.632   5.271 -0.3233  0.3074 -0.3445
   51CHL1  H21A 3753   4.845   3.532   5.270  2.4830 -1.1652 -0.5179
   51CHL1  H21B 3754   4.944   3.649   5.369  0.2533 -3.1398  0.1110
   51CHL1  H21C 3755   4.978   3.634   5.198 -0.0980 -0.0840 -0.1031
   51CHL1   C22 3756   4.695   3.775   5.361 -0.9696 -0.1332 -0.0164
   51CHL1  H22A 3757   4.626   3.858   5.333 -0.8741 -0.4567 -1.2564
   51CHL1  H22B 3758   4.641   3.679   5.373 -1.0148  0.0694  1.6427
   51CHL1   C23 3759   4.763   3.793   5.500 -0.4326  0.7153  0.3597
   51CHL1  H23A 3760   4.805   3.701   5.545 -0.0148  0.4667 -0.5349
   51CHL1  H23B 3761   4.846   3.867   5.495 -1.1740  1.7598  2.3430
   51CHL1   C24 3762   4.669   3.828   5.613 -0.4436  0.3289  0.3694
   51CHL1  H24A 3763   4.636   3.933   5.594 -0.1348  0.3558 -0.0260
   51CHL1  H24B 3764   4.585   3.756   5.600 -1.4922  1.3780  1.0565
   51CHL1   C25 3765   4.725   3.813   5.752  0.2227  0.6478  0.8765
   51CHL1   H25 3766   4.731   3.705   5.780 -2.3461  0.8441  2.5221
   51CHL1   C26 3767   4.858   3.885   5.775 -0.4294  0.3886 -0.3493
   51CHL1  H26A 3768   4.942   3.841   5.719  0.6984  0.5659  1.1275
   51CHL1  H26B 3769   4.841   3.990   5.743 -1.7620  0.7166  1.2494
   51CHL1  H26C 3770   4.887   3.871   5.882  4.3475 -1.1237 -1.5987
   51CHL1   C27 3771   4.623   3.864   5.852  0.1807  0.0165 -0.0100
   51CHL1  H27A 3772   4.665   3.867   5.955 -1.2721  1.2561  0.5863
   51CHL1  H27B 3773   4.590   3.963   5.814 -1.8888 -0.0685  1.4171
   51CHL1  H27C 3774   4.536   3.794   5.858 -0.0085  0.2025 -0.4862
   52CHL1    C3 3775   1.412   4.064   4.249 -0.4024  0.7552 -0.0386
   52CHL1    H3 3776   1.315   4.104   4.214 -1.2892 -1.4171 -0.2343
   52CHL1    O3 3777   1.500   4.019   4.141 -0.6006  0.4782 -0.0953
   52CHL1   H3' 3778   1.514   4.096   4.087 -0.8929  1.0735  0.6558
   52CHL1    C4 3779   1.485   4.169   4.338  0.2716 -0.5210  0.3448
   52CHL1   H4A 3780   1.590   4.136   4.354  1.2923  1.5989 -1.3929
   52CHL1   H4B 3781   1.489   4.251   4.263  0.5241 -1.4117 -0.6345
   52CHL1    C5 3782   1.422   4.211   4.468  0.2826 -0.2392  0.7784
   52CHL1    C6 3783   1.393   4.342   4.494  0.3653  0.1322 -0.6309
   52CHL1    H6 3784   1.415   4.423   4.423 -1.3651  0.6579 -0.6325
   52CHL1    C7 3785   1.322   4.389   4.616  0.5386  0.0692  0.1602
   52CHL1   H7A 3786   1.368   4.483   4.652  0.1703  0.9558 -1.5992
   52CHL1   H7B 3787   1.215   4.394   4.586 -0.6489 -2.2903  3.3571
   52CHL1    C8 3788   1.327   4.278   4.728 -1.0389  0.0965 -0.6552
   52CHL1    H8 3789   1.431   4.272   4.766 -1.1125  1.4822 -0.1558
   52CHL1   C14 3790   1.238   4.320   4.852  0.0743  0.4777  0.5236
   52CHL1   H14 3791   1.138   4.311   4.804  0.4120  0.2247 -0.1582
   52CHL1   C15 3792   1.252   4.462   4.908 -0.3732  0.0040  0.3801
   52CHL1  H15A 3793   1.360   4.474   4.934  0.1652 -0.0142 -1.7011
   52CHL1  H15B 3794   1.222   4.549   4.846  1.4885  0.8163  0.5505
   52CHL1   C16 3795   1.181   4.450   5.046  0.1692  0.2362 -0.7283
   52CHL1  H16A 3796   1.245   4.500   5.121 -1.2785  0.1406  0.6318
   52CHL1  H16B 3797   1.086   4.507   5.059 -1.2908 -2.2867  0.4150
   52CHL1   C17 3798   1.161   4.301   5.073  0.0884  0.6363  0.3820
   52CHL1   H17 3799   1.057   4.283   5.039  0.7007 -1.8266 -0.3251
   52CHL1   C13 3800   1.252   4.221   4.970  0.2832 -0.7580 -0.3036
   52CHL1   C18 3801   1.391   4.190   5.032  0.0920  0.5642  0.7146
   52CHL1  H18A 3802   1.459   4.176   4.946 -3.3535  1.5175 -2.4218
   52CHL1  H18B 3803   1.429   4.282   5.081  0.6143 -0.3863  2.1748
   52CHL1  H18C 3804   1.378   4.094   5.087 -0.4813  0.3399  0.1939
   52CHL1   C12 3805   1.193   4.090   4.916  0.3574  0.4459  0.4157
   52CHL1  H12A 3806   1.186   4.030   5.009  1.3964  0.8744  0.7874
   52CHL1  H12B 3807   1.091   4.105   4.874  0.5539 -0.6516 -0.4665
   52CHL1   C11 3808   1.282   4.031   4.808  0.3703  0.2193 -0.0819
   52CHL1  H11A 3809   1.384   3.997   4.833  0.7367  0.0917 -1.6460
   52CHL1  H11B 3810   1.238   3.936   4.771 -0.7277  0.8924 -0.5796
   52CHL1    C9 3811   1.294   4.132   4.681  0.3881 -0.2193 -0.4063
   52CHL1    H9 3812   1.189   4.142   4.647  0.3334 -0.9599 -0.4685
   52CHL1   C10 3813   1.389   4.094   4.561 -0.7074 -0.4822 -0.6716
   52CHL1   C19 3814   1.522   4.031   4.618 -0.6776  0.1458  0.6893
   52CHL1  H19A 3815   1.592   3.993   4.541 -0.4510  1.0961  0.4138
   52CHL1  H19B 3816   1.578   4.100   4.685 -0.9566  1.0058  0.0564
   52CHL1  H19C 3817   1.499   3.941   4.679  1.2006  0.1477  1.4721
   52CHL1    C1 3818   1.309   3.990   4.472  0.0270 -0.1759  0.0483
   52CHL1   H1A 3819   1.294   3.900   4.536  0.3972  0.6615  1.3542
   52CHL1   H1B 3820   1.221   4.045   4.435  1.5217  0.9298 -2.0856
   52CHL1    C2 3821   1.381   3.943   4.341 -0.4722 -0.2228  0.4759
   52CHL1   H2A 3822   1.312   3.883   4.277  0.4905  0.1935 -1.0142
   52CHL1   H2B 3823   1.466   3.872   4.354 -1.0316 -0.7765  1.2050
   52CHL1   C20 3824   1.175   4.251   5.221  0.3891  0.1137  0.4539
   52CHL1   H20 3825   1.193   4.142   5.213 -1.1297 -0.0096 -2.7573
   52CHL1   C21 3826   1.041   4.277   5.292  0.3178 -0.1934  0.0695
   52CHL1  H21A 3827   0.992   4.372   5.259 -0.9695 -1.2247 -1.1518
   52CHL1  H21B 3828   1.051   4.278   5.403 -1.5225 -3.6835  0.4051
   52CHL1  H21C 3829   0.958   4.209   5.264 -0.5347  0.0058  1.9764
   52CHL1   C22 3830   1.277   4.321   5.317 -0.2078  0.2464 -0.0398
   52CHL1  H22A 3831   1.372   4.342   5.263  1.4605 -2.8014  1.4955
   52CHL1  H22B 3832   1.238   4.424   5.338  1.5386  1.0461 -0.5526
   52CHL1   C23 3833   1.330   4.234   5.438 -0.2963  0.2829  0.5427
   52CHL1  H23A 3834   1.412   4.299   5.477 -0.4118  2.5753 -2.6004
   52CHL1  H23B 3835   1.247   4.233   5.512  0.9562  1.1436  2.0084
   52CHL1   C24 3836   1.391   4.093   5.408 -0.3667 -0.5738 -0.3938
   52CHL1  H24A 3837   1.312   4.024   5.370 -2.0839  1.0307  0.0985
   52CHL1  H24B 3838   1.461   4.091   5.322 -1.3709  0.3018 -1.2730
   52CHL1   C25 3839   1.456   4.029   5.531 -0.0532 -0.5935 -0.2566
   52CHL1   H25 3840   1.377   4.013   5.608 -0.2024  0.6908 -0.1171
   52CHL1   C26 3841   1.524   3.898   5.490  0.2689 -0.3376 -0.3346
   52CHL1  H26A 3842   1.584   3.850   5.571  0.5161  0.6785  0.1030
   52CHL1  H26B 3843   1.446   3.830   5.451 -1.1218  1.0710 -0.1300
   52CHL1  H26C 3844   1.595   3.905   5.405  1.0960  0.0586  0.3629
   52CHL1   C27 3845   1.560   4.115   5.597  0.0706  0.4817 -0.9787
   52CHL1  H27A 3846   1.647   4.131   5.530 -0.7300 -0.0324 -2.1645
   52CHL1  H27B 3847   1.511   4.208   5.634 -1.3795 -0.4509 -0.4692
   52CHL1  H27C 3848   1.606   4.067   5.686 -3.1533  1.0755  1.1748
   53CHL1    C3 3849   4.458   0.735   4.466 -0.8621 -0.0379  0.1480
   53CHL1    H3 3850   4.354   0.774   4.473 -1.0495 -0.8499  3.2562
   53CHL1    O3 3851   4.478   0.687   4.328  0.1772 -0.5143 -0.4894
   53CHL1   H3' 3852   4.418   0.748   4.283  0.4173  1.3422  1.5270
   53CHL1    C4 3853   4.560   0.845   4.500  0.0512  0.1358  0.0875
   53CHL1   H4A 3854   4.663   0.803   4.492 -0.0900 -0.5061  1.4143
   53CHL1   H4B 3855   4.546   0.924   4.424 -0.5618 -0.1050 -0.0585
   53CHL1    C5 3856   4.538   0.891   4.642  0.5878 -0.6038 -0.8231
   53CHL1    C6 3857   4.522   1.022   4.680  0.1109  0.8785  0.2438
   53CHL1    H6 3858   4.519   1.104   4.606  0.2333 -1.8038 -2.9684
   53CHL1    C7 3859   4.508   1.076   4.822  0.0162 -0.1145  0.4810
   53CHL1   H7A 3860   4.569   1.165   4.848  1.2403 -0.8974  0.3829
   53CHL1   H7B 3861   4.400   1.098   4.836 -0.1220 -0.5099  0.0455
   53CHL1    C8 3862   4.549   0.975   4.930 -0.3321  0.2308  0.0687
   53CHL1    H8 3863   4.660   0.973   4.929 -0.3354 -0.4833  0.5362
   53CHL1   C14 3864   4.494   1.014   5.071 -0.8219 -0.1988 -0.0413
   53CHL1   H14 3865   4.385   1.026   5.056 -0.8452 -0.3340  0.0209
   53CHL1   C15 3866   4.552   1.143   5.123  0.3653  0.4127  0.5942
   53CHL1  H15A 3867   4.662   1.154   5.131  0.4374  0.0415  0.1254
   53CHL1  H15B 3868   4.506   1.226   5.065 -2.0407 -1.1261  0.1483
   53CHL1   C16 3869   4.513   1.145   5.278 -0.5706 -0.5737 -0.4829
   53CHL1  H16A 3870   4.603   1.179   5.334 -1.4300  1.7809 -0.4425
   53CHL1  H16B 3871   4.431   1.220   5.286  0.1654  0.2727 -0.8277
   53CHL1   C17 3872   4.463   0.995   5.309 -0.6607 -0.1971  1.2896
   53CHL1   H17 3873   4.352   1.004   5.312 -0.6407 -0.0692  1.6218
   53CHL1   C13 3874   4.511   0.910   5.177 -0.3024  0.6888  0.4237
   53CHL1   C18 3875   4.656   0.878   5.202  0.6779  0.0249  0.6584
   53CHL1  H18A 3876   4.717   0.960   5.245  1.5756  0.5867 -1.5659
   53CHL1  H18B 3877   4.669   0.785   5.262  0.2064 -1.7126 -1.7683
   53CHL1  H18C 3878   4.713   0.856   5.109  0.8189  0.5585  0.6138
   53CHL1   C12 3879   4.432   0.778   5.137 -0.3329 -0.2353 -0.4997
   53CHL1  H12A 3880   4.421   0.707   5.221 -1.2444  0.7830  0.2585
   53CHL1  H12B 3881   4.328   0.812   5.119 -1.9173 -3.4279  1.6242
   53CHL1   C11 3882   4.486   0.725   5.012 -0.1476  0.1638  0.8767
   53CHL1  H11A 3883   4.581   0.674   5.039 -0.9681 -1.9525 -0.0566
   53CHL1  H11B 3884   4.416   0.647   4.976  1.3113 -1.0284  0.4804
   53CHL1    C9 3885   4.494   0.833   4.893  0.4245  0.3995  0.6664
   53CHL1    H9 3886   4.387   0.860   4.878  0.7350  1.1625 -0.2388
   53CHL1   C10 3887   4.542   0.775   4.755  0.0710  0.1233  0.6855
   53CHL1   C19 3888   4.692   0.736   4.774 -0.4072  0.4010 -0.4149
   53CHL1  H19A 3889   4.750   0.813   4.830  0.2966 -0.2479 -0.2486
   53CHL1  H19B 3890   4.702   0.644   4.835  3.7180 -0.4533 -2.0549
   53CHL1  H19C 3891   4.729   0.702   4.675  0.5284 -1.0510  0.4021
   53CHL1    C1 3892   4.458   0.652   4.711 -0.2543 -0.5530 -0.5388
   53CHL1   H1A 3893   4.469   0.564   4.778  1.5746  1.3479  1.8556
   53CHL1   H1B 3894   4.350   0.676   4.723  0.3201  2.5246 -0.5484
   53CHL1    C2 3895   4.482   0.616   4.564 -0.4474  1.0073 -0.3840
   53CHL1   H2A 3896   4.414   0.533   4.536  0.4704 -0.3904  1.3846
   53CHL1   H2B 3897   4.586   0.577   4.562  0.1686  2.5947 -0.8273
   53CHL1   C20 3898   4.501   0.949   5.451  0.1412  0.0954  0.8396
   53CHL1   H20 3899   4.610   0.930   5.457 -0.1805 -1.8518  1.1118
   53CHL1   C21 3900   4.432   0.816   5.482  0.8002 -0.3759 -0.4513
   53CHL1  H21A 3901   4.468   0.742   5.408  1.2374 -0.1320 -0.4842
   53CHL1  H21B 3902   4.321   0.824   5.477  0.4800 -2.2558  1.9012
   53CHL1  H21C 3903   4.459   0.781   5.584 -1.2943 -1.1835 -0.1144
   53CHL1   C22 3904   4.463   1.062   5.551 -0.0504  0.0825 -0.6501
   53CHL1  H22A 3905   4.528   1.152   5.544 -3.0806  2.7134  1.6815
   53CHL1  H22B 3906   4.356   1.085   5.534 -0.3981 -1.9563 -1.4235
   53CHL1   C23 3907   4.484   1.034   5.704 -0.7445  0.8234  0.0903
   53CHL1  H23A 3908   4.418   0.948   5.730  0.6211 -0.8694 -1.7228
   53CHL1  H23B 3909   4.587   0.999   5.726 -0.7298  0.0916 -1.0162
   53CHL1   C24 3910   4.446   1.153   5.794 -0.1158  0.6885 -0.3402
   53CHL1  H24A 3911   4.510   1.238   5.763 -1.8455  1.7279 -1.1999
   53CHL1  H24B 3912   4.339   1.182   5.787 -0.0821  1.0308  0.5113
   53CHL1   C25 3913   4.468   1.110   5.937 -0.4117  0.3834  0.0649
   53CHL1   H25 3914   4.566   1.062   5.957 -0.9993 -1.5907 -1.4313
   53CHL1   C26 3915   4.464   1.236   6.028  0.1827  0.4244  0.1724
   53CHL1  H26A 3916   4.369   1.291   6.010 -2.1005 -3.5574 -1.0144
   53CHL1  H26B 3917   4.459   1.212   6.137  1.4283  1.7483  0.5531
   53CHL1  H26C 3918   4.557   1.293   6.006  0.8023 -0.8809 -0.6880
   53CHL1   C27 3919   4.368   1.000   5.992 -0.0403  0.1806  0.7356
   53CHL1  H27A 3920   4.262   1.033   6.001  0.0215  0.5755  0.0810
   53CHL1  H27B 3921   4.367   0.901   5.941 -1.5888 -0.0535  1.1715
   53CHL1  H27C 3922   4.404   0.969   6.092 -0.8069  2.9986  1.9953
   54CHL1    C3 3923   3.280   4.108   4.283  0.1633  0.3538  0.2183
   54CHL1    H3 3924   3.188   4.162   4.315  2.0194  3.0275  1.3751
   54CHL1    O3 3925   3.304   4.120   4.145 -0.0444 -0.1441 -0.1651
   54CHL1   H3' 3926   3.393   4.086   4.131  0.0387 -1.1784  2.3795
   54CHL1    C4 3927   3.401   4.149   4.374  0.6376 -0.2642 -0.6506
   54CHL1   H4A 3928   3.494   4.109   4.328 -0.4582 -0.7941 -2.5131
   54CHL1   H4B 3929   3.407   4.258   4.354  0.8512 -0.3137 -0.8675
   54CHL1    C5 3930   3.389   4.132   4.523 -0.8370 -0.4133  0.3065
   54CHL1    C6 3931   3.398   4.228   4.605  0.5320  0.0421 -0.2043
   54CHL1    H6 3932   3.411   4.334   4.576  0.5924 -0.4532 -2.1615
   54CHL1    C7 3933   3.391   4.205   4.751 -0.3769  0.5229  0.2522
   54CHL1   H7A 3934   3.474   4.249   4.810  0.7581 -0.4727 -0.5405
   54CHL1   H7B 3935   3.288   4.242   4.768 -0.4115 -0.1597  1.6803
   54CHL1    C8 3936   3.391   4.052   4.792  0.1010  0.4059  0.9894
   54CHL1    H8 3937   3.496   4.016   4.787 -0.1901 -0.5368  1.4151
   54CHL1   C14 3938   3.330   4.039   4.926  0.6710  0.0054  0.3219
   54CHL1   H14 3939   3.227   4.081   4.916  1.6143  2.2352 -0.6785
   54CHL1   C15 3940   3.381   4.130   5.042 -0.7111 -0.2101  0.0122
   54CHL1  H15A 3941   3.492   4.128   5.032 -0.4138  0.2790  2.6409
   54CHL1  H15B 3942   3.347   4.235   5.047  0.7314  0.2143  2.4534
   54CHL1   C16 3943   3.342   4.061   5.174  0.1131 -0.4043 -0.1295
   54CHL1  H16A 3944   3.434   4.044   5.234 -0.0091 -0.2618  0.0961
   54CHL1  H16B 3945   3.274   4.124   5.234  0.5759 -0.6373  0.6494
   54CHL1   C17 3946   3.265   3.924   5.137  0.0090  0.3892  0.6842
   54CHL1   H17 3947   3.163   3.966   5.124 -0.7599 -0.8378  2.3303
   54CHL1   C13 3948   3.316   3.894   4.989 -0.3366  0.1309  0.0237
   54CHL1   C18 3949   3.453   3.831   5.011  0.6522  0.7237  0.7340
   54CHL1  H18A 3950   3.502   3.822   4.912 -1.9987 -0.4477 -0.5567
   54CHL1  H18B 3951   3.518   3.898   5.072  0.5294  0.4183  1.2102
   54CHL1  H18C 3952   3.447   3.728   5.054 -0.7454  0.7766  0.6987
   54CHL1   C12 3953   3.232   3.812   4.893 -0.2220 -0.3799 -0.0890
   54CHL1  H12A 3954   3.220   3.708   4.928 -2.0275 -0.6041 -1.2172
   54CHL1  H12B 3955   3.133   3.863   4.898 -0.8319 -1.6751  2.5561
   54CHL1   C11 3956   3.286   3.827   4.744 -0.6511  0.5420 -0.9538
   54CHL1  H11A 3957   3.385   3.778   4.747 -1.3247 -0.8591 -0.2099
   54CHL1  H11B 3958   3.234   3.756   4.676  1.7579 -0.3771 -1.9463
   54CHL1    C9 3959   3.306   3.972   4.694  0.2510 -0.3200 -0.3224
   54CHL1    H9 3960   3.209   4.026   4.691  1.3797  1.8218 -0.0101
   54CHL1   C10 3961   3.355   3.987   4.551  0.3235  0.3079  0.4215
   54CHL1   C19 3962   3.477   3.890   4.524  0.1058 -0.2619  0.5320
   54CHL1  H19A 3963   3.444   3.784   4.522 -0.9112  0.0288 -2.2796
   54CHL1  H19B 3964   3.530   3.905   4.427  0.1749 -0.2474  0.5712
   54CHL1  H19C 3965   3.549   3.890   4.610 -2.1473 -1.6260  2.5367
   54CHL1    C1 3966   3.237   3.936   4.463  0.1404  0.3209  1.0087
   54CHL1   H1A 3967   3.228   3.826   4.478  0.3640 -0.2262 -2.1688
   54CHL1   H1B 3968   3.140   3.988   4.477  1.2487  3.4219 -1.5160
   54CHL1    C2 3969   3.255   3.959   4.309  0.0472 -0.3082  0.0562
   54CHL1   H2A 3970   3.167   3.917   4.256 -0.5057  0.5446  0.2765
   54CHL1   H2B 3971   3.350   3.915   4.270  1.5354  3.0855 -0.4616
   54CHL1   C20 3972   3.257   3.815   5.245  0.2278  0.3457  0.8201
   54CHL1   H20 3973   3.358   3.776   5.271  0.0740 -1.7369 -1.3465
   54CHL1   C21 3974   3.164   3.702   5.198  0.2300  0.2003 -0.9825
   54CHL1  H21A 3975   3.137   3.640   5.286 -0.4990  0.8485 -0.7422
   54CHL1  H21B 3976   3.217   3.631   5.132  2.9306 -0.4336  1.6110
   54CHL1  H21C 3977   3.080   3.760   5.156  0.6989  1.2000 -0.5820
   54CHL1   C22 3978   3.207   3.871   5.381 -0.2846  0.0246  0.6290
   54CHL1  H22A 3979   3.281   3.945   5.416 -0.4755  1.8328 -2.4358
   54CHL1  H22B 3980   3.106   3.916   5.373  0.7224  2.2630 -0.1973
   54CHL1   C23 3981   3.207   3.764   5.497 -0.3327  0.3150  0.1022
   54CHL1  H23A 3982   3.118   3.698   5.494  0.8165 -1.2801 -0.0306
   54CHL1  H23B 3983   3.297   3.704   5.476  0.5451  2.3397 -2.5110
   54CHL1   C24 3984   3.208   3.837   5.637 -0.2346  0.5089  0.8464
   54CHL1  H24A 3985   3.307   3.886   5.639  0.1602 -0.2910  2.0081
   54CHL1  H24B 3986   3.124   3.909   5.633  0.5685  1.4014 -0.5509
   54CHL1   C25 3987   3.195   3.737   5.750 -0.0239  0.2887 -0.3287
   54CHL1   H25 3988   3.113   3.672   5.712  0.1523 -0.9019  1.2233
   54CHL1   C26 3989   3.314   3.638   5.765 -0.5362 -0.7211  0.5092
   54CHL1  H26A 3990   3.285   3.557   5.836 -4.0799  1.3875  1.7448
   54CHL1  H26B 3991   3.328   3.593   5.665 -1.7276  2.0448 -1.0020
   54CHL1  H26C 3992   3.409   3.689   5.791 -0.6435 -0.1232 -0.2544
   54CHL1   C27 3993   3.157   3.794   5.885 -0.5501  0.5796  0.3343
   54CHL1  H27A 3994   3.089   3.882   5.887  0.0974  1.1095 -0.2599
   54CHL1  H27B 3995   3.101   3.721   5.947 -0.7185  3.2303  3.5642
   54CHL1  H27C 3996   3.242   3.818   5.952 -1.1211  3.5410  0.1523
   55CHL1    C3 3997   0.962   3.158   4.465 -0.1062  0.4074  0.4428
   55CHL1    H3 3998   0.871   3.094   4.460  0.2682 -0.2423  1.6772
   55CHL1    O3 3999   1.003   3.189   4.332 -0.0245  0.3095  0.4109
   55CHL1   H3' 4000   1.096   3.211   4.331 -0.0222  0.6077  2.7998
   55CHL1    C4 4001   0.923   3.289   4.528  0.1597 -0.3064 -0.6424
   55CHL1   H4A 4002   1.015   3.351   4.521  0.9874 -1.5474 -1.0490
   55CHL1   H4B 4003   0.849   3.347   4.469  2.3578  2.8871 -0.5246
   55CHL1    C5 4004   0.890   3.281   4.674 -0.4843 -0.0623  0.3843
   55CHL1    C6 4005   0.780   3.328   4.730 -0.0665 -0.1521 -0.0996
   55CHL1    H6 4006   0.695   3.377   4.680 -2.2532 -1.2101  2.3775
   55CHL1    C7 4007   0.745   3.317   4.874 -0.0609  0.1769  1.1160
   55CHL1   H7A 4008   0.701   3.414   4.902  1.2669  1.5173 -1.0782
   55CHL1   H7B 4009   0.668   3.238   4.887  0.2282 -0.1351  0.9801
   55CHL1    C8 4010   0.875   3.287   4.962 -0.0558 -0.1563  0.1612
   55CHL1    H8 4011   0.933   3.381   4.960 -1.0701  0.6549 -4.6346
   55CHL1   C14 4012   0.832   3.245   5.104 -0.9568  0.5678  0.0247
   55CHL1   H14 4013   0.783   3.148   5.080  1.1350 -0.1228 -1.7987
   55CHL1   C15 4014   0.744   3.348   5.181 -0.4522  0.6215 -0.4066
   55CHL1  H15A 4015   0.797   3.444   5.167 -0.3516  0.9628  1.9911
   55CHL1  H15B 4016   0.639   3.346   5.146 -0.2882 -1.0836 -0.9118
   55CHL1   C16 4017   0.759   3.301   5.327  0.1131  0.2326  0.0464
   55CHL1  H16A 4018   0.788   3.392   5.382  0.7447  0.0804 -0.0343
   55CHL1  H16B 4019   0.679   3.251   5.387  2.6171 -0.4747  3.0984
   55CHL1   C17 4020   0.871   3.197   5.329 -0.5095 -0.2136 -0.0472
   55CHL1   H17 4021   0.821   3.099   5.314 -1.4184  0.3896 -1.1114
   55CHL1   C13 4022   0.944   3.216   5.200 -0.0015  0.1367 -0.2926
   55CHL1   C18 4023   1.031   3.344   5.214 -0.1204  0.0208 -0.4636
   55CHL1  H18A 4024   1.055   3.400   5.122 -1.6651  1.4811 -0.0394
   55CHL1  H18B 4025   0.981   3.412   5.287  1.8522  1.9485 -0.8011
   55CHL1  H18C 4026   1.132   3.319   5.252  1.5419  1.8642 -3.2963
   55CHL1   C12 4027   1.025   3.100   5.136  0.0359 -0.0492  0.2279
   55CHL1  H12A 4028   1.115   3.070   5.195 -0.7980  1.1472  2.2378
   55CHL1  H12B 4029   0.968   3.005   5.127  1.3315 -0.7199 -1.1595
   55CHL1   C11 4030   1.069   3.133   4.993  0.3379 -0.2094  1.0062
   55CHL1  H11A 4031   1.142   3.217   4.993  0.0221  0.0865 -0.2459
   55CHL1  H11B 4032   1.122   3.042   4.958  0.4887  0.3645 -0.3432
   55CHL1    C9 4033   0.956   3.175   4.898  0.4410  0.4334 -0.9382
   55CHL1    H9 4034   0.888   3.087   4.891  1.2656 -0.1553 -1.7414
   55CHL1   C10 4035   1.002   3.200   4.757  0.2876  0.2726  0.2416
   55CHL1   C19 4036   1.124   3.289   4.773 -0.8245  0.2715 -0.3604
   55CHL1  H19A 4037   1.111   3.379   4.836  0.4928 -0.5312  1.1260
   55CHL1  H19B 4038   1.215   3.237   4.811  0.8304  2.0112 -1.7124
   55CHL1  H19C 4039   1.150   3.318   4.668  1.7523 -1.9340 -0.4528
   55CHL1    C1 4040   1.026   3.061   4.690 -0.5207 -0.3476  0.1921
   55CHL1   H1A 4041   1.107   3.004   4.742  0.8086  3.2640  2.4741
   55CHL1   H1B 4042   0.935   2.997   4.694 -1.6342  0.9673 -2.0144
   55CHL1    C2 4043   1.067   3.078   4.545  0.0183  0.1380 -0.3845
   55CHL1   H2A 4044   1.086   2.983   4.492 -0.1648 -0.2388  0.2177
   55CHL1   H2B 4045   1.162   3.134   4.531 -0.5944  0.7834 -2.3620
   55CHL1   C20 4046   0.949   3.195   5.460 -0.6030 -0.6699 -0.2292
   55CHL1   H20 4047   1.020   3.280   5.465  1.4764 -2.3147 -0.7114
   55CHL1   C21 4048   1.040   3.069   5.453  0.4531  0.0284  0.1104
   55CHL1  H21A 4049   1.069   3.035   5.555  0.6045  1.4441  0.5697
   55CHL1  H21B 4050   1.133   3.082   5.394  0.6223  0.0264  0.3725
   55CHL1  H21C 4051   0.984   2.984   5.410 -0.8257 -1.3274  3.9727
   55CHL1   C22 4052   0.851   3.197   5.582 -0.1324  0.3473 -0.1054
   55CHL1  H22A 4053   0.777   3.278   5.567 -0.1090  0.2528 -0.7489
   55CHL1  H22B 4054   0.798   3.099   5.574 -0.4245  0.5734 -1.0739
   55CHL1   C23 4055   0.921   3.209   5.717  0.8341 -0.0472 -0.5516
   55CHL1  H23A 4056   0.836   3.189   5.787  0.3056 -2.0667 -1.6903
   55CHL1  H23B 4057   0.993   3.126   5.730  4.0115  2.6352  0.2598
   55CHL1   C24 4058   0.998   3.340   5.752 -0.2068  0.5384  0.4407
   55CHL1  H24A 4059   1.082   3.356   5.681 -0.2562  1.1462  0.5130
   55CHL1  H24B 4060   0.931   3.427   5.734  0.6445  0.9880 -0.6390
   55CHL1   C25 4061   1.066   3.333   5.889 -0.0593 -0.0790 -0.1789
   55CHL1   H25 4062   0.996   3.320   5.974 -2.1822 -0.2463 -1.8726
   55CHL1   C26 4063   1.170   3.227   5.894  0.1490 -0.1170  0.8760
   55CHL1  H26A 4064   1.114   3.131   5.902 -0.9475  0.3962 -0.3374
   55CHL1  H26B 4065   1.232   3.212   5.802 -1.3039 -3.5995  0.2842
   55CHL1  H26C 4066   1.240   3.234   5.980  0.4809  3.1083  0.4395
   55CHL1   C27 4067   1.125   3.476   5.924 -0.1102  0.6974 -0.2349
   55CHL1  H27A 4068   1.182   3.479   6.020  0.9754  0.4694 -0.8479
   55CHL1  H27B 4069   1.185   3.513   5.838  0.2115  0.5891 -0.0584
   55CHL1  H27C 4070   1.033   3.535   5.946  0.4666  1.9238 -0.9578
   56CHL1    C3 4071   2.592   2.631   4.392 -0.4187 -0.7279  0.2546
   56CHL1    H3 4072   2.497   2.660   4.443 -1.0806 -2.4673  0.0553
   56CHL1    O3 4073   2.590   2.690   4.263  0.1678  0.1166  0.0720
   56CHL1   H3' 4074   2.674   2.659   4.228  0.3434  2.0017 -1.3676
   56CHL1    C4 4075   2.706   2.687   4.479  1.0633  0.9065 -0.4157
   56CHL1   H4A 4076   2.797   2.651   4.428  0.8328  0.7888 -0.7473
   56CHL1   H4B 4077   2.712   2.797   4.493 -0.1801  0.7607  1.8345
   56CHL1    C5 4078   2.711   2.617   4.617  0.6553 -0.1286 -0.0488
   56CHL1    C6 4079   2.697   2.683   4.737  0.3579  0.4637  0.1510
   56CHL1    H6 4080   2.688   2.792   4.731  0.5861  0.5328  0.9418
   56CHL1    C7 4081   2.704   2.622   4.876  0.3888  1.0058 -0.0921
   56CHL1   H7A 4082   2.778   2.677   4.938  3.1253  0.1912 -2.4088
   56CHL1   H7B 4083   2.613   2.633   4.938 -0.1221 -1.2228 -0.3671
   56CHL1    C8 4084   2.749   2.471   4.866  0.1427  0.4205  0.7282
   56CHL1    H8 4085   2.857   2.457   4.843 -0.0469  1.0970 -0.6510
   56CHL1   C14 4086   2.716   2.408   4.999 -0.3051 -0.5262 -0.5603
   56CHL1   H14 4087   2.606   2.406   5.011 -0.3986 -1.2195 -1.4893
   56CHL1   C15 4088   2.762   2.479   5.123 -0.0785  0.0156  0.2472
   56CHL1  H15A 4089   2.862   2.526   5.106 -0.1792  0.3324  0.5272
   56CHL1  H15B 4090   2.698   2.565   5.151  0.7691  0.7923 -0.1490
   56CHL1   C16 4091   2.758   2.375   5.230  0.0133  0.2887 -0.7307
   56CHL1  H16A 4092   2.858   2.365   5.279  0.5540 -0.9102 -2.0073
   56CHL1  H16B 4093   2.681   2.396   5.308  2.3167 -1.6082  2.2881
   56CHL1   C17 4094   2.719   2.240   5.158 -0.3317  0.1683 -0.0593
   56CHL1   H17 4095   2.608   2.233   5.161 -0.3031 -0.3691 -0.1124
   56CHL1   C13 4096   2.755   2.257   5.012  0.5515  0.3121 -0.1892
   56CHL1   C18 4097   2.906   2.244   4.986 -1.2314  0.2438  0.0879
   56CHL1  H18A 4098   2.968   2.309   5.052  0.9782  0.4118 -2.0340
   56CHL1  H18B 4099   2.932   2.138   5.005 -1.0014  0.5478  1.6741
   56CHL1  H18C 4100   2.935   2.267   4.882  0.9256 -2.5186 -0.0350
   56CHL1   C12 4101   2.671   2.193   4.900 -0.0515  0.6120  0.1164
   56CHL1  H12A 4102   2.663   2.082   4.906 -1.6471  0.7821  2.4167
   56CHL1  H12B 4103   2.565   2.215   4.927  0.4217  1.6494  1.2215
   56CHL1   C11 4104   2.695   2.243   4.754  0.8932 -0.1229 -0.5719
   56CHL1  H11A 4105   2.798   2.218   4.721  1.0197 -0.6953  0.2373
   56CHL1  H11B 4106   2.616   2.208   4.685 -0.9983  0.1111  1.3826
   56CHL1    C9 4107   2.676   2.398   4.752 -0.1809  0.3159  0.5656
   56CHL1    H9 4108   2.573   2.429   4.780  0.3277  0.7071  2.0806
   56CHL1   C10 4109   2.704   2.461   4.611 -0.3285 -0.3345 -0.0363
   56CHL1   C19 4110   2.836   2.416   4.554 -0.1248  0.3216  0.1343
   56CHL1  H19A 4111   2.845   2.456   4.450  0.7558 -0.4287 -0.0954
   56CHL1  H19B 4112   2.916   2.457   4.619 -0.7696  1.9261 -0.0329
   56CHL1  H19C 4113   2.850   2.308   4.532 -1.3704  0.2742 -0.5413
   56CHL1    C1 4114   2.587   2.422   4.514  0.8005 -0.3421  0.7747
   56CHL1   H1A 4115   2.584   2.312   4.496  0.4594 -0.4525  1.4881
   56CHL1   H1B 4116   2.491   2.452   4.562 -0.2489  0.2107 -1.5110
   56CHL1    C2 4117   2.593   2.481   4.376  0.5205 -0.2264  0.0688
   56CHL1   H2A 4118   2.498   2.460   4.322  0.2114  0.0454  0.5005
   56CHL1   H2B 4119   2.675   2.440   4.314  0.6274 -0.0247  0.0780
   56CHL1   C20 4120   2.772   2.121   5.234  0.1259 -0.6454  0.2429
   56CHL1   H20 4121   2.883   2.118   5.236  0.1632  0.2173  2.6636
   56CHL1   C21 4122   2.733   1.985   5.176  0.5097  0.2302  0.0294
   56CHL1  H21A 4123   2.622   1.976   5.171  0.6708 -1.8838 -0.9207
   56CHL1  H21B 4124   2.777   1.912   5.246  2.5227  1.4240  0.0676
   56CHL1  H21C 4125   2.773   1.963   5.074  2.5118 -2.0141  1.2031
   56CHL1   C22 4126   2.730   2.135   5.384 -0.2727 -0.7159  0.2521
   56CHL1  H22A 4127   2.730   2.236   5.431 -1.1214 -1.1967  1.3281
   56CHL1  H22B 4128   2.621   2.115   5.390 -0.2739 -0.6976  0.2918
   56CHL1   C23 4129   2.809   2.042   5.484  1.1126  0.5269  0.1903
   56CHL1  H23A 4130   2.814   1.940   5.440  0.8565  0.5425  0.1282
   56CHL1  H23B 4131   2.905   2.095   5.502  0.2643  1.8555  0.9527
   56CHL1   C24 4132   2.736   2.034   5.617 -0.3621  0.0815 -0.7162
   56CHL1  H24A 4133   2.683   2.130   5.630  2.5163  1.5131  1.5397
   56CHL1  H24B 4134   2.662   1.952   5.624  0.1952 -0.4569 -0.9197
   56CHL1   C25 4135   2.834   2.011   5.731  0.4286  0.1810 -0.8277
   56CHL1   H25 4136   2.897   2.102   5.736 -0.0354  0.4416  0.6566
   56CHL1   C26 4137   2.752   2.004   5.866  0.4974  0.1759  0.1044
   56CHL1  H26A 4138   2.822   1.986   5.951 -0.3045 -0.0997  0.7154
   56CHL1  H26B 4139   2.690   2.094   5.883 -0.4588 -0.1914 -1.2921
   56CHL1  H26C 4140   2.680   1.920   5.861  0.7721 -0.0647  0.1530
   56CHL1   C27 4141   2.914   1.879   5.708  0.5953 -0.9276 -0.7472
   56CHL1  H27A 4142   2.972   1.850   5.798  1.0416  2.1979  0.1080
   56CHL1  H27B 4143   2.844   1.798   5.678 -2.1960  1.0237  0.1232
   56CHL1  H27C 4144   2.992   1.900   5.631 -0.5551  3.8599 -0.9057
   57SAPC     N 4145   4.394   3.577   8.418 -0.0544 -0.6404 -0.1614
   57SAPC   C12 4146   4.480   3.540   8.298  0.2218  0.4004 -0.1462
   57SAPC  H12A 4147   4.582   3.538   8.332  0.1517  0.0711  0.0464
   57SAPC  H12B 4148   4.467   3.623   8.229  0.2978  0.7735  0.2841
   57SAPC   C13 4149   4.422   3.720   8.455 -0.1934  0.0982  0.1615
   57SAPC  H13A 4150   4.520   3.728   8.501 -0.2197 -0.2763  0.2848
   57SAPC  H13B 4151   4.421   3.778   8.364 -0.7480  0.0405  0.1272
   57SAPC  H13C 4152   4.344   3.766   8.514  0.1602  0.3124  0.4748
   57SAPC   C14 4153   4.240   3.565   8.405  0.2982  0.4330 -0.0120
   57SAPC  H14A 4154   4.182   3.584   8.494 -1.1297 -3.2779  0.0400
   57SAPC  H14B 4155   4.202   3.622   8.321 -2.3965 -1.2425 -0.0682
   57SAPC  H14C 4156   4.223   3.463   8.376 -0.0691  0.1508  1.1578
   57SAPC   C15 4157   4.438   3.498   8.538  0.2490 -0.2819  0.0796
   57SAPC  H15A 4158   4.376   3.520   8.623 -1.6655 -2.0391 -0.7600
   57SAPC  H15B 4159   4.431   3.397   8.500 -0.0773  0.5110 -2.1815
   57SAPC  H15C 4160   4.542   3.502   8.565  0.6599 -0.7251 -1.3379
   57SAPC   C11 4161   4.444   3.400   8.227 -0.5625  0.0260  0.2582
   57SAPC  H11A 4162   4.485   3.402   8.124 -1.1420  1.1166  0.0300
   57SAPC  H11B 4163   4.334   3.394   8.213 -0.3515 -0.8969 -1.1716
   57SAPC     P 4164   4.644   3.274   8.326 -0.3025  0.2073 -0.0591
   57SAPC   O13 4165   4.696   3.361   8.429 -0.6029  0.6636  0.3387
   57SAPC   O14 4166   4.675   3.129   8.344 -0.4090 -0.3299 -0.4558
   57SAPC   O12 4167   4.487   3.299   8.313 -0.1673  1.0809  0.2148
   57SAPC   O11 4168   4.707   3.322   8.191  0.0554 -0.3423  0.3443
   57SAPC    C1 4169   4.841   3.271   8.155 -0.1546  0.0976  0.1060
   57SAPC    HA 4170   4.899   3.360   8.123  0.0289 -0.1119 -0.1470
   57SAPC    HB 4171   4.901   3.254   8.247 -1.2451  0.2108  0.8682
   57SAPC    C2 4172   4.834   3.155   8.057  0.1339 -0.1077 -0.5995
   57SAPC    HS 4173   4.801   3.068   8.119  0.4045  0.2143  0.0101
   57SAPC   O21 4174   4.968   3.137   8.008 -0.0863  0.7378 -0.0601
   57SAPC   C21 4175   5.018   3.017   8.014 -0.4730  0.6420 -0.1612
   57SAPC   O22 4176   4.952   2.916   8.051 -0.4143 -0.1786 -0.1957
   57SAPC   C22 4177   5.161   3.017   7.962  0.6804  0.0077 -0.5268
   57SAPC   H2R 4178   5.185   3.121   7.933  1.7470 -0.8742 -3.0800
   57SAPC   H2S 4179   5.232   2.984   8.041 -1.0389 -1.0623  0.6193
   57SAPC    C3 4180   4.734   3.182   7.945  0.4842  0.0539 -0.0354
   57SAPC    HX 4181   4.771   3.277   7.900  2.1876  0.9603  2.9870
   57SAPC    HY 4182   4.631   3.203   7.983  0.0544  2.6503 -2.3218
   57SAPC   O31 4183   4.724   3.080   7.847  0.3848  0.8192 -0.3505
   57SAPC   C31 4184   4.672   2.960   7.897 -0.1214 -0.8163 -0.4474
   57SAPC   O32 4185   4.608   2.957   8.001 -0.0990  0.0094 -0.2916
   57SAPC   C32 4186   4.703   2.841   7.799 -0.0709 -0.0438 -0.8037
   57SAPC   H2X 4187   4.813   2.831   7.808 -0.2238 -3.7844 -1.3491
   57SAPC   H2Y 4188   4.675   2.888   7.702  2.5050 -1.8708 -2.5616
   57SAPC   C23 4189   5.171   2.935   7.824 -0.3146 -0.0199 -0.1272
   57SAPC   H3R 4190   5.138   2.830   7.834  0.4240 -0.2680 -0.2178
   57SAPC   H3S 4191   5.278   2.935   7.793 -0.4574 -0.3613 -0.6430
   57SAPC   C24 4192   5.084   3.001   7.718  0.2771 -0.3965 -0.6410
   57SAPC   H4R 4193   5.110   3.109   7.732  0.1893 -0.7768  3.7749
   57SAPC   H4S 4194   4.977   2.981   7.738 -1.1394  3.5472 -2.8748
   57SAPC   C25 4195   5.117   2.959   7.586 -0.4969 -0.4848  0.9979
   57SAPC   H5R 4196   5.216   2.989   7.548 -0.3506 -3.6444 -1.5429
   57SAPC   C26 4197   5.042   2.901   7.491 -0.5862  0.3765 -0.2765
   57SAPC   H6R 4198   5.099   2.877   7.400 -1.5469 -0.9717 -0.5627
   57SAPC   C27 4199   4.903   2.839   7.494  0.3838 -0.1205  0.9043
   57SAPC   H7R 4200   4.864   2.835   7.598 -0.2948 -0.8239  0.6362
   57SAPC   H7S 4201   4.901   2.735   7.455 -0.7100  0.7556 -1.5945
   57SAPC   C28 4202   4.809   2.929   7.417 -0.5411 -0.3154 -0.0386
   57SAPC   H8R 4203   4.754   2.999   7.482 -0.0740 -0.5466  0.6222
   57SAPC   C29 4204   4.799   2.946   7.284 -0.4080 -0.0442  0.2630
   57SAPC   H9R 4205   4.725   3.015   7.242  0.1044  0.0921 -0.4277
   57SAPC  C210 4206   4.883   2.884   7.170 -0.2593  0.3143 -0.3542
   57SAPC  H10R 4207   4.984   2.876   7.215 -0.1809  0.9509 -0.4080
   57SAPC  H10S 4208   4.903   2.952   7.084 -1.6436  3.0778  1.3510
   57SAPC  C211 4209   4.829   2.747   7.134 -0.4881  0.0724  0.5125
   57SAPC  H11R 4210   4.834   2.668   7.210  0.4371 -1.8529 -1.4587
   57SAPC  C212 4211   4.803   2.703   7.008  0.4420 -1.2322 -0.1728
   57SAPC  H12R 4212   4.776   2.598   6.993  1.1449 -1.3426 -0.7063
   57SAPC  C213 4213   4.790   2.801   6.892  0.8003  0.7102  0.8445
   57SAPC  H13R 4214   4.896   2.811   6.859  1.7042 -0.9191  3.0270
   57SAPC  H13S 4215   4.750   2.898   6.929 -0.4027  1.3577 -1.8694
   57SAPC  C214 4216   4.704   2.754   6.772  0.0592  0.3660 -0.1985
   57SAPC  H14R 4217   4.616   2.702   6.811 -0.1938 -0.2007 -1.4865
   57SAPC  C215 4218   4.733   2.778   6.648  0.3452  0.7394 -0.3204
   57SAPC  H15R 4219   4.659   2.737   6.578  1.7574  1.5675 -2.3895
   57SAPC  C216 4220   4.845   2.849   6.585  0.8590  0.7832  0.5835
   57SAPC  H16R 4221   4.942   2.796   6.578  0.2897 -0.0549 -1.5443
   57SAPC  H16S 4222   4.870   2.945   6.637  1.6156  0.7710  0.2517
   57SAPC  C217 4223   4.801   2.908   6.445  0.2207 -0.4077  0.1198
   57SAPC  H17R 4224   4.707   2.966   6.454  0.1809 -0.6001  1.0858
   57SAPC  H17S 4225   4.781   2.822   6.376 -1.9758  1.2602 -1.4453
   57SAPC  C218 4226   4.906   3.000   6.378  0.6501  0.0381 -0.2594
   57SAPC  H18R 4227   4.989   2.930   6.353  0.2340 -1.9789  3.2664
   57SAPC  H18S 4228   4.957   3.069   6.448 -0.4829  2.0520 -1.3316
   57SAPC  C219 4229   4.871   3.070   6.254 -0.0904 -0.5073 -0.2852
   57SAPC  H19R 4230   4.779   3.134   6.257  0.2682 -0.0132  0.3909
   57SAPC  H19S 4231   4.860   3.001   6.168  1.0839 -0.1651 -0.7306
   57SAPC  C220 4232   4.990   3.158   6.213 -0.2841  0.3849 -0.2318
   57SAPC  H20R 4233   5.082   3.109   6.251 -1.5199  1.1556  4.2658
   57SAPC  H20S 4234   4.984   3.259   6.259 -0.6143  1.1555 -1.8800
   57SAPC  H20T 4235   4.985   3.156   6.102  0.6642 -0.9413 -0.2694
   57SAPC   C33 4236   4.631   2.709   7.835  0.3198 -0.0029  0.2180
   57SAPC   H3X 4237   4.522   2.731   7.836  0.2906 -0.0515  1.8712
   57SAPC   H3Y 4238   4.668   2.667   7.931 -1.9711  2.5172  2.3864
   57SAPC   C34 4239   4.646   2.604   7.725  0.0351 -0.3046  0.2918
   57SAPC   H4X 4240   4.625   2.502   7.766  0.1183  0.0413  1.2166
   57SAPC   H4Y 4241   4.755   2.614   7.707 -0.3310  1.9466 -1.0303
   57SAPC   C35 4242   4.567   2.632   7.592 -0.1538 -0.7776 -0.0207
   57SAPC   H5X 4243   4.593   2.730   7.546 -2.1672  1.5152  3.3224
   57SAPC   H5Y 4244   4.461   2.637   7.624 -0.1675 -1.6059  0.0738
   57SAPC   C36 4245   4.599   2.521   7.488  0.2411 -0.0551  0.6123
   57SAPC   H6X 4246   4.549   2.429   7.525  0.8899 -1.4146 -1.6979
   57SAPC   H6Y 4247   4.709   2.512   7.475  0.3296  0.3501  1.0299
   57SAPC   C37 4248   4.542   2.556   7.349 -0.1748 -0.4858  0.3653
   57SAPC   H7X 4249   4.595   2.646   7.310 -0.0920 -1.3562 -1.6666
   57SAPC   H7Y 4250   4.437   2.592   7.353 -0.0676 -0.1722  0.4239
   57SAPC   C38 4251   4.558   2.441   7.243  0.2081  0.2795  0.3899
   57SAPC   H8X 4252   4.508   2.346   7.270 -1.4259  0.0483 -2.9025
   57SAPC   H8Y 4253   4.666   2.421   7.227  0.7249  2.3249  1.0172
   57SAPC   C39 4254   4.512   2.484   7.098  0.9217 -0.1220  0.1003
   57SAPC   H9X 4255   4.567   2.429   7.018 -0.0013 -0.3560 -0.3828
   57SAPC   H9Y 4256   4.524   2.593   7.082 -0.7673  0.0539 -0.1143
   57SAPC  C310 4257   4.363   2.443   7.082 -0.0736 -0.6212 -0.2262
   57SAPC  H10X 4258   4.315   2.449   7.182  2.6963  1.7196  1.1219
   57SAPC  H10Y 4259   4.359   2.338   7.045 -0.0440 -0.4813 -0.6267
   57SAPC  C311 4260   4.293   2.526   6.975  0.6754 -0.8637 -0.7110
   57SAPC  H11X 4261   4.312   2.634   6.995 -1.9499 -0.4750 -0.0094
   57SAPC  H11Y 4262   4.183   2.515   6.984  0.5758 -0.8627 -1.8211
   57SAPC  C312 4263   4.328   2.483   6.835 -0.2695  0.0113 -0.4950
   57SAPC  H12X 4264   4.330   2.373   6.819  1.8006 -0.0161 -0.2587
   57SAPC  H12Y 4265   4.429   2.516   6.805  0.6239 -2.0006  0.1740
   57SAPC  C313 4266   4.232   2.544   6.729  0.1779  0.5030  0.5071
   57SAPC  H13X 4267   4.140   2.578   6.782 -2.2063 -3.6979 -0.4685
   57SAPC  H13Y 4268   4.194   2.469   6.656  1.5256  1.2432 -1.0105
   57SAPC  C314 4269   4.293   2.665   6.646  0.3949  0.6061  0.0997
   57SAPC  H14X 4270   4.360   2.731   6.704 -0.1804  2.9185 -1.7395
   57SAPC  H14Y 4271   4.214   2.730   6.603 -0.0343  0.3465  0.4893
   57SAPC  C315 4272   4.374   2.616   6.528 -0.2072 -0.1931  0.2105
   57SAPC  H15X 4273   4.315   2.532   6.487 -0.2089  0.6632 -1.6296
   57SAPC  H15Y 4274   4.477   2.590   6.561  0.0399  0.8179  0.2679
   57SAPC  C316 4275   4.403   2.718   6.419 -0.5188  0.5034  0.4538
   57SAPC  H16X 4276   4.474   2.799   6.448  0.2577  0.2763 -0.7513
   57SAPC  H16Y 4277   4.310   2.768   6.385 -1.3032  0.3762  2.2526
   57SAPC  C317 4278   4.455   2.644   6.297 -0.3031  0.0084  0.2555
   57SAPC  H17X 4279   4.375   2.576   6.260 -0.0496 -1.5279  2.3206
   57SAPC  H17Y 4280   4.532   2.570   6.329  1.3132  0.7805 -1.6635
   57SAPC  C318 4281   4.496   2.728   6.179 -0.4667  0.4310  0.1644
   57SAPC  H18X 4282   4.431   2.817   6.167  1.5490  2.0582  0.7143
   57SAPC  H18Y 4283   4.508   2.668   6.086  1.5031  1.2656 -0.1703
   57SAPC  H18Z 4284   4.600   2.762   6.198 -0.6844  0.3921  1.5355
   58SAPC     N 4285   4.992   2.364   8.530  0.6083  0.0725  0.4417
   58SAPC   C12 4286   5.032   2.474   8.616 -0.4485  0.2357  0.4878
   58SAPC  H12A 4287   5.049   2.429   8.712  0.7880 -1.0725 -0.3086
   58SAPC  H12B 4288   4.952   2.547   8.615  0.5615  1.4075 -0.7718
   58SAPC   C13 4289   4.990   2.404   8.385  0.0065  0.4204  0.3076
   58SAPC  H13A 4290   4.935   2.493   8.360 -1.1220 -1.2471 -4.0233
   58SAPC  H13B 4291   5.094   2.412   8.355  0.2778 -2.4852  0.1855
   58SAPC  H13C 4292   4.944   2.332   8.319 -0.2257 -0.1531  1.0733
   58SAPC   C14 4293   5.082   2.241   8.544  0.3272 -0.2174 -0.5632
   58SAPC  H14A 4294   5.055   2.163   8.475 -1.8083  0.2151 -0.2879
   58SAPC  H14B 4295   5.185   2.274   8.542  0.3554 -0.3274 -2.4502
   58SAPC  H14C 4296   5.052   2.203   8.640 -2.2522 -0.2901 -1.3308
   58SAPC   C15 4297   4.851   2.327   8.557 -0.2893 -0.3399 -0.0526
   58SAPC  H15A 4298   4.846   2.272   8.650 -1.4906 -0.6674 -0.2959
   58SAPC  H15B 4299   4.795   2.419   8.567 -3.2139 -2.0019  0.0784
   58SAPC  H15C 4300   4.797   2.274   8.480 -0.3263  0.2020 -0.4054
   58SAPC   C11 4301   5.164   2.541   8.568  0.1449 -0.2001 -0.6959
   58SAPC  H11A 4302   5.179   2.623   8.642 -0.3955  1.0043 -1.8749
   58SAPC  H11B 4303   5.145   2.591   8.470  1.0362 -2.4699 -2.1006
   58SAPC     P 4304   5.388   2.483   8.478 -0.1482  0.0396  0.2732
   58SAPC   O13 4305   5.447   2.613   8.531  0.2953  0.5882 -0.0198
   58SAPC   O14 4306   5.472   2.362   8.473  0.0631  0.2933 -0.1816
   58SAPC   O12 4307   5.269   2.442   8.572  0.2592 -0.2093 -0.1879
   58SAPC   O11 4308   5.336   2.518   8.338  0.1382 -0.4199  0.3227
   58SAPC    C1 4309   5.322   2.422   8.234  0.2773 -0.1464 -0.2363
   58SAPC    HA 4310   5.289   2.320   8.266 -0.3288 -0.6582 -2.3323
   58SAPC    HB 4311   5.240   2.456   8.167  1.1581  3.5925  0.3470
   58SAPC    C2 4312   5.448   2.417   8.136  0.2213  0.1080 -0.1502
   58SAPC    HS 4313   5.529   2.378   8.201  0.3563  4.5724  2.7853
   58SAPC   O21 4314   5.481   2.561   8.115 -0.3050  0.2102 -0.4139
   58SAPC   C21 4315   5.611   2.577   8.087  0.2317 -0.5996  0.3735
   58SAPC   O22 4316   5.692   2.489   8.084 -0.9592  0.4360  0.2541
   58SAPC   C22 4317   5.654   2.720   8.078 -0.1331  0.0648 -0.3475
   58SAPC   H2R 4318   5.579   2.777   8.020  0.2513  0.5515 -0.3833
   58SAPC   H2S 4319   5.654   2.776   8.175 -1.4472 -1.0265  0.3053
   58SAPC    C3 4320   5.436   2.350   7.999  0.1141  0.5545  0.7717
   58SAPC    HX 4321   5.401   2.244   7.997  1.7035 -0.0440  1.9301
   58SAPC    HY 4322   5.541   2.329   7.968 -0.2266 -2.2273  1.2551
   58SAPC   O31 4323   5.380   2.436   7.897 -0.3353 -0.0206  0.0997
   58SAPC   C31 4324   5.253   2.429   7.873  0.4397  0.2568  0.3337
   58SAPC   O32 4325   5.174   2.341   7.917 -0.2580  0.0353  0.5429
   58SAPC   C32 4326   5.222   2.532   7.775 -0.5995  0.2178 -0.5981
   58SAPC   H2X 4327   5.276   2.626   7.801  2.3467 -1.0014 -1.8970
   58SAPC   H2Y 4328   5.112   2.546   7.781 -0.8075 -1.2174 -0.5994
   58SAPC   C23 4329   5.786   2.752   8.006  0.4522 -0.8186  0.1543
   58SAPC   H3R 4330   5.853   2.685   8.064 -0.3990 -0.5279  1.5145
   58SAPC   H3S 4331   5.817   2.858   8.015 -0.6521 -0.4772  0.0292
   58SAPC   C24 4332   5.803   2.698   7.857  0.1956 -0.5395 -0.2630
   58SAPC   H4R 4333   5.773   2.591   7.860 -3.0785  0.2939  0.5390
   58SAPC   H4S 4334   5.904   2.702   7.811  0.3182  1.3975  0.0792
   58SAPC   C25 4335   5.726   2.770   7.749  0.6807  0.0388  0.0450
   58SAPC   H5R 4336   5.704   2.877   7.762  0.8095  0.1049 -0.2953
   58SAPC   C26 4337   5.677   2.710   7.638  0.2824  0.3897  0.0058
   58SAPC   H6R 4338   5.610   2.762   7.567  0.2939  0.3182 -0.0583
   58SAPC   C27 4339   5.704   2.563   7.612 -0.3860 -0.0711  0.4650
   58SAPC   H7R 4340   5.645   2.505   7.687 -0.3232 -1.5133 -0.5470
   58SAPC   H7S 4341   5.813   2.549   7.623  0.1660  0.9835 -2.5834
   58SAPC   C28 4342   5.672   2.502   7.476 -0.2220 -0.1203  0.2140
   58SAPC   H8R 4343   5.586   2.434   7.486  1.1296 -1.8664  0.5403
   58SAPC   C29 4344   5.715   2.530   7.348 -0.4942  0.3649 -0.8388
   58SAPC   H9R 4345   5.682   2.460   7.270 -0.2113 -0.2383 -0.4290
   58SAPC  C210 4346   5.831   2.623   7.310 -0.2475  0.4852 -0.8376
   58SAPC  H10R 4347   5.892   2.643   7.400  0.7000  0.5931 -1.4902
   58SAPC  H10S 4348   5.789   2.721   7.280 -1.7345  0.1068 -0.0792
   58SAPC  C211 4349   5.918   2.572   7.194 -0.4281 -0.4302 -0.2395
   58SAPC  H11R 4350   5.865   2.526   7.109  1.5360 -2.9222 -0.2435
   58SAPC  C212 4351   6.056   2.575   7.177  0.6640  0.1110 -0.7917
   58SAPC  H12R 4352   6.093   2.527   7.085  1.2394 -1.2867  0.1390
   58SAPC  C213 4353   6.157   2.635   7.270  0.1461  0.2447  0.0537
   58SAPC  H13R 4354   6.214   2.565   7.335 -1.2569  0.6047  1.7850
   58SAPC  H13S 4355   6.102   2.712   7.330  1.0525 -0.0766  1.3291
   58SAPC  C214 4356   6.268   2.710   7.205  0.2009 -1.0073  0.5439
   58SAPC  H14R 4357   6.362   2.655   7.191  1.6138  1.4265 -0.2016
   58SAPC  C215 4358   6.259   2.834   7.141 -0.5994  0.5247  0.0441
   58SAPC  H15R 4359   6.349   2.888   7.109 -1.8836  1.3138 -2.5218
   58SAPC  C216 4360   6.143   2.929   7.122  0.1633 -0.5478 -0.0616
   58SAPC  H16R 4361   6.177   3.029   7.158  0.8019 -0.3899 -1.0640
   58SAPC  H16S 4362   6.052   2.905   7.181 -0.4280  0.8105 -0.3744
   58SAPC  C217 4363   6.091   2.957   6.984  0.1393  0.3937  0.3613
   58SAPC  H17R 4364   6.001   3.023   6.979 -0.7067 -0.5691  2.0049
   58SAPC  H17S 4365   6.071   2.865   6.926 -0.6020  0.3686  0.6446
   58SAPC  C218 4366   6.202   3.025   6.896 -0.5143  0.2073  0.4600
   58SAPC  H18R 4367   6.288   2.955   6.890 -0.7159  0.0515 -0.7791
   58SAPC  H18S 4368   6.238   3.117   6.948  0.0656 -0.2002  0.7846
   58SAPC  C219 4369   6.154   3.054   6.757 -0.0841 -0.3828 -0.4219
   58SAPC  H19R 4370   6.082   3.138   6.762 -0.2712 -0.6107  1.4523
   58SAPC  H19S 4371   6.102   2.971   6.704  1.8179 -0.4929 -2.2089
   58SAPC  C220 4372   6.258   3.102   6.663  0.1806  0.0972 -0.7263
   58SAPC  H20R 4373   6.222   3.142   6.566 -2.2521 -0.3015 -0.0645
   58SAPC  H20S 4374   6.329   3.019   6.642  0.8410  0.1752  1.0392
   58SAPC  H20T 4375   6.322   3.178   6.713 -1.0316  0.6443  0.0498
   58SAPC   C33 4376   5.265   2.484   7.637 -1.0584 -0.2235  0.3034
   58SAPC   H3X 4377   5.251   2.375   7.623  1.3071 -0.3941 -1.3485
   58SAPC   H3Y 4378   5.375   2.495   7.625 -1.2581  0.0576 -1.6711
   58SAPC   C34 4379   5.210   2.553   7.503  0.1166  0.2657 -0.2454
   58SAPC   H4X 4380   5.224   2.663   7.515  1.5119  0.1052 -0.2159
   58SAPC   H4Y 4381   5.104   2.519   7.509  0.3216 -0.6396 -1.4157
   58SAPC   C35 4382   5.280   2.500   7.383 -0.2324  0.3100  0.8606
   58SAPC   H5X 4383   5.296   2.391   7.381  2.1103  0.5762 -1.6640
   58SAPC   H5Y 4384   5.379   2.551   7.373 -0.9051  1.7315  1.0911
   58SAPC   C36 4385   5.200   2.540   7.254  0.8984  0.6823 -0.0829
   58SAPC   H6X 4386   5.182   2.649   7.244 -1.9049  0.1515 -2.0990
   58SAPC   H6Y 4387   5.095   2.505   7.256  1.2463 -0.3690  0.4742
   58SAPC   C37 4388   5.261   2.483   7.132 -0.5092  0.2444  0.2822
   58SAPC   H7X 4389   5.206   2.529   7.047 -0.2918 -1.8236 -1.0576
   58SAPC   H7Y 4390   5.230   2.379   7.106 -0.6479  0.7859 -1.9050
   58SAPC   C38 4391   5.417   2.499   7.128  0.7169 -0.4626 -0.1582
   58SAPC   H8X 4392   5.452   2.402   7.168  1.3470  0.6826  2.2873
   58SAPC   H8Y 4393   5.455   2.590   7.179  3.3901 -1.2523 -0.6062
   58SAPC   C39 4394   5.488   2.505   6.991 -0.7182 -0.2924 -0.6087
   58SAPC   H9X 4395   5.597   2.517   7.006 -0.2428 -2.1022 -2.2462
   58SAPC   H9Y 4396   5.444   2.586   6.927 -1.0523 -0.4946 -0.6391
   58SAPC  C310 4397   5.469   2.380   6.911 -0.1912  0.3108  0.2388
   58SAPC  H10X 4398   5.369   2.333   6.925 -0.5675  1.3672  1.2286
   58SAPC  H10Y 4399   5.548   2.314   6.952  2.2008  1.9333 -1.4772
   58SAPC  C311 4400   5.494   2.399   6.760 -0.6539 -0.4098  0.2446
   58SAPC  H11X 4401   5.502   2.296   6.718 -0.4213 -0.3808  0.2174
   58SAPC  H11Y 4402   5.597   2.442   6.757  1.3426 -4.6198  0.4065
   58SAPC  C312 4403   5.382   2.468   6.674 -0.1387 -0.0809  0.5426
   58SAPC  H12X 4404   5.355   2.570   6.707 -0.5305  0.4278 -1.2141
   58SAPC  H12Y 4405   5.288   2.409   6.675 -0.1907 -0.0189 -0.0300
   58SAPC  C313 4406   5.429   2.497   6.527  0.1306 -0.0598  0.3855
   58SAPC  H13X 4407   5.437   2.398   6.477  2.0158  0.0628  0.3549
   58SAPC  H13Y 4408   5.531   2.541   6.526  0.7892 -1.4859 -1.5511
   58SAPC  C314 4409   5.341   2.598   6.445 -0.2089  0.0040 -0.2302
   58SAPC  H14X 4410   5.240   2.569   6.482 -0.4593  0.6036 -0.4348
   58SAPC  H14Y 4411   5.340   2.586   6.334  0.1724 -0.2269 -0.2112
   58SAPC  C315 4412   5.361   2.741   6.477 -0.6425  0.1756 -0.4364
   58SAPC  H15X 4413   5.471   2.760   6.481 -0.0594 -2.6779 -0.4289
   58SAPC  H15Y 4414   5.316   2.759   6.577 -2.3073 -1.1647 -0.8999
   58SAPC  C316 4415   5.295   2.838   6.378  0.7685 -0.2502 -0.0323
   58SAPC  H16X 4416   5.184   2.832   6.374  0.8065 -2.2864  0.4379
   58SAPC  H16Y 4417   5.341   2.803   6.284 -0.8640 -0.9539 -0.6133
   58SAPC  C317 4418   5.343   2.984   6.403 -0.3827  0.1496 -0.3452
   58SAPC  H17X 4419   5.354   3.039   6.307 -0.4442  1.2884  0.2834
   58SAPC  H17Y 4420   5.445   2.976   6.447 -0.5567 -2.6080 -0.2256
   58SAPC  C318 4421   5.257   3.066   6.501 -0.1184 -0.2269  0.1702
   58SAPC  H18X 4422   5.209   2.999   6.576 -2.9078 -0.2894 -1.5338
   58SAPC  H18Y 4423   5.164   3.103   6.452 -0.6888 -0.9106  0.7132
   58SAPC  H18Z 4424   5.323   3.138   6.552 -0.5917 -0.8266  1.6782
   59SAPC     N 4425   2.181   6.535   8.382 -0.1882  0.1602  0.2405
   59SAPC   C12 4426   2.283   6.453   8.464 -0.0286 -0.3045 -0.7106
   59SAPC  H12A 4427   2.253   6.349   8.468 -1.0313 -0.0523 -1.2201
   59SAPC  H12B 4428   2.283   6.490   8.565 -2.4606 -1.3885 -0.2285
   59SAPC   C13 4429   2.042   6.545   8.438 -0.0010  0.1306  0.1250
   59SAPC  H13A 4430   1.991   6.450   8.439 -0.8369  0.5447  2.4724
   59SAPC  H13B 4431   2.047   6.590   8.537  1.4423 -0.2145  0.2371
   59SAPC  H13C 4432   1.967   6.588   8.373 -0.2101 -2.0880 -1.1819
   59SAPC   C14 4433   2.232   6.682   8.363  0.0430  0.5272 -0.3359
   59SAPC  H14A 4434   2.174   6.732   8.287 -0.3905 -1.5253 -1.4276
   59SAPC  H14B 4435   2.225   6.735   8.457  1.2616 -0.7224  0.5089
   59SAPC  H14C 4436   2.334   6.678   8.326  0.3046 -0.2178  0.4174
   59SAPC   C15 4437   2.180   6.472   8.255 -0.3047  0.3513 -0.0980
   59SAPC  H15A 4438   2.281   6.468   8.215  0.5262  2.2708  1.6054
   59SAPC  H15B 4439   2.145   6.371   8.260  1.4673 -0.3267 -0.5458
   59SAPC  H15C 4440   2.120   6.519   8.179  0.5299 -0.2649 -1.1675
   59SAPC   C11 4441   2.424   6.437   8.407 -0.6787  0.0682  0.3013
   59SAPC  H11A 4442   2.488   6.399   8.489  1.1347  0.5388 -0.8580
   59SAPC  H11B 4443   2.474   6.531   8.376 -2.4381  0.2490 -2.3718
   59SAPC     P 4444   2.559   6.303   8.239 -0.6589  0.3521  0.0116
   59SAPC   O13 4445   2.668   6.310   8.336 -1.0736  0.0317 -0.1873
   59SAPC   O14 4446   2.544   6.164   8.184  0.2072 -0.7015 -0.1507
   59SAPC   O12 4447   2.421   6.349   8.297 -0.0717 -0.8000  0.5234
   59SAPC   O11 4448   2.583   6.414   8.130  0.4439  0.1660  0.0940
   59SAPC    C1 4449   2.564   6.401   7.992  0.6625  0.6927  0.5577
   59SAPC    HA 4450   2.469   6.351   7.965  1.0931  0.3677 -0.4416
   59SAPC    HB 4451   2.554   6.507   7.963  0.9844  0.7973  0.8255
   59SAPC    C2 4452   2.685   6.343   7.914 -0.2524 -0.4846  0.0644
   59SAPC    HS 4453   2.698   6.233   7.924  3.1542 -0.0849  1.2355
   59SAPC   O21 4454   2.813   6.394   7.970  0.1370  0.0081 -0.0365
   59SAPC   C21 4455   2.917   6.320   7.936 -0.5298  0.6654 -0.1577
   59SAPC   O22 4456   2.913   6.234   7.850 -0.0630  0.0628  0.0498
   59SAPC   C22 4457   3.041   6.368   8.013 -0.2365 -0.8428  0.2389
   59SAPC   H2R 4458   3.010   6.463   8.060 -1.8183 -1.1468 -0.1450
   59SAPC   H2S 4459   3.046   6.306   8.105  0.3616 -1.1601  0.0050
   59SAPC    C3 4460   2.680   6.389   7.765  0.2455 -0.5182 -0.3945
   59SAPC    HX 4461   2.771   6.341   7.724  1.0529 -1.4016  2.2061
   59SAPC    HY 4462   2.695   6.498   7.750  2.2963 -0.6867  0.1316
   59SAPC   O31 4463   2.551   6.363   7.706 -0.3399 -0.0026 -0.1933
   59SAPC   C31 4464   2.533   6.253   7.637 -0.1841  0.1291 -0.0509
   59SAPC   O32 4465   2.627   6.186   7.596 -0.1845  0.0887 -0.2884
   59SAPC   C32 4466   2.388   6.238   7.602  0.5297 -0.1668  0.0460
   59SAPC   H2X 4467   2.348   6.192   7.695 -0.7903 -0.1135 -0.4772
   59SAPC   H2Y 4468   2.376   6.164   7.520  3.8282 -0.0608 -0.6916
   59SAPC   C23 4469   3.187   6.367   7.952  0.1765 -0.3407  0.4392
   59SAPC   H3R 4470   3.215   6.260   7.950  0.4596 -0.2703 -1.1859
   59SAPC   H3S 4471   3.250   6.425   8.022  1.1864 -0.4145 -0.3843
   59SAPC   C24 4472   3.199   6.417   7.802  0.2963  0.1187  0.1341
   59SAPC   H4R 4473   3.127   6.357   7.743 -1.5044  1.8820  0.4124
   59SAPC   H4S 4474   3.296   6.384   7.760  0.9406 -1.2808  2.5234
   59SAPC   C25 4475   3.196   6.566   7.789 -0.1478 -0.0787 -0.2072
   59SAPC   H5R 4476   3.270   6.622   7.848  0.6722 -1.3673  0.0153
   59SAPC   C26 4477   3.111   6.631   7.704 -0.0038  0.0269  0.2102
   59SAPC   H6R 4478   3.120   6.740   7.692 -0.2108  0.3041  2.2530
   59SAPC   C27 4479   2.998   6.569   7.631 -0.5496  0.7271  0.8457
   59SAPC   H7R 4480   2.915   6.643   7.620  0.4385  1.5973 -1.1992
   59SAPC   H7S 4481   2.959   6.482   7.689  0.4470 -0.9229 -0.8533
   59SAPC   C28 4482   3.040   6.539   7.489  0.1543 -0.7359 -0.4473
   59SAPC   H8R 4483   3.148   6.532   7.475  0.4866  0.7651  0.9735
   59SAPC   C29 4484   2.965   6.524   7.385  0.6685 -0.0773  0.1578
   59SAPC   H9R 4485   3.014   6.507   7.288  1.3310  1.4966  0.1769
   59SAPC  C210 4486   2.816   6.525   7.387  0.2592 -0.3557 -0.0396
   59SAPC  H10R 4487   2.786   6.629   7.362 -0.3267 -0.1541  1.4061
   59SAPC  H10S 4488   2.777   6.512   7.490 -2.3227  1.8750 -0.6038
   59SAPC  C211 4489   2.777   6.421   7.290  0.0651 -0.2358  0.1702
   59SAPC  H11R 4490   2.764   6.316   7.322 -1.2012 -0.2712 -0.3894
   59SAPC  C212 4491   2.759   6.430   7.151  0.0418 -0.1977 -0.5116
   59SAPC  H12R 4492   2.739   6.335   7.099  0.2977 -0.1550 -0.6918
   59SAPC  C213 4493   2.751   6.554   7.068 -0.0460 -0.5735  0.1946
   59SAPC  H13R 4494   2.712   6.638   7.130 -0.7184  0.3868 -1.4825
   59SAPC  H13S 4495   2.668   6.546   6.996 -0.0916 -0.2217  0.2036
   59SAPC  C214 4496   2.884   6.604   7.020 -0.0444  0.3296 -0.2781
   59SAPC  H14R 4497   2.934   6.685   7.076  0.0993  0.4283 -0.5450
   59SAPC  C215 4498   2.938   6.568   6.904 -0.3282 -0.2353  0.5209
   59SAPC  H15R 4499   3.035   6.613   6.878 -2.2466  2.9701 -2.0210
   59SAPC  C216 4500   2.889   6.470   6.799 -0.5278 -0.0408 -0.0758
   59SAPC  H16R 4501   2.779   6.486   6.787 -0.6880  0.2913  1.6426
   59SAPC  H16S 4502   2.902   6.366   6.835  0.8252  0.4837  1.0440
   59SAPC  C217 4503   2.973   6.490   6.663 -0.6911  0.6755  0.0258
   59SAPC  H17R 4504   2.954   6.595   6.635 -1.7284  1.4555  3.1905
   59SAPC  H17S 4505   2.918   6.429   6.588  0.3775 -0.3301  0.0245
   59SAPC  C218 4506   3.120   6.447   6.657 -0.3177  0.0005  0.2110
   59SAPC  H18R 4507   3.123   6.343   6.697 -2.4320  0.6902  2.4051
   59SAPC  H18S 4508   3.182   6.515   6.719 -0.7529  0.5515  0.0501
   59SAPC  C219 4509   3.173   6.457   6.516  0.5015 -0.2337  0.0920
   59SAPC  H19R 4510   3.113   6.389   6.452  2.2376 -2.6799  0.8858
   59SAPC  H19S 4511   3.279   6.424   6.521  0.6219  0.1777  0.2583
   59SAPC  C220 4512   3.173   6.593   6.453  0.3528  0.0892  0.4013
   59SAPC  H20R 4513   3.067   6.628   6.446  0.8982  1.5502 -3.6913
   59SAPC  H20S 4514   3.224   6.581   6.355  1.2458  3.1629  0.3892
   59SAPC  H20T 4515   3.236   6.659   6.516 -0.1083  0.1145  0.8455
   59SAPC   C33 4516   2.312   6.365   7.551 -0.3688  0.1926  0.0153
   59SAPC   H3X 4517   2.318   6.435   7.637 -1.5298  0.2548  0.0645
   59SAPC   H3Y 4518   2.203   6.346   7.536 -0.6448  0.8885  0.9922
   59SAPC   C34 4519   2.360   6.429   7.423 -0.3126  0.4106  0.0639
   59SAPC   H4X 4520   2.469   6.452   7.422  0.2971 -2.2340 -0.2684
   59SAPC   H4Y 4521   2.304   6.523   7.402 -1.2114 -0.2414 -0.5022
   59SAPC   C35 4522   2.336   6.330   7.311 -0.1012 -0.7909  0.2475
   59SAPC   H5X 4523   2.227   6.308   7.305 -0.8761  2.7230 -0.3943
   59SAPC   H5Y 4524   2.394   6.238   7.336  0.5551 -0.2873  0.6094
   59SAPC   C36 4525   2.375   6.377   7.166  0.3903 -0.0665  0.0192
   59SAPC   H6X 4526   2.483   6.400   7.168  0.1446  1.0921  0.8653
   59SAPC   H6Y 4527   2.324   6.475   7.150 -1.8829 -0.6361  2.9572
   59SAPC   C37 4528   2.340   6.273   7.065 -0.1392 -0.0452 -0.2716
   59SAPC   H7X 4529   2.233   6.248   7.080 -0.2643  1.6415  2.3438
   59SAPC   H7Y 4530   2.398   6.179   7.072 -2.1441 -1.2172  2.4024
   59SAPC   C38 4531   2.365   6.329   6.920  0.3960 -0.2420 -0.4810
   59SAPC   H8X 4532   2.471   6.341   6.890  0.1264  2.7266 -0.5679
   59SAPC   H8Y 4533   2.326   6.433   6.911  2.5760  0.7055  0.3924
   59SAPC   C39 4534   2.282   6.242   6.820  0.3027  0.2334 -0.7288
   59SAPC   H9X 4535   2.177   6.236   6.857  1.0823  3.4525  2.5985
   59SAPC   H9Y 4536   2.330   6.144   6.839 -0.2258  0.4227  1.9979
   59SAPC  C310 4537   2.287   6.280   6.677  0.3658  0.3386  0.6964
   59SAPC  H10X 4538   2.226   6.371   6.657 -0.7450 -0.6025 -0.4179
   59SAPC  H10Y 4539   2.244   6.203   6.609  1.5407  0.1646  0.1291
   59SAPC  C311 4540   2.435   6.303   6.631 -0.0816 -0.4392 -0.2852
   59SAPC  H11X 4541   2.484   6.211   6.670 -0.1142 -0.8682 -1.2320
   59SAPC  H11Y 4542   2.486   6.388   6.681  0.7190 -1.2347  0.2781
   59SAPC  C312 4543   2.448   6.324   6.479  0.7001  0.3822 -0.1937
   59SAPC  H12X 4544   2.407   6.419   6.438 -0.2508  0.0457 -0.0473
   59SAPC  H12Y 4545   2.395   6.235   6.438  0.1485  0.7027 -0.1845
   59SAPC  C313 4546   2.587   6.314   6.421  0.1051 -0.6556 -0.1817
   59SAPC  H13X 4547   2.569   6.306   6.311  1.8697 -1.6844 -0.4175
   59SAPC  H13Y 4548   2.642   6.221   6.444  0.5471 -0.3096  0.1828
   59SAPC  C314 4549   2.672   6.444   6.458 -0.3982  0.0023 -0.5375
   59SAPC  H14X 4550   2.703   6.423   6.563  1.0071 -1.4702 -1.1953
   59SAPC  H14Y 4551   2.619   6.541   6.450  2.1249  1.4689 -0.5306
   59SAPC  C315 4552   2.788   6.451   6.366 -0.0514  0.8464 -0.5843
   59SAPC  H15X 4553   2.837   6.351   6.362  2.0832  1.8604 -1.1084
   59SAPC  H15Y 4554   2.863   6.521   6.408  2.4719 -2.9035  1.7807
   59SAPC  C316 4555   2.744   6.483   6.222  0.5127  0.1161  0.1103
   59SAPC  H16X 4556   2.694   6.582   6.228 -2.8186 -1.3190 -1.4767
   59SAPC  H16Y 4557   2.681   6.411   6.165 -1.4104 -0.4461  2.7688
   59SAPC  C317 4558   2.870   6.501   6.133  0.2891 -0.4868 -0.5601
   59SAPC  H17X 4559   2.914   6.402   6.107  1.3066 -0.5675  1.3209
   59SAPC  H17Y 4560   2.951   6.550   6.190  1.5829 -1.4156 -1.5415
   59SAPC  C318 4561   2.846   6.582   6.007  0.1485  0.5695  0.4822
   59SAPC  H18X 4562   2.913   6.670   6.005  0.4435  0.3735  1.1726
   59SAPC  H18Y 4563   2.739   6.610   5.997 -0.2252 -0.8358  0.3244
   59SAPC  H18Z 4564   2.861   6.529   5.911  1.1337  1.1423  0.3161
   60SAPC     N 4565   1.631   4.233   8.434 -0.4940  0.4818 -0.6905
   60SAPC   C12 4566   1.523   4.129   8.407 -0.2991  0.0834 -0.1339
   60SAPC  H12A 4567   1.480   4.112   8.504  0.9613 -1.1053  0.2499
   60SAPC  H12B 4568   1.573   4.039   8.375  1.5138  0.7460  0.7327
   60SAPC   C13 4569   1.574   4.363   8.478 -0.3310  0.2212 -0.1484
   60SAPC  H13A 4570   1.510   4.402   8.400  1.8646  0.5136 -1.9053
   60SAPC  H13B 4571   1.518   4.361   8.571 -0.9639  1.0299 -0.5032
   60SAPC  H13C 4572   1.658   4.431   8.487 -0.5715  0.4071  0.8592
   60SAPC   C14 4573   1.734   4.179   8.532 -0.0489 -0.7476 -0.0408
   60SAPC  H14A 4574   1.772   4.081   8.507  0.7032 -0.8796  1.5309
   60SAPC  H14B 4575   1.813   4.252   8.527 -2.2050  1.6897 -1.0325
   60SAPC  H14C 4576   1.682   4.169   8.626  0.1729 -0.2399  0.1365
   60SAPC   C15 4577   1.710   4.264   8.312  0.4890  1.4020 -0.6703
   60SAPC  H15A 4578   1.804   4.311   8.339  0.2823  1.7529 -0.5564
   60SAPC  H15B 4579   1.716   4.170   8.259 -2.6301  1.6838 -1.6869
   60SAPC  H15C 4580   1.656   4.332   8.248 -0.1456  0.4918 -1.1262
   60SAPC   C11 4581   1.416   4.169   8.302 -0.0546 -0.8404  0.4357
   60SAPC  H11A 4582   1.391   4.083   8.235  0.0094 -0.6430  0.1534
   60SAPC  H11B 4583   1.460   4.257   8.249  1.2770 -1.0520  1.1453
   60SAPC     P 4584   1.161   4.216   8.310 -0.3505  0.0669 -0.3224
   60SAPC   O13 4585   1.125   4.076   8.325 -0.0056 -0.2811 -0.2996
   60SAPC   O14 4586   1.072   4.325   8.368  0.2424  0.9569  0.2795
   60SAPC   O12 4587   1.308   4.231   8.370 -0.2552 -0.1488 -0.4381
   60SAPC   O11 4588   1.181   4.251   8.155  0.0731 -0.1659  0.2007
   60SAPC    C1 4589   1.185   4.381   8.107 -0.2461  0.4316 -0.5539
   60SAPC    HA 4590   1.100   4.437   8.151 -1.3015 -1.5903  0.0967
   60SAPC    HB 4591   1.272   4.438   8.144  0.2999 -0.1683 -0.8800
   60SAPC    C2 4592   1.183   4.393   7.948  0.0183  0.8227 -1.1288
   60SAPC    HS 4593   1.128   4.484   7.915  1.6516  1.8797 -1.0393
   60SAPC   O21 4594   1.118   4.279   7.885 -0.5200 -0.3864 -0.3527
   60SAPC   C21 4595   0.989   4.279   7.919  0.9005  0.7849  0.1380
   60SAPC   O22 4596   0.923   4.366   7.974  0.2278 -0.5560  0.3732
   60SAPC   C22 4597   0.926   4.147   7.864 -0.0961 -0.1220  0.1572
   60SAPC   H2R 4598   0.952   4.155   7.757  3.3013  0.4573  0.9150
   60SAPC   H2S 4599   0.989   4.064   7.901  1.8177 -0.3237 -3.1836
   60SAPC    C3 4600   1.323   4.401   7.886  0.6114 -0.6365  0.1935
   60SAPC    HX 4601   1.379   4.315   7.931 -0.4134 -0.6604  1.4824
   60SAPC    HY 4602   1.374   4.489   7.930 -0.4297  0.1916 -0.2275
   60SAPC   O31 4603   1.316   4.416   7.742  0.3314 -0.3073 -0.2534
   60SAPC   C31 4604   1.317   4.300   7.669 -0.9333 -0.3281  0.0153
   60SAPC   O32 4605   1.336   4.187   7.715 -0.4402 -0.2397  0.4762
   60SAPC   C32 4606   1.282   4.351   7.527  0.0201  0.5157  0.5488
   60SAPC   H2X 4607   1.376   4.402   7.497 -0.0310 -1.2509 -3.2510
   60SAPC   H2Y 4608   1.201   4.428   7.534  2.5489  3.4168  0.0386
   60SAPC   C23 4609   0.777   4.124   7.901  0.3509 -0.4245 -0.6036
   60SAPC   H3R 4610   0.763   4.152   8.007 -3.8155 -1.2147 -0.7788
   60SAPC   H3S 4611   0.750   4.017   7.894 -0.7400 -0.0940 -1.7961
   60SAPC   C24 4612   0.691   4.216   7.819 -0.6251  0.3860  0.7200
   60SAPC   H4R 4613   0.706   4.180   7.715  1.7900  1.3394  0.6830
   60SAPC   H4S 4614   0.734   4.318   7.829 -0.8019  0.7066 -1.3644
   60SAPC   C25 4615   0.548   4.209   7.867 -0.4048  0.4506 -0.4467
   60SAPC   H5R 4616   0.523   4.240   7.969 -1.6195 -2.2013  0.1273
   60SAPC   C26 4617   0.440   4.178   7.792 -0.4115 -0.5854  0.4683
   60SAPC   H6R 4618   0.339   4.179   7.836 -1.6048  1.9651 -2.0235
   60SAPC   C27 4619   0.443   4.127   7.652 -1.0433 -0.7409  0.1408
   60SAPC   H7R 4620   0.527   4.058   7.627  1.6834  1.7721  1.7671
   60SAPC   H7S 4621   0.456   4.214   7.585  0.8997 -1.6159 -0.6883
   60SAPC   C28 4622   0.316   4.064   7.603  0.2939 -0.8256 -0.0625
   60SAPC   H8R 4623   0.247   4.036   7.684 -0.5233 -1.9875 -1.1251
   60SAPC   C29 4624   0.268   4.063   7.481 -0.7015  0.3015 -0.1286
   60SAPC   H9R 4625   0.168   4.018   7.480 -0.6264  0.0754  1.2194
   60SAPC  C210 4626   0.337   4.109   7.350  0.0688  0.4011 -0.1775
   60SAPC  H10R 4627   0.435   4.157   7.373  0.1589 -0.4760  1.3863
   60SAPC  H10S 4628   0.278   4.183   7.293 -0.6369 -1.4211 -1.9363
   60SAPC  C211 4629   0.370   3.993   7.258  0.1575  0.6597 -0.1718
   60SAPC  H11R 4630   0.401   3.898   7.303 -0.4457  0.6720  0.2709
   60SAPC  C212 4631   0.345   3.980   7.133 -0.0675  0.4043  0.1041
   60SAPC  H12R 4632   0.375   3.892   7.074 -1.7836  1.1925 -2.1201
   60SAPC  C213 4633   0.302   4.091   7.038 -0.7205  0.9500 -0.2778
   60SAPC  H13R 4634   0.244   4.173   7.086  0.4458  2.1845 -0.8937
   60SAPC  H13S 4635   0.233   4.034   6.972 -1.6477  1.6447  0.0573
   60SAPC  C214 4636   0.412   4.141   6.951 -0.0460 -0.4652 -1.1917
   60SAPC  H14R 4637   0.451   4.242   6.972  1.2806 -0.5389 -3.0599
   60SAPC  C215 4638   0.460   4.084   6.839 -0.1728  0.4894 -0.4607
   60SAPC  H15R 4639   0.530   4.150   6.787 -0.2764  1.4264  0.5467
   60SAPC  C216 4640   0.427   3.952   6.778 -0.4164 -0.6220  0.2470
   60SAPC  H16R 4641   0.342   3.904   6.833 -0.9265  0.9030  0.8478
   60SAPC  H16S 4642   0.513   3.882   6.783 -0.9009 -1.2713 -0.3564
   60SAPC  C217 4643   0.368   3.964   6.633 -0.5294  0.0905 -0.1751
   60SAPC  H17R 4644   0.265   4.002   6.620 -1.1183 -1.3899  0.0423
   60SAPC  H17S 4645   0.362   3.861   6.590  0.8195 -0.3694  0.6906
   60SAPC  C218 4646   0.457   4.038   6.538 -0.4006  0.0076 -0.0571
   60SAPC  H18R 4647   0.460   4.145   6.569 -0.3960  0.9420 -3.0348
   60SAPC  H18S 4648   0.406   4.044   6.440 -0.9480  0.3372  0.2379
   60SAPC  C219 4649   0.589   3.963   6.522 -0.0952 -0.6561  0.3452
   60SAPC  H19R 4650   0.567   3.866   6.472 -1.6060  0.5368 -1.4566
   60SAPC  H19S 4651   0.634   3.939   6.620 -1.5139 -2.7175  0.5620
   60SAPC  C220 4652   0.694   4.041   6.440  0.1383  0.1258  0.4938
   60SAPC  H20R 4653   0.742   4.111   6.511  0.4675  1.6405 -1.1414
   60SAPC  H20S 4654   0.656   4.101   6.354 -1.7480  0.0738  1.2511
   60SAPC  H20T 4655   0.770   3.964   6.416 -0.7514 -2.0256  3.8660
   60SAPC   C33 4656   1.243   4.233   7.430  0.1026  0.2335  0.1730
   60SAPC   H3X 4657   1.146   4.193   7.465  1.5505 -1.5076  2.5252
   60SAPC   H3Y 4658   1.314   4.150   7.453  0.9619  0.8643 -0.1564
   60SAPC   C34 4659   1.245   4.266   7.279  0.0807  0.1932 -0.7739
   60SAPC   H4X 4660   1.227   4.175   7.218  0.0536  0.4519 -1.1563
   60SAPC   H4Y 4661   1.349   4.303   7.262  0.5676 -1.7570 -2.3630
   60SAPC   C35 4662   1.140   4.375   7.241  0.0976  0.3729 -0.0568
   60SAPC   H5X 4663   1.167   4.473   7.286  2.6017  0.6692 -2.0067
   60SAPC   H5Y 4664   1.038   4.347   7.277  0.4352 -3.0973 -1.4593
   60SAPC   C36 4665   1.134   4.399   7.087  0.0350 -0.5539  0.5270
   60SAPC   H6X 4666   1.036   4.448   7.069  1.1632  1.4194 -0.6342
   60SAPC   H6Y 4667   1.128   4.297   7.043 -5.3374  1.0187 -3.3987
   60SAPC   C37 4668   1.249   4.478   7.028  0.0510  0.0441  0.0184
   60SAPC   H7X 4669   1.342   4.419   7.014 -0.3909 -0.2637 -1.9287
   60SAPC   H7Y 4670   1.268   4.563   7.096 -3.0121 -0.6097  1.9020
   60SAPC   C38 4671   1.221   4.519   6.881 -0.4224 -0.5554  0.8573
   60SAPC   H8X 4672   1.310   4.583   6.862  0.4827 -2.0447 -0.2447
   60SAPC   H8Y 4673   1.121   4.567   6.882 -0.0205  0.2839  1.9984
   60SAPC   C39 4674   1.237   4.407   6.778 -0.0036  0.0243 -0.1858
   60SAPC   H9X 4675   1.158   4.329   6.780  0.4565 -0.4340  0.2138
   60SAPC   H9Y 4676   1.332   4.353   6.796  2.0231  3.1823 -0.6396
   60SAPC  C310 4677   1.260   4.470   6.640  0.0497 -0.2267  0.9773
   60SAPC  H10X 4678   1.336   4.549   6.656  1.6577 -1.8763  1.7954
   60SAPC  H10Y 4679   1.171   4.517   6.593 -0.1700 -1.2028  0.3764
   60SAPC  C311 4680   1.321   4.382   6.527  0.0925  0.2816  0.3578
   60SAPC  H11X 4681   1.245   4.310   6.491 -0.3583  2.1614 -2.8911
   60SAPC  H11Y 4682   1.408   4.324   6.563 -1.0013 -0.7846  1.3438
   60SAPC  C312 4683   1.352   4.468   6.400 -0.4193  0.0717 -0.2587
   60SAPC  H12X 4684   1.434   4.540   6.422 -2.3669  2.2515  0.2427
   60SAPC  H12Y 4685   1.271   4.539   6.373  1.2785  1.6222 -1.5997
   60SAPC  C313 4686   1.385   4.378   6.273  0.3317  0.1932 -0.4351
   60SAPC  H13X 4687   1.296   4.323   6.235  1.4960 -1.2452 -1.2013
   60SAPC  H13Y 4688   1.465   4.305   6.299 -0.6024 -0.8022 -0.3030
   60SAPC  C314 4689   1.438   4.467   6.158 -0.6392  0.3848  0.8915
   60SAPC  H14X 4690   1.482   4.402   6.079  0.1970  0.6181  1.1582
   60SAPC  H14Y 4691   1.527   4.514   6.204  2.7964 -3.9583 -0.5329
   60SAPC  C315 4692   1.337   4.570   6.101 -0.5854 -0.1886  1.1609
   60SAPC  H15X 4693   1.288   4.616   6.189 -0.1214 -1.9263  2.3838
   60SAPC  H15Y 4694   1.250   4.521   6.052 -0.2899  0.4529 -0.0535
   60SAPC  C316 4695   1.411   4.663   6.003  0.8739 -0.4214 -0.0150
   60SAPC  H16X 4696   1.470   4.605   5.929  1.8132  2.2426 -1.5065
   60SAPC  H16Y 4697   1.481   4.724   6.064  0.4999  0.7272 -0.6835
   60SAPC  C317 4698   1.312   4.751   5.919  0.6066  0.8839 -0.2643
   60SAPC  H17X 4699   1.253   4.678   5.860  0.7808 -0.0697  0.7294
   60SAPC  H17Y 4700   1.367   4.812   5.843  1.6152 -0.5394 -0.7078
   60SAPC  C318 4701   1.215   4.833   6.008 -0.9575  0.0649 -0.2588
   60SAPC  H18X 4702   1.156   4.759   6.066  1.9983 -2.0798  0.2721
   60SAPC  H18Y 4703   1.150   4.898   5.946 -2.2726 -1.0500 -0.1002
   60SAPC  H18Z 4704   1.265   4.899   6.081 -1.3408 -1.0576  1.0488
   61SAPC     N 4705   5.975   4.147   8.625  0.0345  0.4248 -0.1360
   61SAPC   C12 4706   5.882   4.149   8.508 -0.7908 -0.7190  0.2390
   61SAPC  H12A 4707   5.782   4.167   8.546  0.8975  1.1757  4.4507
   61SAPC  H12B 4708   5.887   4.051   8.464 -0.3879 -1.4350  1.8232
   61SAPC   C13 4709   5.935   4.235   8.738  0.0804  0.7940 -0.3600
   61SAPC  H13A 4710   5.851   4.193   8.791  1.1751 -0.6915  0.2825
   61SAPC  H13B 4711   6.009   4.241   8.816  0.1454 -1.6499 -0.1512
   61SAPC  H13C 4712   5.897   4.331   8.709  1.5192  1.8486  1.0638
   61SAPC   C14 4713   5.978   4.001   8.668  0.6258  0.0698 -0.0360
   61SAPC  H14A 4714   5.881   3.964   8.699  0.8309 -1.1149 -0.7513
   61SAPC  H14B 4715   6.016   3.936   8.591 -0.0149  0.3767 -0.6188
   61SAPC  H14C 4716   6.043   3.983   8.752  0.4854 -3.4913 -0.5341
   61SAPC   C15 4717   6.112   4.182   8.568 -0.1199  0.1378 -0.0161
   61SAPC  H15A 4718   6.193   4.159   8.635  1.0663  0.0093 -1.4523
   61SAPC  H15B 4719   6.138   4.129   8.478  1.2936  3.4451 -1.7139
   61SAPC  H15C 4720   6.108   4.285   8.537  0.8375  1.0784  2.7471
   61SAPC   C11 4721   5.903   4.254   8.395  0.5119  0.7800 -0.6127
   61SAPC  H11A 4722   5.828   4.228   8.317  0.4823 -0.4076 -0.2100
   61SAPC  H11B 4723   6.005   4.254   8.351  1.9061  1.0179  2.3772
   61SAPC     P 4724   5.721   4.427   8.476 -0.2956  0.1585 -0.4512
   61SAPC   O13 4725   5.626   4.315   8.473 -0.4388  0.0758  0.3948
   61SAPC   O14 4726   5.723   4.513   8.603  0.2450  0.1883  0.6184
   61SAPC   O12 4727   5.868   4.377   8.453 -0.0385  0.6217 -0.0325
   61SAPC   O11 4728   5.689   4.527   8.357  0.2664  0.4977 -0.7152
   61SAPC    C1 4729   5.791   4.544   8.257 -0.1885 -0.1070 -0.5693
   61SAPC    HA 4730   5.856   4.628   8.289  0.6464  0.1678 -2.8080
   61SAPC    HB 4731   5.847   4.450   8.237  0.8307  0.4789 -0.5275
   61SAPC    C2 4732   5.722   4.578   8.120  0.7424 -0.2814  0.3850
   61SAPC    HS 4733   5.784   4.549   8.033 -4.5552 -2.1530 -3.2766
   61SAPC   O21 4734   5.670   4.712   8.114 -0.2021 -0.5711  0.0115
   61SAPC   C21 4735   5.735   4.791   8.029  0.8580 -0.5331 -0.1463
   61SAPC   O22 4736   5.835   4.763   7.963  0.3818  0.2479 -0.0867
   61SAPC   C22 4737   5.660   4.932   8.037 -0.2954  0.2153 -0.6084
   61SAPC   H2R 4738   5.637   4.945   8.145 -1.5244 -0.2511 -0.7988
   61SAPC   H2S 4739   5.734   5.009   8.007  1.3335 -0.6358  0.9882
   61SAPC    C3 4740   5.603   4.481   8.091 -0.5049 -0.2975  0.3547
   61SAPC    HX 4741   5.532   4.512   8.170 -0.0056  1.4323  0.1648
   61SAPC    HY 4742   5.636   4.377   8.113 -2.1032 -0.4914  2.0619
   61SAPC   O31 4743   5.551   4.484   7.956  0.4255 -0.1058  0.4574
   61SAPC   C31 4744   5.417   4.450   7.942  0.2510 -0.2834 -0.0247
   61SAPC   O32 4745   5.342   4.411   8.028  0.8174  0.4233  0.2351
   61SAPC   C32 4746   5.377   4.478   7.806  0.6960  0.0461 -0.5090
   61SAPC   H2X 4747   5.291   4.548   7.808 -0.0779 -0.8101 -1.9624
   61SAPC   H2Y 4748   5.339   4.388   7.753 -1.0092  1.7043 -2.2643
   61SAPC   C23 4749   5.532   4.957   7.952 -0.3090 -0.0289 -0.8929
   61SAPC   H3R 4750   5.465   4.872   7.978 -0.5394  0.3293 -0.3061
   61SAPC   H3S 4751   5.554   4.955   7.843 -2.7936  0.3582 -1.4690
   61SAPC   C24 4752   5.464   5.085   8.002 -0.2582  0.3704  0.7588
   61SAPC   H4R 4753   5.536   5.163   7.968  0.6146 -0.3761  0.8556
   61SAPC   H4S 4754   5.449   5.084   8.112 -0.9877 -0.0426  0.6594
   61SAPC   C25 4755   5.325   5.087   7.932  0.9102 -0.1364  0.1936
   61SAPC   H5R 4756   5.254   5.011   7.964  0.5235  0.3453  0.4930
   61SAPC   C26 4757   5.278   5.195   7.853  0.4052  0.1422 -0.2817
   61SAPC   H6R 4758   5.172   5.181   7.826  0.1168 -1.3630  1.4079
   61SAPC   C27 4759   5.358   5.316   7.816 -0.4050 -0.5394 -0.0312
   61SAPC   H7R 4760   5.349   5.337   7.707 -1.1833 -0.8901 -0.0346
   61SAPC   H7S 4761   5.462   5.310   7.856 -0.5944 -2.4580  0.2713
   61SAPC   C28 4762   5.306   5.438   7.895 -0.2721 -0.5583 -0.6585
   61SAPC   H8R 4763   5.237   5.425   7.979  0.1106  0.3874 -0.1874
   61SAPC   C29 4764   5.355   5.563   7.877  0.0835 -0.0154 -0.1407
   61SAPC   H9R 4765   5.319   5.640   7.947 -0.9420  0.3435 -1.0382
   61SAPC  C210 4766   5.449   5.596   7.767  0.3213 -0.1753 -0.7803
   61SAPC  H10R 4767   5.540   5.533   7.777  0.8354  0.7178  0.3519
   61SAPC  H10S 4768   5.479   5.699   7.796  0.7493 -1.1308  2.5546
   61SAPC  C211 4769   5.394   5.596   7.624 -0.6993  0.6900  0.3938
   61SAPC  H11R 4770   5.285   5.593   7.611 -0.8977  0.0019  1.9639
   61SAPC  C212 4771   5.461   5.599   7.507  0.1452 -0.8013 -0.1303
   61SAPC  H12R 4772   5.403   5.600   7.413  0.3226 -3.0971 -0.3259
   61SAPC  C213 4773   5.612   5.610   7.488 -0.0136  0.4320  0.0504
   61SAPC  H13R 4774   5.640   5.595   7.382  0.1562 -0.7444  0.2531
   61SAPC  H13S 4775   5.666   5.524   7.534 -1.9048 -0.9737 -0.2108
   61SAPC  C214 4776   5.661   5.745   7.540  0.0812  0.2230 -0.3708
   61SAPC  H14R 4777   5.623   5.763   7.641 -2.8819  0.5734 -1.4564
   61SAPC  C215 4778   5.733   5.843   7.485  0.1538 -0.6912 -0.5141
   61SAPC  H15R 4779   5.741   5.941   7.534  0.7017 -1.1338  0.3048
   61SAPC  C216 4780   5.799   5.828   7.350  0.1546  0.2341 -0.3141
   61SAPC  H16R 4781   5.833   5.728   7.313  3.1070  1.5458 -1.4636
   61SAPC  H16S 4782   5.881   5.903   7.340 -1.9510  2.7541  0.2607
   61SAPC  C217 4783   5.703   5.871   7.235  0.2844 -0.4561 -0.3465
   61SAPC  H17R 4784   5.674   5.977   7.254 -0.2531 -0.4222 -1.2648
   61SAPC  H17S 4785   5.610   5.810   7.236  1.1372 -1.7728 -0.2021
   61SAPC  C218 4786   5.759   5.851   7.096  0.8969  0.2589  0.0424
   61SAPC  H18R 4787   5.783   5.744   7.078  0.2506 -0.1642  1.5402
   61SAPC  H18S 4788   5.856   5.904   7.098 -0.5467  3.1403  2.2877
   61SAPC  C219 4789   5.659   5.895   6.990  0.0057 -0.4711  0.0587
   61SAPC  H19R 4790   5.613   5.993   7.015 -0.5045 -0.6795 -0.0326
   61SAPC  H19S 4791   5.571   5.828   7.001 -1.1923  0.9400 -0.4791
   61SAPC  C220 4792   5.708   5.893   6.845  0.4809 -0.8085 -0.1275
   61SAPC  H20R 4793   5.627   5.916   6.772 -1.6362  3.0140  3.0599
   61SAPC  H20S 4794   5.759   5.798   6.818 -0.7090 -1.7677  0.8945
   61SAPC  H20T 4795   5.778   5.976   6.819 -2.8120  1.9207 -1.1169
   61SAPC   C33 4796   5.478   4.547   7.708  0.9064 -0.7994  0.7028
   61SAPC   H3X 4797   5.448   4.539   7.601 -0.7778  1.4491  0.9229
   61SAPC   H3Y 4798   5.574   4.494   7.725 -0.5524 -3.2741  1.8049
   61SAPC   C34 4799   5.486   4.700   7.737 -1.0815 -0.5332 -0.4570
   61SAPC   H4X 4800   5.567   4.733   7.669 -0.5130 -1.7923 -0.4144
   61SAPC   H4Y 4801   5.518   4.712   7.842  0.5292  0.2589 -1.0031
   61SAPC   C35 4802   5.364   4.783   7.696 -0.5798 -0.0509  0.1217
   61SAPC   H5X 4803   5.382   4.890   7.719 -1.6654  0.3034 -0.5817
   61SAPC   H5Y 4804   5.279   4.753   7.762  0.4341 -1.2339  0.9299
   61SAPC   C36 4805   5.334   4.776   7.546 -0.0091  0.2000 -0.1431
   61SAPC   H6X 4806   5.425   4.734   7.499 -1.9330 -0.3525 -3.7296
   61SAPC   H6Y 4807   5.298   4.876   7.513  1.8830  0.9459 -0.0746
   61SAPC   C37 4808   5.225   4.673   7.506  0.1917 -1.0078 -0.1590
   61SAPC   H7X 4809   5.125   4.700   7.547 -0.3649 -1.6219 -1.0779
   61SAPC   H7Y 4810   5.254   4.582   7.562  1.2300  0.2868  1.5227
   61SAPC   C38 4811   5.206   4.636   7.357 -0.1015 -0.0505 -0.2844
   61SAPC   H8X 4812   5.302   4.608   7.308  1.4836  0.5428  2.2815
   61SAPC   H8Y 4813   5.169   4.728   7.307  0.6331  0.3705 -0.0639
   61SAPC   C39 4814   5.104   4.526   7.337 -0.7602 -0.8580  0.9730
   61SAPC   H9X 4815   5.011   4.558   7.389 -1.5983 -0.1369 -0.8648
   61SAPC   H9Y 4816   5.133   4.425   7.371  1.9487 -1.1742 -1.8116
   61SAPC  C310 4817   5.074   4.484   7.190 -0.4278 -0.1330  0.3209
   61SAPC  H10X 4818   5.030   4.572   7.138 -1.9212 -1.5961 -1.0432
   61SAPC  H10Y 4819   4.991   4.410   7.188  0.4361 -1.1353 -2.4063
   61SAPC  C311 4820   5.175   4.418   7.105 -0.9908 -0.3921 -0.5874
   61SAPC  H11X 4821   5.210   4.334   7.169 -1.0457 -0.3093 -0.4486
   61SAPC  H11Y 4822   5.267   4.476   7.084 -0.8840 -0.7489 -1.1304
   61SAPC  C312 4823   5.124   4.375   6.964 -0.2822 -0.0661 -0.2284
   61SAPC  H12X 4824   5.016   4.350   6.963  0.1300 -2.0771  0.4144
   61SAPC  H12Y 4825   5.162   4.278   6.927 -0.3225  0.2439 -1.0885
   61SAPC  C313 4826   5.161   4.477   6.858 -0.4993 -1.2303  0.3832
   61SAPC  H13X 4827   5.268   4.457   6.837  0.0629  0.8655  1.0411
   61SAPC  H13Y 4828   5.141   4.580   6.893 -1.7869 -1.8074  1.4331
   61SAPC  C314 4829   5.074   4.453   6.735 -0.0052 -0.0776  0.1570
   61SAPC  H14X 4830   4.970   4.483   6.763  1.0963  3.1071  1.2963
   61SAPC  H14Y 4831   5.084   4.349   6.697 -0.3046 -0.3021  0.6806
   61SAPC  C315 4832   5.099   4.563   6.628 -0.2056  0.2627 -0.1538
   61SAPC  H15X 4833   5.139   4.660   6.663 -0.7826  0.2982  0.4150
   61SAPC  H15Y 4834   5.014   4.577   6.558  0.3466  0.9745 -0.7046
   61SAPC  C316 4835   5.212   4.518   6.532 -0.2948 -0.2399  0.3745
   61SAPC  H16X 4836   5.203   4.411   6.505 -1.2972 -0.5564  1.8799
   61SAPC  H16Y 4837   5.302   4.535   6.595  0.2796 -1.5208 -0.0644
   61SAPC  C317 4838   5.221   4.605   6.407 -0.7034 -0.2755 -0.9448
   61SAPC  H17X 4839   5.252   4.707   6.439 -1.0718 -1.0645  2.1550
   61SAPC  H17Y 4840   5.124   4.601   6.353  0.6339  0.8557 -3.6336
   61SAPC  C318 4841   5.336   4.561   6.316  0.6417  0.1277  0.1978
   61SAPC  H18X 4842   5.429   4.545   6.374  0.8899 -1.1730 -0.5133
   61SAPC  H18Y 4843   5.351   4.617   6.221 -0.1639  0.6643  0.3736
   61SAPC  H18Z 4844   5.307   4.460   6.279  0.4512  0.0897  0.4500
   62SAPC     N 4845   1.858   3.509   8.187  0.0933  0.4876  0.2082
   62SAPC   C12 4846   1.958   3.615   8.222  0.8582  0.6921 -0.1650
   62SAPC  H12A 4847   2.044   3.560   8.258  0.4537  0.2967  0.2052
   62SAPC  H12B 4848   1.922   3.661   8.313 -0.1214 -0.0839 -0.1352
   62SAPC   C13 4849   1.728   3.574   8.155 -0.1377  0.5452 -0.2622
   62SAPC  H13A 4850   1.652   3.501   8.132  0.2575  0.6758 -2.1630
   62SAPC  H13B 4851   1.693   3.633   8.238 -0.8997 -2.7729  1.9992
   62SAPC  H13C 4852   1.735   3.650   8.078  0.3373  0.4352 -0.3324
   62SAPC   C14 4853   1.898   3.433   8.061  0.1840  0.8368 -0.0954
   62SAPC  H14A 4854   1.893   3.504   7.980  1.5604  2.6565  1.3329
   62SAPC  H14B 4855   2.001   3.403   8.070  0.0945  0.1829 -1.0452
   62SAPC  H14C 4856   1.827   3.352   8.051  0.6052  0.7231 -3.2299
   62SAPC   C15 4857   1.827   3.428   8.311 -0.1563  0.2000 -0.3087
   62SAPC  H15A 4858   1.749   3.357   8.286 -2.7078  3.3970 -2.2216
   62SAPC  H15B 4859   1.908   3.373   8.356  1.3886  2.0622 -0.6949
   62SAPC  H15C 4860   1.781   3.482   8.392 -0.4013  0.5211 -0.6568
   62SAPC   C11 4861   2.001   3.728   8.117  0.2546  0.4685  0.0684
   62SAPC  H11A 4862   2.034   3.690   8.018  2.1021 -0.0320  0.8424
   62SAPC  H11B 4863   2.092   3.784   8.147  0.2497  1.4419 -1.5926
   62SAPC     P 4864   1.868   3.916   8.226 -0.3310 -0.2509  0.6065
   62SAPC   O13 4865   1.871   3.853   8.360  0.0699 -0.4619  0.5429
   62SAPC   O14 4866   1.957   4.029   8.201 -0.3000 -0.3824 -1.0464
   62SAPC   O12 4867   1.885   3.815   8.101 -0.0062 -0.2476 -0.7247
   62SAPC   O11 4868   1.724   3.984   8.208 -0.0916  0.4174  1.2193
   62SAPC    C1 4869   1.618   3.921   8.125  0.0665 -0.2220 -0.2313
   62SAPC    HA 4870   1.619   3.810   8.121 -1.2527 -0.2355 -0.6540
   62SAPC    HB 4871   1.519   3.954   8.164 -1.0252 -0.4731 -2.6086
   62SAPC    C2 4872   1.612   3.984   7.975  0.2252  0.0081  0.4191
   62SAPC    HS 4873   1.522   3.958   7.915  1.7079  1.6440 -2.7692
   62SAPC   O21 4874   1.733   3.950   7.898  0.2824 -0.2717 -0.4849
   62SAPC   C21 4875   1.728   3.828   7.848  0.7707  0.2333 -0.2218
   62SAPC   O22 4876   1.635   3.751   7.868  0.4539 -0.0718  0.1435
   62SAPC   C22 4877   1.855   3.793   7.772 -0.7080 -0.2033 -0.6174
   62SAPC   H2R 4878   1.947   3.805   7.834 -2.0416 -1.1599  1.6880
   62SAPC   H2S 4879   1.845   3.683   7.764 -0.9714 -0.2492  0.1767
   62SAPC    C3 4880   1.604   4.140   7.992 -0.3261  0.4536 -0.1985
   62SAPC    HX 4881   1.687   4.179   8.055  0.6483 -1.1483 -0.4526
   62SAPC    HY 4882   1.506   4.140   8.045 -0.9958 -4.0073 -1.0776
   62SAPC   O31 4883   1.588   4.223   7.878  0.1596 -0.1761 -0.3632
   62SAPC   C31 4884   1.707   4.252   7.828 -0.2112 -0.0391 -0.6180
   62SAPC   O32 4885   1.813   4.216   7.874 -0.2293 -0.3287 -0.0189
   62SAPC   C32 4886   1.690   4.318   7.689 -0.0324 -0.3010  0.2646
   62SAPC   H2X 4887   1.787   4.355   7.650 -0.7519 -0.4782 -1.8498
   62SAPC   H2Y 4888   1.609   4.394   7.688 -0.9892 -1.2880 -0.7811
   62SAPC   C23 4889   1.856   3.857   7.630  0.0380  0.5725 -0.5961
   62SAPC   H3R 4890   1.950   3.836   7.575 -0.0108  1.0037 -0.8535
   62SAPC   H3S 4891   1.872   3.967   7.634  1.5320  0.3800 -0.6211
   62SAPC   C24 4892   1.732   3.817   7.542 -0.3202  0.4330  0.4913
   62SAPC   H4R 4893   1.757   3.883   7.456  2.2791  1.8295  2.1615
   62SAPC   H4S 4894   1.636   3.847   7.588 -0.7467 -0.3312  0.1143
   62SAPC   C25 4895   1.731   3.669   7.511  0.1901 -0.2340  0.1544
   62SAPC   H5R 4896   1.747   3.607   7.601 -1.3592 -1.4689 -0.3762
   62SAPC   C26 4897   1.731   3.605   7.387  0.2441 -0.0733  0.4088
   62SAPC   H6R 4898   1.734   3.495   7.392  2.1062 -0.0592  0.1988
   62SAPC   C27 4899   1.708   3.672   7.257  0.3324 -0.5332  0.8682
   62SAPC   H7R 4900   1.661   3.773   7.262  0.6300 -0.1518 -2.2951
   62SAPC   H7S 4901   1.634   3.607   7.205  1.3150 -1.7327  0.9251
   62SAPC   C28 4902   1.842   3.674   7.186  0.2382 -0.9557 -0.2035
   62SAPC   H8R 4903   1.929   3.720   7.234  1.7912 -1.4250 -2.4496
   62SAPC   C29 4904   1.867   3.633   7.058  0.3228 -0.0824 -0.3395
   62SAPC   H9R 4905   1.966   3.669   7.027 -0.5408  3.4998  0.6099
   62SAPC  C210 4906   1.775   3.576   6.953  0.0305  0.9724 -0.5626
   62SAPC  H10R 4907   1.737   3.671   6.911 -0.1467  0.8822 -0.6082
   62SAPC  H10S 4908   1.688   3.522   6.997  1.3915 -1.9707 -1.2511
   62SAPC  C211 4909   1.847   3.482   6.850 -0.0488 -0.4136  0.1124
   62SAPC  H11R 4910   1.937   3.424   6.873  0.0982 -1.3361 -2.4245
   62SAPC  C212 4911   1.800   3.464   6.717  0.5423 -0.5573 -0.1030
   62SAPC  H12R 4912   1.865   3.406   6.650 -0.1821 -1.3055 -0.1764
   62SAPC  C213 4913   1.672   3.524   6.659 -0.5692  0.1460 -0.5572
   62SAPC  H13R 4914   1.604   3.557   6.741 -0.2037 -0.0814 -0.1556
   62SAPC  H13S 4915   1.614   3.445   6.606 -2.0915  1.7440 -1.3717
   62SAPC  C214 4916   1.688   3.652   6.584  0.6864  0.0381 -0.0259
   62SAPC  H14R 4917   1.677   3.746   6.641  4.6513  0.7943 -0.2548
   62SAPC  C215 4918   1.703   3.657   6.455 -0.4737  0.2950  0.1274
   62SAPC  H15R 4919   1.696   3.756   6.409  0.6701  0.4149  0.2005
   62SAPC  C216 4920   1.722   3.547   6.354  0.2567  0.0086  0.0095
   62SAPC  H16R 4921   1.663   3.565   6.262  2.0332 -2.5842 -1.7849
   62SAPC  H16S 4922   1.703   3.443   6.390  0.2227 -0.2355 -0.7005
   62SAPC  C217 4923   1.868   3.559   6.312  0.4737 -0.5578  0.1971
   62SAPC  H17R 4924   1.878   3.478   6.236  1.3734  0.6727 -1.0445
   62SAPC  H17S 4925   1.943   3.530   6.389  0.3102  0.8271  0.9131
   62SAPC  C218 4926   1.891   3.689   6.233 -0.3551 -0.3601  0.4786
   62SAPC  H18R 4927   1.919   3.761   6.312  0.4137 -0.0691 -0.0413
   62SAPC  H18S 4928   1.799   3.736   6.193  0.7430  0.3498 -1.3587
   62SAPC  C219 4929   2.008   3.694   6.134  0.0219  0.5432  0.5292
   62SAPC  H19R 4930   2.002   3.786   6.071 -0.8755  0.6567  0.7733
   62SAPC  H19S 4931   2.008   3.605   6.068 -1.7387  0.5928  0.4186
   62SAPC  C220 4932   2.145   3.685   6.202  0.1636 -0.7386  0.5397
   62SAPC  H20R 4933   2.153   3.585   6.250  0.7498 -0.1395  1.7465
   62SAPC  H20S 4934   2.148   3.764   6.279 -2.5060  0.1048 -0.1404
   62SAPC  H20T 4935   2.227   3.702   6.128 -1.6300  0.7878 -1.2175
   62SAPC   C33 4936   1.646   4.218   7.583  0.2237 -0.3869 -0.0711
   62SAPC   H3X 4937   1.545   4.174   7.596 -0.0273 -0.5793 -2.2478
   62SAPC   H3Y 4938   1.715   4.132   7.593  0.0933 -0.5127 -0.2402
   62SAPC   C34 4939   1.646   4.268   7.441 -0.0111  0.1198  0.4889
   62SAPC   H4X 4940   1.746   4.311   7.422  0.7495  0.3724  4.2446
   62SAPC   H4Y 4941   1.569   4.345   7.419 -1.4906 -2.2116 -3.6432
   62SAPC   C35 4942   1.628   4.153   7.329  0.0055  0.1574  0.6599
   62SAPC   H5X 4943   1.532   4.099   7.319  0.3091  0.0475 -2.8046
   62SAPC   H5Y 4944   1.707   4.075   7.337 -0.3145 -0.3064 -0.5588
   62SAPC   C36 4945   1.657   4.203   7.184 -0.1191 -0.1777  0.3616
   62SAPC   H6X 4946   1.737   4.279   7.189 -0.8075  0.8972 -2.6056
   62SAPC   H6Y 4947   1.564   4.249   7.144  0.6299  0.0650 -1.1872
   62SAPC   C37 4948   1.712   4.092   7.095 -0.4055 -0.9708  0.0815
   62SAPC   H7X 4949   1.807   4.047   7.131  1.1144  0.4584 -1.9498
   62SAPC   H7Y 4950   1.744   4.135   6.998 -1.0392 -2.1671 -0.6905
   62SAPC   C38 4951   1.611   3.984   7.079  0.1726 -0.8494  0.6208
   62SAPC   H8X 4952   1.577   3.943   7.176 -0.1703 -2.2795 -0.0821
   62SAPC   H8Y 4953   1.670   3.904   7.029  2.5924  0.8939  0.4693
   62SAPC   C39 4954   1.480   4.023   7.005  0.0358 -0.5561 -0.0792
   62SAPC   H9X 4955   1.440   4.109   7.062  0.4989 -1.9743  2.5284
   62SAPC   H9Y 4956   1.412   3.937   7.023  0.2218 -0.7701 -0.3825
   62SAPC  C310 4957   1.497   4.056   6.856  0.3462 -0.4472 -0.3107
   62SAPC  H10X 4958   1.568   4.141   6.851 -0.7372  0.5312  0.3590
   62SAPC  H10Y 4959   1.410   4.112   6.815  1.9330  3.7727  1.4936
   62SAPC  C311 4960   1.548   3.937   6.772  0.1233 -0.2424 -0.1460
   62SAPC  H11X 4961   1.487   3.852   6.807 -0.0334  0.0833  0.3717
   62SAPC  H11Y 4962   1.656   3.935   6.800 -0.4907  0.2121  2.4310
   62SAPC  C312 4963   1.518   3.964   6.623 -0.1988 -0.1456 -0.3246
   62SAPC  H12X 4964   1.425   4.024   6.611 -0.8663 -1.3617 -1.3936
   62SAPC  H12Y 4965   1.497   3.865   6.578  1.4062 -0.2471 -0.8891
   62SAPC  C313 4966   1.628   4.029   6.550  0.2935  0.0435 -0.2132
   62SAPC  H13X 4967   1.711   3.956   6.557  0.9081  0.4897 -2.1744
   62SAPC  H13Y 4968   1.673   4.112   6.609 -1.3530  0.5713  0.3744
   62SAPC  C314 4969   1.612   4.059   6.402  0.8313  0.1801 -0.0084
   62SAPC  H14X 4970   1.532   4.135   6.388 -1.9164 -2.2296  1.3842
   62SAPC  H14Y 4971   1.567   3.968   6.357  1.0019 -0.8546  1.7885
   62SAPC  C315 4972   1.744   4.113   6.337  0.3559 -0.0113  0.4357
   62SAPC  H15X 4973   1.827   4.048   6.370  0.4424  0.0322  0.3049
   62SAPC  H15Y 4974   1.765   4.222   6.345 -1.9878  0.5956 -0.7346
   62SAPC  C316 4975   1.756   4.082   6.187  0.0689 -0.5855 -0.4159
   62SAPC  H16X 4976   1.728   3.976   6.164  0.0753 -0.4697 -0.9664
   62SAPC  H16Y 4977   1.860   4.100   6.151  0.3263  2.7724  1.6259
   62SAPC  C317 4978   1.653   4.166   6.108 -0.2299  0.3050 -0.2788
   62SAPC  H17X 4979   1.686   4.272   6.115  2.4121 -0.3165 -1.6813
   62SAPC  H17Y 4980   1.554   4.145   6.152 -0.0401 -2.1272 -0.8993
   62SAPC  C318 4981   1.653   4.111   5.969  0.7939  0.0032 -0.0324
   62SAPC  H18X 4982   1.747   4.151   5.924  1.3552 -0.3639  0.7739
   62SAPC  H18Y 4983   1.565   4.155   5.919 -0.6547 -0.8409  1.6610
   62SAPC  H18Z 4984   1.646   4.001   5.955 -1.0368  0.1969 -0.8415
   63SAPC     N 4985   1.798   5.832   8.434  0.5509  0.5977 -0.2418
   63SAPC   C12 4986   1.868   5.906   8.544 -0.1146 -0.5665 -0.0044
   63SAPC  H12A 4987   1.954   5.948   8.495 -0.4061 -0.3394 -0.3269
   63SAPC  H12B 4988   1.913   5.833   8.610  0.0836 -0.9863 -0.5935
   63SAPC   C13 4989   1.721   5.934   8.348  0.0272  0.2220 -0.8926
   63SAPC  H13A 4990   1.674   6.012   8.405 -1.6508  1.3241 -3.5998
   63SAPC  H13B 4991   1.789   5.979   8.276 -0.8233 -0.2177 -1.9995
   63SAPC  H13C 4992   1.645   5.881   8.292 -0.6824  1.6071 -1.2813
   63SAPC   C14 4993   1.903   5.762   8.353  0.4714 -0.7522 -0.5547
   63SAPC  H14A 4994   1.965   5.693   8.407  0.9174  0.0253 -0.0437
   63SAPC  H14B 4995   1.853   5.713   8.271  0.5761 -1.7759 -0.0257
   63SAPC  H14C 4996   1.976   5.832   8.315  1.0144  1.1154  3.3710
   63SAPC   C15 4997   1.701   5.730   8.495 -0.5944 -0.5856 -0.3023
   63SAPC  H15A 4998   1.759   5.669   8.562 -2.4593 -1.5905  0.4660
   63SAPC  H15B 4999   1.624   5.783   8.550  1.8665 -0.1343  3.0930
   63SAPC  H15C 5000   1.658   5.678   8.411  1.1512 -1.3963 -0.7417
   63SAPC   C11 5001   1.796   6.002   8.630 -0.1847 -0.7423  0.7561
   63SAPC  H11A 5002   1.874   6.025   8.705  2.2056  1.5017 -2.1743
   63SAPC  H11B 5003   1.706   5.947   8.666 -0.2259  0.0867  1.9716
   63SAPC     P 5004   1.734   6.261   8.609  0.4054  0.1769 -0.0997
   63SAPC   O13 5005   1.668   6.268   8.739  0.6731  0.0606 -0.5070
   63SAPC   O14 5006   1.871   6.306   8.596  0.5869  0.0411 -0.1173
   63SAPC   O12 5007   1.735   6.113   8.559 -0.0513 -0.9087  0.3333
   63SAPC   O11 5008   1.635   6.335   8.521 -0.5409 -0.5303  0.4441
   63SAPC    C1 5009   1.601   6.298   8.385  0.0695  0.4717 -0.0761
   63SAPC    HA 5010   1.692   6.251   8.344  1.2042  1.9813  0.5863
   63SAPC    HB 5011   1.520   6.222   8.381  0.7220 -0.1949 -0.8214
   63SAPC    C2 5012   1.560   6.416   8.297 -0.6652  0.2389 -0.0609
   63SAPC    HS 5013   1.452   6.437   8.284 -0.3295  1.3603 -1.2994
   63SAPC   O21 5014   1.620   6.398   8.165 -0.2580  0.3189 -0.1630
   63SAPC   C21 5015   1.564   6.308   8.087 -0.2077 -0.8830 -0.6567
   63SAPC   O22 5016   1.486   6.227   8.123  0.1255  0.1539 -0.5787
   63SAPC   C22 5017   1.612   6.327   7.947  0.3670 -0.6110 -0.1457
   63SAPC   H2R 5018   1.541   6.394   7.893  0.2074 -0.9394 -0.3488
   63SAPC   H2S 5019   1.707   6.384   7.948  0.1363 -0.1930 -0.9886
   63SAPC    C3 5020   1.625   6.549   8.353 -0.0837 -0.0614 -0.2114
   63SAPC    HX 5021   1.734   6.540   8.370  0.2133 -3.1677 -2.6449
   63SAPC    HY 5022   1.575   6.564   8.451  1.4418  0.8315  0.4597
   63SAPC   O31 5023   1.586   6.657   8.268 -0.0624 -0.9942  0.1690
   63SAPC   C31 5024   1.671   6.683   8.170  0.2594  0.4210  0.3769
   63SAPC   O32 5025   1.781   6.633   8.155 -0.1615 -0.3998  0.3936
   63SAPC   C32 5026   1.611   6.795   8.082  0.8890  0.0634 -0.0244
   63SAPC   H2X 5027   1.689   6.866   8.047  0.2441  0.1906 -1.2521
   63SAPC   H2Y 5028   1.552   6.850   8.158 -1.9754 -1.1538 -1.2162
   63SAPC   C23 5029   1.608   6.201   7.867 -0.4687 -0.0531 -0.4270
   63SAPC   H3R 5030   1.512   6.145   7.860 -1.4236  1.2348  1.5218
   63SAPC   H3S 5031   1.676   6.122   7.907 -0.4526 -0.1375 -0.6187
   63SAPC   C24 5032   1.666   6.236   7.723 -0.4771  0.0868 -0.0018
   63SAPC   H4R 5033   1.600   6.314   7.679 -0.8830 -0.7807 -0.9642
   63SAPC   H4S 5034   1.657   6.149   7.655  0.5281  1.5358 -2.1202
   63SAPC   C25 5035   1.815   6.274   7.733  0.0039  0.2094  0.2801
   63SAPC   H5R 5036   1.847   6.271   7.839 -0.3422 -0.1436  0.3806
   63SAPC   C26 5037   1.908   6.314   7.642 -0.3012  0.3880 -0.1965
   63SAPC   H6R 5038   2.015   6.317   7.669 -0.0569 -2.1671 -0.6017
   63SAPC   C27 5039   1.886   6.321   7.495 -0.4598  0.4932 -0.0477
   63SAPC   H7R 5040   1.776   6.328   7.477 -0.4770  0.0349 -0.1422
   63SAPC   H7S 5041   1.906   6.217   7.462  1.5843  0.2058  1.8960
   63SAPC   C28 5042   1.963   6.424   7.418 -0.2414  0.2650 -0.0313
   63SAPC   H8R 5043   2.024   6.489   7.483 -0.6012  1.5291 -0.9149
   63SAPC   C29 5044   1.955   6.462   7.292 -0.2377  0.7364  0.1360
   63SAPC   H9R 5045   2.032   6.521   7.241  1.3272 -1.8090 -0.6682
   63SAPC  C210 5046   1.878   6.385   7.187  0.7632  0.2074 -0.2041
   63SAPC  H10R 5047   1.770   6.399   7.207  0.3271 -1.0193 -1.5454
   63SAPC  H10S 5048   1.889   6.275   7.200  0.3901  0.0224 -1.3519
   63SAPC  C211 5049   1.906   6.430   7.046 -0.5328  0.0763  0.3559
   63SAPC  H11R 5050   1.958   6.526   7.041  0.8894 -0.7184 -0.6896
   63SAPC  C212 5051   1.863   6.377   6.928 -0.7061 -0.0995  0.1869
   63SAPC  H12R 5052   1.907   6.419   6.836  0.4133  1.7187  1.4726
   63SAPC  C213 5053   1.770   6.260   6.903  0.0885 -0.3778 -0.0641
   63SAPC  H13R 5054   1.688   6.288   6.834  0.9484 -1.4702 -1.5794
   63SAPC  H13S 5055   1.708   6.243   6.994 -1.4558  3.0965 -0.3060
   63SAPC  C214 5056   1.840   6.134   6.859  0.5542  0.2238  1.3367
   63SAPC  H14R 5057   1.889   6.078   6.940  5.1235 -0.4411 -1.5227
   63SAPC  C215 5058   1.849   6.092   6.727  0.2314 -0.3374 -0.4037
   63SAPC  H15R 5059   1.899   5.995   6.714  0.1097 -0.6245  1.0398
   63SAPC  C216 5060   1.785   6.150   6.606 -0.7812  0.0844 -0.1086
   63SAPC  H16R 5061   1.729   6.245   6.618  0.3853  1.0852 -2.0695
   63SAPC  H16S 5062   1.720   6.073   6.559  1.4452 -1.2276 -1.2114
   63SAPC  C217 5063   1.896   6.188   6.506  0.8124  0.3404 -0.6852
   63SAPC  H17R 5064   1.967   6.257   6.557 -2.2386  1.0606  3.1072
   63SAPC  H17S 5065   1.851   6.245   6.422 -0.6774  0.1493 -0.0518
   63SAPC  C218 5066   1.975   6.063   6.456 -0.5300 -0.7255 -0.1086
   63SAPC  H18R 5067   2.040   6.022   6.536  0.0297 -1.5002 -0.9327
   63SAPC  H18S 5068   2.037   6.106   6.373 -0.6083 -0.7870 -0.1991
   63SAPC  C219 5069   1.891   5.953   6.398 -0.1046  0.8332 -0.3010
   63SAPC  H19R 5070   1.821   5.989   6.320 -2.1444 -1.0775  0.5297
   63SAPC  H19S 5071   1.835   5.895   6.475  2.5655 -0.2064  0.9941
   63SAPC  C220 5072   1.977   5.846   6.327  0.1121  0.2924  0.3270
   63SAPC  H20R 5073   2.047   5.876   6.246 -0.0633 -1.4143 -0.5000
   63SAPC  H20S 5074   1.904   5.779   6.276  0.4806 -0.4019  0.7074
   63SAPC  H20T 5075   2.027   5.784   6.404  0.1553  2.0064  1.7333
   63SAPC   C33 5076   1.535   6.737   7.965  0.2425  0.1404 -0.0911
   63SAPC   H3X 5077   1.465   6.816   7.929  0.2576 -0.3661 -1.2807
   63SAPC   H3Y 5078   1.477   6.648   7.997  0.8854  0.3132  1.6576
   63SAPC   C34 5079   1.623   6.700   7.847 -0.4438  0.1936 -0.0888
   63SAPC   H4X 5080   1.710   6.635   7.871 -0.3926 -0.1947 -1.2760
   63SAPC   H4Y 5081   1.671   6.793   7.810 -1.3505 -0.1416 -2.2508
   63SAPC   C35 5082   1.550   6.616   7.740  0.2756 -0.1337 -0.0071
   63SAPC   H5X 5083   1.465   6.552   7.773  0.5138  0.9339  2.9827
   63SAPC   H5Y 5084   1.628   6.558   7.685  1.9056  1.3006  0.6992
   63SAPC   C36 5085   1.502   6.707   7.634  0.4619 -0.0996 -0.0489
   63SAPC   H6X 5086   1.588   6.734   7.568  0.4390 -0.0831 -0.0723
   63SAPC   H6Y 5087   1.465   6.807   7.666 -0.3185 -0.6322  0.7389
   63SAPC   C37 5088   1.412   6.650   7.530  0.1172 -0.1027  1.3651
   63SAPC   H7X 5089   1.307   6.630   7.560 -0.3131  0.5502  0.3477
   63SAPC   H7Y 5090   1.461   6.555   7.503  0.1681 -0.2884  2.0916
   63SAPC   C38 5091   1.409   6.742   7.404 -0.2072  0.5970  0.3859
   63SAPC   H8X 5092   1.514   6.754   7.370 -0.2509  2.3782  0.7588
   63SAPC   H8Y 5093   1.384   6.843   7.443  0.3505  0.3989  1.2829
   63SAPC   C39 5094   1.319   6.702   7.293  0.1941 -0.1798  1.4033
   63SAPC   H9X 5095   1.294   6.786   7.225  0.6074 -1.9836 -1.1094
   63SAPC   H9Y 5096   1.225   6.656   7.332 -0.2603  2.9306  4.4429
   63SAPC  C310 5097   1.387   6.595   7.188  0.4748 -0.0989 -0.9153
   63SAPC  H10X 5098   1.308   6.567   7.115  0.1852  1.8666 -1.4012
   63SAPC  H10Y 5099   1.405   6.503   7.248  0.5751  0.9124  0.6797
   63SAPC  C311 5100   1.507   6.653   7.098  0.4649  0.4190 -0.0754
   63SAPC  H11X 5101   1.594   6.609   7.152 -0.1716 -1.8290 -0.7654
   63SAPC  H11Y 5102   1.506   6.763   7.113  0.1668  0.3264  0.6661
   63SAPC  C312 5103   1.501   6.608   6.950  0.1698 -0.5144 -0.2082
   63SAPC  H12X 5104   1.395   6.619   6.917  0.0009 -0.6727  0.2626
   63SAPC  H12Y 5105   1.503   6.497   6.946 -2.0229 -0.5959 -0.2715
   63SAPC  C313 5106   1.619   6.648   6.862  0.4091 -0.7780 -0.5750
   63SAPC  H13X 5107   1.706   6.604   6.914 -0.1177 -1.8206 -0.5409
   63SAPC  H13Y 5108   1.631   6.756   6.843  1.2505 -0.6482  0.6473
   63SAPC  C314 5109   1.617   6.581   6.720  0.3075 -0.3279 -0.4446
   63SAPC  H14X 5110   1.610   6.472   6.736  0.2553  0.0062  2.2731
   63SAPC  H14Y 5111   1.705   6.612   6.659 -0.8155  2.8468 -0.6546
   63SAPC  C315 5112   1.494   6.640   6.645  0.1364  0.3437  1.1395
   63SAPC  H15X 5113   1.506   6.748   6.624  1.7429 -0.0069  0.0718
   63SAPC  H15Y 5114   1.401   6.615   6.701  0.4456 -0.0042  1.4975
   63SAPC  C316 5115   1.470   6.575   6.512  0.1974  0.1500 -0.6701
   63SAPC  H16X 5116   1.482   6.465   6.517 -3.4746 -0.2993  2.6494
   63SAPC  H16Y 5117   1.545   6.606   6.436 -0.2562  0.0627 -1.1601
   63SAPC  C317 5118   1.335   6.616   6.460 -0.3789  0.2177  0.5272
   63SAPC  H17X 5119   1.315   6.723   6.443 -0.9340 -0.3401 -3.0911
   63SAPC  H17Y 5120   1.263   6.565   6.528  1.3103 -1.0446  1.4727
   63SAPC  C318 5121   1.333   6.557   6.320  1.4662 -0.0049  0.0303
   63SAPC  H18X 5122   1.328   6.447   6.309 -1.8816 -0.0070  0.7053
   63SAPC  H18Y 5123   1.420   6.590   6.259  2.7600 -1.4974  0.9679
   63SAPC  H18Z 5124   1.252   6.595   6.254  1.2960  0.7574  0.6638
   64SAPC     N 5125   5.544   0.834   8.063 -0.4167  0.3305 -0.4148
   64SAPC   C12 5126   5.677   0.828   8.135 -0.1485 -0.2073 -0.2059
   64SAPC  H12A 5127   5.683   0.743   8.201 -1.0803 -0.0170  0.1464
   64SAPC  H12B 5128   5.674   0.916   8.197 -1.8017 -0.1648 -0.2937
   64SAPC   C13 5129   5.433   0.803   8.158  0.3485 -0.1640  0.0744
   64SAPC  H13A 5130   5.436   0.721   8.228 -2.3966 -1.5576 -1.2747
   64SAPC  H13B 5131   5.413   0.888   8.221 -0.9804 -0.7358  0.4585
   64SAPC  H13C 5132   5.346   0.790   8.096  1.3925 -1.1277 -1.2771
   64SAPC   C14 5133   5.510   0.971   8.016 -0.2386 -0.4809 -0.4986
   64SAPC  H14A 5134   5.580   1.023   7.952 -1.5537  1.3498 -0.5332
   64SAPC  H14B 5135   5.417   0.971   7.961 -0.1135  0.5487 -0.7301
   64SAPC  H14C 5136   5.506   1.037   8.102 -2.7450 -1.2659  0.0891
   64SAPC   C15 5137   5.542   0.745   7.942  0.7181  0.1196 -0.0621
   64SAPC  H15A 5138   5.636   0.749   7.888 -0.5950  1.8521 -2.4094
   64SAPC  H15B 5139   5.527   0.642   7.971 -0.1037 -0.1867 -1.5045
   64SAPC  H15C 5140   5.464   0.769   7.872  1.2306  0.3184 -0.5799
   64SAPC   C11 5141   5.808   0.839   8.056 -0.1274  0.0348 -0.1144
   64SAPC  H11A 5142   5.880   0.860   8.138 -1.3684  0.3975  0.9277
   64SAPC  H11B 5143   5.802   0.927   7.989  0.5959  0.0705 -0.1334
   64SAPC     P 5144   5.896   0.598   8.022 -0.0009  0.5669  0.1996
   64SAPC   O13 5145   5.865   0.584   8.165  0.1942 -0.2753  0.2849
   64SAPC   O14 5146   5.862   0.490   7.925  0.2520 -0.4064  0.0793
   64SAPC   O12 5147   5.827   0.726   7.973 -0.0016  0.0731  0.4003
   64SAPC   O11 5148   6.048   0.620   8.010  0.3359  0.0721  0.1784
   64SAPC    C1 5149   6.116   0.716   7.928  0.4992 -0.2356 -0.0706
   64SAPC    HA 5150   6.059   0.811   7.928 -1.7585 -1.4772  1.0477
   64SAPC    HB 5151   6.216   0.741   7.968 -0.1126 -0.4291  1.6565
   64SAPC    C2 5152   6.125   0.655   7.783  0.1250  0.0185 -0.1302
   64SAPC    HS 5153   6.028   0.675   7.733  0.2119 -2.7211 -1.6279
   64SAPC   O21 5154   6.161   0.515   7.792  0.3393 -0.4121 -0.1373
   64SAPC   C21 5155   6.117   0.435   7.694  0.7997 -0.0457 -0.3718
   64SAPC   O22 5156   6.060   0.468   7.591  0.1092 -0.7259  0.3615
   64SAPC   C22 5157   6.166   0.292   7.730  0.0133  0.7080  0.1514
   64SAPC   H2R 5158   6.226   0.285   7.823  1.2259  2.1567 -0.4757
   64SAPC   H2S 5159   6.074   0.230   7.740 -0.6398  0.7377 -3.8126
   64SAPC    C3 5160   6.238   0.728   7.720  0.4844 -0.1464  0.6724
   64SAPC    HX 5161   6.331   0.693   7.769  1.4454 -0.7392 -1.4847
   64SAPC    HY 5162   6.242   0.838   7.736  0.3934 -0.2888  1.7280
   64SAPC   O31 5163   6.239   0.690   7.583  0.8363 -0.2059  0.1752
   64SAPC   C31 5164   6.159   0.771   7.512  0.2117 -0.4415  0.8729
   64SAPC   O32 5165   6.096   0.870   7.547  0.5454  0.0252  0.7902
   64SAPC   C32 5166   6.166   0.728   7.367 -0.5884 -0.5032  0.0127
   64SAPC   H2X 5167   6.164   0.617   7.364  1.5593 -0.5609 -0.6253
   64SAPC   H2Y 5168   6.268   0.753   7.332 -0.0866 -2.3564  0.0386
   64SAPC   C23 5169   6.237   0.225   7.617 -0.3644 -1.0112  0.1594
   64SAPC   H3R 5170   6.175   0.235   7.525 -0.3311 -0.5325  0.1828
   64SAPC   H3S 5171   6.262   0.121   7.646 -0.6119 -0.8555  0.9370
   64SAPC   C24 5172   6.370   0.304   7.584  0.2030 -0.7488 -0.1773
   64SAPC   H4R 5173   6.436   0.293   7.674  1.8732 -0.6611 -1.3445
   64SAPC   H4S 5174   6.342   0.410   7.569  1.1783 -0.1167  1.9470
   64SAPC   C25 5175   6.449   0.245   7.477  0.0388  0.0909 -0.0043
   64SAPC   H5R 5176   6.517   0.167   7.517 -1.4918 -1.1943  0.1851
   64SAPC   C26 5177   6.425   0.269   7.345  0.6642  0.1713  0.1493
   64SAPC   H6R 5178   6.479   0.206   7.273 -0.5813 -1.2248  0.3903
   64SAPC   C27 5179   6.320   0.365   7.296 -0.7921 -0.4592  0.0714
   64SAPC   H7R 5180   6.376   0.454   7.260 -1.4373  0.1134  0.4601
   64SAPC   H7S 5181   6.258   0.404   7.380  0.6159  0.4094  0.7387
   64SAPC   C28 5182   6.222   0.310   7.191  0.3529 -0.4043  0.2852
   64SAPC   H8R 5183   6.119   0.304   7.229  0.3500 -0.8651  0.2045
   64SAPC   C29 5184   6.247   0.279   7.059  0.0279  0.0988 -0.3155
   64SAPC   H9R 5185   6.167   0.228   7.003  0.1189  0.2855 -0.6170
   64SAPC  C210 5186   6.378   0.302   6.981  0.8456 -0.0685 -0.4312
   64SAPC  H10R 5187   6.467   0.314   7.046  0.6430 -2.5254  0.4119
   64SAPC  H10S 5188   6.357   0.400   6.935  2.1731  0.6155  0.3518
   64SAPC  C211 5189   6.412   0.184   6.897  0.1038 -0.5997  0.1398
   64SAPC  H11R 5190   6.402   0.085   6.945  0.2594 -0.9273 -0.4857
   64SAPC  C212 5191   6.447   0.188   6.765 -0.5182  0.2916 -1.2360
   64SAPC  H12R 5192   6.463   0.097   6.706  1.5399  0.0761 -0.4128
   64SAPC  C213 5193   6.449   0.321   6.698  1.0450  0.0697 -0.5295
   64SAPC  H13R 5194   6.520   0.379   6.761 -0.0410  0.4565  0.3602
   64SAPC  H13S 5195   6.353   0.377   6.699 -0.6908 -2.6561  1.6338
   64SAPC  C214 5196   6.508   0.324   6.562  0.2690  0.3622  0.1891
   64SAPC  H14R 5197   6.590   0.397   6.550  0.8436 -0.1202  1.0157
   64SAPC  C215 5198   6.462   0.257   6.452 -0.0028 -0.3042  0.3718
   64SAPC  H15R 5199   6.506   0.269   6.352  1.5821 -0.1276  1.0469
   64SAPC  C216 5200   6.350   0.155   6.442 -0.3812  0.0810  0.0588
   64SAPC  H16R 5201   6.281   0.186   6.360  0.9549  0.6447 -0.8954
   64SAPC  H16S 5202   6.294   0.144   6.537 -0.1034  0.4759  0.2699
   64SAPC  C217 5203   6.402   0.012   6.400 -0.0736  0.2931  0.2372
   64SAPC  H17R 5204   6.463  -0.034   6.480 -2.1202 -0.3852  1.4740
   64SAPC  H17S 5205   6.455   0.023   6.303  1.0151  4.0991  1.0859
   64SAPC  C218 5206   6.278  -0.078   6.382  0.2993  0.1652 -0.1104
   64SAPC  H18R 5207   6.191  -0.015   6.354 -0.2872 -0.8846 -0.7210
   64SAPC  H18S 5208   6.248  -0.138   6.471  0.1098 -1.4084 -1.2013
   64SAPC  C219 5209   6.309  -0.197   6.287 -0.0901  0.3893 -0.1517
   64SAPC  H19R 5210   6.399  -0.247   6.329  0.6736  1.8154 -0.0511
   64SAPC  H19S 5211   6.330  -0.173   6.181  1.0326 -0.4849 -0.1520
   64SAPC  C220 5212   6.193  -0.294   6.287  0.1213  0.6436  0.0969
   64SAPC  H20R 5213   6.182  -0.360   6.376  1.0060 -0.8432 -0.8717
   64SAPC  H20S 5214   6.199  -0.355   6.195  0.7256 -0.3346  0.7721
   64SAPC  H20T 5215   6.105  -0.226   6.292 -0.0472  0.4821 -0.5729
   64SAPC   C33 5216   6.052   0.782   7.272 -0.5692 -0.0685 -0.4772
   64SAPC   H3X 5217   6.036   0.890   7.289 -1.0653  0.4509 -3.5523
   64SAPC   H3Y 5218   5.956   0.733   7.299  0.5842 -1.6284  0.9809
   64SAPC   C34 5219   6.085   0.768   7.121 -0.5330  0.2959 -0.3142
   64SAPC   H4X 5220   6.191   0.793   7.099  0.0951 -1.9595 -0.0727
   64SAPC   H4Y 5221   6.018   0.837   7.065 -2.5018 -0.3756  1.1180
   64SAPC   C35 5222   6.064   0.627   7.073  0.1215  0.2510  0.1960
   64SAPC   H5X 5223   5.958   0.593   7.079  0.2187 -0.1737 -0.3650
   64SAPC   H5Y 5224   6.124   0.558   7.135 -0.2057  0.2187  0.4811
   64SAPC   C36 5225   6.103   0.619   6.924 -0.4904 -0.2028  0.1297
   64SAPC   H6X 5226   6.210   0.595   6.907  0.3043  0.0594  3.8578
   64SAPC   H6Y 5227   6.080   0.718   6.880 -2.5084 -1.3518 -1.6063
   64SAPC   C37 5228   6.009   0.530   6.846 -0.4200 -0.2889  0.2175
   64SAPC   H7X 5229   5.900   0.544   6.858 -0.1594  1.8569  0.6043
   64SAPC   H7Y 5230   6.034   0.429   6.885  1.5288 -1.1524 -2.8998
   64SAPC   C38 5231   6.037   0.527   6.698  0.4797 -0.3809 -0.2292
   64SAPC   H8X 5232   6.146   0.543   6.683  0.3263  1.3712  0.2763
   64SAPC   H8Y 5233   5.984   0.617   6.658  0.6414  0.7946  2.0562
   64SAPC   C39 5234   5.989   0.400   6.634  1.0707  0.2271  0.4850
   64SAPC   H9X 5235   5.878   0.392   6.635  1.1164 -0.7320  2.3354
   64SAPC   H9Y 5236   6.028   0.317   6.697  0.9434 -0.2793 -0.0989
   64SAPC  C310 5237   6.047   0.394   6.493 -0.6914 -0.8334 -0.0868
   64SAPC  H10X 5238   6.157   0.378   6.502 -0.0432  1.9371 -1.7498
   64SAPC  H10Y 5239   6.016   0.490   6.445  2.3767  0.2161 -0.1980
   64SAPC  C311 5240   5.995   0.289   6.396  0.9483 -0.3112  0.1591
   64SAPC  H11X 5241   5.885   0.282   6.405  0.8297 -2.2628 -1.8693
   64SAPC  H11Y 5242   6.045   0.196   6.432  0.6686  0.1057  1.6806
   64SAPC  C312 5243   6.030   0.314   6.251  0.3054 -0.6016 -0.0481
   64SAPC  H12X 5244   6.036   0.210   6.210  0.2124 -0.9250  0.7499
   64SAPC  H12Y 5245   6.137   0.342   6.250  0.9529 -2.8256 -0.6259
   64SAPC  C313 5246   5.932   0.385   6.160  1.3204 -0.9283  0.1533
   64SAPC  H13X 5247   5.923   0.486   6.205  2.3543 -1.2476  1.1252
   64SAPC  H13Y 5248   5.830   0.342   6.158  1.2055 -0.7463  1.2940
   64SAPC  C314 5249   5.992   0.401   6.019 -0.0310 -0.0853  0.1797
   64SAPC  H14X 5250   6.038   0.306   5.983 -0.7590 -0.4109  0.0957
   64SAPC  H14Y 5251   6.073   0.477   6.024  0.7313 -0.6571 -2.2470
   64SAPC  C315 5252   5.896   0.462   5.910 -0.3208 -0.1975 -0.6946
   64SAPC  H15X 5253   5.841   0.551   5.947 -3.3983 -0.7545 -3.4958
   64SAPC  H15Y 5254   5.811   0.396   5.884 -1.5487  1.7778 -1.8659
   64SAPC  C316 5255   5.969   0.475   5.779  0.3876 -0.2416  0.2703
   64SAPC  H16X 5256   6.012   0.374   5.757 -0.2360 -0.3779 -0.3364
   64SAPC  H16Y 5257   6.054   0.544   5.798  0.2059  0.3788 -1.0678
   64SAPC  C317 5258   5.881   0.529   5.665 -0.2442 -0.4158  0.1458
   64SAPC  H17X 5259   5.858   0.632   5.697  0.6270 -1.0533  3.0803
   64SAPC  H17Y 5260   5.791   0.464   5.653 -0.4342 -0.1474  0.1072
   64SAPC  C318 5261   5.959   0.521   5.537  0.0664  0.2395 -0.0518
   64SAPC  H18X 5262   5.915   0.599   5.471 -0.0417 -0.1197 -0.4048
   64SAPC  H18Y 5263   5.938   0.422   5.493 -1.2132  0.9888 -1.2247
   64SAPC  H18Z 5264   6.067   0.544   5.551 -0.0501  1.0818 -0.4577
   65SAPC     N 5265   3.863   4.774   3.510 -0.0119 -0.1330  0.0822
   65SAPC   C12 5266   3.909   4.912   3.464  0.1525 -0.0938 -0.5167
   65SAPC  H12A 5267   3.951   4.914   3.365 -1.7597 -0.0624 -1.3784
   65SAPC  H12B 5268   3.986   4.952   3.529 -0.0525  1.9458 -1.4610
   65SAPC   C13 5269   3.781   4.700   3.408 -0.1812  0.0426 -0.4189
   65SAPC  H13A 5270   3.693   4.762   3.395  0.7887  1.7360  0.7145
   65SAPC  H13B 5271   3.828   4.692   3.311 -1.0050  1.2761 -0.9426
   65SAPC  H13C 5272   3.747   4.608   3.453 -0.2315 -0.2260 -0.9936
   65SAPC   C14 5273   3.987   4.695   3.525 -0.0229 -0.2574  0.1791
   65SAPC  H14A 5274   3.968   4.593   3.555 -0.4391 -0.1077  0.4282
   65SAPC  H14B 5275   4.034   4.685   3.429  3.4543  2.0411  1.4293
   65SAPC  H14C 5276   4.071   4.734   3.580  2.1868 -2.5046 -1.4036
   65SAPC   C15 5277   3.794   4.778   3.640  0.4629 -0.3009 -0.4519
   65SAPC  H15A 5278   3.726   4.861   3.646 -1.3819 -1.6746 -1.4380
   65SAPC  H15B 5279   3.732   4.690   3.656  1.1717 -0.3407  2.5527
   65SAPC  H15C 5280   3.871   4.783   3.716  2.5706 -0.5381 -2.4416
   65SAPC   C11 5281   3.800   5.023   3.466  0.1394 -0.2712 -0.2868
   65SAPC  H11A 5282   3.840   5.120   3.430  0.0280 -0.4505 -0.9179
   65SAPC  H11B 5283   3.765   5.053   3.567  2.8905  2.8316 -0.0840
   65SAPC     P 5284   3.544   5.003   3.405  0.5330 -0.0808 -0.1289
   65SAPC   O13 5285   3.490   5.130   3.348  0.5641  0.1311 -0.1839
   65SAPC   O14 5286   3.485   4.878   3.352  0.2899  0.2521  0.6439
   65SAPC   O12 5287   3.699   4.992   3.370 -0.4590  0.0933  0.0533
   65SAPC   O11 5288   3.527   5.001   3.559 -0.4837 -0.7972  0.3958
   65SAPC    C1 5289   3.432   4.918   3.622  0.6051  0.5705 -0.9035
   65SAPC    HA 5290   3.335   4.944   3.576  0.9660 -2.0078 -3.3783
   65SAPC    HB 5291   3.451   4.812   3.597  0.5245 -0.1179  1.6764
   65SAPC    C2 5292   3.427   4.923   3.775  0.0487 -0.5056  0.0272
   65SAPC    HS 5293   3.392   5.027   3.794  2.0443  0.0502  0.9461
   65SAPC   O21 5294   3.556   4.896   3.822 -0.1760 -0.1250 -0.2834
   65SAPC   C21 5295   3.577   4.939   3.954 -0.0635  0.0963 -0.4483
   65SAPC   O22 5296   3.504   5.012   4.016  0.2959 -0.1441  0.5571
   65SAPC   C22 5297   3.697   4.859   4.006 -0.2091 -0.6447 -0.2585
   65SAPC   H2R 5298   3.674   4.758   3.967  0.8789 -0.1671 -2.2741
   65SAPC   H2S 5299   3.790   4.882   3.950  0.2035  0.8216  0.9523
   65SAPC    C3 5300   3.311   4.817   3.826  0.5596 -0.4135 -0.1326
   65SAPC    HX 5301   3.366   4.723   3.807 -0.4895 -0.9796 -0.4255
   65SAPC    HY 5302   3.222   4.828   3.760  1.8108  1.9357 -1.5787
   65SAPC   O31 5303   3.277   4.827   3.960  0.4878  0.0371 -0.2194
   65SAPC   C31 5304   3.211   4.934   4.001  0.3821 -0.7365  0.2167
   65SAPC   O32 5305   3.154   5.014   3.925  0.2284 -0.1476  0.1165
   65SAPC   C32 5306   3.205   4.942   4.154 -0.7895 -0.3615  0.0487
   65SAPC   H2X 5307   3.241   5.043   4.183 -1.4131  0.5219 -2.0604
   65SAPC   H2Y 5308   3.267   4.861   4.198  0.5055  0.6665  0.1593
   65SAPC   C23 5309   3.725   4.877   4.156 -0.3120 -0.9887  0.1540
   65SAPC   H3R 5310   3.805   4.802   4.174  1.1832  0.2067 -1.1995
   65SAPC   H3S 5311   3.637   4.830   4.205 -0.3729  1.2299  2.4062
   65SAPC   C24 5312   3.759   5.020   4.211 -0.5480 -0.1353  0.3069
   65SAPC   H4R 5313   3.675   5.087   4.181 -0.6185 -0.1810  0.4035
   65SAPC   H4S 5314   3.854   5.054   4.164 -0.1659 -0.8300  0.5615
   65SAPC   C25 5315   3.765   5.020   4.364  0.8635  0.2788  0.0521
   65SAPC   H5R 5316   3.842   4.953   4.405  2.2496  0.2680 -2.3606
   65SAPC   C26 5317   3.693   5.090   4.451 -0.3336 -0.3453  0.3056
   65SAPC   H6R 5318   3.706   5.073   4.558 -1.4735  0.7682  0.6561
   65SAPC   C27 5319   3.573   5.180   4.426  0.4108 -0.4398 -0.0232
   65SAPC   H7R 5320   3.570   5.215   4.320 -0.3503  0.7013  0.3565
   65SAPC   H7S 5321   3.591   5.277   4.477 -0.6594 -1.0386  1.5793
   65SAPC   C28 5322   3.440   5.118   4.469 -0.3080  0.0495  0.5420
   65SAPC   H8R 5323   3.420   5.023   4.416  1.7921 -0.3317  0.3325
   65SAPC   C29 5324   3.357   5.169   4.560  0.6248  0.2618  0.1282
   65SAPC   H9R 5325   3.260   5.118   4.565  0.9468 -0.7760 -2.3340
   65SAPC  C210 5326   3.362   5.304   4.626  0.2335 -0.0063  0.7287
   65SAPC  H10R 5327   3.412   5.370   4.551 -3.2669  1.5255 -0.4795
   65SAPC  H10S 5328   3.422   5.298   4.719  1.1690  0.7028  0.1882
   65SAPC  C211 5329   3.223   5.363   4.658 -0.0053 -0.3418  0.2201
   65SAPC  H11R 5330   3.196   5.456   4.605  0.7340  1.0167  2.0944
   65SAPC  C212 5331   3.131   5.312   4.749 -0.5811 -0.2661 -0.1239
   65SAPC  H12R 5332   3.032   5.356   4.765 -0.8678 -1.0117  0.2362
   65SAPC  C213 5333   3.148   5.187   4.821 -0.3934 -0.1338 -0.7972
   65SAPC  H13R 5334   3.249   5.140   4.816  0.1605  1.0300 -1.1092
   65SAPC  H13S 5335   3.080   5.114   4.772  0.0994 -0.4547 -1.0185
   65SAPC  C214 5336   3.116   5.198   4.974  0.7770  0.1816  0.1708
   65SAPC  H14R 5337   3.007   5.205   4.988  0.1488  1.1533 -3.9490
   65SAPC  C215 5338   3.195   5.194   5.084  0.8222 -0.0717  0.3651
   65SAPC  H15R 5339   3.153   5.202   5.185  2.3361 -1.0839  1.1136
   65SAPC  C216 5340   3.340   5.196   5.085  0.2424 -0.0094  0.8088
   65SAPC  H16R 5341   3.387   5.168   4.988 -0.5031  0.2808  0.3558
   65SAPC  H16S 5342   3.368   5.112   5.153  1.8504 -0.2266 -0.0581
   65SAPC  C217 5343   3.410   5.324   5.149 -0.1269  0.3544 -0.0162
   65SAPC  H17R 5344   3.404   5.400   5.068  2.4716  1.2059  0.4871
   65SAPC  H17S 5345   3.514   5.296   5.177 -1.0058 -1.9573  1.1893
   65SAPC  C218 5346   3.343   5.381   5.280  0.3895  0.0569  0.7186
   65SAPC  H18R 5347   3.247   5.420   5.240  0.0390 -0.6673  0.8215
   65SAPC  H18S 5348   3.397   5.468   5.323 -0.3647  1.5379 -1.1879
   65SAPC  C219 5349   3.317   5.270   5.390  0.8412 -0.8265  0.1492
   65SAPC  H19R 5350   3.413   5.219   5.414 -0.1225 -2.7749  0.0873
   65SAPC  H19S 5351   3.261   5.193   5.333 -0.0745  1.6298 -2.5084
   65SAPC  C220 5352   3.246   5.319   5.518 -0.7136  0.0752 -0.2046
   65SAPC  H20R 5353   3.302   5.408   5.556 -2.1637  0.4234  1.2184
   65SAPC  H20S 5354   3.250   5.249   5.603 -1.3197  0.5492  0.2256
   65SAPC  H20T 5355   3.140   5.351   5.504 -0.7565  0.8495  1.5833
   65SAPC   C33 5356   3.062   4.928   4.213  0.4303  0.1984  1.0305
   65SAPC   H3X 5357   3.027   4.830   4.173  2.1911 -0.2076  0.3597
   65SAPC   H3Y 5358   2.993   5.004   4.171  1.3776 -0.1529 -1.3514
   65SAPC   C34 5359   3.067   4.930   4.364  0.4531  0.1304 -0.4492
   65SAPC   H4X 5360   3.098   5.030   4.401 -0.9341 -0.2438  1.9281
   65SAPC   H4Y 5361   3.143   4.860   4.406  0.9760  0.6451 -0.5105
   65SAPC   C35 5362   2.930   4.896   4.422 -0.1680 -0.9887  0.4269
   65SAPC   H5X 5363   2.891   4.800   4.381 -0.4349  0.3714 -2.8105
   65SAPC   H5Y 5364   2.857   4.968   4.378  1.0640 -0.8413 -1.5125
   65SAPC   C36 5365   2.928   4.892   4.574  0.2156  0.2890  0.1902
   65SAPC   H6X 5366   2.954   4.994   4.610 -0.5921  0.3215  0.7283
   65SAPC   H6Y 5367   2.999   4.815   4.611  0.4357  0.9661  1.2166
   65SAPC   C37 5368   2.787   4.850   4.624 -0.8981 -0.3440 -0.2354
   65SAPC   H7X 5369   2.755   4.779   4.545 -0.5081  0.3099 -0.9994
   65SAPC   H7Y 5370   2.716   4.935   4.620 -0.7724 -0.1953  0.5559
   65SAPC   C38 5371   2.780   4.785   4.767  0.3311 -0.4843 -0.0735
   65SAPC   H8X 5372   2.823   4.683   4.760  1.7558  0.0224  0.9224
   65SAPC   H8Y 5373   2.674   4.795   4.797  0.1848  0.3509 -0.7900
   65SAPC   C39 5374   2.856   4.854   4.888  0.4130  0.0766 -0.0319
   65SAPC   H9X 5375   2.847   4.964   4.874  1.1884  0.0308 -1.0153
   65SAPC   H9Y 5376   2.960   4.817   4.887 -0.2002 -1.7678 -1.0822
   65SAPC  C310 5377   2.789   4.824   5.023  0.0342  0.1631 -0.2351
   65SAPC  H10X 5378   2.786   4.714   5.030 -1.2734  0.2624  1.3759
   65SAPC  H10Y 5379   2.679   4.840   5.020 -0.1439 -1.0902 -1.7105
   65SAPC  C311 5380   2.849   4.881   5.146 -0.4993 -0.2419 -0.0481
   65SAPC  H11X 5381   2.781   4.884   5.233 -1.1301  1.6931 -0.5583
   65SAPC  H11Y 5382   2.867   4.991   5.139  2.1993 -0.6661 -1.0107
   65SAPC  C312 5383   2.973   4.810   5.197  0.5353  0.6173  0.9469
   65SAPC  H12X 5384   3.049   4.818   5.117 -0.6681  1.7051 -0.1245
   65SAPC  H12Y 5385   2.947   4.702   5.205  0.4193  0.0232 -4.2109
   65SAPC  C313 5386   3.012   4.860   5.331  0.3553  0.8796 -0.1286
   65SAPC  H13X 5387   2.922   4.844   5.395  0.9179 -0.4719  0.3779
   65SAPC  H13Y 5388   3.027   4.970   5.337 -1.4812  1.3092 -2.0793
   65SAPC  C314 5389   3.133   4.777   5.387 -0.5846 -0.5916 -0.6298
   65SAPC  H14X 5390   3.222   4.791   5.322  0.1565 -1.8734  0.0942
   65SAPC  H14Y 5391   3.118   4.668   5.379  3.4188 -1.2712 -0.6981
   65SAPC  C315 5392   3.165   4.797   5.538  0.2926 -0.6057  1.0326
   65SAPC  H15X 5393   3.067   4.804   5.591 -0.5622  0.2913 -0.6016
   65SAPC  H15Y 5394   3.214   4.891   5.570 -0.8584 -0.0164  1.1141
   65SAPC  C316 5395   3.252   4.687   5.594  0.4418 -0.0437 -0.7009
   65SAPC  H16X 5396   3.348   4.696   5.539 -0.8306 -1.4429 -3.3284
   65SAPC  H16Y 5397   3.217   4.584   5.572  1.9804 -0.8137  0.2252
   65SAPC  C317 5398   3.282   4.693   5.747  0.3603 -0.4111  0.0390
   65SAPC  H17X 5399   3.332   4.792   5.763  0.2646 -0.3360 -0.1297
   65SAPC  H17Y 5400   3.356   4.613   5.765  0.3039 -0.4246  0.2213
   65SAPC  C318 5401   3.160   4.672   5.843  0.0999  0.0887  0.7069
   65SAPC  H18X 5402   3.139   4.564   5.858 -1.2237  0.1624 -0.3309
   65SAPC  H18Y 5403   3.064   4.715   5.805  1.0206 -0.5307 -2.6624
   65SAPC  H18Z 5404   3.180   4.717   5.942  1.4778 -1.5294  1.2055
   66SAPC     N 5405   1.678   3.874   3.768 -0.3116  0.2970 -0.4789
   66SAPC   C12 5406   1.805   3.959   3.754 -0.4464  0.0935 -0.0677
   66SAPC  H12A 5407   1.815   3.994   3.652  2.7943 -2.1004 -0.6430
   66SAPC  H12B 5408   1.896   3.902   3.765 -0.2397 -0.2100 -2.6730
   66SAPC   C13 5409   1.671   3.804   3.906  0.0888  0.0178  0.0465
   66SAPC  H13A 5410   1.759   3.744   3.925  0.0217  0.5371  2.3118
   66SAPC  H13B 5411   1.679   3.878   3.985  1.1546 -0.2029  0.1592
   66SAPC  H13C 5412   1.574   3.758   3.916 -0.9799  1.9441 -0.9182
   66SAPC   C14 5413   1.562   3.972   3.753 -0.3222  0.6699  0.6753
   66SAPC  H14A 5414   1.576   4.027   3.661 -1.2517 -0.1415  0.0279
   66SAPC  H14B 5415   1.465   3.925   3.750  1.1390 -2.5654  0.0630
   66SAPC  H14C 5416   1.563   4.047   3.831 -0.6951  0.9545  0.4097
   66SAPC   C15 5417   1.670   3.760   3.671  1.2366  0.2484  0.0483
   66SAPC  H15A 5418   1.754   3.695   3.696  1.3860  0.4537  0.0851
   66SAPC  H15B 5419   1.588   3.690   3.680 -0.7523  2.5283  0.5003
   66SAPC  H15C 5420   1.690   3.797   3.572  1.7605  1.0816  0.4572
   66SAPC   C11 5421   1.813   4.086   3.844 -0.3244  0.1086 -0.0231
   66SAPC  H11A 5422   1.915   4.127   3.832  0.5618 -2.5641 -2.8836
   66SAPC  H11B 5423   1.780   4.045   3.942 -3.5190 -0.7173 -1.3295
   66SAPC     P 5424   1.661   4.283   3.917  0.0564 -0.0207  0.2012
   66SAPC   O13 5425   1.630   4.407   3.848 -0.0663  0.3440 -0.0468
   66SAPC   O14 5426   1.547   4.209   3.974  0.0072  0.0811 -0.0333
   66SAPC   O12 5427   1.721   4.185   3.806 -0.5186 -1.0682 -0.3530
   66SAPC   O11 5428   1.779   4.299   4.020  0.0739  0.1314 -0.5155
   66SAPC    C1 5429   1.751   4.311   4.159 -0.1776  0.2119  0.2781
   66SAPC    HA 5430   1.685   4.393   4.195 -2.9334 -2.9029  3.0056
   66SAPC    HB 5431   1.711   4.212   4.191 -2.3641  1.3760  1.3789
   66SAPC    C2 5432   1.884   4.333   4.237 -0.0836 -0.3961 -0.1290
   66SAPC    HS 5433   1.951   4.262   4.184  1.8095 -0.0822  1.7591
   66SAPC   O21 5434   1.859   4.296   4.376  0.4781  0.4744  0.0841
   66SAPC   C21 5435   1.969   4.273   4.444 -0.1489  0.5719 -0.0463
   66SAPC   O22 5436   2.076   4.268   4.394 -0.1536 -0.9396  0.0270
   66SAPC   C22 5437   1.927   4.244   4.586 -0.0160  0.2319  0.3135
   66SAPC   H2R 5438   1.833   4.185   4.590 -0.5019  0.8044 -1.4109
   66SAPC   H2S 5439   2.015   4.189   4.624  0.2122 -0.9123 -1.7166
   66SAPC    C3 5440   1.931   4.481   4.227 -0.2692 -1.3552  0.6152
   66SAPC    HX 5441   1.957   4.497   4.120  0.2999 -2.5916  0.5473
   66SAPC    HY 5442   2.013   4.492   4.301 -0.9749  1.2743  1.1059
   66SAPC   O31 5443   1.827   4.574   4.262 -0.0156 -0.1523 -0.1028
   66SAPC   C31 5444   1.866   4.701   4.255 -0.0688 -0.2956  0.1076
   66SAPC   O32 5445   1.975   4.738   4.216  0.1516 -0.1314  0.5107
   66SAPC   C32 5446   1.744   4.793   4.283  0.2939  0.5797  0.2210
   66SAPC   H2X 5447   1.705   4.801   4.179  2.2620 -1.1701 -0.7457
   66SAPC   H2Y 5448   1.784   4.890   4.320  0.9421  0.6293 -0.5585
   66SAPC   C23 5449   1.886   4.381   4.653 -0.3995  0.2971 -0.4351
   66SAPC   H3R 5450   1.780   4.405   4.633 -0.4246  2.4162  1.7927
   66SAPC   H3S 5451   1.949   4.466   4.618  1.7728  0.8390  4.0881
   66SAPC   C24 5452   1.910   4.387   4.808  0.6349  0.2871 -0.6111
   66SAPC   H4R 5453   1.884   4.491   4.837 -2.0547 -0.3002 -0.6828
   66SAPC   H4S 5454   2.017   4.357   4.819  0.7544  0.3168 -1.5830
   66SAPC   C25 5455   1.808   4.300   4.875  0.1497  0.7368 -0.3537
   66SAPC   H5R 5456   1.707   4.319   4.836 -0.8017  0.4163  1.8189
   66SAPC   C26 5457   1.823   4.233   4.993 -0.2229  1.0256  0.4029
   66SAPC   H6R 5458   1.739   4.165   5.016 -1.0665  2.0371  0.3805
   66SAPC   C27 5459   1.952   4.217   5.069 -0.2340 -0.2087 -1.0100
   66SAPC   H7R 5460   2.032   4.285   5.035  0.2979 -1.2013 -1.7930
   66SAPC   H7S 5461   1.990   4.115   5.047  0.9771 -0.0320  0.1559
   66SAPC   C28 5462   1.941   4.243   5.218  0.9925  0.5586 -0.2574
   66SAPC   H8R 5463   1.939   4.349   5.245 -0.6106  0.9959 -1.8676
   66SAPC   C29 5464   1.944   4.138   5.307 -0.4150  0.0883  0.5657
   66SAPC   H9R 5465   1.956   4.159   5.414  0.4827  0.3982  0.4131
   66SAPC  C210 5466   1.949   3.988   5.272 -0.3273 -0.3089  0.0214
   66SAPC  H10R 5467   2.055   3.963   5.248 -0.4360  0.5904 -1.5255
   66SAPC  H10S 5468   1.884   3.975   5.183  0.5483  3.7888 -1.4219
   66SAPC  C211 5469   1.906   3.898   5.383  0.2115  0.1370  0.0512
   66SAPC  H11R 5470   1.856   3.939   5.472 -0.0124 -0.1556  0.0621
   66SAPC  C212 5471   1.900   3.766   5.370  0.2371 -0.0308 -0.8060
   66SAPC  H12R 5472   1.874   3.711   5.461 -0.9665  0.2360 -0.9725
   66SAPC  C213 5473   1.964   3.687   5.257  0.1816 -0.2290  0.0149
   66SAPC  H13R 5474   1.993   3.584   5.285  0.3530 -0.9998 -2.7473
   66SAPC  H13S 5475   2.049   3.745   5.215  0.4850  1.4773  2.7204
   66SAPC  C214 5476   1.852   3.661   5.149  0.1267  0.8109  0.5525
   66SAPC  H14R 5477   1.757   3.624   5.192  0.2774  0.7719  0.8532
   66SAPC  C215 5478   1.852   3.703   5.026  0.5147 -0.5741 -0.5854
   66SAPC  H15R 5479   1.783   3.665   4.949  1.6498 -1.8693 -1.0093
   66SAPC  C216 5480   1.968   3.768   4.951  0.5787 -0.4446 -0.4593
   66SAPC  H16R 5481   2.071   3.738   4.980  0.7471  0.3755 -0.1815
   66SAPC  H16S 5482   1.955   3.877   4.964  0.3311 -0.6287  1.0489
   66SAPC  C217 5483   1.972   3.745   4.797 -0.2399 -0.1888  0.2410
   66SAPC  H17R 5484   1.990   3.637   4.779  1.8989  0.2134 -0.3810
   66SAPC  H17S 5485   2.071   3.787   4.769 -0.2242  1.5199  2.4667
   66SAPC  C218 5486   1.853   3.809   4.716  0.3175 -0.1019  0.6478
   66SAPC  H18R 5487   1.885   3.915   4.724 -0.2218 -0.0095  1.7333
   66SAPC  H18S 5488   1.751   3.795   4.757 -0.2955  0.3518 -0.6693
   66SAPC  C219 5489   1.844   3.774   4.569  0.1557  0.2490 -0.2761
   66SAPC  H19R 5490   1.763   3.837   4.527 -0.2451  0.7748  1.2220
   66SAPC  H19S 5491   1.811   3.669   4.559 -1.3257  0.6336  0.3838
   66SAPC  C220 5492   1.969   3.799   4.486 -0.5525 -0.5824  0.2688
   66SAPC  H20R 5493   2.066   3.758   4.520 -0.4516 -0.7338 -0.1886
   66SAPC  H20S 5494   1.987   3.908   4.479  2.9117 -1.1038 -1.0178
   66SAPC  H20T 5495   1.940   3.782   4.380 -1.9065  3.3008 -0.1551
   66SAPC   C33 5496   1.644   4.729   4.374  0.6088 -0.2705  0.0200
   66SAPC   H3X 5497   1.628   4.620   4.363  0.8226 -0.1581 -1.6988
   66SAPC   H3Y 5498   1.548   4.781   4.352  0.4232 -0.6902 -0.1746
   66SAPC   C34 5499   1.679   4.764   4.520  0.7684  0.4252  0.4486
   66SAPC   H4X 5500   1.658   4.873   4.519  0.5250  0.4636 -2.8592
   66SAPC   H4Y 5501   1.789   4.762   4.533  0.8660 -1.5679 -0.2870
   66SAPC   C35 5502   1.600   4.684   4.618  0.8898  0.5544  0.5890
   66SAPC   H5X 5503   1.619   4.574   4.619 -1.6794  0.0433 -0.0174
   66SAPC   H5Y 5504   1.493   4.714   4.616  0.8410  0.6438  2.7034
   66SAPC   C36 5505   1.657   4.705   4.758 -0.6671 -0.3147  0.1227
   66SAPC   H6X 5506   1.663   4.813   4.782  0.2267 -0.3923  0.2772
   66SAPC   H6Y 5507   1.766   4.684   4.767  0.0923  2.5772 -1.1485
   66SAPC   C37 5508   1.578   4.648   4.873  0.6058  0.1598 -0.5670
   66SAPC   H7X 5509   1.559   4.538   4.869 -0.5133  0.2944  0.6334
   66SAPC   H7Y 5510   1.474   4.686   4.872 -0.2760 -1.9976  0.7445
   66SAPC   C38 5511   1.644   4.671   5.006 -0.4591 -0.7184 -0.8095
   66SAPC   H8X 5512   1.654   4.778   5.035  0.8879 -0.5213 -1.9047
   66SAPC   H8Y 5513   1.740   4.615   5.003 -2.1282 -3.7734 -0.6077
   66SAPC   C39 5514   1.572   4.599   5.121  0.2370 -0.1966  0.0325
   66SAPC   H9X 5515   1.581   4.490   5.106  1.6027  0.0993 -1.7859
   66SAPC   H9Y 5516   1.463   4.612   5.137  0.5625  1.2696  1.3946
   66SAPC  C310 5517   1.642   4.620   5.256 -0.3751  0.0745  0.4154
   66SAPC  H10X 5518   1.689   4.721   5.249  2.1684 -0.9799  1.2423
   66SAPC  H10Y 5519   1.723   4.544   5.254 -0.2165  0.2321  0.8343
   66SAPC  C311 5520   1.572   4.607   5.390 -0.1108  0.0692  0.2541
   66SAPC  H11X 5521   1.483   4.540   5.386 -1.2076  1.4692  0.1622
   66SAPC  H11Y 5522   1.518   4.701   5.413 -2.2172 -1.1842  0.6642
   66SAPC  C312 5523   1.661   4.569   5.504  0.4594 -0.1888  0.4003
   66SAPC  H12X 5524   1.727   4.656   5.526 -0.4568  0.1452  1.9986
   66SAPC  H12Y 5525   1.714   4.473   5.487 -0.4503 -0.6721  0.2373
   66SAPC  C313 5526   1.582   4.536   5.632 -0.5285  0.7233  0.1927
   66SAPC  H13X 5527   1.492   4.475   5.609 -2.2886  2.5245  1.8131
   66SAPC  H13Y 5528   1.551   4.631   5.681  1.2894  0.3618  2.1677
   66SAPC  C314 5529   1.673   4.455   5.729  0.1084 -0.0510 -0.6710
   66SAPC  H14X 5530   1.700   4.352   5.698  0.1784 -0.5481  0.9256
   66SAPC  H14Y 5531   1.615   4.438   5.822  0.8701 -1.9374 -0.4848
   66SAPC  C315 5532   1.795   4.535   5.767  0.3606  0.2445  0.2958
   66SAPC  H15X 5533   1.770   4.641   5.790 -0.9327 -0.1253  0.6362
   66SAPC  H15Y 5534   1.866   4.541   5.681  0.7607  2.0024  0.7048
   66SAPC  C316 5535   1.870   4.487   5.892 -0.6933  0.1734  0.0466
   66SAPC  H16X 5536   1.802   4.448   5.971 -0.9279 -0.6016 -0.5282
   66SAPC  H16Y 5537   1.931   4.566   5.940 -3.9658  2.8133  0.2673
   66SAPC  C317 5538   1.949   4.356   5.848  0.0169 -0.3321 -0.4706
   66SAPC  H17X 5539   2.013   4.390   5.764  0.2708 -1.0297 -0.5692
   66SAPC  H17Y 5540   1.875   4.291   5.796  0.0547  1.5382 -3.0781
   66SAPC  C318 5541   2.037   4.285   5.959  0.0317  0.3147  0.0494
   66SAPC  H18X 5542   2.143   4.294   5.929 -1.0544 -0.5579 -4.9793
   66SAPC  H18Y 5543   2.018   4.179   5.984  0.4868  0.3206  0.4248
   66SAPC  H18Z 5544   2.019   4.333   6.057 -0.1557 -0.1334  0.2343
   67SAPC     N 5545   3.780   6.124   4.150  0.0516  1.1836  0.6274
   67SAPC   C12 5546   3.775   6.255   4.215 -0.6053 -0.6312  0.2495
   67SAPC  H12A 5547   3.670   6.272   4.234 -0.4117  2.1668 -0.7565
   67SAPC  H12B 5548   3.803   6.336   4.150  3.3591 -1.5671  0.5196
   67SAPC   C13 5549   3.920   6.076   4.139  0.7824 -0.1340 -0.3221
   67SAPC  H13A 5550   3.968   6.164   4.098  0.8816 -0.5555 -1.1165
   67SAPC  H13B 5551   3.962   6.051   4.235  1.5356 -2.0855 -1.1122
   67SAPC  H13C 5552   3.930   5.994   4.070  1.0997 -1.6564  1.4732
   67SAPC   C14 5553   3.703   6.013   4.222  0.2206  0.7861 -0.0234
   67SAPC  H14A 5554   3.599   6.027   4.200  0.4223  2.6797  0.0916
   67SAPC  H14B 5555   3.740   5.918   4.185 -0.2838  0.5697  0.0143
   67SAPC  H14C 5556   3.722   6.020   4.328 -0.2841  0.7671  0.0667
   67SAPC   C15 5557   3.726   6.132   4.012 -0.1910 -0.1068  0.4551
   67SAPC  H15A 5558   3.709   6.036   3.965  0.9681 -1.1357  2.0476
   67SAPC  H15B 5559   3.635   6.189   4.013  0.5161  1.2293  4.0128
   67SAPC  H15C 5560   3.795   6.185   3.949  1.3391 -0.6525  1.5960
   67SAPC   C11 5561   3.859   6.282   4.343 -0.0365  0.4012 -0.1223
   67SAPC  H11A 5562   3.835   6.202   4.415 -0.8050  0.0964 -0.6959
   67SAPC  H11B 5563   3.810   6.372   4.386 -1.7374 -0.6960  0.3410
   67SAPC     P 5564   4.051   6.423   4.232 -0.0303  0.0250  0.2588
   67SAPC   O13 5565   4.184   6.385   4.179 -0.6358 -0.3296  0.2487
   67SAPC   O14 5566   3.946   6.466   4.134 -0.2236  0.4426  0.2717
   67SAPC   O12 5567   3.990   6.298   4.310 -0.2451  0.6685  0.1739
   67SAPC   O11 5568   4.073   6.532   4.349  0.1393 -0.0486  0.2913
   67SAPC    C1 5569   4.196   6.521   4.424  0.4801  0.2008 -0.1488
   67SAPC    HA 5570   4.282   6.530   4.354 -0.3064  1.4384 -0.9892
   67SAPC    HB 5571   4.193   6.604   4.497 -1.0486 -0.3711  0.4800
   67SAPC    C2 5572   4.204   6.394   4.516  0.7711 -0.2370 -0.5320
   67SAPC    HS 5573   4.210   6.298   4.462  1.9216 -0.9089  0.7351
   67SAPC   O21 5574   4.080   6.404   4.592  0.3652  0.0132 -0.4893
   67SAPC   C21 5575   4.030   6.294   4.644  0.3210  0.4255 -0.2456
   67SAPC   O22 5576   4.065   6.180   4.614  0.0512 -0.3587 -0.5082
   67SAPC   C22 5577   3.926   6.337   4.740  0.4089 -0.2779 -0.0713
   67SAPC   H2R 5578   3.848   6.397   4.690  0.4536  1.4557  1.8115
   67SAPC   H2S 5579   3.896   6.242   4.790 -2.0898  1.0008  1.0208
   67SAPC    C3 5580   4.333   6.402   4.609  0.1673 -0.5140 -0.7337
   67SAPC    HX 5581   4.321   6.499   4.662  0.2165  0.9597 -3.2505
   67SAPC    HY 5582   4.419   6.415   4.540 -0.0848  0.6985 -0.8482
   67SAPC   O31 5583   4.340   6.300   4.714 -0.1467 -0.1222 -0.2229
   67SAPC   C31 5584   4.367   6.180   4.664 -0.8386 -0.0115  0.1932
   67SAPC   O32 5585   4.419   6.165   4.552  0.0088  0.2183 -0.6560
   67SAPC   C32 5586   4.337   6.073   4.762 -0.3040 -0.4585 -0.4836
   67SAPC   H2X 5587   4.330   5.973   4.715  0.0447 -0.4492 -0.5563
   67SAPC   H2Y 5588   4.235   6.095   4.801 -0.1854  0.2827 -0.5618
   67SAPC   C23 5589   3.988   6.430   4.855  0.7174 -0.0747  0.3796
   67SAPC   H3R 5590   3.907   6.480   4.912  0.0158  2.2987 -2.4748
   67SAPC   H3S 5591   4.057   6.508   4.816 -0.2233  1.1880  1.1906
   67SAPC   C24 5592   4.069   6.345   4.963 -0.2495  0.0542 -0.7697
   67SAPC   H4R 5593   4.115   6.416   5.035  0.2988 -0.2731 -0.7912
   67SAPC   H4S 5594   4.164   6.304   4.921  0.0149  0.2700 -0.3910
   67SAPC   C25 5595   3.988   6.245   5.039  0.6974 -0.6226 -0.2615
   67SAPC   H5R 5596   3.939   6.169   4.978  0.5042  0.4961 -1.5355
   67SAPC   C26 5597   3.977   6.238   5.174  0.6195  0.3474 -0.7113
   67SAPC   H6R 5598   3.924   6.153   5.220  2.0389  0.2544  0.8337
   67SAPC   C27 5599   4.047   6.312   5.282 -0.2362 -0.9200  0.3941
   67SAPC   H7R 5600   3.978   6.317   5.369  1.5281 -0.5338  1.8129
   67SAPC   H7S 5601   4.060   6.412   5.235  0.6402 -1.1825  0.0652
   67SAPC   C28 5602   4.181   6.251   5.315 -0.1206 -0.4007 -0.2952
   67SAPC   H8R 5603   4.226   6.189   5.236  0.3243  0.6307 -0.8713
   67SAPC   C29 5604   4.237   6.259   5.431 -1.1561  0.1543  0.1207
   67SAPC   H9R 5605   4.336   6.210   5.437 -0.5691  1.4772  2.3211
   67SAPC  C210 5606   4.194   6.326   5.561  0.8243 -0.7464  0.8075
   67SAPC  H10R 5607   4.107   6.394   5.548  1.5010  0.1149  0.6992
   67SAPC  H10S 5608   4.272   6.394   5.598  1.8913 -1.6183  0.2386
   67SAPC  C211 5609   4.156   6.225   5.666  0.3616 -0.9719  0.0816
   67SAPC  H11R 5610   4.115   6.126   5.642  0.6880 -0.7924 -1.3185
   67SAPC  C212 5611   4.174   6.253   5.798  0.7454 -0.3423 -0.0790
   67SAPC  H12R 5612   4.155   6.180   5.878  1.4478 -0.2516  0.1735
   67SAPC  C213 5613   4.219   6.382   5.861 -0.2053 -0.0787 -0.6003
   67SAPC  H13R 5614   4.149   6.458   5.820  0.3876  0.6468 -0.2979
   67SAPC  H13S 5615   4.321   6.402   5.820  0.1297  0.5144  0.4875
   67SAPC  C214 5616   4.236   6.392   6.008 -0.0623 -0.3946  0.3924
   67SAPC  H14R 5617   4.174   6.465   6.062  1.8801  0.9204  0.9782
   67SAPC  C215 5618   4.312   6.304   6.087 -1.2006 -0.8471 -0.3351
   67SAPC  H15R 5619   4.311   6.318   6.196 -3.7823  0.7848 -0.4589
   67SAPC  C216 5620   4.408   6.202   6.027 -0.2269 -0.0454  0.6101
   67SAPC  H16R 5621   4.516   6.210   6.050  0.4755 -1.2440 -1.9236
   67SAPC  H16S 5622   4.415   6.212   5.917 -0.2780 -2.0393  0.3819
   67SAPC  C217 5623   4.354   6.061   6.058  0.3948 -0.0321 -0.1844
   67SAPC  H17R 5624   4.252   6.060   6.014  0.5933  0.0735 -0.6646
   67SAPC  H17S 5625   4.360   6.057   6.168  1.0735 -1.7334 -0.2589
   67SAPC  C218 5626   4.426   5.955   5.980  0.3604 -0.4166  0.6653
   67SAPC  H18R 5627   4.532   5.974   5.955  0.1267 -0.6736 -0.5686
   67SAPC  H18S 5628   4.377   5.949   5.881 -0.3821 -0.2709  1.0090
   67SAPC  C219 5629   4.399   5.816   6.039  0.2378  0.1180 -0.2055
   67SAPC  H19R 5630   4.289   5.803   6.042  0.4289 -1.8251  2.4167
   67SAPC  H19S 5631   4.419   5.817   6.149  0.1140  0.7561 -0.1859
   67SAPC  C220 5632   4.461   5.688   5.974  0.6292  0.1831 -0.5655
   67SAPC  H20R 5633   4.571   5.681   5.984  0.3572 -0.9211  2.3739
   67SAPC  H20S 5634   4.418   5.676   5.872 -1.9530  0.9494  0.3567
   67SAPC  H20T 5635   4.429   5.603   6.038  1.3392 -0.8432 -1.5328
   67SAPC   C33 5636   4.432   6.075   4.889  0.7547 -0.4854  0.4484
   67SAPC   H3X 5637   4.416   5.981   4.945  2.5924 -0.3774  1.2455
   67SAPC   H3Y 5638   4.403   6.159   4.956  0.5321 -0.1850 -0.0227
   67SAPC   C34 5639   4.581   6.081   4.868  0.6089  0.7673  0.0761
   67SAPC   H4X 5640   4.606   6.168   4.803 -3.2299  2.5632  0.7645
   67SAPC   H4Y 5641   4.605   5.999   4.797 -0.7073  2.5815 -2.6657
   67SAPC   C35 5642   4.657   6.100   4.989  0.5945  0.0840  0.4082
   67SAPC   H5X 5643   4.644   6.024   5.068 -2.1858  1.0786  1.0286
   67SAPC   H5Y 5644   4.618   6.189   5.043 -3.0157  0.6971 -2.6935
   67SAPC   C36 5645   4.807   6.123   4.959 -0.4125 -0.1114  0.3698
   67SAPC   H6X 5646   4.813   6.212   4.892  0.1617 -0.8278 -0.5483
   67SAPC   H6Y 5647   4.832   6.031   4.903 -2.5217 -1.0988  0.9638
   67SAPC   C37 5648   4.893   6.147   5.081 -0.7088 -0.0231  0.5469
   67SAPC   H7X 5649   4.999   6.156   5.050 -0.6832  0.2267  0.7087
   67SAPC   H7Y 5650   4.900   6.052   5.139  0.4315  0.0220  0.5139
   67SAPC   C38 5651   4.868   6.281   5.152 -0.4160  0.4803 -0.3237
   67SAPC   H8X 5652   4.775   6.267   5.211 -0.2595  2.1393  0.3626
   67SAPC   H8Y 5653   4.853   6.362   5.078 -1.6694  0.0395 -0.5807
   67SAPC   C39 5654   4.973   6.328   5.244  0.5542  0.0119 -0.1283
   67SAPC   H9X 5655   5.069   6.339   5.189 -0.5183  1.7668 -1.7839
   67SAPC   H9Y 5656   4.978   6.254   5.326 -1.6969  0.6195  0.6184
   67SAPC  C310 5657   4.948   6.462   5.308  0.7320  0.3101  0.2486
   67SAPC  H10X 5658   5.040   6.479   5.368  1.0406 -0.0940 -0.1099
   67SAPC  H10Y 5659   4.851   6.453   5.362 -0.2332  0.6947 -1.3452
   67SAPC  C311 5660   4.947   6.586   5.220  0.1580 -0.1953  0.2603
   67SAPC  H11X 5661   4.886   6.555   5.133  0.5734 -0.1812 -0.0359
   67SAPC  H11Y 5662   5.048   6.602   5.179 -0.0923 -2.6966 -1.5589
   67SAPC  C312 5663   4.892   6.711   5.294  0.6563  0.6106  0.1307
   67SAPC  H12X 5664   4.782   6.700   5.292  0.6349  0.6163  0.8652
   67SAPC  H12Y 5665   4.903   6.807   5.240 -1.4780  0.5807 -0.4302
   67SAPC  C313 5666   4.960   6.722   5.429 -0.1875 -1.2674  0.1514
   67SAPC  H13X 5667   5.066   6.737   5.401 -0.4336 -0.9878 -0.6509
   67SAPC  H13Y 5668   4.953   6.643   5.507  0.3999  0.7470  2.3871
   67SAPC  C314 5669   4.904   6.845   5.512  0.2572 -0.5769 -0.2275
   67SAPC  H14X 5670   4.798   6.832   5.544  0.9098 -1.5879  1.6325
   67SAPC  H14Y 5671   4.891   6.929   5.441  3.0156  1.4348  1.4569
   67SAPC  C315 5672   4.986   6.890   5.628  0.4154 -0.5173 -0.3460
   67SAPC  H15X 5673   4.946   6.984   5.671  0.0288  0.7991 -3.3091
   67SAPC  H15Y 5674   5.090   6.913   5.596  0.7146 -1.1057  0.1956
   67SAPC  C316 5675   4.989   6.797   5.746  0.4718 -0.0654 -0.7353
   67SAPC  H16X 5676   5.018   6.693   5.718  0.9773 -0.1976  0.2453
   67SAPC  H16Y 5677   4.888   6.792   5.791  0.7867 -0.6689 -0.0837
   67SAPC  C317 5678   5.101   6.842   5.844 -0.4103 -0.5575 -0.7448
   67SAPC  H17X 5679   5.063   6.938   5.884 -2.4282 -0.8566 -1.8013
   67SAPC  H17Y 5680   5.195   6.869   5.792  1.4323  0.3742  2.7440
   67SAPC  C318 5681   5.124   6.746   5.960  0.0543 -0.6442  0.2457
   67SAPC  H18X 5682   5.229   6.752   5.994 -0.5913 -0.7138  2.4164
   67SAPC  H18Y 5683   5.108   6.643   5.922  0.2085  0.2178 -2.3345
   67SAPC  H18Z 5684   5.058   6.768   6.047  2.4981  0.9799  1.7919
   68SAPC     N 5685   6.273   4.626   3.685 -0.1822 -0.3757 -0.2072
   68SAPC   C12 5686   6.303   4.491   3.627 -0.9520  0.4112 -0.3265
   68SAPC  H12A 5687   6.227   4.473   3.552 -0.9519 -2.7937  0.2790
   68SAPC  H12B 5688   6.292   4.418   3.707  1.9484 -0.7914 -0.9065
   68SAPC   C13 5689   6.139   4.628   3.761  0.6168  0.8291  0.0335
   68SAPC  H13A 5690   6.119   4.720   3.814 -2.8435 -0.7884  1.8985
   68SAPC  H13B 5691   6.054   4.598   3.702  1.6117 -1.0843 -0.5348
   68SAPC  H13C 5692   6.141   4.554   3.840  2.7015  1.2446  0.4424
   68SAPC   C14 5693   6.375   4.671   3.794 -0.3045 -0.2700 -0.0083
   68SAPC  H14A 5694   6.474   4.687   3.755  0.0361 -0.4887  0.7546
   68SAPC  H14B 5695   6.338   4.763   3.839  0.2260 -0.0763  0.0308
   68SAPC  H14C 5696   6.371   4.594   3.870  0.7198 -0.8732 -0.5590
   68SAPC   C15 5697   6.276   4.726   3.579  0.0323  0.1173  0.3645
   68SAPC  H15A 5698   6.213   4.690   3.499 -1.8171  1.9115  0.9144
   68SAPC  H15B 5699   6.238   4.822   3.611  4.1799  1.2281  2.6803
   68SAPC  H15C 5700   6.376   4.740   3.541 -0.2492 -1.5822 -1.1406
   68SAPC   C11 5701   6.452   4.476   3.575  0.6451 -0.6790 -0.6570
   68SAPC  H11A 5702   6.473   4.569   3.519 -2.3446  0.5926  0.1172
   68SAPC  H11B 5703   6.459   4.402   3.492  0.8963 -0.8252 -0.5087
   68SAPC     P 5704   6.551   4.335   3.773  0.3840 -0.2772  0.2974
   68SAPC   O13 5705   6.547   4.213   3.694  0.0330 -0.1532 -0.7375
   68SAPC   O14 5706   6.654   4.353   3.875 -0.1956 -0.5836 -0.2428
   68SAPC   O12 5707   6.557   4.459   3.668 -0.6026 -0.2964 -1.0500
   68SAPC   O11 5708   6.405   4.334   3.838  0.3761  0.6617  0.6231
   68SAPC    C1 5709   6.363   4.234   3.935 -0.7816 -0.0762  0.5147
   68SAPC    HA 5710   6.310   4.156   3.877 -0.1850  0.4101 -0.7343
   68SAPC    HB 5711   6.452   4.189   3.985  1.1021  1.3195 -1.3814
   68SAPC    C2 5712   6.268   4.276   4.047 -0.1906 -0.3054  0.1094
   68SAPC    HS 5713   6.197   4.348   4.003  0.4252  1.0542  1.2357
   68SAPC   O21 5714   6.338   4.329   4.159 -0.4139 -0.0267 -0.2309
   68SAPC   C21 5715   6.361   4.456   4.148  0.1338  0.2339  0.1276
   68SAPC   O22 5716   6.344   4.528   4.051  0.2094  0.2756 -0.3444
   68SAPC   C22 5717   6.420   4.496   4.283  0.5744 -0.0666  0.4099
   68SAPC   H2R 5718   6.488   4.413   4.310  1.0720 -0.6757 -2.3836
   68SAPC   H2S 5719   6.488   4.583   4.271  1.2241 -0.6460 -0.2618
   68SAPC    C3 5720   6.179   4.156   4.091 -0.0112 -0.2170  0.0081
   68SAPC    HX 5721   6.107   4.128   4.011 -0.1186 -0.7353  0.2848
   68SAPC    HY 5722   6.112   4.207   4.164  0.9465  2.6069 -0.9457
   68SAPC   O31 5723   6.246   4.043   4.142  0.4611 -0.2932 -0.2619
   68SAPC   C31 5724   6.212   4.011   4.267  0.3302 -0.1165  0.1174
   68SAPC   O32 5725   6.131   4.067   4.336  0.1935 -0.3932  0.8207
   68SAPC   C32 5726   6.295   3.891   4.307  0.5418  0.6188 -0.3009
   68SAPC   H2X 5727   6.402   3.921   4.317  0.6598 -0.0393  0.5853
   68SAPC   H2Y 5728   6.294   3.812   4.229 -1.6078 -0.6961  0.9637
   68SAPC   C23 5729   6.315   4.526   4.395 -0.3998  0.6932 -0.3310
   68SAPC   H3R 5730   6.257   4.432   4.403 -0.1858  0.7285  2.0689
   68SAPC   H3S 5731   6.244   4.611   4.376 -0.3554  0.8643  0.2638
   68SAPC   C24 5732   6.387   4.541   4.528  0.2496  0.1032 -0.5404
   68SAPC   H4R 5733   6.446   4.635   4.525 -1.7229  1.3855 -1.5190
   68SAPC   H4S 5734   6.458   4.456   4.527 -0.2509 -0.3191 -1.1849
   68SAPC   C25 5735   6.287   4.553   4.635  0.0450  0.4408 -0.5995
   68SAPC   H5R 5736   6.212   4.634   4.632 -1.5927 -1.0379 -2.2824
   68SAPC   C26 5737   6.264   4.453   4.721  0.8489  0.2468 -0.3938
   68SAPC   H6R 5738   6.189   4.470   4.800  0.3263 -0.4040 -0.7377
   68SAPC   C27 5739   6.336   4.319   4.740  0.1811  0.9179 -0.0121
   68SAPC   H7R 5740   6.343   4.295   4.848 -1.1360  0.7888  0.0654
   68SAPC   H7S 5741   6.443   4.325   4.710 -0.0216 -0.4660 -1.0699
   68SAPC   C28 5742   6.273   4.211   4.652  0.3664 -0.7705 -0.3708
   68SAPC   H8R 5743   6.289   4.223   4.544  3.1035  1.7522  0.1785
   68SAPC   C29 5744   6.198   4.109   4.699 -0.4269  0.0342 -0.6184
   68SAPC   H9R 5745   6.155   4.030   4.634  0.6953 -1.8643  0.8404
   68SAPC  C210 5746   6.169   4.086   4.847 -0.1155 -0.1437 -0.4530
   68SAPC  H10R 5747   6.223   4.160   4.910 -0.9527 -0.6965  0.9460
   68SAPC  H10S 5748   6.209   3.986   4.874 -0.3808 -0.4782 -1.2592
   68SAPC  C211 5749   6.030   4.079   4.893 -0.7901  0.4211  0.2695
   68SAPC  H11R 5750   5.952   4.041   4.825  1.5943  0.0100 -2.3854
   68SAPC  C212 5751   5.995   4.097   5.024  0.4268  0.3539 -0.0706
   68SAPC  H12R 5752   5.893   4.076   5.060  1.2827 -0.0234  2.3409
   68SAPC  C213 5753   6.096   4.136   5.130 -0.7492  0.0898 -0.8131
   68SAPC  H13R 5754   6.198   4.097   5.107 -0.4892  0.1078  0.2207
   68SAPC  H13S 5755   6.063   4.101   5.231 -1.0805  0.9935 -0.6062
   68SAPC  C214 5756   6.126   4.279   5.153 -0.6228 -0.2921  0.7643
   68SAPC  H14R 5757   6.093   4.354   5.080 -0.4152  1.0757  2.0342
   68SAPC  C215 5758   6.214   4.328   5.245  0.0440 -0.3368  0.0911
   68SAPC  H15R 5759   6.222   4.438   5.255  0.7375 -0.1344 -2.1369
   68SAPC  C216 5760   6.301   4.250   5.339 -0.4792  0.2525 -0.5441
   68SAPC  H16R 5761   6.405   4.247   5.299 -0.3529  1.2596 -0.3267
   68SAPC  H16S 5762   6.275   4.142   5.338 -1.7250  0.5247  0.3091
   68SAPC  C217 5763   6.292   4.292   5.488  0.0346  0.1321 -0.0644
   68SAPC  H17R 5764   6.192   4.336   5.509 -0.8967 -1.5842 -0.7456
   68SAPC  H17S 5765   6.372   4.365   5.512 -0.0524  0.4405 -0.7169
   68SAPC  C218 5766   6.312   4.181   5.595 -0.0209  0.0969 -0.4377
   68SAPC  H18R 5767   6.237   4.100   5.577  0.2899 -0.4819  0.7687
   68SAPC  H18S 5768   6.295   4.203   5.703 -0.7651 -0.4697 -0.4233
   68SAPC  C219 5769   6.454   4.117   5.589  0.2398  0.0317 -0.5888
   68SAPC  H19R 5770   6.455   4.043   5.506 -2.4959 -1.9426  0.9670
   68SAPC  H19S 5771   6.459   4.050   5.678  0.5148  1.3337  0.4111
   68SAPC  C220 5772   6.576   4.211   5.590 -0.5030 -0.0603  0.8643
   68SAPC  H20R 5773   6.573   4.264   5.492 -0.9729 -0.7526  0.4973
   68SAPC  H20S 5774   6.670   4.156   5.609 -0.5406 -0.1139  0.8940
   68SAPC  H20T 5775   6.570   4.293   5.665  0.4442  0.6264  0.2075
   68SAPC   C33 5776   6.245   3.830   4.442 -1.0345  1.0250  0.5278
   68SAPC   H3X 5777   6.135   3.829   4.449 -1.0122  0.4747  0.7973
   68SAPC   H3Y 5778   6.283   3.903   4.516 -0.8843  0.0668  1.4132
   68SAPC   C34 5779   6.319   3.689   4.466  0.0120  0.4049  0.1176
   68SAPC   H4X 5780   6.428   3.700   4.485 -0.4224  1.2070  2.5187
   68SAPC   H4Y 5781   6.299   3.623   4.379  1.0918 -1.2437  1.0696
   68SAPC   C35 5782   6.262   3.605   4.585 -0.1263 -0.5549  0.6207
   68SAPC   H5X 5783   6.298   3.500   4.577 -0.8922 -0.8107  0.5282
   68SAPC   H5Y 5784   6.153   3.592   4.567  0.4886 -0.9320 -4.3130
   68SAPC   C36 5785   6.303   3.641   4.729 -0.7152 -0.0380  0.0576
   68SAPC   H6X 5786   6.246   3.733   4.757 -0.2481  0.2986 -0.0932
   68SAPC   H6Y 5787   6.410   3.669   4.735 -0.2979 -1.4051 -0.7807
   68SAPC   C37 5788   6.293   3.526   4.831  0.1641 -0.1908 -0.2280
   68SAPC   H7X 5789   6.318   3.427   4.788 -3.9747 -2.0116  1.0954
   68SAPC   H7Y 5790   6.187   3.511   4.860  0.5930  0.0794  1.5922
   68SAPC   C38 5791   6.363   3.543   4.962  0.3164  0.0667 -0.0006
   68SAPC   H8X 5792   6.472   3.554   4.945  0.2338 -0.7427 -1.2299
   68SAPC   H8Y 5793   6.366   3.451   5.025  1.4110  1.0860  1.4924
   68SAPC   C39 5794   6.306   3.646   5.059 -0.0360 -0.8860 -0.1507
   68SAPC   H9X 5795   6.214   3.611   5.111 -0.3500  0.8503  0.5361
   68SAPC   H9Y 5796   6.271   3.726   4.991 -0.3788 -0.6935  0.2426
   68SAPC  C310 5797   6.401   3.727   5.163 -0.1546  0.8075 -0.4626
   68SAPC  H10X 5798   6.352   3.821   5.197  1.6864  0.5912  3.2956
   68SAPC  H10Y 5799   6.492   3.750   5.104 -0.5793 -1.8438 -2.3646
   68SAPC  C311 5800   6.423   3.637   5.294 -0.1217 -0.8951 -0.0616
   68SAPC  H11X 5801   6.518   3.679   5.335 -0.7592 -0.1460  0.6778
   68SAPC  H11Y 5802   6.455   3.534   5.268  0.4245 -1.2995  2.0252
   68SAPC  C312 5803   6.304   3.635   5.387  0.3122  0.4625 -0.6145
   68SAPC  H12X 5804   6.216   3.578   5.352 -1.0153  0.5273  2.3044
   68SAPC  H12Y 5805   6.261   3.736   5.398  0.1763  0.5371 -1.7705
   68SAPC  C313 5806   6.340   3.578   5.521  0.0681 -0.1356  0.1281
   68SAPC  H13X 5807   6.395   3.482   5.510  1.2085  0.5169  0.0064
   68SAPC  H13Y 5808   6.254   3.567   5.590  0.0057  0.2271  0.1136
   68SAPC  C314 5809   6.421   3.678   5.602 -0.1311  0.3814  0.3069
   68SAPC  H14X 5810   6.365   3.774   5.597 -1.1725 -0.1648  1.1601
   68SAPC  H14Y 5811   6.519   3.690   5.551  0.0576  1.1867  0.8348
   68SAPC  C315 5812   6.440   3.633   5.745  0.2038  0.4117 -0.7284
   68SAPC  H15X 5813   6.488   3.533   5.739 -2.1812 -0.8501 -0.2689
   68SAPC  H15Y 5814   6.343   3.624   5.800  1.0596 -2.3140  0.4987
   68SAPC  C316 5815   6.524   3.727   5.826  0.2555  0.9664  0.1766
   68SAPC  H16X 5816   6.482   3.830   5.827  1.0925  1.3701 -2.0196
   68SAPC  H16Y 5817   6.620   3.734   5.770  0.3758 -0.1781  0.2209
   68SAPC  C317 5818   6.528   3.676   5.972  0.1122 -0.4966  0.4727
   68SAPC  H17X 5819   6.602   3.743   6.020 -0.0326  1.8065 -2.2427
   68SAPC  H17Y 5820   6.567   3.573   5.964  1.1833 -0.0436 -0.3447
   68SAPC  C318 5821   6.399   3.703   6.061  0.0969  0.0615  0.2303
   68SAPC  H18X 5822   6.386   3.813   6.055  2.3297  0.3107 -1.8854
   68SAPC  H18Y 5823   6.417   3.669   6.165  0.0192  0.4442  0.3707
   68SAPC  H18Z 5824   6.302   3.658   6.034  0.2448  0.6491 -1.3851
   69SAPC     N 5825   5.407   4.563   3.398  0.2193 -0.5435  0.3135
   69SAPC   C12 5826   5.430   4.508   3.539 -0.8091 -0.4378 -0.2129
   69SAPC  H12A 5827   5.336   4.479   3.582 -0.6979 -0.9214 -0.2828
   69SAPC  H12B 5828   5.478   4.584   3.599 -0.1540  0.3873 -1.7433
   69SAPC   C13 5829   5.328   4.469   3.316  0.3120  0.8073 -0.5366
   69SAPC  H13A 5830   5.375   4.372   3.318 -0.1760  0.5277 -1.9389
   69SAPC  H13B 5831   5.232   4.448   3.360  0.4532 -1.7947 -1.3307
   69SAPC  H13C 5832   5.315   4.503   3.214 -2.5145  3.1841  0.4798
   69SAPC   C14 5833   5.336   4.699   3.415  0.3059  0.2760  0.3052
   69SAPC  H14A 5834   5.271   4.699   3.501  0.2783  0.9630  0.2915
   69SAPC  H14B 5835   5.409   4.776   3.436  1.6531 -0.6169 -0.8847
   69SAPC  H14C 5836   5.276   4.717   3.328  0.3364  1.3342  0.4927
   69SAPC   C15 5837   5.530   4.595   3.318 -1.1002  0.7761  0.1662
   69SAPC  H15A 5838   5.608   4.636   3.381 -0.2091 -0.7751  0.1229
   69SAPC  H15B 5839   5.589   4.513   3.280  2.9818  2.6850  1.7553
   69SAPC  H15C 5840   5.506   4.655   3.232 -0.3834 -0.1823 -0.7330
   69SAPC   C11 5841   5.533   4.389   3.547 -0.5751 -0.6781 -0.2316
   69SAPC  H11A 5842   5.497   4.318   3.469  1.3859 -1.2011 -0.6980
   69SAPC  H11B 5843   5.534   4.350   3.651  1.1240 -1.8417 -0.6521
   69SAPC     P 5844   5.757   4.518   3.599 -0.3439  0.1193  0.4203
   69SAPC   O13 5845   5.897   4.492   3.552 -0.1552 -0.1794  0.3382
   69SAPC   O14 5846   5.708   4.660   3.575  0.1067 -0.7521 -0.7354
   69SAPC   O12 5847   5.666   4.424   3.517  0.8847 -0.7792 -0.1056
   69SAPC   O11 5848   5.739   4.473   3.742  0.2619  0.2152  0.0807
   69SAPC    C1 5849   5.779   4.338   3.791  0.6498 -0.7355  0.0386
   69SAPC    HA 5850   5.729   4.263   3.726 -2.5029  2.4958 -1.6014
   69SAPC    HB 5851   5.889   4.331   3.782  0.6388 -1.1948  0.2170
   69SAPC    C2 5852   5.739   4.327   3.941 -0.0585  1.0548 -0.3236
   69SAPC    HS 5853   5.631   4.303   3.951 -0.7337  3.3767 -1.3692
   69SAPC   O21 5854   5.753   4.443   4.018  0.0544  0.0641 -0.5391
   69SAPC   C21 5855   5.878   4.497   4.035  0.6113  0.0564  0.3398
   69SAPC   O22 5856   5.978   4.462   3.978  0.3182 -0.2638 -0.3633
   69SAPC   C22 5857   5.873   4.600   4.146 -0.3033  0.7677 -0.3345
   69SAPC   H2R 5858   5.925   4.690   4.108  0.1633  0.7116  0.1640
   69SAPC   H2S 5859   5.768   4.630   4.169  0.0005  2.0523 -0.5680
   69SAPC    C3 5860   5.813   4.199   3.997  0.1349 -0.1874 -0.5264
   69SAPC    HX 5861   5.922   4.209   3.982  0.3918  0.0633  1.3472
   69SAPC    HY 5862   5.771   4.116   3.935 -1.4646  0.8789 -0.9472
   69SAPC   O31 5863   5.787   4.168   4.133 -0.1849 -0.5971 -0.0504
   69SAPC   C31 5864   5.846   4.063   4.182  0.0570 -0.3346 -0.2743
   69SAPC   O32 5865   5.927   3.993   4.126  0.1047 -0.0020  0.3244
   69SAPC   C32 5866   5.803   4.064   4.329  0.5194  0.2582  0.3595
   69SAPC   H2X 5867   5.696   4.094   4.334  0.4709  0.2346 -0.5324
   69SAPC   H2Y 5868   5.869   4.144   4.369  1.0782  2.6574 -4.6875
   69SAPC   C23 5869   5.947   4.534   4.269 -0.5266  0.1773  0.3940
   69SAPC   H3R 5870   5.985   4.612   4.339  3.3005 -1.9397  0.9780
   69SAPC   H3S 5871   6.040   4.487   4.229 -0.5907 -1.1967  1.7621
   69SAPC   C24 5872   5.867   4.441   4.353 -0.1440 -0.0174 -0.0350
   69SAPC   H4R 5873   5.822   4.366   4.285 -0.0661  0.7541 -0.9602
   69SAPC   H4S 5874   5.788   4.506   4.394 -0.5636 -0.2683 -0.4406
   69SAPC   C25 5875   5.955   4.375   4.453  0.5755  0.3730  0.0258
   69SAPC   H5R 5876   6.020   4.302   4.402 -0.1869 -0.5884  0.3951
   69SAPC   C26 5877   5.946   4.384   4.584  0.7676 -0.2738  0.0176
   69SAPC   H6R 5878   6.024   4.332   4.643  2.4368  0.9371 -1.0147
   69SAPC   C27 5879   5.852   4.473   4.662 -0.2152  0.1517 -0.5335
   69SAPC   H7R 5880   5.773   4.513   4.596 -0.7055 -1.5616 -1.0374
   69SAPC   H7S 5881   5.894   4.558   4.721 -0.0155 -1.8784  2.4917
   69SAPC   C28 5882   5.781   4.386   4.766  0.5589 -0.5542 -0.3881
   69SAPC   H8R 5883   5.781   4.277   4.748 -0.9736 -0.5157 -0.7729
   69SAPC   C29 5884   5.717   4.431   4.877 -0.1674 -0.8288 -0.2559
   69SAPC   H9R 5885   5.672   4.357   4.946 -2.0616 -0.0870 -0.6378
   69SAPC  C210 5886   5.704   4.574   4.920 -0.5683 -0.7206  0.5723
   69SAPC  H10R 5887   5.604   4.587   4.966 -2.2608  0.3977 -3.0349
   69SAPC  H10S 5888   5.695   4.634   4.827 -0.1117 -1.3453  0.1112
   69SAPC  C211 5889   5.819   4.625   5.006 -0.4141 -0.1629 -1.4157
   69SAPC  H11R 5890   5.906   4.560   5.023 -1.6581 -1.6916 -0.6165
   69SAPC  C212 5891   5.824   4.753   5.043  0.9688 -0.1354  0.3630
   69SAPC  H12R 5892   5.914   4.782   5.100  1.6342  0.2673 -0.8770
   69SAPC  C213 5893   5.718   4.854   5.008  0.3140 -0.5360 -0.4239
   69SAPC  H13R 5894   5.698   4.862   4.899  0.9245 -0.6452 -0.5512
   69SAPC  H13S 5895   5.749   4.957   5.034 -0.8547 -0.5671  1.2520
   69SAPC  C214 5896   5.587   4.825   5.081 -0.2262  0.1833  0.1519
   69SAPC  H14R 5897   5.504   4.810   5.009  0.2754 -0.6312 -0.2638
   69SAPC  C215 5898   5.558   4.798   5.220 -0.4426 -0.3682 -0.3849
   69SAPC  H15R 5899   5.456   4.770   5.250 -0.1611 -0.9627  0.0320
   69SAPC  C216 5900   5.657   4.814   5.338  0.5505  0.3899 -0.1912
   69SAPC  H16R 5901   5.760   4.797   5.298  0.4496  1.2107 -0.8452
   69SAPC  H16S 5902   5.638   4.728   5.406 -1.4187  0.5684 -0.4554
   69SAPC  C217 5903   5.646   4.936   5.427  1.0274 -0.0623  0.7319
   69SAPC  H17R 5904   5.620   5.014   5.352  1.3149  0.8622  1.5816
   69SAPC  H17S 5905   5.742   4.960   5.477  1.0255  2.7894 -0.4203
   69SAPC  C218 5906   5.538   4.932   5.534  0.3843 -0.0593 -0.7650
   69SAPC  H18R 5907   5.548   4.835   5.587  0.2403  0.2471 -0.1604
   69SAPC  H18S 5908   5.438   4.923   5.486 -0.0642 -2.0164  0.4019
   69SAPC  C219 5909   5.543   5.044   5.632 -0.1232 -0.1643  0.0240
   69SAPC  H19R 5910   5.515   5.135   5.574  0.9919  1.2666  1.6191
   69SAPC  H19S 5911   5.644   5.055   5.676 -0.3397  0.7618  0.3226
   69SAPC  C220 5912   5.449   5.022   5.755 -0.5566 -0.1487  0.0427
   69SAPC  H20R 5913   5.470   5.100   5.831 -0.7112 -0.3952  0.3425
   69SAPC  H20S 5914   5.448   4.920   5.800 -2.9306  0.1162  0.7242
   69SAPC  H20T 5915   5.348   5.044   5.714  0.3359 -1.4151 -3.1387
   69SAPC   C33 5916   5.832   3.929   4.395 -0.1842 -0.0071  0.3376
   69SAPC   H3X 5917   5.916   3.940   4.467  0.0675 -1.1287  0.2425
   69SAPC   H3Y 5918   5.858   3.843   4.328 -2.9482 -1.7709  1.3241
   69SAPC   C34 5919   5.706   3.862   4.452 -0.4847 -0.2884  0.5973
   69SAPC   H4X 5920   5.644   3.823   4.368 -0.9577 -0.1743  0.8906
   69SAPC   H4Y 5921   5.650   3.937   4.511  0.8952  0.4731  0.9849
   69SAPC   C35 5922   5.729   3.754   4.555 -0.5140  0.1569 -0.1820
   69SAPC   H5X 5923   5.807   3.685   4.516  0.4142 -0.1256  2.0396
   69SAPC   H5Y 5924   5.642   3.687   4.568 -1.4696  1.6054  1.3201
   69SAPC   C36 5925   5.761   3.813   4.695 -0.2414 -0.7446  1.3888
   69SAPC   H6X 5926   5.676   3.869   4.739  0.4412  0.9660  0.6640
   69SAPC   H6Y 5927   5.831   3.898   4.679  0.8004 -1.7298  0.5541
   69SAPC   C37 5928   5.828   3.707   4.779 -0.2801 -0.2327  0.1526
   69SAPC   H7X 5929   5.923   3.672   4.733  0.2145  2.3712 -1.0107
   69SAPC   H7Y 5930   5.763   3.617   4.788 -0.0426 -0.3235  1.0369
   69SAPC   C38 5931   5.866   3.771   4.912  0.2805  1.1431 -0.0645
   69SAPC   H8X 5932   5.842   3.879   4.918  0.0152  1.0436  0.7868
   69SAPC   H8Y 5933   5.975   3.777   4.931  0.0715  1.6774  1.0496
   69SAPC   C39 5934   5.785   3.696   5.018  0.3596 -0.1415 -0.4930
   69SAPC   H9X 5935   5.809   3.588   5.028  2.0169  0.2186 -0.2684
   69SAPC   H9Y 5936   5.676   3.700   4.997  0.3744 -4.4340 -2.4343
   69SAPC  C310 5937   5.807   3.748   5.162  0.1200  0.4664 -0.5338
   69SAPC  H10X 5938   5.729   3.701   5.227  1.2689  0.7359  1.0998
   69SAPC  H10Y 5939   5.792   3.858   5.165  0.1760  0.4607  1.7252
   69SAPC  C311 5940   5.937   3.703   5.230 -0.4531 -0.0238  0.0246
   69SAPC  H11X 5941   6.023   3.745   5.173 -2.8868  1.2635 -2.9888
   69SAPC  H11Y 5942   5.950   3.594   5.216 -0.9173 -0.0715 -0.0362
   69SAPC  C312 5943   5.941   3.750   5.377 -0.3307 -0.3618 -0.5148
   69SAPC  H12X 5944   6.044   3.734   5.415 -0.0349  1.1241 -0.6526
   69SAPC  H12Y 5945   5.881   3.670   5.427  0.8801  0.4529  2.4874
   69SAPC  C313 5946   5.882   3.891   5.416  0.4788  0.2844  0.6138
   69SAPC  H13X 5947   5.772   3.894   5.406  0.3718 -1.2493  1.0834
   69SAPC  H13Y 5948   5.928   3.962   5.343 -0.6270  2.2623  1.7813
   69SAPC  C314 5949   5.920   3.923   5.558  0.4418  0.2094 -0.8470
   69SAPC  H14X 5950   5.899   4.028   5.589 -1.1302 -0.9962  2.7985
   69SAPC  H14Y 5951   6.027   3.906   5.581 -0.1554 -0.9407  1.3941
   69SAPC  C315 5952   5.840   3.831   5.642 -0.0353  0.5543 -0.3109
   69SAPC  H15X 5953   5.866   3.724   5.630 -4.2205 -0.7786  0.6898
   69SAPC  H15Y 5954   5.734   3.826   5.610  0.4111 -0.1950 -1.7752
   69SAPC  C316 5955   5.854   3.863   5.792  0.2754 -0.5871  0.5089
   69SAPC  H16X 5956   5.770   3.817   5.849 -0.2364 -1.8613 -1.1884
   69SAPC  H16Y 5957   5.836   3.971   5.811 -1.7078 -0.5960 -0.9962
   69SAPC  C317 5958   5.989   3.849   5.853 -0.9036 -0.4804 -0.3038
   69SAPC  H17X 5959   6.071   3.881   5.786 -2.0914 -0.6280 -1.8802
   69SAPC  H17Y 5960   6.012   3.741   5.862 -0.6743 -0.5661 -1.7796
   69SAPC  C318 5961   5.998   3.921   5.992  0.0580 -0.0450 -0.4486
   69SAPC  H18X 5962   5.967   4.027   6.007  1.1801  0.0929  1.2396
   69SAPC  H18Y 5963   6.108   3.927   6.006  0.1414 -0.8952 -0.6884
   69SAPC  H18Z 5964   5.957   3.863   6.077  2.0213  1.2273  1.4799
   70SAPC     N 5965   1.571   2.524   3.733  0.6964 -1.0429  0.9887
   70SAPC   C12 5966   1.609   2.600   3.852 -0.5236 -0.5280 -0.0292
   70SAPC  H12A 5967   1.520   2.594   3.914  1.5895  0.2644  3.3332
   70SAPC  H12B 5968   1.626   2.703   3.825 -0.1135  0.0250  2.1231
   70SAPC   C13 5969   1.444   2.564   3.669 -0.0234 -0.0451 -0.5111
   70SAPC  H13A 5970   1.361   2.551   3.737 -0.0525 -1.0947 -0.7230
   70SAPC  H13B 5971   1.452   2.666   3.635  1.2189  0.2627  0.6168
   70SAPC  H13C 5972   1.423   2.494   3.589 -2.6536  1.2345 -1.0713
   70SAPC   C14 5973   1.675   2.513   3.630 -0.0582 -0.1363  0.4562
   70SAPC  H14A 5974   1.751   2.446   3.665 -2.3929 -2.4786  1.4110
   70SAPC  H14B 5975   1.644   2.457   3.543  1.3670 -1.3976  0.7352
   70SAPC  H14C 5976   1.711   2.610   3.599 -2.1030  0.6462  0.3458
   70SAPC   C15 5977   1.548   2.385   3.768 -0.2048  0.3630  0.3145
   70SAPC  H15A 5978   1.531   2.320   3.683 -2.2976 -0.8517  1.5395
   70SAPC  H15B 5979   1.625   2.347   3.834  0.4790  2.5018  0.8061
   70SAPC  H15C 5980   1.452   2.376   3.817  0.8620  0.2448  2.4831
   70SAPC   C11 5981   1.727   2.545   3.938  0.4200 -0.6834  0.5151
   70SAPC  H11A 5982   1.755   2.628   4.007  0.9664 -0.5594  0.1410
   70SAPC  H11B 5983   1.812   2.522   3.871  0.0428  0.8698 -0.5598
   70SAPC     P 5984   1.592   2.430   4.135 -0.4818  0.1618 -0.1393
   70SAPC   O13 5985   1.456   2.481   4.106  0.5401 -0.3512  0.9586
   70SAPC   O14 5986   1.592   2.299   4.199  0.2860 -0.3705  0.6128
   70SAPC   O12 5987   1.692   2.432   4.007 -0.3577  0.1047  0.2020
   70SAPC   O11 5988   1.666   2.540   4.227  0.2015 -0.3531  0.1620
   70SAPC    C1 5989   1.800   2.526   4.283 -0.0682 -0.0329 -0.3475
   70SAPC    HA 5990   1.868   2.445   4.249  0.5113  1.0420 -1.9070
   70SAPC    HB 5991   1.841   2.628   4.264 -1.0956  0.0148 -2.7189
   70SAPC    C2 5992   1.792   2.519   4.440 -0.1113  0.4069 -0.2227
   70SAPC    HS 5993   1.896   2.532   4.475 -0.5933 -1.5977  2.2601
   70SAPC   O21 5994   1.742   2.388   4.480  0.1374  0.5279  0.1311
   70SAPC   C21 5995   1.795   2.334   4.585 -0.0297  0.3480 -0.2319
   70SAPC   O22 5996   1.870   2.381   4.660 -0.4044 -0.5017  0.3589
   70SAPC   C22 5997   1.751   2.184   4.588  0.0099 -0.0938  0.2030
   70SAPC   H2R 5998   1.650   2.164   4.544  0.8321 -3.3493 -0.4998
   70SAPC   H2S 5999   1.833   2.128   4.540  0.4843 -0.2409  1.1606
   70SAPC    C3 6000   1.707   2.643   4.483 -0.1513  0.0895  0.2041
   70SAPC    HX 6001   1.604   2.625   4.445  0.1791 -1.0324 -0.1909
   70SAPC    HY 6002   1.751   2.735   4.438 -1.4634 -0.2502 -1.9396
   70SAPC   O31 6003   1.701   2.645   4.629 -1.0059 -0.2787 -0.1519
   70SAPC   C31 6004   1.804   2.715   4.687  0.1139  0.0195  0.7200
   70SAPC   O32 6005   1.902   2.759   4.630 -0.4359  0.7465 -0.4842
   70SAPC   C32 6006   1.778   2.742   4.842 -0.0400  0.3701 -0.8507
   70SAPC   H2X 6007   1.742   2.645   4.883 -1.1637  1.4044  0.7198
   70SAPC   H2Y 6008   1.701   2.820   4.859 -1.9046 -1.6442  0.6547
   70SAPC   C23 6009   1.729   2.142   4.734 -0.4934 -0.3586 -0.0571
   70SAPC   H3R 6010   1.823   2.162   4.790 -0.9969  3.2618 -0.2615
   70SAPC   H3S 6011   1.702   2.034   4.731  1.9141 -1.0237  0.0625
   70SAPC   C24 6012   1.611   2.216   4.801  0.2513  0.7348  0.3663
   70SAPC   H4R 6013   1.522   2.179   4.745  1.4046  0.4456 -1.3693
   70SAPC   H4S 6014   1.615   2.323   4.772 -1.1082  0.7997  0.3439
   70SAPC   C25 6015   1.588   2.181   4.946 -0.2732  0.3775  0.5513
   70SAPC   H5R 6016   1.532   2.088   4.961 -0.3358 -0.4531 -3.6204
   70SAPC   C26 6017   1.609   2.266   5.046  0.3160 -0.3215 -0.1667
   70SAPC   H6R 6018   1.579   2.221   5.143 -1.0105 -1.4922 -1.0759
   70SAPC   C27 6019   1.667   2.407   5.040 -0.6414  0.1014 -0.0767
   70SAPC   H7R 6020   1.621   2.461   5.126 -1.9941 -1.1206  0.0149
   70SAPC   H7S 6021   1.629   2.451   4.945  4.1032 -2.9888 -3.9167
   70SAPC   C28 6022   1.819   2.411   5.033 -0.4365 -0.5234 -0.5682
   70SAPC   H8R 6023   1.860   2.398   4.932  2.2613  0.2935  0.3345
   70SAPC   C29 6024   1.891   2.409   5.146  0.1832  0.9379 -0.1834
   70SAPC   H9R 6025   2.001   2.400   5.145  0.2158  1.1893  0.3693
   70SAPC  C210 6026   1.835   2.445   5.283 -0.0826 -0.4303 -0.4607
   70SAPC  H10R 6027   1.740   2.502   5.278 -0.0077  0.1776  2.7924
   70SAPC  H10S 6028   1.899   2.527   5.323  0.8952 -0.6552 -1.5012
   70SAPC  C211 6029   1.814   2.332   5.379 -0.1656 -0.0391 -0.5059
   70SAPC  H11R 6030   1.728   2.265   5.364 -0.3621  0.3272 -1.0654
   70SAPC  C212 6031   1.905   2.297   5.476  0.3755 -0.4572  0.0715
   70SAPC  H12R 6032   1.886   2.210   5.541 -0.1007  0.4540  1.1890
   70SAPC  C213 6033   2.039   2.364   5.516  0.4566 -0.1164 -0.0271
   70SAPC  H13R 6034   2.011   2.431   5.599 -0.0169  0.0678 -0.3304
   70SAPC  H13S 6035   2.083   2.411   5.426  2.6661  2.2917  2.1580
   70SAPC  C214 6036   2.122   2.251   5.569  0.5278  0.0593 -0.2400
   70SAPC  H14R 6037   2.163   2.174   5.501  0.6028  0.8880 -1.1521
   70SAPC  C215 6038   2.165   2.245   5.701 -0.1501  0.3192 -0.2273
   70SAPC  H15R 6039   2.231   2.160   5.726 -0.2430 -0.0170 -1.0871
   70SAPC  C216 6040   2.131   2.337   5.818  0.1786  0.3756 -0.4589
   70SAPC  H16R 6041   2.126   2.441   5.780  1.1030  0.0769 -1.4565
   70SAPC  H16S 6042   2.218   2.335   5.886  0.0113 -0.7108 -0.2552
   70SAPC  C217 6043   1.998   2.302   5.886  0.4239 -0.4112  0.5350
   70SAPC  H17R 6044   1.992   2.194   5.909 -2.5019 -0.3824  0.2713
   70SAPC  H17S 6045   1.913   2.317   5.816 -0.7553  3.5195  2.4738
   70SAPC  C218 6046   1.977   2.396   6.003  0.6724 -0.3864  0.3719
   70SAPC  H18R 6047   2.011   2.499   5.981 -1.3894  0.0539 -0.9911
   70SAPC  H18S 6048   2.036   2.360   6.091  0.7341  0.8173  0.8451
   70SAPC  C219 6049   1.826   2.399   6.048 -0.5677 -0.1152  0.3636
   70SAPC  H19R 6050   1.757   2.422   5.964 -0.5025 -1.9519 -0.2382
   70SAPC  H19S 6051   1.812   2.480   6.124 -0.5373  0.2492 -0.0174
   70SAPC  C220 6052   1.792   2.266   6.116  0.5617  0.0672  0.4225
   70SAPC  H20R 6053   1.868   2.243   6.194  2.1780  1.1583 -0.7724
   70SAPC  H20S 6054   1.801   2.191   6.035  2.0670  2.7760 -2.0975
   70SAPC  H20T 6055   1.688   2.267   6.156 -0.1263  0.4827 -1.2749
   70SAPC   C33 6056   1.900   2.764   4.934 -0.8936 -0.7872 -0.0070
   70SAPC   H3X 6057   1.970   2.840   4.894 -0.0766 -1.8562 -0.7039
   70SAPC   H3Y 6058   1.956   2.670   4.956  2.3131  0.9899  0.0132
   70SAPC   C34 6059   1.864   2.837   5.069 -0.4799 -0.0423  0.1241
   70SAPC   H4X 6060   1.782   2.780   5.118 -1.1398 -0.4967 -1.4618
   70SAPC   H4Y 6061   1.837   2.943   5.048 -3.6303 -0.9711 -1.0873
   70SAPC   C35 6062   1.978   2.822   5.168 -0.2755 -0.2026 -0.0434
   70SAPC   H5X 6063   2.072   2.879   5.151 -0.3090 -0.2163 -0.2856
   70SAPC   H5Y 6064   2.019   2.719   5.164 -0.9963 -0.4704 -2.7135
   70SAPC   C36 6065   1.934   2.855   5.305 -0.2403  0.2676  0.1678
   70SAPC   H6X 6066   1.833   2.812   5.325 -0.9290  0.7996 -1.9624
   70SAPC   H6Y 6067   1.925   2.965   5.322 -2.1871  0.0727  0.6825
   70SAPC   C37 6068   2.038   2.793   5.402  0.4519 -0.1150 -0.0811
   70SAPC   H7X 6069   2.041   2.682   5.399 -0.3219 -0.1360 -0.3133
   70SAPC   H7Y 6070   2.134   2.838   5.371 -0.6773  0.3924 -3.2765
   70SAPC   C38 6071   1.999   2.844   5.538 -0.5081 -0.2329  0.0736
   70SAPC   H8X 6072   1.904   2.799   5.574 -1.3987 -2.3380 -4.2423
   70SAPC   H8Y 6073   1.998   2.955   5.532  1.8647 -0.1899 -0.3979
   70SAPC   C39 6074   2.115   2.802   5.632  0.5353 -0.2115 -0.2977
   70SAPC   H9X 6075   2.216   2.832   5.596  0.0397  0.6300 -1.0423
   70SAPC   H9Y 6076   2.110   2.692   5.642  0.6540 -0.7609 -4.4488
   70SAPC  C310 6077   2.101   2.860   5.774 -0.1132 -0.0746  0.4519
   70SAPC  H10X 6078   2.020   2.809   5.829 -0.3013  0.5872  0.8059
   70SAPC  H10Y 6079   2.078   2.969   5.766 -0.6386 -0.1288  1.1554
   70SAPC  C311 6080   2.228   2.840   5.859  0.0424 -0.4521 -0.6006
   70SAPC  H11X 6081   2.231   2.914   5.942  0.7830  0.9043 -1.7925
   70SAPC  H11Y 6082   2.314   2.863   5.792  1.0082  0.6204  0.9620
   70SAPC  C312 6083   2.242   2.703   5.925  0.1426 -0.1226  0.2646
   70SAPC  H12X 6084   2.243   2.634   5.838 -0.9418 -1.0617  0.9696
   70SAPC  H12Y 6085   2.165   2.668   5.998  1.3568 -2.4387  0.5102
   70SAPC  C313 6086   2.378   2.694   5.996  0.2469 -1.3138  0.4843
   70SAPC  H13X 6087   2.445   2.727   5.914  0.2080  0.5219  1.1493
   70SAPC  H13Y 6088   2.380   2.585   6.019 -0.6869 -1.5450 -0.4392
   70SAPC  C314 6089   2.390   2.783   6.120  0.1553 -0.1405  0.4836
   70SAPC  H14X 6090   2.379   2.891   6.099 -0.6979 -0.4459 -0.7241
   70SAPC  H14Y 6091   2.496   2.777   6.152  0.4995 -0.1833 -0.6399
   70SAPC  C315 6092   2.297   2.742   6.236  0.1376  0.0677  0.2130
   70SAPC  H15X 6093   2.306   2.633   6.252 -1.5241 -0.0052  0.8293
   70SAPC  H15Y 6094   2.195   2.762   6.196  0.7734 -1.5495 -2.4883
   70SAPC  C316 6095   2.317   2.813   6.366 -0.6236 -1.2691 -0.3956
   70SAPC  H16X 6096   2.315   2.922   6.345  1.3277 -1.1002  0.1010
   70SAPC  H16Y 6097   2.419   2.784   6.400 -1.1766 -1.6129  1.0473
   70SAPC  C317 6098   2.232   2.778   6.479  0.0386  0.4028  0.0328
   70SAPC  H17X 6099   2.129   2.755   6.443  0.3215 -1.7794  0.5152
   70SAPC  H17Y 6100   2.210   2.860   6.551 -1.1349  0.4260 -0.3315
   70SAPC  C318 6101   2.278   2.667   6.570  0.7492  0.4238  0.0879
   70SAPC  H18X 6102   2.209   2.645   6.655  0.0352  2.5550  0.1408
   70SAPC  H18Y 6103   2.379   2.699   6.602  1.6014 -0.7292 -1.3365
   70SAPC  H18Z 6104   2.291   2.575   6.510  0.2019 -0.4995  1.3266
   71SAPC     N 6105   1.093   6.771   3.637  0.4367  0.4728  0.3422
   71SAPC   C12 6106   1.153   6.696   3.756  0.3691 -0.2726  0.2507
   71SAPC  H12A 6107   1.171   6.590   3.742  1.9103 -0.3179  2.0915
   71SAPC  H12B 6108   1.086   6.721   3.837 -0.0548  2.4979 -0.8386
   71SAPC   C13 6109   1.037   6.901   3.673 -0.1672 -0.7593  0.7607
   71SAPC  H13A 6110   0.983   6.885   3.765  1.2698 -2.4254  1.3561
   71SAPC  H13B 6111   1.112   6.977   3.688 -0.0487 -0.3113 -1.6509
   71SAPC  H13C 6112   0.967   6.945   3.603  0.8075  3.3766  2.0974
   71SAPC   C14 6113   1.191   6.795   3.527 -0.9884  0.3331 -0.1395
   71SAPC  H14A 6114   1.141   6.826   3.437  0.6697  2.3614 -0.4441
   71SAPC  H14B 6115   1.278   6.855   3.552 -1.1184 -0.5166  2.8334
   71SAPC  H14C 6116   1.234   6.701   3.497 -1.9249 -0.6941  1.5673
   71SAPC   C15 6117   0.979   6.692   3.576 -0.9602 -0.6837  0.0244
   71SAPC  H15A 6118   0.909   6.647   3.645  0.4542 -0.9037  1.3709
   71SAPC  H15B 6119   0.926   6.768   3.521  2.8542  2.9754  0.8590
   71SAPC  H15C 6120   1.006   6.610   3.510 -4.6256 -1.8036 -0.2905
   71SAPC   C11 6121   1.300   6.734   3.794 -1.3458 -0.0957 -0.1904
   71SAPC  H11A 6122   1.320   6.736   3.903  2.7946 -0.5367 -0.7916
   71SAPC  H11B 6123   1.323   6.837   3.758  0.6265 -0.6665 -0.7211
   71SAPC     P 6124   1.532   6.682   3.689  0.3825 -0.3170 -0.2742
   71SAPC   O13 6125   1.613   6.571   3.627 -0.0512  0.8121 -0.1334
   71SAPC   O14 6126   1.512   6.803   3.607 -0.2797 -0.1184  0.1433
   71SAPC   O12 6127   1.389   6.634   3.742  0.2984  0.2912 -0.1599
   71SAPC   O11 6128   1.599   6.723   3.825  0.5609  0.2598  0.1950
   71SAPC    C1 6129   1.649   6.627   3.920 -0.5819 -0.2910  0.2052
   71SAPC    HA 6130   1.572   6.557   3.957  1.3461 -2.0903  0.9876
   71SAPC    HB 6131   1.732   6.562   3.884 -0.1387  1.7004 -2.7323
   71SAPC    C2 6132   1.701   6.685   4.060 -0.0890  0.4263  0.0848
   71SAPC    HS 6133   1.701   6.608   4.140  0.6795  0.5720  0.2331
   71SAPC   O21 6134   1.624   6.802   4.098 -0.5226 -0.0670  0.3492
   71SAPC   C21 6135   1.503   6.772   4.122  0.4362  0.2234 -0.0001
   71SAPC   O22 6136   1.465   6.658   4.146  0.5441 -0.8335  0.2942
   71SAPC   C22 6137   1.416   6.896   4.111 -0.3638 -0.3479 -0.0825
   71SAPC   H2R 6138   1.426   6.948   4.014  2.0917 -0.6954 -0.0836
   71SAPC   H2S 6139   1.313   6.853   4.119  0.6233 -3.0277 -0.6085
   71SAPC    C3 6140   1.850   6.730   4.058  0.9857 -0.3068  0.0195
   71SAPC    HX 6141   1.860   6.818   3.990  0.6610  0.2377  0.6598
   71SAPC    HY 6142   1.917   6.652   4.016  1.5163 -0.4659  1.1188
   71SAPC   O31 6143   1.897   6.757   4.191 -0.0767  0.2100  0.0986
   71SAPC   C31 6144   1.898   6.886   4.229  0.6130 -0.0418 -0.1926
   71SAPC   O32 6145   1.867   6.979   4.158  0.3289 -0.1937  0.9489
   71SAPC   C32 6146   1.944   6.904   4.372 -0.4116 -0.0679  0.3217
   71SAPC   H2X 6147   1.977   7.009   4.386 -0.6022  0.1160 -0.5206
   71SAPC   H2Y 6148   2.034   6.840   4.381 -1.4337 -1.2978  2.4502
   71SAPC   C23 6149   1.445   7.005   4.219  1.0119 -0.0108 -1.1198
   71SAPC   H3R 6150   1.391   7.101   4.205  2.7049  1.1889  0.2146
   71SAPC   H3S 6151   1.554   7.023   4.220  1.6618 -2.3801  3.8312
   71SAPC   C24 6152   1.409   6.962   4.362 -0.4028  0.4291 -0.3700
   71SAPC   H4R 6153   1.447   7.037   4.435 -1.0306  1.5961 -1.2080
   71SAPC   H4S 6154   1.467   6.869   4.379 -1.2053 -0.1949 -1.0032
   71SAPC   C25 6155   1.266   6.917   4.387  0.5316  0.5705 -0.3654
   71SAPC   H5R 6156   1.201   6.944   4.302 -1.1688 -0.5155  0.5291
   71SAPC   C26 6157   1.208   6.873   4.503 -0.6214 -0.4591  0.1115
   71SAPC   H6R 6158   1.101   6.847   4.497 -0.3731 -1.3010 -1.0441
   71SAPC   C27 6159   1.274   6.849   4.634  0.1981 -0.1120 -0.0264
   71SAPC   H7R 6160   1.255   6.920   4.717  1.3648 -2.8737  2.8037
   71SAPC   H7S 6161   1.382   6.873   4.619 -0.3722  3.3363  0.4940
   71SAPC   C28 6162   1.273   6.704   4.673 -0.4391 -0.2803 -1.2715
   71SAPC   H8R 6163   1.274   6.639   4.585 -0.9075 -1.9502 -0.0962
   71SAPC   C29 6164   1.250   6.650   4.798 -0.3513  0.0949  0.3870
   71SAPC   H9R 6165   1.249   6.541   4.811  0.2483  0.0358  0.0022
   71SAPC  C210 6166   1.240   6.733   4.930  0.5418 -0.0876  0.2298
   71SAPC  H10R 6167   1.259   6.840   4.906 -0.4799  0.1894  0.5748
   71SAPC  H10S 6168   1.323   6.693   4.993  3.3098  2.1489 -1.7595
   71SAPC  C211 6169   1.100   6.710   4.991  0.8950  0.1210 -0.0953
   71SAPC  H11R 6170   1.016   6.722   4.921  2.0172 -2.0792 -1.9642
   71SAPC  C212 6171   1.068   6.652   5.109 -0.3959 -0.1996 -0.7457
   71SAPC  H12R 6172   0.962   6.635   5.130  0.5183 -4.1861  1.6406
   71SAPC  C213 6173   1.168   6.609   5.221 -0.4217  0.2741 -0.2625
   71SAPC  H13R 6174   1.158   6.680   5.306 -0.9321 -2.3549  2.0369
   71SAPC  H13S 6175   1.269   6.608   5.175 -0.1936  0.4440  0.2272
   71SAPC  C214 6176   1.131   6.469   5.262 -0.4496  0.4111 -0.8201
   71SAPC  H14R 6177   1.134   6.400   5.177  2.1802  0.8084 -1.1224
   71SAPC  C215 6178   1.107   6.429   5.390  0.1127 -0.2799 -0.5191
   71SAPC  H15R 6179   1.101   6.320   5.403  0.6264 -0.1727  0.7312
   71SAPC  C216 6180   1.113   6.507   5.524  0.0777 -0.0495 -0.3066
   71SAPC  H16R 6181   1.037   6.587   5.514  0.3245  0.4303  1.3824
   71SAPC  H16S 6182   1.210   6.558   5.543 -1.3864  1.9045  2.6693
   71SAPC  C217 6183   1.095   6.427   5.649  0.3081 -0.6953 -0.8186
   71SAPC  H17R 6184   0.997   6.375   5.650 -0.8485  1.3479  0.4036
   71SAPC  H17S 6185   1.085   6.504   5.729  1.5959 -1.4331  0.0991
   71SAPC  C218 6186   1.220   6.339   5.679  1.0107 -0.0498  0.3856
   71SAPC  H18R 6187   1.313   6.398   5.696  0.6036  0.6799  0.1265
   71SAPC  H18S 6188   1.227   6.273   5.590  0.3598 -1.7388  1.5318
   71SAPC  C219 6189   1.197   6.251   5.808 -0.1556  0.2566 -0.0539
   71SAPC  H19R 6190   1.285   6.184   5.800 -1.1535 -0.9380 -1.5148
   71SAPC  H19S 6191   1.111   6.182   5.796  2.4032 -3.0050 -1.4492
   71SAPC  C220 6192   1.187   6.334   5.938  0.5329 -0.8229 -0.1132
   71SAPC  H20R 6193   1.191   6.267   6.027 -1.8904 -0.6071  0.2332
   71SAPC  H20S 6194   1.096   6.397   5.941  2.6913  2.6932 -2.3409
   71SAPC  H20T 6195   1.267   6.409   5.926 -2.6595  2.5142 -3.0679
   71SAPC   C33 6196   1.839   6.862   4.476 -0.3516  0.3780  0.4443
   71SAPC   H3X 6197   1.905   6.821   4.555 -0.3078  0.5498  0.4974
   71SAPC   H3Y 6198   1.762   6.788   4.446 -0.4373 -0.5587  2.7360
   71SAPC   C34 6199   1.775   6.981   4.550 -0.2847  0.4969 -0.1741
   71SAPC   H4X 6200   1.702   7.033   4.484 -1.4210 -0.0888  0.5916
   71SAPC   H4Y 6201   1.856   7.053   4.575 -0.7025  0.5295  1.1537
   71SAPC   C35 6202   1.696   6.946   4.677 -0.5508 -0.2835  0.5448
   71SAPC   H5X 6203   1.760   6.880   4.739 -1.7588 -2.4469 -0.4287
   71SAPC   H5Y 6204   1.614   6.892   4.626 -1.3339  1.1454  0.2444
   71SAPC   C36 6205   1.636   7.069   4.742 -0.1133 -0.0318  0.4490
   71SAPC   H6X 6206   1.590   7.135   4.664  0.4927  0.3871  0.4463
   71SAPC   H6Y 6207   1.715   7.127   4.794 -0.3103 -1.4624  2.4466
   71SAPC   C37 6208   1.540   7.050   4.858  0.3934  0.2684  0.1494
   71SAPC   H7X 6209   1.438   7.019   4.828  1.3911 -2.8600 -0.3397
   71SAPC   H7Y 6210   1.534   7.142   4.920  0.5199  0.2385  0.2067
   71SAPC   C38 6211   1.589   6.931   4.962 -0.0009 -0.5658 -0.0170
   71SAPC   H8X 6212   1.697   6.940   4.985 -0.3120  0.3458  1.1418
   71SAPC   H8Y 6213   1.573   6.836   4.907 -0.2719 -2.5388  3.1950
   71SAPC   C39 6214   1.490   6.924   5.086  0.1422 -0.4231  0.5837
   71SAPC   H9X 6215   1.380   6.931   5.067  0.0100 -1.4967  0.8985
   71SAPC   H9Y 6216   1.512   7.020   5.136 -0.1021  0.6505 -1.2553
   71SAPC  C310 6217   1.521   6.821   5.189 -0.0542  0.4914 -0.0700
   71SAPC  H10X 6218   1.628   6.834   5.217  1.2984 -2.3176 -3.1681
   71SAPC  H10Y 6219   1.516   6.715   5.156  1.2752 -0.0433  1.3060
   71SAPC  C311 6220   1.420   6.843   5.301  0.0604  0.3340 -0.1828
   71SAPC  H11X 6221   1.319   6.846   5.255 -0.1906 -2.0921  0.0716
   71SAPC  H11Y 6222   1.437   6.948   5.334 -0.7134  1.0391 -1.8963
   71SAPC  C312 6223   1.436   6.750   5.419  0.7356  0.0358  0.1260
   71SAPC  H12X 6224   1.539   6.711   5.435  0.2827 -0.8531  1.0253
   71SAPC  H12Y 6225   1.374   6.660   5.398 -0.9597  0.9098  1.2058
   71SAPC  C313 6226   1.382   6.811   5.553  0.0846  0.1170  0.0490
   71SAPC  H13X 6227   1.276   6.823   5.521 -0.2348 -0.7757  0.7173
   71SAPC  H13Y 6228   1.425   6.911   5.576  1.3157 -0.1675 -0.9036
   71SAPC  C314 6229   1.399   6.717   5.668  0.1578 -0.1753  0.0388
   71SAPC  H14X 6230   1.508   6.722   5.693  0.2231  0.0880 -0.2786
   71SAPC  H14Y 6231   1.378   6.613   5.635  1.2401 -0.1592 -0.7663
   71SAPC  C315 6232   1.308   6.749   5.794  0.1408  0.1905  0.4745
   71SAPC  H15X 6233   1.341   6.676   5.870 -1.0299 -0.7071  0.1569
   71SAPC  H15Y 6234   1.203   6.719   5.771  0.1742  0.9536 -0.7780
   71SAPC  C316 6235   1.318   6.884   5.864  0.0742 -0.6185  0.3859
   71SAPC  H16X 6236   1.271   6.958   5.796 -1.5387 -2.8039 -1.0384
   71SAPC  H16Y 6237   1.416   6.924   5.898 -1.0667  1.5036  1.3487
   71SAPC  C317 6238   1.244   6.888   6.000 -0.1206 -0.6353 -0.3343
   71SAPC  H17X 6239   1.295   6.818   6.070 -0.3141 -0.2138  0.2332
   71SAPC  H17Y 6240   1.142   6.849   5.981 -0.5269  1.5486 -3.2831
   71SAPC  C318 6241   1.230   7.032   6.052 -0.1293 -0.5344  0.2466
   71SAPC  H18X 6242   1.196   7.100   5.970 -0.1484  0.7586  1.2966
   71SAPC  H18Y 6243   1.327   7.065   6.094  0.7234 -1.0152 -1.2626
   71SAPC  H18Z 6244   1.153   7.040   6.132 -0.5653  1.3346 -0.3066
   72SAPC     N 6245   0.644   3.884   3.375  0.3780 -0.0231  0.1581
   72SAPC   C12 6246   0.572   3.922   3.500  0.1544 -0.6652 -0.4050
   72SAPC  H12A 6247   0.468   3.937   3.479  0.1735  1.1241  0.5662
   72SAPC  H12B 6248   0.621   4.010   3.538  0.7692 -1.1369 -0.0815
   72SAPC   C13 6249   0.783   3.857   3.411 -0.3324  0.2385  0.3982
   72SAPC  H13A 6250   0.791   3.780   3.486  2.0233  1.2812  1.3157
   72SAPC  H13B 6251   0.835   3.813   3.328  1.0662  2.8506 -0.2354
   72SAPC  H13C 6252   0.841   3.937   3.456  0.2449  1.3868 -2.2315
   72SAPC   C14 6253   0.595   3.761   3.306  0.4916 -0.3282  0.1519
   72SAPC  H14A 6254   0.492   3.777   3.278  0.9631  0.1199 -1.4268
   72SAPC  H14B 6255   0.624   3.743   3.203 -2.1790  2.2892 -1.1986
   72SAPC  H14C 6256   0.605   3.676   3.372  1.9082 -1.0430 -0.9273
   72SAPC   C15 6257   0.641   4.004   3.282 -0.3631 -0.3729 -0.4721
   72SAPC  H15A 6258   0.704   3.988   3.196  1.1063 -0.3461  0.5763
   72SAPC  H15B 6259   0.542   4.006   3.238 -1.1200 -1.0573  1.0929
   72SAPC  H15C 6260   0.667   4.099   3.325 -1.2732 -0.1583 -0.3620
   72SAPC   C11 6261   0.574   3.815   3.609  0.6284  0.1868  0.1035
   72SAPC  H11A 6262   0.537   3.720   3.565  4.1555 -1.9780  1.3556
   72SAPC  H11B 6263   0.492   3.840   3.679  0.0973  0.6298 -0.6611
   72SAPC     P 6264   0.726   3.672   3.767  0.0381  0.3131  0.5065
   72SAPC   O13 6265   0.641   3.559   3.726  0.3551 -0.4377 -0.0125
   72SAPC   O14 6266   0.872   3.636   3.786  0.0579  0.0100  0.4996
   72SAPC   O12 6267   0.698   3.800   3.682  0.3586 -0.4305  0.8317
   72SAPC   O11 6268   0.681   3.722   3.916 -0.3755 -0.2644 -0.4295
   72SAPC    C1 6269   0.732   3.844   3.974  0.2669  0.7475  0.5377
   72SAPC    HA 6270   0.834   3.828   4.014  0.6313 -2.6368 -1.4361
   72SAPC    HB 6271   0.736   3.924   3.897  0.3266 -1.1459 -1.5238
   72SAPC    C2 6272   0.635   3.880   4.098 -0.3769 -0.2841  0.4688
   72SAPC    HS 6273   0.667   3.974   4.146  1.1995 -0.5663  0.0412
   72SAPC   O21 6274   0.640   3.769   4.197  0.3248  0.5991  0.0931
   72SAPC   C21 6275   0.753   3.760   4.260 -0.5204 -0.1305  0.0415
   72SAPC   O22 6276   0.848   3.836   4.244 -0.3397 -0.0181 -1.1034
   72SAPC   C22 6277   0.749   3.641   4.369 -0.2852 -0.1274  0.2856
   72SAPC   H2R 6278   0.639   3.625   4.377 -0.4770  1.5988  1.6995
   72SAPC   H2S 6279   0.785   3.545   4.326 -1.0131 -0.2865  0.0044
   72SAPC    C3 6280   0.488   3.896   4.050  0.1720  0.1857 -1.0827
   72SAPC    HX 6281   0.443   3.798   4.022 -3.0833  0.4751  2.4138
   72SAPC    HY 6282   0.496   3.958   3.958  0.4365  1.8422  0.0304
   72SAPC   O31 6283   0.403   3.965   4.150  0.2715  0.0550  0.4351
   72SAPC   C31 6284   0.324   3.873   4.214  0.2498 -0.4858  0.3239
   72SAPC   O32 6285   0.321   3.752   4.193 -0.3488 -0.9587 -0.2300
   72SAPC   C32 6286   0.254   3.942   4.329 -0.6007 -0.0239 -0.4035
   72SAPC   H2X 6287   0.187   3.872   4.382 -1.3738  2.5058  2.2462
   72SAPC   H2Y 6288   0.191   4.026   4.293  2.4898  2.3776 -0.6504
   72SAPC   C23 6289   0.793   3.677   4.512 -0.2114 -0.5024 -0.1074
   72SAPC   H3R 6290   0.753   3.593   4.572 -0.4825  0.9954  1.8941
   72SAPC   H3S 6291   0.750   3.774   4.543  2.2213  0.6643 -0.1377
   72SAPC   C24 6292   0.940   3.664   4.530  0.1837  0.0990 -0.4774
   72SAPC   H4R 6293   0.992   3.655   4.432 -1.3752  0.0781 -1.3395
   72SAPC   H4S 6294   0.966   3.570   4.584 -0.9988  0.7541  1.3101
   72SAPC   C25 6295   0.996   3.782   4.598 -0.0207  0.4180  0.5413
   72SAPC   H5R 6296   1.014   3.868   4.532  2.8519  0.4415  1.2585
   72SAPC   C26 6297   0.995   3.805   4.730  0.3700 -0.2927 -0.2698
   72SAPC   H6R 6298   1.047   3.896   4.763  1.5335 -1.3780  1.0245
   72SAPC   C27 6299   0.961   3.710   4.842 -0.0765  0.2533  0.6475
   72SAPC   H7R 6300   1.057   3.696   4.897  0.7678  0.7254 -0.6659
   72SAPC   H7S 6301   0.942   3.611   4.795  2.6193 -0.1818  0.2765
   72SAPC   C28 6302   0.837   3.761   4.917 -0.2706 -0.2403  0.0234
   72SAPC   H8R 6303   0.766   3.807   4.847  1.4454  0.3572 -1.4125
   72SAPC   C29 6304   0.821   3.763   5.051  0.4090  0.2125  0.5574
   72SAPC   H9R 6305   0.725   3.803   5.086 -1.6891 -0.9176 -3.3281
   72SAPC  C210 6306   0.917   3.721   5.155 -0.5094  0.1624 -0.7441
   72SAPC  H10R 6307   0.981   3.640   5.116 -2.2725 -2.6266  1.7362
   72SAPC  H10S 6308   0.850   3.686   5.237 -1.2438  2.1001 -0.4567
   72SAPC  C211 6309   1.000   3.838   5.209  0.6417  0.1788  0.8650
   72SAPC  H11R 6310   1.055   3.898   5.135  1.3683  0.7350  1.8307
   72SAPC  C212 6311   1.025   3.879   5.330  0.1784 -0.2562  0.1190
   72SAPC  H12R 6312   1.082   3.972   5.347 -1.6878  0.8261  0.7646
   72SAPC  C213 6313   0.968   3.814   5.454 -0.0106  0.3392  0.6542
   72SAPC  H13R 6314   0.893   3.739   5.419  0.5380  1.5644 -3.7098
   72SAPC  H13S 6315   0.920   3.890   5.518  0.1542 -0.0640  1.2651
   72SAPC  C214 6316   1.073   3.749   5.530  0.4152  0.9432 -0.5125
   72SAPC  H14R 6317   1.139   3.681   5.474  0.6051 -1.2268  2.1451
   72SAPC  C215 6318   1.102   3.754   5.661  0.5552 -0.0151 -0.0837
   72SAPC  H15R 6319   1.189   3.701   5.701  0.3483  0.6727  1.3604
   72SAPC  C216 6320   1.031   3.851   5.757 -0.0874 -0.6249 -0.6140
   72SAPC  H16R 6321   1.054   3.809   5.857 -1.8022  0.8221  0.4519
   72SAPC  H16S 6322   0.922   3.864   5.738 -0.3722  0.8315  1.7134
   72SAPC  C217 6323   1.094   3.992   5.758 -0.4908  0.3085 -0.1800
   72SAPC  H17R 6324   1.053   4.059   5.679 -2.8685 -2.0384 -1.0835
   72SAPC  H17S 6325   1.204   3.986   5.741 -0.4502  1.2149 -0.3303
   72SAPC  C218 6326   1.078   4.065   5.888  0.0022  0.3521  0.1985
   72SAPC  H18R 6327   1.131   3.998   5.959 -1.1400 -0.2374  0.5140
   72SAPC  H18S 6328   0.971   4.062   5.918 -0.1393  1.2433 -0.1817
   72SAPC  C219 6329   1.138   4.206   5.893 -0.1745  0.6191  0.3295
   72SAPC  H19R 6330   1.109   4.248   5.992 -0.2104 -1.1259  1.0819
   72SAPC  H19S 6331   1.116   4.266   5.802  3.5573  0.2693 -0.9661
   72SAPC  C220 6332   1.287   4.208   5.895 -0.9971 -0.7156  0.4877
   72SAPC  H20R 6333   1.315   4.314   5.915 -0.3675 -0.5750 -1.0323
   72SAPC  H20S 6334   1.333   4.165   5.804 -0.1617 -0.4146  0.7489
   72SAPC  H20T 6335   1.325   4.148   5.981 -0.3709  1.1854  1.5989
   72SAPC   C33 6336   0.342   4.007   4.432  0.0524 -0.1181 -0.7573
   72SAPC   H3X 6337   0.288   4.048   4.520 -0.2304  0.2701 -1.1075
   72SAPC   H3Y 6338   0.399   4.089   4.384 -0.3048 -0.3472 -1.5949
   72SAPC   C34 6339   0.446   3.909   4.489 -0.9730 -0.2420  0.0198
   72SAPC   H4X 6340   0.500   3.966   4.568 -1.4351  1.3198 -0.7452
   72SAPC   H4Y 6341   0.522   3.893   4.410 -2.3302 -0.6102 -1.2556
   72SAPC   C35 6342   0.380   3.778   4.543  0.0706  0.1867  0.1628
   72SAPC   H5X 6343   0.359   3.710   4.458  3.7233 -1.3950  0.3197
   72SAPC   H5Y 6344   0.280   3.808   4.582 -1.1503  0.3543 -2.8000
   72SAPC   C36 6345   0.449   3.698   4.653  0.1224 -0.1302 -0.2858
   72SAPC   H6X 6346   0.554   3.669   4.629  0.0635 -0.2617 -0.3812
   72SAPC   H6Y 6347   0.409   3.595   4.657  1.2497 -0.5587  0.6624
   72SAPC   C37 6348   0.442   3.758   4.795  0.6202 -0.0538  0.5972
   72SAPC   H7X 6349   0.342   3.789   4.833  0.0716 -0.9135 -0.1259
   72SAPC   H7Y 6350   0.508   3.848   4.802  0.0484  0.4448 -0.2159
   72SAPC   C38 6351   0.492   3.656   4.903 -0.3754 -0.2662 -1.0419
   72SAPC   H8X 6352   0.597   3.621   4.894 -0.1385 -0.3070  1.2907
   72SAPC   H8Y 6353   0.430   3.565   4.896 -1.8767  0.5142  1.0552
   72SAPC   C39 6354   0.463   3.710   5.051  0.0702 -0.3571 -0.0312
   72SAPC   H9X 6355   0.353   3.727   5.052 -0.0145 -0.8945  1.1227
   72SAPC   H9Y 6356   0.512   3.809   5.063 -0.5662 -0.2263  1.8328
   72SAPC  C310 6357   0.496   3.602   5.157  0.5292 -0.9957 -0.3034
   72SAPC  H10X 6358   0.607   3.594   5.157  0.6612  0.5181  0.2104
   72SAPC  H10Y 6359   0.449   3.507   5.123 -0.5909 -0.3536 -0.5944
   72SAPC  C311 6360   0.457   3.645   5.296 -0.2547 -0.2450 -0.5679
   72SAPC  H11X 6361   0.351   3.620   5.316  0.2022 -1.8110  0.0762
   72SAPC  H11Y 6362   0.470   3.753   5.320 -2.3830 -0.4229  1.7479
   72SAPC  C312 6363   0.542   3.571   5.403 -0.4152 -0.0038  0.0580
   72SAPC  H12X 6364   0.652   3.570   5.388 -0.2406  2.5030  0.6805
   72SAPC  H12Y 6365   0.501   3.468   5.405 -1.8814  0.5107 -1.5253
   72SAPC  C313 6366   0.526   3.639   5.543 -0.0330  0.1020  0.3365
   72SAPC  H13X 6367   0.425   3.619   5.583  0.4996  0.4084  1.9163
   72SAPC  H13Y 6368   0.535   3.749   5.529  1.3020 -0.2542 -2.1055
   72SAPC  C314 6369   0.616   3.578   5.649  0.5565  0.1008  0.1930
   72SAPC  H14X 6370   0.724   3.593   5.627  0.9239 -2.0358  0.3302
   72SAPC  H14Y 6371   0.596   3.469   5.652 -1.5283  0.4548  0.0469
   72SAPC  C315 6372   0.579   3.624   5.793 -0.6777 -0.0607 -0.7427
   72SAPC  H15X 6373   0.636   3.554   5.858  0.2568  0.1501 -1.3218
   72SAPC  H15Y 6374   0.476   3.597   5.824  0.0547 -1.0184  1.0354
   72SAPC  C316 6375   0.630   3.761   5.839 -0.0711  0.1138 -0.1043
   72SAPC  H16X 6376   0.644   3.824   5.749  1.6135  0.1061  0.1369
   72SAPC  H16Y 6377   0.733   3.741   5.875 -0.3834 -0.4650  0.4887
   72SAPC  C317 6378   0.544   3.819   5.950  0.1432 -0.0511  0.4113
   72SAPC  H17X 6379   0.541   3.753   6.039  1.7204 -0.5542  0.1273
   72SAPC  H17Y 6380   0.439   3.832   5.916 -0.4451 -2.1345  1.2794
   72SAPC  C318 6381   0.598   3.955   6.008 -0.0277  0.2590 -0.1347
   72SAPC  H18X 6382   0.608   4.034   5.930 -0.9648 -0.2523 -0.7897
   72SAPC  H18Y 6383   0.689   3.937   6.070 -1.8099 -2.2637  1.9385
   72SAPC  H18Z 6384   0.525   3.990   6.084 -0.3524  0.1296 -0.3884
   73SLPC     N 6385   4.975   0.508   8.447  0.1598  0.2716 -0.0482
   73SLPC   C13 6386   4.913   0.376   8.458  0.3926 -0.1775  0.1223
   73SLPC  H13A 6387   4.871   0.350   8.362 -0.6490 -0.7418  0.7101
   73SLPC  H13B 6388   4.976   0.294   8.492  0.0435  0.7540  3.4309
   73SLPC  H13C 6389   4.835   0.378   8.533  1.3501  0.5145  1.1331
   73SLPC   C14 6390   5.083   0.503   8.345 -0.0321  0.6993  0.0814
   73SLPC  H14A 6391   5.127   0.598   8.318  1.0087 -0.0639 -1.0254
   73SLPC  H14B 6392   5.166   0.444   8.382  0.5757  0.4434 -1.6011
   73SLPC  H14C 6393   5.048   0.461   8.252  2.0088  0.3464 -0.5861
   73SLPC   C15 6394   5.028   0.548   8.576 -0.6670 -0.3528  0.6483
   73SLPC  H15A 6395   4.951   0.574   8.647 -0.1037 -0.0141  1.1431
   73SLPC  H15B 6396   5.102   0.482   8.621  2.1999  0.9796 -1.7618
   73SLPC  H15C 6397   5.090   0.634   8.558 -2.9137  1.0798 -0.7738
   73SLPC   C12 6398   4.868   0.608   8.395 -0.1165  0.1330 -0.1147
   73SLPC  H12A 6399   4.915   0.702   8.370  0.8870 -0.6843 -1.4393
   73SLPC  H12B 6400   4.803   0.636   8.476  0.2474  2.2498 -0.4829
   73SLPC   C11 6401   4.782   0.568   8.268  0.3288  0.4699  0.3585
   73SLPC  H11A 6402   4.849   0.506   8.204  1.8208  2.2609  0.1174
   73SLPC  H11B 6403   4.759   0.658   8.209  0.1678  0.8307  0.9613
   73SLPC     P 6404   4.519   0.553   8.287 -0.0677 -0.3236  0.2244
   73SLPC   O13 6405   4.421   0.439   8.307  0.4891 -0.3974  0.2945
   73SLPC   O14 6406   4.500   0.671   8.374 -0.2405 -0.0301  0.7270
   73SLPC   O12 6407   4.665   0.488   8.300 -0.0004  0.6204 -0.1463
   73SLPC   O11 6408   4.518   0.593   8.132 -0.8663  0.5242 -0.4412
   73SLPC    C1 6409   4.444   0.708   8.094  0.1983 -0.3123  0.2586
   73SLPC    HA 6410   4.446   0.793   8.165  0.6106  1.4386 -1.7302
   73SLPC    HB 6411   4.493   0.754   8.005  0.1342  1.2802  1.0132
   73SLPC    C2 6412   4.308   0.668   8.057  1.1017 -0.3206 -0.0241
   73SLPC    HS 6413   4.258   0.641   8.153  0.5844  1.2352  0.1848
   73SLPC   O21 6414   4.297   0.565   7.964 -0.1364  0.5212  0.4167
   73SLPC   C21 6415   4.173   0.508   7.958  0.1745  0.0119 -0.4195
   73SLPC   O22 6416   4.083   0.533   8.038 -0.7259 -0.4655 -1.0934
   73SLPC   C22 6417   4.171   0.392   7.852  0.4762  0.1368 -0.1612
   73SLPC   H2R 6418   4.130   0.441   7.761  0.5410 -1.0944 -0.8766
   73SLPC   H2S 6419   4.272   0.358   7.822  0.1849 -0.8961 -0.0150
   73SLPC    C3 6420   4.229   0.796   8.010 -0.0085  0.7235  0.3856
   73SLPC    HX 6421   4.242   0.867   8.094 -0.9212  0.7748  0.4949
   73SLPC    HY 6422   4.120   0.781   7.992 -0.0839 -1.0129  1.9439
   73SLPC   O31 6423   4.286   0.862   7.892 -0.1618  0.3421  0.2628
   73SLPC   C31 6424   4.236   0.814   7.784 -1.1391  0.1185  0.5380
   73SLPC   O32 6425   4.142   0.734   7.768 -0.1302 -0.2325  0.0950
   73SLPC   C32 6426   4.320   0.882   7.670  0.1965 -0.6537  0.7322
   73SLPC   H2X 6427   4.427   0.883   7.702  0.9000  2.1725 -1.2819
   73SLPC   H2Y 6428   4.289   0.988   7.663  3.0702  0.1697 -1.8468
   73SLPC   C23 6429   4.084   0.266   7.898 -1.0032 -0.4020 -0.2709
   73SLPC   H3R 6430   3.991   0.314   7.935 -1.1761 -0.9535  0.0167
   73SLPC   H3S 6431   4.135   0.217   7.984  0.5177  1.5962  0.0565
   73SLPC   C24 6432   4.049   0.175   7.774  0.1915 -0.8401 -0.6168
   73SLPC   H4R 6433   3.983   0.240   7.713  1.1933  0.4844 -0.3425
   73SLPC   H4S 6434   4.002   0.087   7.823  0.2403 -0.1513  0.7028
   73SLPC   C25 6435   4.169   0.131   7.692 -0.0625  0.4610  0.1888
   73SLPC   H5R 6436   4.244   0.097   7.766 -0.9179  1.9947  1.8687
   73SLPC   H5S 6437   4.212   0.220   7.641 -1.5141  1.2418  0.2722
   73SLPC   C26 6438   4.139   0.005   7.605  0.4630 -0.3221 -0.4849
   73SLPC   H6R 6439   4.107  -0.080   7.669  0.4346 -0.0457 -0.1290
   73SLPC   H6S 6440   4.230  -0.033   7.554 -1.3215 -4.5130 -0.9842
   73SLPC   C27 6441   4.025   0.038   7.505  0.3766 -0.6523  0.2822
   73SLPC   H7R 6442   4.048   0.129   7.446  1.7629  0.8658  2.9883
   73SLPC   H7S 6443   3.934   0.063   7.564  1.2635  1.7112  0.7634
   73SLPC   C28 6444   3.998  -0.072   7.402 -0.4430 -0.1433  0.5487
   73SLPC   H8R 6445   3.910  -0.039   7.343  0.4569 -0.5529 -1.0842
   73SLPC   H8S 6446   3.982  -0.170   7.454  0.8935 -0.1210  1.0505
   73SLPC   C29 6447   4.116  -0.094   7.301  0.3013  0.6831  0.1421
   73SLPC   H9R 6448   4.205  -0.031   7.313  1.6122 -1.0761  0.0864
   73SLPC  C210 6449   4.120  -0.198   7.211  0.5258 -0.1441  0.3813
   73SLPC  H10R 6450   4.197  -0.189   7.133  0.5456 -0.3968  0.3716
   73SLPC  C211 6451   4.004  -0.293   7.181 -0.1633  0.4067 -0.0530
   73SLPC  H11R 6452   3.906  -0.246   7.205  0.5652  1.6500  0.5571
   73SLPC  H11S 6453   4.021  -0.378   7.251 -0.3217 -1.2296 -1.9161
   73SLPC  C212 6454   4.014  -0.364   7.055  0.2433 -0.2564  0.4715
   73SLPC  H12R 6455   4.096  -0.437   7.043 -2.4203 -3.3487 -0.2808
   73SLPC  C213 6456   3.911  -0.370   6.965 -0.0366 -0.1142 -0.1025
   73SLPC  H13R 6457   3.942  -0.416   6.870  2.5189  2.5796 -0.7212
   73SLPC  C214 6458   3.771  -0.313   6.970 -0.5290 -0.1503 -0.1645
   73SLPC  H14R 6459   3.775  -0.208   6.935  0.2597 -1.3537 -4.1687
   73SLPC  H14S 6460   3.739  -0.300   7.076 -1.2267  2.6482 -0.6438
   73SLPC  C215 6461   3.676  -0.395   6.888  0.9213  0.2829 -0.2443
   73SLPC  H15R 6462   3.574  -0.368   6.923  1.7852  1.3051  1.6557
   73SLPC  H15S 6463   3.686  -0.500   6.923  3.9608  0.6861  0.3357
   73SLPC  C216 6464   3.686  -0.386   6.734 -0.4669 -0.1475 -0.0343
   73SLPC  H16R 6465   3.792  -0.406   6.705 -0.9912 -3.0932 -0.2707
   73SLPC  H16S 6466   3.659  -0.286   6.696  0.1408 -0.3755 -1.1093
   73SLPC  C217 6467   3.592  -0.488   6.662 -0.0703 -0.5691 -0.0586
   73SLPC  H17R 6468   3.486  -0.477   6.691  0.7136  1.0589  2.6193
   73SLPC  H17S 6469   3.625  -0.590   6.689 -0.6411 -1.3642 -2.2110
   73SLPC  C218 6470   3.583  -0.482   6.509 -0.7615 -0.2649 -0.4880
   73SLPC  H18R 6471   3.536  -0.389   6.472  1.2123  0.7155 -0.6754
   73SLPC  H18S 6472   3.532  -0.572   6.469  1.2583 -1.0610 -1.4413
   73SLPC  H18T 6473   3.684  -0.497   6.464  1.1452 -1.2652  3.6182
   73SLPC   C33 6474   4.304   0.806   7.543 -0.1413 -0.2724 -0.0935
   73SLPC   H3X 6475   4.203   0.825   7.499 -0.5027 -2.6099 -0.4010
   73SLPC   H3Y 6476   4.299   0.696   7.557 -0.7156 -0.1828  0.4432
   73SLPC   C34 6477   4.410   0.838   7.438  0.5253 -0.7695  0.3765
   73SLPC   H4X 6478   4.489   0.759   7.438  1.7886  0.4609  0.9581
   73SLPC   H4Y 6479   4.468   0.932   7.447  0.9699 -1.0458  0.4835
   73SLPC   C35 6480   4.349   0.853   7.293 -0.2467  0.6034  0.0857
   73SLPC   H5X 6481   4.429   0.874   7.219 -0.7883  0.3205 -0.5981
   73SLPC   H5Y 6482   4.278   0.938   7.287 -0.9237 -0.0339 -3.2195
   73SLPC   C36 6483   4.274   0.728   7.237  0.1039 -0.2127  0.7546
   73SLPC   H6X 6484   4.184   0.711   7.300  0.8563 -1.1120  1.6216
   73SLPC   H6Y 6485   4.336   0.638   7.259  0.4047  0.5936  3.5471
   73SLPC   C37 6486   4.228   0.733   7.088 -0.1183  0.3709  0.1626
   73SLPC   H7X 6487   4.309   0.790   7.037  0.1755  0.5220  0.7809
   73SLPC   H7Y 6488   4.136   0.794   7.074 -0.4080 -0.3992 -1.5094
   73SLPC   C38 6489   4.185   0.602   7.016 -0.3259  0.1266 -0.5476
   73SLPC   H8X 6490   4.112   0.542   7.074  0.5226 -1.3344 -0.9323
   73SLPC   H8Y 6491   4.271   0.532   7.022 -0.8989 -0.5479 -0.0038
   73SLPC   C39 6492   4.132   0.645   6.874  0.2101  0.5855 -0.4199
   73SLPC   H9X 6493   4.222   0.679   6.819  0.7709 -0.2820 -0.0518
   73SLPC   H9Y 6494   4.073   0.738   6.892 -0.1537 -0.0188  1.7020
   73SLPC  C310 6495   4.048   0.538   6.803  0.2903  0.0888  0.4904
   73SLPC  H10X 6496   3.942   0.555   6.832 -0.1909 -3.4175  1.2465
   73SLPC  H10Y 6497   4.095   0.441   6.833  1.3237 -0.2755 -2.0609
   73SLPC  C311 6498   4.065   0.556   6.650 -0.1492 -0.4290 -0.4593
   73SLPC  H11X 6499   4.172   0.549   6.620 -0.4125 -2.2109 -1.1084
   73SLPC  H11Y 6500   4.038   0.658   6.616 -1.9469 -0.0665  1.8175
   73SLPC  C312 6501   3.998   0.453   6.577  0.6705  0.1725  0.1906
   73SLPC  H12X 6502   3.889   0.466   6.599  0.8099 -1.3651  2.0530
   73SLPC  H12Y 6503   4.025   0.355   6.619  1.9145 -0.5652 -2.1855
   73SLPC  C313 6504   4.009   0.464   6.424  0.9429 -0.2879 -0.8057
   73SLPC  H13X 6505   3.922   0.411   6.380  0.6752  1.9934 -3.2907
   73SLPC  H13Y 6506   4.108   0.420   6.401  1.2342  0.8537 -1.8814
   73SLPC  C314 6507   3.992   0.604   6.365 -0.1496  0.0792 -0.0798
   73SLPC  H14X 6508   4.085   0.659   6.390  1.9209 -2.6112 -1.2821
   73SLPC  H14Y 6509   3.901   0.659   6.396  1.4149  2.0840  1.1810
   73SLPC  C315 6510   3.971   0.603   6.206 -0.3500 -0.2275  0.3249
   73SLPC  H15X 6511   3.872   0.553   6.194 -1.1416  1.5156 -0.7196
   73SLPC  H15Y 6512   4.054   0.551   6.153  0.2419  2.7426 -1.8677
   73SLPC  C316 6513   3.949   0.746   6.159  0.1649  0.1191 -0.5828
   73SLPC  H16X 6514   4.045   0.800   6.167  0.3770 -0.5427  3.0903
   73SLPC  H16Y 6515   3.869   0.800   6.213  0.4161  0.2592 -0.3494
   73SLPC  C317 6516   3.906   0.740   6.013  0.4366 -1.2679 -0.1140
   73SLPC  H17X 6517   3.822   0.671   5.993 -0.8099  0.5919 -1.6323
   73SLPC  H17Y 6518   3.990   0.713   5.946 -0.9418 -0.6925 -2.1419
   73SLPC  C318 6519   3.868   0.886   5.968  0.2956  0.4866 -0.3498
   73SLPC  H18X 6520   3.784   0.916   6.034  1.8147  1.4117  1.2442
   73SLPC  H18Y 6521   3.824   0.880   5.866  1.8388  2.0989 -1.1697
   73SLPC  H18Z 6522   3.947   0.963   5.977  0.2389  0.5337 -0.2488
   74SLPC     N 6523   1.350   6.071   0.013  0.1698 -0.3228  0.2979
   74SLPC   C13 6524   1.264   5.950   0.015 -0.4710  0.0755  0.2487
   74SLPC  H13A 6525   1.324   5.869   0.055  2.6760  1.1203 -2.0010
   74SLPC  H13B 6526   1.172   5.963   0.070 -0.7249  2.2253 -0.5834
   74SLPC  H13C 6527   1.244   5.917  -0.086  1.4987 -2.4357  0.5879
   74SLPC   C14 6528   1.419   6.075   0.143 -0.1060 -0.0108  0.4380
   74SLPC  H14A 6529   1.481   5.988   0.164  0.4779 -0.0111 -1.1404
   74SLPC  H14B 6530   1.476   6.166   0.149 -2.2355  1.5724 -1.5538
   74SLPC  H14C 6531   1.350   6.084   0.225  1.2386 -0.1773  1.6166
   74SLPC   C15 6532   1.263   6.197  -0.007 -0.0345 -0.1974 -0.2226
   74SLPC  H15A 6533   1.209   6.177  -0.099 -0.8286 -1.5588  0.4940
   74SLPC  H15B 6534   1.193   6.214   0.074  0.9883  2.2887  0.2228
   74SLPC  H15C 6535   1.313   6.292  -0.020  0.2913 -0.6522 -2.6576
   74SLPC   C12 6536   1.448   6.065  -0.103 -0.6158  0.7700 -0.1736
   74SLPC  H12A 6537   1.484   5.964  -0.119 -0.8387  0.6517  0.0610
   74SLPC  H12B 6538   1.535   6.126  -0.086  1.2104 -2.0347  1.4748
   74SLPC   C11 6539   1.386   6.092  -0.245  0.4863 -0.3159 -0.0282
   74SLPC  H11A 6540   1.477   6.081  -0.307  0.9641  0.0842  0.5839
   74SLPC  H11B 6541   1.339   6.190  -0.265 -0.1438 -0.5506  0.2688
   74SLPC     P 6542   1.343   5.846  -0.338 -0.0086  0.1269 -0.1606
   74SLPC   O13 6543   1.436   5.780  -0.241 -0.2697 -0.2735  0.7106
   74SLPC   O14 6544   1.225   5.765  -0.380  0.0863 -0.1806  0.0327
   74SLPC   O12 6545   1.298   5.986  -0.280  0.4860 -0.9765  0.3596
   74SLPC   O11 6546   1.427   5.878  -0.462 -0.3612 -0.2611  0.0443
   74SLPC    C1 6547   1.377   5.947  -0.576 -0.0925 -0.1001  0.6850
   74SLPC    HA 6548   1.279   5.995  -0.556 -0.3474  0.5665 -1.8111
   74SLPC    HB 6549   1.444   6.033  -0.601 -2.4819  1.5477 -0.4574
   74SLPC    C2 6550   1.373   5.857  -0.703 -0.1881  0.0374 -0.0189
   74SLPC    HS 6551   1.293   5.785  -0.673  1.7149 -2.8712 -1.4607
   74SLPC   O21 6552   1.500   5.793  -0.709  0.3098 -0.2063 -0.0510
   74SLPC   C21 6553   1.491   5.671  -0.769 -0.5728  0.3356  0.2237
   74SLPC   O22 6554   1.387   5.620  -0.807 -0.4995  0.1144 -0.5101
   74SLPC   C22 6555   1.619   5.611  -0.815 -0.5475 -0.5504 -0.5848
   74SLPC   H2R 6556   1.700   5.632  -0.741 -1.5988  2.3571 -0.1239
   74SLPC   H2S 6557   1.604   5.501  -0.825 -0.7769 -0.4816 -0.9976
   74SLPC    C3 6558   1.343   5.945  -0.830 -0.3331  0.5172  0.8008
   74SLPC    HX 6559   1.424   6.020  -0.844  0.8140 -0.7162  0.5474
   74SLPC    HY 6560   1.244   5.992  -0.812 -1.6735 -2.3471  1.5873
   74SLPC   O31 6561   1.345   5.860  -0.950  0.0125 -0.5678 -0.4513
   74SLPC   C31 6562   1.225   5.829  -1.001 -0.7820  0.3388 -0.1118
   74SLPC   O32 6563   1.121   5.893  -0.984 -0.0910  0.7154  0.3503
   74SLPC   C32 6564   1.243   5.708  -1.084  0.3940 -0.2406  0.5100
   74SLPC   H2X 6565   1.163   5.635  -1.056  0.0896 -0.4581 -0.8345
   74SLPC   H2Y 6566   1.344   5.665  -1.069  2.0277  2.5746 -1.4959
   74SLPC   C23 6567   1.661   5.675  -0.944 -0.2128 -0.2652 -0.3243
   74SLPC   H3R 6568   1.577   5.693  -1.014  1.9642  1.8736 -2.5981
   74SLPC   H3S 6569   1.734   5.612  -1.000  0.6521  0.2372  0.2190
   74SLPC   C24 6570   1.722   5.815  -0.924  0.2613 -0.0219  0.2185
   74SLPC   H4R 6571   1.798   5.810  -0.843 -1.5496 -0.5368  1.9612
   74SLPC   H4S 6572   1.646   5.892  -0.899 -1.7879 -1.8942  0.0927
   74SLPC   C25 6573   1.805   5.860  -1.047 -0.3063 -0.4030 -0.1856
   74SLPC   H5R 6574   1.888   5.786  -1.059  0.2583  0.2914 -0.6206
   74SLPC   H5S 6575   1.858   5.955  -1.025 -0.4418 -0.2002 -0.7219
   74SLPC   C26 6576   1.730   5.866  -1.181  0.1626  0.4337 -0.3446
   74SLPC   H6R 6577   1.643   5.934  -1.176 -1.5132 -1.5696 -0.6891
   74SLPC   H6S 6578   1.692   5.764  -1.201  0.0658  0.9660 -3.3581
   74SLPC   C27 6579   1.821   5.892  -1.299  0.3897  0.4066 -0.5829
   74SLPC   H7R 6580   1.912   5.828  -1.303  3.1692  3.8680  1.5410
   74SLPC   H7S 6581   1.858   5.995  -1.279 -0.4973  0.2134  2.5287
   74SLPC   C28 6582   1.751   5.908  -1.436  0.2956 -0.1253 -0.3878
   74SLPC   H8R 6583   1.825   5.950  -1.507  0.7194 -1.8618 -1.0336
   74SLPC   H8S 6584   1.667   5.979  -1.420 -0.3240 -0.5626 -1.5538
   74SLPC   C29 6585   1.698   5.773  -1.481  0.6028 -1.0739  0.0530
   74SLPC   H9R 6586   1.682   5.705  -1.396 -2.8352 -1.7825 -1.0062
   74SLPC  C210 6587   1.692   5.729  -1.605 -0.0722  0.5241  0.3129
   74SLPC  H10R 6588   1.659   5.626  -1.623  0.8502  0.2367  0.2001
   74SLPC  C211 6589   1.717   5.819  -1.728 -0.1387 -0.9401 -0.4832
   74SLPC  H11R 6590   1.802   5.777  -1.785 -0.8642 -2.5749 -0.4253
   74SLPC  H11S 6591   1.739   5.926  -1.709 -1.5572 -0.8013  0.5618
   74SLPC  C212 6592   1.593   5.822  -1.814  0.2455  0.6386 -0.1763
   74SLPC  H12R 6593   1.507   5.875  -1.770  0.0215  1.5741 -1.6981
   74SLPC  C213 6594   1.578   5.748  -1.923 -0.1585  0.1762  0.3630
   74SLPC  H13R 6595   1.482   5.757  -1.975  0.1734  0.5151 -0.2044
   74SLPC  C214 6596   1.673   5.656  -1.999  0.4837  0.4763 -0.5235
   74SLPC  H14R 6597   1.643   5.549  -1.986  2.8089 -0.4396 -2.1005
   74SLPC  H14S 6598   1.771   5.653  -1.948 -0.0629  1.5414  0.6361
   74SLPC  C215 6599   1.699   5.697  -2.138  0.0542 -0.1293 -0.3819
   74SLPC  H15R 6600   1.792   5.646  -2.171  1.7317  2.0793  0.6726
   74SLPC  H15S 6601   1.718   5.806  -2.142 -1.4130  0.1276 -1.0292
   74SLPC  C216 6602   1.579   5.661  -2.232 -0.0943 -1.0477  0.0349
   74SLPC  H16R 6603   1.482   5.709  -2.210 -0.2983 -1.3233 -0.2497
   74SLPC  H16S 6604   1.565   5.551  -2.228 -0.8020 -0.9556  0.1890
   74SLPC  C217 6605   1.608   5.706  -2.377 -0.2862 -0.1964 -0.3695
   74SLPC  H17R 6606   1.708   5.665  -2.400 -1.0082 -2.2639  0.0074
   74SLPC  H17S 6607   1.612   5.817  -2.373  0.2791 -0.1807 -1.2447
   74SLPC  C218 6608   1.500   5.668  -2.478 -0.3265  0.2863  0.3010
   74SLPC  H18R 6609   1.533   5.640  -2.580 -1.2487  0.6608 -0.1128
   74SLPC  H18S 6610   1.423   5.747  -2.490  0.8337  1.5930  1.1477
   74SLPC  H18T 6611   1.460   5.571  -2.439  1.3351  0.1837  1.8983
   74SLPC   C33 6612   1.217   5.728  -1.234  0.9221 -0.2561  0.4761
   74SLPC   H3X 6613   1.109   5.745  -1.253  0.5585  0.7706  3.1362
   74SLPC   H3Y 6614   1.230   5.624  -1.272 -0.8127 -0.7880  1.2512
   74SLPC   C34 6615   1.305   5.827  -1.304 -0.2946  0.3520  0.4254
   74SLPC   H4X 6616   1.410   5.798  -1.282  0.0285  2.0119  1.2339
   74SLPC   H4Y 6617   1.300   5.930  -1.262  1.5314  1.2945 -1.4591
   74SLPC   C35 6618   1.263   5.850  -1.452 -0.4770  0.2098 -0.4475
   74SLPC   H5X 6619   1.318   5.935  -1.497 -0.7958  1.6719  1.7540
   74SLPC   H5Y 6620   1.158   5.883  -1.463 -0.5142 -0.0708 -0.9472
   74SLPC   C36 6621   1.292   5.726  -1.539  0.0103 -0.3255  0.3678
   74SLPC   H6X 6622   1.254   5.632  -1.494  0.7366 -0.4259  0.7798
   74SLPC   H6Y 6623   1.398   5.696  -1.547 -0.3120 -1.1182 -1.3974
   74SLPC   C37 6624   1.235   5.744  -1.677 -0.0855  0.4420 -0.1775
   74SLPC   H7X 6625   1.254   5.846  -1.718  1.8179 -0.3245 -1.3370
   74SLPC   H7Y 6626   1.125   5.739  -1.666 -0.0441  0.7430  0.3968
   74SLPC   C38 6627   1.283   5.638  -1.779  0.9704 -0.6365  0.4052
   74SLPC   H8X 6628   1.265   5.532  -1.751  0.0580 -0.4315  0.6392
   74SLPC   H8Y 6629   1.392   5.633  -1.800  1.1226  1.7043  0.3695
   74SLPC   C39 6630   1.226   5.657  -1.922  0.7786 -0.3646  0.0863
   74SLPC   H9X 6631   1.277   5.746  -1.965 -1.9698  1.1845 -0.1532
   74SLPC   H9Y 6632   1.119   5.686  -1.920  0.5044 -1.3374  2.5614
   74SLPC  C310 6633   1.249   5.537  -2.012 -0.4399  0.4840  0.2974
   74SLPC  H10X 6634   1.232   5.445  -1.951 -0.3485 -0.7023 -1.3874
   74SLPC  H10Y 6635   1.354   5.532  -2.049 -0.7201 -0.5645 -0.4161
   74SLPC  C311 6636   1.147   5.532  -2.121 -0.4102 -0.0303  0.1717
   74SLPC  H11X 6637   1.161   5.624  -2.183 -0.8161 -0.4947 -0.6261
   74SLPC  H11Y 6638   1.053   5.537  -2.063 -1.0027 -0.3410 -0.7344
   74SLPC  C312 6639   1.139   5.401  -2.204  0.1333 -0.3678  0.1426
   74SLPC  H12X 6640   1.035   5.373  -2.232  1.1897 -2.7357 -1.7167
   74SLPC  H12Y 6641   1.183   5.317  -2.147  0.5754  0.3259  0.8332
   74SLPC  C313 6642   1.215   5.419  -2.333  0.5413  0.3457  0.3706
   74SLPC  H13X 6643   1.322   5.424  -2.304  0.6780 -0.0080 -0.0626
   74SLPC  H13Y 6644   1.193   5.511  -2.390 -1.7566 -0.6767 -0.5450
   74SLPC  C314 6645   1.218   5.305  -2.427  0.2789 -0.3496 -0.4280
   74SLPC  H14X 6646   1.115   5.296  -2.467 -0.1715 -1.0377  0.8365
   74SLPC  H14Y 6647   1.230   5.205  -2.381 -2.0621 -0.4332  0.1282
   74SLPC  C315 6648   1.314   5.320  -2.549 -0.2915 -0.0349 -0.8672
   74SLPC  H15X 6649   1.420   5.312  -2.519 -0.6243  3.0639  1.6440
   74SLPC  H15Y 6650   1.304   5.427  -2.576  1.0875  0.3970  0.2533
   74SLPC  C316 6651   1.279   5.234  -2.670  0.3334 -0.1731  0.2733
   74SLPC  H16X 6652   1.174   5.250  -2.703  1.0178  1.8127 -1.1097
   74SLPC  H16Y 6653   1.311   5.128  -2.667  0.1843 -0.5030 -4.1916
   74SLPC  C317 6654   1.364   5.285  -2.794 -0.3526 -0.4385 -0.2008
   74SLPC  H17X 6655   1.472   5.278  -2.770 -0.3655 -1.4058 -0.3706
   74SLPC  H17Y 6656   1.343   5.393  -2.813 -0.3200 -0.2632  0.7389
   74SLPC  C318 6657   1.350   5.202  -2.917  0.0684  0.7807 -1.3921
   74SLPC  H18X 6658   1.390   5.246  -3.011  2.5795  0.0983 -0.7010
   74SLPC  H18Y 6659   1.242   5.183  -2.935 -0.2948  2.5741 -1.3004
   74SLPC  H18Z 6660   1.399   5.103  -2.907  0.6665  1.0961 -1.1741
   75SLPC     N 6661   5.293   4.691   8.404  0.3012  0.2532 -0.2530
   75SLPC   C13 6662   5.219   4.585   8.325 -0.0422  0.2159  0.0086
   75SLPC  H13A 6663   5.231   4.610   8.220  0.1000 -0.8028 -0.2282
   75SLPC  H13B 6664   5.257   4.484   8.323 -1.6795 -0.4837 -3.3457
   75SLPC  H13C 6665   5.115   4.592   8.352 -0.3611  0.7264 -1.2384
   75SLPC   C14 6666   5.421   4.730   8.330  0.0815  0.0765  0.0880
   75SLPC  H14A 6667   5.479   4.789   8.400 -0.5429  0.9696 -0.1278
   75SLPC  H14B 6668   5.483   4.647   8.301 -2.6351 -3.3649  3.0982
   75SLPC  H14C 6669   5.394   4.791   8.246 -0.3559 -0.0838  0.1090
   75SLPC   C15 6670   5.336   4.615   8.531 -0.3878 -1.0611  0.4826
   75SLPC  H15A 6671   5.383   4.520   8.509 -1.0143 -1.0571 -1.0160
   75SLPC  H15B 6672   5.392   4.675   8.601  1.3521 -2.4427  0.3322
   75SLPC  H15C 6673   5.248   4.585   8.586  0.6479 -2.2355  1.5666
   75SLPC   C12 6674   5.209   4.813   8.432 -0.5707  0.1279 -0.5061
   75SLPC  H12A 6675   5.202   4.874   8.344 -0.8298  3.8364  1.8540
   75SLPC  H12B 6676   5.268   4.875   8.498 -1.0805 -1.1281  1.2048
   75SLPC   C11 6677   5.073   4.800   8.513 -0.4567 -0.3410  0.9686
   75SLPC  H11A 6678   5.048   4.908   8.527  1.2741  0.1814  0.3365
   75SLPC  H11B 6679   5.083   4.753   8.612  0.9310 -1.3814  0.3676
   75SLPC     P 6680   4.903   4.793   8.312  0.8605 -0.0391 -0.1320
   75SLPC   O13 6681   4.815   4.903   8.358  0.4416 -0.6844 -0.1140
   75SLPC   O14 6682   5.003   4.824   8.209  0.3817 -0.1285  0.6979
   75SLPC   O12 6683   4.975   4.730   8.432 -0.6154  0.0731 -0.7202
   75SLPC   O11 6684   4.816   4.673   8.276  0.0980 -0.1789  0.1116
   75SLPC    C1 6685   4.675   4.680   8.256 -0.3700 -0.7055  0.1512
   75SLPC    HA 6686   4.622   4.583   8.274  0.7286 -1.6331 -1.2999
   75SLPC    HB 6687   4.627   4.759   8.317  0.5783 -1.0109  1.3212
   75SLPC    C2 6688   4.636   4.710   8.108 -0.5725  0.7278  0.0515
   75SLPC    HS 6689   4.635   4.615   8.051 -2.0807  0.3995  0.5878
   75SLPC   O21 6690   4.718   4.807   8.038 -0.1287  0.4715 -0.3399
   75SLPC   C21 6691   4.819   4.757   7.968 -1.0261 -0.0196  0.2937
   75SLPC   O22 6692   4.853   4.637   7.961  0.0759  0.7353 -0.1423
   75SLPC   C22 6693   4.888   4.868   7.899  0.5533 -0.1829  0.0601
   75SLPC   H2R 6694   4.813   4.948   7.880 -1.1198 -2.0013 -1.3982
   75SLPC   H2S 6695   4.973   4.901   7.963  0.4326 -0.6455  0.4631
   75SLPC    C3 6696   4.488   4.766   8.100  0.3263  0.1959 -0.5404
   75SLPC    HX 6697   4.480   4.838   8.184 -2.5118 -1.4971  0.7897
   75SLPC    HY 6698   4.408   4.694   8.126  0.0954  0.6355 -0.0227
   75SLPC   O31 6699   4.462   4.844   7.972 -0.2473 -0.4443 -0.5741
   75SLPC   C31 6700   4.429   4.774   7.870 -0.1009  0.5744 -0.0569
   75SLPC   O32 6701   4.419   4.650   7.870 -0.7624 -0.1958  0.0447
   75SLPC   C32 6702   4.419   4.859   7.743 -0.4086 -1.0853 -1.0334
   75SLPC   H2X 6703   4.500   4.935   7.740 -1.2843 -0.1221 -0.9451
   75SLPC   H2Y 6704   4.316   4.895   7.724 -1.4618 -2.9866  0.6869
   75SLPC   C23 6705   4.928   4.828   7.758  0.0998  0.0665  0.3844
   75SLPC   H3R 6706   4.846   4.782   7.700 -0.4279  2.0357 -0.4775
   75SLPC   H3S 6707   5.018   4.764   7.774 -0.8429 -2.3468 -2.8683
   75SLPC   C24 6708   4.980   4.948   7.685 -0.4094 -0.0954  0.0757
   75SLPC   H4R 6709   5.012   4.907   7.586  0.0153  1.1316 -0.3117
   75SLPC   H4S 6710   5.072   4.989   7.733 -0.0829  0.2034 -0.7804
   75SLPC   C25 6711   4.876   5.055   7.651 -0.2635 -0.5454  0.2244
   75SLPC   H5R 6712   4.859   5.119   7.740 -1.6056 -0.2537 -0.2284
   75SLPC   H5S 6713   4.780   5.005   7.628 -0.5069  0.0306 -0.0282
   75SLPC   C26 6714   4.917   5.141   7.531 -0.8040  0.1783  0.5979
   75SLPC   H6R 6715   4.828   5.166   7.469  0.0545  2.3264  0.1557
   75SLPC   H6S 6716   4.979   5.083   7.458 -1.6954  0.0467 -0.0788
   75SLPC   C27 6717   4.969   5.275   7.566  0.8972  0.1245 -0.2345
   75SLPC   H7R 6718   5.077   5.261   7.586  0.9463  2.1785  1.3886
   75SLPC   H7S 6719   4.922   5.308   7.661 -1.9496  0.7672 -1.7591
   75SLPC   C28 6720   4.937   5.378   7.458 -0.6694  0.2415 -0.3362
   75SLPC   H8R 6721   4.830   5.400   7.479 -0.8610 -1.0744  0.1565
   75SLPC   H8S 6722   4.956   5.319   7.366  1.5875 -0.6184  0.6101
   75SLPC   C29 6723   5.016   5.514   7.477  0.1680  0.2573 -0.2848
   75SLPC   H9R 6724   4.999   5.554   7.578  0.7623 -1.1108  0.3977
   75SLPC  C210 6725   5.096   5.589   7.390 -0.5849  0.8037  0.1229
   75SLPC  H10R 6726   5.127   5.691   7.416  2.6206  0.7628 -2.8169
   75SLPC  C211 6727   5.123   5.551   7.240  0.4635 -0.1557 -0.4705
   75SLPC  H11R 6728   5.067   5.457   7.220 -1.3040  0.3739  1.5599
   75SLPC  H11S 6729   5.226   5.512   7.235  0.7881  0.7073 -0.6319
   75SLPC  C212 6730   5.082   5.654   7.136 -0.3200  0.0280 -0.4774
   75SLPC  H12R 6731   5.163   5.727   7.119 -0.2635  1.0469  3.2800
   75SLPC  C213 6732   4.960   5.658   7.066 -0.2497  0.1882 -0.2861
   75SLPC  H13R 6733   4.933   5.743   7.002 -1.7548 -0.7293 -0.9342
   75SLPC  C214 6734   4.836   5.568   7.094  0.0670 -0.1941  0.1133
   75SLPC  H14R 6735   4.755   5.632   7.133  0.5004  0.3474  0.1342
   75SLPC  H14S 6736   4.846   5.487   7.170 -2.4138  0.0088  0.7531
   75SLPC  C215 6737   4.782   5.515   6.956  0.0946  0.3049  0.1568
   75SLPC  H15R 6738   4.749   5.603   6.896  1.8574  0.2054 -1.0187
   75SLPC  H15S 6739   4.696   5.448   6.977  0.6342 -0.2872  0.5261
   75SLPC  C216 6740   4.876   5.428   6.873  0.0181 -0.2968  0.2235
   75SLPC  H16R 6741   4.899   5.336   6.931  3.8878  0.9465  0.9535
   75SLPC  H16S 6742   4.973   5.483   6.865  1.4981 -2.8368 -0.1972
   75SLPC  C217 6743   4.828   5.385   6.731 -0.7111  0.3443 -0.6221
   75SLPC  H17R 6744   4.792   5.461   6.658 -0.6677  0.1297 -0.8689
   75SLPC  H17S 6745   4.741   5.318   6.749  1.1382 -2.2711 -0.7454
   75SLPC  C218 6746   4.937   5.307   6.649 -0.2748 -0.2822  0.4893
   75SLPC  H18R 6747   5.032   5.366   6.651  1.6455 -3.0982 -0.5254
   75SLPC  H18S 6748   4.892   5.318   6.548 -1.3204 -0.2000  0.9507
   75SLPC  H18T 6749   4.958   5.207   6.693  0.4874 -0.2540  0.2157
   75SLPC   C33 6750   4.454   4.782   7.611  0.6262  1.1121 -0.0081
   75SLPC   H3X 6751   4.434   4.849   7.525  2.8673  2.3725  0.3747
   75SLPC   H3Y 6752   4.386   4.694   7.610  1.7206  0.2369  0.2272
   75SLPC   C34 6753   4.606   4.753   7.600 -0.2549  0.7853  0.3465
   75SLPC   H4X 6754   4.632   4.704   7.696 -0.5116  0.3967  0.2212
   75SLPC   H4Y 6755   4.680   4.834   7.588  0.7459 -0.1088  0.3057
   75SLPC   C35 6756   4.635   4.639   7.497 -0.3543 -0.2084 -0.4476
   75SLPC   H5X 6757   4.588   4.547   7.536  0.3364 -0.7608 -0.8951
   75SLPC   H5Y 6758   4.745   4.623   7.510 -0.2796  1.0334  0.7613
   75SLPC   C36 6759   4.588   4.674   7.359  0.3788  0.6198 -0.6405
   75SLPC   H6X 6760   4.644   4.767   7.339  1.2322  0.7084  1.8499
   75SLPC   H6Y 6761   4.478   4.692   7.354  0.0506 -1.3271 -1.3866
   75SLPC   C37 6762   4.620   4.560   7.264  0.4663 -0.2444  0.3088
   75SLPC   H7X 6763   4.582   4.460   7.293  0.5348 -0.4271 -0.2234
   75SLPC   H7Y 6764   4.730   4.546   7.260  0.3876 -0.6910 -0.7792
   75SLPC   C38 6765   4.572   4.589   7.124  0.4933 -0.6849 -0.7549
   75SLPC   H8X 6766   4.620   4.684   7.091  0.0200  0.5071  1.7732
   75SLPC   H8Y 6767   4.462   4.604   7.133  0.5829 -1.3167  2.6566
   75SLPC   C39 6768   4.601   4.488   7.019 -0.0719  0.0698  0.1204
   75SLPC   H9X 6769   4.585   4.394   7.076  0.3024  0.0630  0.2169
   75SLPC   H9Y 6770   4.710   4.481   6.997 -0.0275 -1.3115  0.6708
   75SLPC  C310 6771   4.513   4.501   6.893  0.5279 -0.4970  0.4602
   75SLPC  H10X 6772   4.520   4.605   6.855  1.5179 -0.2503  1.2526
   75SLPC  H10Y 6773   4.411   4.472   6.926  0.5625 -0.6676  0.4172
   75SLPC  C311 6774   4.563   4.402   6.786  0.3636 -0.2983 -1.0345
   75SLPC  H11X 6775   4.466   4.353   6.759 -0.0997 -0.9728  1.5636
   75SLPC  H11Y 6776   4.626   4.322   6.831  0.5166 -0.5658 -1.7140
   75SLPC  C312 6777   4.635   4.469   6.669  0.5875 -0.8390 -0.2176
   75SLPC  H12X 6778   4.711   4.541   6.708 -0.0743 -0.4775  0.4176
   75SLPC  H12Y 6779   4.555   4.525   6.616  1.5973  0.5114 -0.3725
   75SLPC  C313 6780   4.699   4.375   6.568  0.0249  0.1064  0.0515
   75SLPC  H13X 6781   4.618   4.308   6.533 -1.1358 -0.1529  2.9658
   75SLPC  H13Y 6782   4.772   4.308   6.619 -1.2596  0.1849  2.1236
   75SLPC  C314 6783   4.766   4.441   6.443  0.1807 -0.6608 -0.5604
   75SLPC  H14X 6784   4.860   4.489   6.479 -2.3304  2.7324  2.1340
   75SLPC  H14Y 6785   4.704   4.526   6.406 -0.1909 -0.5048  0.4056
   75SLPC  C315 6786   4.779   4.341   6.325  0.0431 -0.5878  0.2235
   75SLPC  H15X 6787   4.690   4.276   6.318  0.3856 -1.0459  0.0818
   75SLPC  H15Y 6788   4.863   4.272   6.348  0.4987 -0.3276 -0.6001
   75SLPC  C316 6789   4.816   4.401   6.184 -0.3565  0.0166  0.1576
   75SLPC  H16X 6790   4.925   4.419   6.183 -0.3538  0.0845  0.9416
   75SLPC  H16Y 6791   4.761   4.497   6.176  0.0801  0.1185 -2.4196
   75SLPC  C317 6792   4.781   4.303   6.071 -0.2542 -0.8310 -0.2165
   75SLPC  H17X 6793   4.784   4.356   5.974 -2.2985  1.2877  0.7700
   75SLPC  H17Y 6794   4.674   4.281   6.092 -0.3548  1.2782  1.9904
   75SLPC  C318 6795   4.849   4.170   6.061  0.3431 -0.0013 -0.5192
   75SLPC  H18X 6796   4.883   4.144   6.164 -1.7596 -0.1780  0.1826
   75SLPC  H18Y 6797   4.941   4.173   5.999  0.2640  1.3236 -0.6130
   75SLPC  H18Z 6798   4.787   4.100   6.001 -0.6930 -0.0156  0.5242
   76SLPC     N 6799   5.212   3.254   8.569  0.0523  0.4035 -0.2664
   76SLPC   C13 6800   5.347   3.198   8.543  0.4122 -0.0578  0.1601
   76SLPC  H13A 6801   5.393   3.188   8.640 -1.2813 -1.7475  0.8665
   76SLPC  H13B 6802   5.338   3.099   8.502 -1.8370 -0.6875  1.9071
   76SLPC  H13C 6803   5.403   3.260   8.475  2.1489 -1.9153 -0.1785
   76SLPC   C14 6804   5.123   3.163   8.651  0.1138 -0.0760 -0.1364
   76SLPC  H14A 6805   5.113   3.063   8.612 -0.1082 -0.6101  1.2679
   76SLPC  H14B 6806   5.146   3.162   8.756 -0.7566  0.9231  0.0772
   76SLPC  H14C 6807   5.023   3.202   8.645  0.3952  0.6117 -0.5233
   76SLPC   C15 6808   5.145   3.281   8.440 -0.0700 -0.1104 -0.9872
   76SLPC  H15A 6809   5.184   3.367   8.387  0.5602  0.9210  1.0493
   76SLPC  H15B 6810   5.143   3.187   8.386  1.1938 -0.3034 -0.7287
   76SLPC  H15C 6811   5.043   3.312   8.455  0.9497  2.2627  2.0320
   76SLPC   C12 6812   5.221   3.394   8.644  0.1264  0.6551 -0.5057
   76SLPC  H12A 6813   5.123   3.438   8.641 -0.3377 -0.3323 -0.1016
   76SLPC  H12B 6814   5.296   3.457   8.597  1.5871 -0.0856  0.7414
   76SLPC   C11 6815   5.269   3.395   8.789 -0.2760  0.2586  0.5866
   76SLPC  H11A 6816   5.193   3.348   8.855 -1.4341 -0.3104 -1.1105
   76SLPC  H11B 6817   5.268   3.501   8.822  1.4910 -0.3531  2.9106
   76SLPC     P 6818   5.523   3.420   8.779  0.0669  0.0598  0.1775
   76SLPC   O13 6819   5.524   3.521   8.883 -0.4134 -0.0077 -0.3448
   76SLPC   O14 6820   5.643   3.337   8.767  0.1676  0.3655 -0.1321
   76SLPC   O12 6821   5.397   3.333   8.810  0.3047 -0.3643  0.2315
   76SLPC   O11 6822   5.486   3.483   8.639  0.4713  0.6404 -0.6237
   76SLPC    C1 6823   5.563   3.593   8.589 -0.0792 -0.5070  0.2873
   76SLPC    HA 6824   5.566   3.675   8.664  0.0738 -0.8961  0.7091
   76SLPC    HB 6825   5.666   3.556   8.572  0.0987 -0.1293  0.5289
   76SLPC    C2 6826   5.520   3.664   8.463  0.3699  0.9547  0.5996
   76SLPC    HS 6827   5.421   3.714   8.471  0.2363  1.2098 -1.8418
   76SLPC   O21 6828   5.533   3.563   8.352 -0.0498  0.1596  0.1262
   76SLPC   C21 6829   5.419   3.516   8.313  0.6357  0.0185  0.2472
   76SLPC   O22 6830   5.307   3.553   8.355 -0.0262 -0.4291  0.2641
   76SLPC   C22 6831   5.446   3.411   8.201 -0.8799  0.4713  0.0453
   76SLPC   H2R 6832   5.521   3.457   8.133 -0.3658 -0.1299  0.1970
   76SLPC   H2S 6833   5.496   3.328   8.255 -1.0621 -0.4193 -1.1085
   76SLPC    C3 6834   5.617   3.777   8.427  0.3243 -0.7047  1.3257
   76SLPC    HX 6835   5.716   3.729   8.418 -0.2083 -1.5934 -0.1402
   76SLPC    HY 6836   5.617   3.845   8.515 -1.9476  1.1574  0.0196
   76SLPC   O31 6837   5.573   3.839   8.301 -0.0322  0.0692  0.1337
   76SLPC   C31 6838   5.656   3.931   8.252 -0.3690 -0.7725 -0.1052
   76SLPC   O32 6839   5.766   3.958   8.304  0.6348 -0.3728 -0.2305
   76SLPC   C32 6840   5.595   3.994   8.125  0.2761 -0.1852  0.4418
   76SLPC   H2X 6841   5.513   4.060   8.163  1.8721  1.2366  1.5910
   76SLPC   H2Y 6842   5.542   3.910   8.074  2.1914 -0.9628 -0.3439
   76SLPC   C23 6843   5.340   3.361   8.104  0.7040 -0.0708 -0.1454
   76SLPC   H3R 6844   5.268   3.295   8.158  3.0798 -0.7917  2.3610
   76SLPC   H3S 6845   5.396   3.301   8.030  2.3997  1.3275 -0.0467
   76SLPC   C24 6846   5.265   3.478   8.028 -0.5790  0.5311  0.0584
   76SLPC   H4R 6847   5.335   3.554   7.987  0.8546 -0.1656  1.1351
   76SLPC   H4S 6848   5.193   3.532   8.093 -1.1033  0.9739 -0.8605
   76SLPC   C25 6849   5.180   3.417   7.916 -0.1711 -0.2811 -0.2022
   76SLPC   H5R 6850   5.092   3.361   7.953 -1.3501  1.1168 -0.7924
   76SLPC   H5S 6851   5.245   3.345   7.861 -2.5492 -1.9840 -0.9210
   76SLPC   C26 6852   5.156   3.519   7.805  0.5341 -0.6628 -0.2288
   76SLPC   H6R 6853   5.252   3.567   7.777 -0.3997  1.9303  0.7339
   76SLPC   H6S 6854   5.099   3.598   7.858  2.2814  1.1084 -0.9013
   76SLPC   C27 6855   5.085   3.469   7.683  0.1895 -0.2794 -0.7390
   76SLPC   H7R 6856   5.002   3.403   7.715 -0.9124  1.3736 -0.0516
   76SLPC   H7S 6857   5.158   3.402   7.632  1.1147 -1.1132  1.5750
   76SLPC   C28 6858   5.035   3.579   7.592 -0.1463  0.1714  0.5352
   76SLPC   H8R 6859   4.995   3.659   7.658  1.4029  1.1699  0.3043
   76SLPC   H8S 6860   4.950   3.544   7.529 -1.9796 -0.0403  2.9277
   76SLPC   C29 6861   5.142   3.640   7.503  0.3727  0.2644  0.5949
   76SLPC   H9R 6862   5.155   3.746   7.529 -1.8938  0.9348 -0.6799
   76SLPC  C210 6863   5.200   3.580   7.398  0.2342 -0.9696 -0.4380
   76SLPC  H10R 6864   5.268   3.636   7.332 -2.0750  0.5853 -1.6552
   76SLPC  C211 6865   5.173   3.437   7.357 -0.2435  0.2722  0.0330
   76SLPC  H11R 6866   5.113   3.440   7.264 -1.2951 -0.6876  0.6573
   76SLPC  H11S 6867   5.101   3.382   7.422  0.7727 -0.5342  0.4954
   76SLPC  C212 6868   5.286   3.341   7.334  0.4625  1.0121 -0.1761
   76SLPC  H12R 6869   5.324   3.307   7.431 -2.1857  0.8077  0.8647
   76SLPC  C213 6870   5.335   3.281   7.222 -0.4701 -0.8012  0.2197
   76SLPC  H13R 6871   5.429   3.225   7.232 -0.1556 -0.0855  1.4472
   76SLPC  C214 6872   5.275   3.297   7.080 -0.9263 -0.5655 -0.4135
   76SLPC  H14R 6873   5.359   3.277   7.010  0.3539 -1.2350  1.2510
   76SLPC  H14S 6874   5.235   3.398   7.056 -0.4997 -0.7404 -1.9896
   76SLPC  C215 6875   5.179   3.187   7.054 -0.2665 -0.4655  0.5900
   76SLPC  H15R 6876   5.137   3.201   6.951 -0.1776  1.3403  0.7687
   76SLPC  H15S 6877   5.092   3.203   7.121 -2.9871 -0.4538 -2.6178
   76SLPC  C216 6878   5.240   3.041   7.060  0.5248 -0.2266  0.0647
   76SLPC  H16R 6879   5.254   3.000   7.163  1.2997  0.5737  0.2961
   76SLPC  H16S 6880   5.344   3.056   7.027  0.6393  3.6183  1.6351
   76SLPC  C217 6881   5.176   2.946   6.957 -0.4276  0.0238  0.6641
   76SLPC  H17R 6882   5.213   2.972   6.855  1.4332  1.8688  1.7498
   76SLPC  H17S 6883   5.068   2.972   6.957 -0.7197 -1.1329  0.1164
   76SLPC  C218 6884   5.187   2.799   6.977  0.1708  0.1757 -0.1809
   76SLPC  H18R 6885   5.135   2.769   7.071 -1.2607 -0.0184 -1.0105
   76SLPC  H18S 6886   5.292   2.765   6.965  0.0524  0.4654 -2.3380
   76SLPC  H18T 6887   5.139   2.742   6.894 -0.5884 -1.1109  1.0769
   76SLPC   C33 6888   5.685   4.058   8.018  0.1684 -0.2809  0.0312
   76SLPC   H3X 6889   5.770   3.990   7.995  0.9270  0.8390 -0.5599
   76SLPC   H3Y 6890   5.727   4.152   8.058  0.6214 -1.3257  2.1153
   76SLPC   C34 6891   5.605   4.090   7.894 -0.5106  0.0237 -0.6330
   76SLPC   H4X 6892   5.531   4.167   7.925  0.7636  1.0339 -0.0085
   76SLPC   H4Y 6893   5.541   4.005   7.861 -0.7536 -1.3597  2.9816
   76SLPC   C35 6894   5.689   4.131   7.768 -0.4965 -0.1830  0.2337
   76SLPC   H5X 6895   5.762   4.054   7.736  1.3170  2.1397 -1.6437
   76SLPC   H5Y 6896   5.767   4.206   7.794  0.7086 -1.6117  0.8950
   76SLPC   C36 6897   5.600   4.169   7.648 -0.4395  0.3698 -0.2651
   76SLPC   H6X 6898   5.539   4.260   7.666 -3.3692 -1.6611  0.7894
   76SLPC   H6Y 6899   5.535   4.080   7.635 -0.5590  0.5707 -1.1401
   76SLPC   C37 6900   5.691   4.198   7.525 -0.0928  0.0309 -0.4657
   76SLPC   H7X 6901   5.762   4.115   7.504  0.7250  1.4981 -4.4444
   76SLPC   H7Y 6902   5.748   4.291   7.545  1.3973 -0.6669 -1.2598
   76SLPC   C38 6903   5.608   4.229   7.403  0.0610 -0.1149 -0.5113
   76SLPC   H8X 6904   5.548   4.315   7.438  0.0497  0.2068 -1.2986
   76SLPC   H8Y 6905   5.556   4.134   7.375  3.2714 -1.8480 -1.0946
   76SLPC   C39 6906   5.678   4.276   7.272  0.0716  0.5268  0.4751
   76SLPC   H9X 6907   5.754   4.201   7.242 -0.8860  0.0042 -0.7615
   76SLPC   H9Y 6908   5.734   4.366   7.304  0.6244 -0.5093  2.6195
   76SLPC  C310 6909   5.573   4.291   7.160  0.5126  0.3774 -0.6272
   76SLPC  H10X 6910   5.477   4.344   7.177 -1.1576 -2.0732 -1.7069
   76SLPC  H10Y 6911   5.535   4.188   7.141 -0.1885  0.7642 -1.4015
   76SLPC  C311 6912   5.626   4.331   7.025  0.0917  0.1746  0.1789
   76SLPC  H11X 6913   5.690   4.251   6.982 -1.5243 -1.8690  1.3515
   76SLPC  H11Y 6914   5.687   4.423   7.033  1.4774 -0.5011 -2.0091
   76SLPC  C312 6915   5.520   4.371   6.922  0.1011 -0.0266 -0.0607
   76SLPC  H12X 6916   5.465   4.453   6.973  1.4929  0.0523  1.3812
   76SLPC  H12Y 6917   5.446   4.296   6.887 -0.7989  0.6961  0.2507
   76SLPC  C313 6918   5.583   4.447   6.801 -1.2483 -0.3490 -0.0734
   76SLPC  H13X 6919   5.656   4.526   6.828  0.1561 -1.8702  0.7371
   76SLPC  H13Y 6920   5.504   4.505   6.749  0.6225  2.2795 -0.1930
   76SLPC  C314 6921   5.637   4.356   6.689 -0.1098  0.9818 -0.5155
   76SLPC  H14X 6922   5.552   4.288   6.666  0.0389  0.9464 -0.9816
   76SLPC  H14Y 6923   5.720   4.294   6.730  0.2066  2.0092  0.4195
   76SLPC  C315 6924   5.671   4.419   6.552 -0.0503 -0.3690  0.7976
   76SLPC  H15X 6925   5.577   4.460   6.509 -0.4808 -1.7932  0.3480
   76SLPC  H15Y 6926   5.692   4.341   6.476 -1.2475 -1.3054  1.3861
   76SLPC  C316 6927   5.782   4.527   6.554  0.1529 -0.3375 -0.0959
   76SLPC  H16X 6928   5.882   4.481   6.568  0.8422  0.9389 -0.7004
   76SLPC  H16Y 6929   5.758   4.595   6.638  0.4327  2.6930 -2.3133
   76SLPC  C317 6930   5.791   4.602   6.424 -0.3287 -0.4455  0.0092
   76SLPC  H17X 6931   5.822   4.708   6.439  1.6386 -1.2866  2.6819
   76SLPC  H17Y 6932   5.687   4.618   6.388 -0.3462  0.5916  0.4750
   76SLPC  C318 6933   5.883   4.540   6.322 -0.1114 -0.9233 -0.6486
   76SLPC  H18X 6934   5.991   4.551   6.349 -0.1125 -3.9219  0.9060
   76SLPC  H18Y 6935   5.864   4.591   6.225 -2.0069 -0.6200 -0.1503
   76SLPC  H18Z 6936   5.871   4.432   6.304 -0.4417 -0.4873 -3.5168
   77SLPC     N 6937   3.516   3.584   8.122  0.4441  0.0515 -0.7068
   77SLPC   C13 6938   3.382   3.659   8.154 -0.5501 -0.2182  0.2001
   77SLPC  H13A 6939   3.351   3.710   8.064  0.7671 -1.5278 -1.0427
   77SLPC  H13B 6940   3.305   3.589   8.184 -1.4485  0.8479  0.4445
   77SLPC  H13C 6941   3.398   3.733   8.231  1.1912  0.1310 -0.4649
   77SLPC   C14 6942   3.504   3.500   8.000  0.2641 -0.1499 -0.0407
   77SLPC  H14A 6943   3.521   3.551   7.907 -2.0960  1.1856  0.1719
   77SLPC  H14B 6944   3.576   3.421   8.015 -0.2639 -0.5913  0.2262
   77SLPC  H14C 6945   3.406   3.457   7.984 -0.4259  1.8924 -1.6315
   77SLPC   C15 6946   3.540   3.500   8.240 -0.2097 -0.0989  1.0705
   77SLPC  H15A 6947   3.628   3.438   8.228  0.4257  0.6671  1.6602
   77SLPC  H15B 6948   3.554   3.563   8.326 -1.2180 -1.0050  1.9231
   77SLPC  H15C 6949   3.460   3.427   8.244 -0.4506  0.0204 -0.5740
   77SLPC   C12 6950   3.622   3.688   8.107 -0.3612  0.5900 -0.1503
   77SLPC  H12A 6951   3.627   3.754   8.193  1.4289 -0.1507  0.3771
   77SLPC  H12B 6952   3.591   3.758   8.032 -2.7303 -0.5169 -0.2861
   77SLPC   C11 6953   3.767   3.634   8.085  0.9807  0.1006  0.0263
   77SLPC  H11A 6954   3.832   3.721   8.061  0.2113  0.3804 -1.1050
   77SLPC  H11B 6955   3.775   3.573   7.992  1.3144 -2.5424  1.6819
   77SLPC     P 6956   3.942   3.484   8.212 -0.7219  0.1617  0.1106
   77SLPC   O13 6957   4.059   3.562   8.157  0.2434 -0.0077 -0.7712
   77SLPC   O14 6958   3.948   3.448   8.360 -0.4190 -0.4748  0.5230
   77SLPC   O12 6959   3.813   3.567   8.200 -0.4032 -0.4672  0.1249
   77SLPC   O11 6960   3.904   3.356   8.124  0.2823  0.3397 -0.7751
   77SLPC    C1 6961   3.998   3.248   8.130 -0.6858  0.9027  0.1357
   77SLPC    HA 6962   4.077   3.259   8.207 -1.1521  0.1131  0.7536
   77SLPC    HB 6963   3.934   3.160   8.155  0.6437  0.2879  1.5433
   77SLPC    C2 6964   4.069   3.221   7.991 -0.0964  0.4602 -0.3651
   77SLPC    HS 6965   4.141   3.306   7.982 -0.4178  0.7467 -0.2871
   77SLPC   O21 6966   3.967   3.222   7.887  0.1002 -0.3715  0.0659
   77SLPC   C21 6967   3.989   3.306   7.786  0.3682 -0.0106  0.6156
   77SLPC   O22 6968   4.092   3.364   7.756 -0.0292 -0.7479  0.5081
   77SLPC   C22 6969   3.850   3.330   7.719  0.8575  0.5887  0.7688
   77SLPC   H2R 6970   3.774   3.253   7.748 -1.0132  1.8512 -0.5516
   77SLPC   H2S 6971   3.812   3.428   7.754 -2.2095 -0.2420  0.0743
   77SLPC    C3 6972   4.158   3.089   7.997 -0.2096  0.8560 -0.1557
   77SLPC    HX 6973   4.097   3.005   8.036 -0.6743  0.3557 -1.8596
   77SLPC    HY 6974   4.243   3.117   8.062 -0.4736  0.5471  0.3251
   77SLPC   O31 6975   4.216   3.045   7.871  0.0630 -0.2241 -0.0538
   77SLPC   C31 6976   4.319   3.123   7.829  0.4148 -0.1463  0.2192
   77SLPC   O32 6977   4.358   3.223   7.887 -0.3548 -0.1571 -0.0757
   77SLPC   C32 6978   4.385   3.060   7.705  0.1865 -0.5965  1.0436
   77SLPC   H2X 6979   4.413   2.955   7.730  0.8485 -1.0335 -1.2680
   77SLPC   H2Y 6980   4.475   3.123   7.693 -0.8260  0.5191 -1.5368
   77SLPC   C23 6981   3.852   3.327   7.570  0.3519  0.0637  0.4963
   77SLPC   H3R 6982   3.931   3.393   7.528  0.8701 -1.3486 -0.8536
   77SLPC   H3S 6983   3.748   3.352   7.540 -0.0407 -1.5905  0.3786
   77SLPC   C24 6984   3.859   3.183   7.520 -0.1691 -0.6223 -0.4437
   77SLPC   H4R 6985   3.788   3.123   7.581  1.8673 -1.7553  0.9128
   77SLPC   H4S 6986   3.964   3.154   7.541 -0.3300  0.2622  1.9152
   77SLPC   C25 6987   3.813   3.172   7.377 -0.2778  0.3921  0.3222
   77SLPC   H5R 6988   3.728   3.242   7.359  0.2566  1.4005  1.5341
   77SLPC   H5S 6989   3.773   3.069   7.366  0.6941 -0.3889  3.0639
   77SLPC   C26 6990   3.918   3.196   7.274 -0.4862 -0.0339  0.6065
   77SLPC   H6R 6991   3.979   3.104   7.272 -0.2514  0.1253 -0.4248
   77SLPC   H6S 6992   3.989   3.279   7.292  2.2977 -1.9692 -0.6859
   77SLPC   C27 6993   3.839   3.224   7.136  0.5638  0.8094 -0.4600
   77SLPC   H7R 6994   3.783   3.319   7.146 -0.6445 -0.0327  1.3883
   77SLPC   H7S 6995   3.780   3.133   7.113  2.5277 -0.5079 -0.5768
   77SLPC   C28 6996   3.936   3.235   7.018  0.2593  0.2004  0.3114
   77SLPC   H8R 6997   4.034   3.277   7.048  0.3429 -0.7659  1.4546
   77SLPC   H8S 6998   3.899   3.305   6.940  0.0389  1.2563  1.3530
   77SLPC   C29 6999   3.974   3.101   6.962 -0.5012  0.2718  0.3924
   77SLPC   H9R 7000   4.029   3.034   7.029 -2.0701 -1.8081 -0.3100
   77SLPC  C210 7001   3.944   3.063   6.834 -0.5278 -0.4092  0.2579
   77SLPC  H10R 7002   3.988   2.973   6.788  2.8457  0.7175  1.0220
   77SLPC  C211 7003   3.860   3.151   6.741 -0.0580 -0.2235 -0.0104
   77SLPC  H11R 7004   3.921   3.219   6.678 -0.6342  1.3297  1.0385
   77SLPC  H11S 7005   3.806   3.224   6.805  1.8848  1.2431  0.0399
   77SLPC  C212 7006   3.776   3.071   6.649  0.2601  0.4280  0.0015
   77SLPC  H12R 7007   3.729   2.988   6.705  2.5351  0.7306  2.5606
   77SLPC  C213 7008   3.756   3.090   6.515  0.1260  0.2576  0.0367
   77SLPC  H13R 7009   3.704   3.007   6.463 -1.7308  1.9828 -1.0087
   77SLPC  C214 7010   3.823   3.195   6.428  0.4967  0.0370  0.1871
   77SLPC  H14R 7011   3.912   3.244   6.473 -1.3229  1.8548  2.0265
   77SLPC  H14S 7012   3.754   3.278   6.403 -0.1825 -0.4106  0.5422
   77SLPC  C215 7013   3.869   3.150   6.289 -0.0792  0.1115  0.7288
   77SLPC  H15R 7014   3.946   3.070   6.296 -3.1689 -3.1139  0.5454
   77SLPC  H15S 7015   3.922   3.234   6.239 -1.3372 -0.2884 -1.3906
   77SLPC  C216 7016   3.752   3.116   6.187  0.3805 -1.2477  0.3345
   77SLPC  H16R 7017   3.671   3.187   6.214  2.9306  2.2359 -0.5113
   77SLPC  H16S 7018   3.719   3.010   6.189  1.6036 -1.6521  0.3335
   77SLPC  C217 7019   3.802   3.133   6.042  0.4210 -0.0057  0.1853
   77SLPC  H17R 7020   3.866   3.045   6.024  0.8995  0.1840  0.8886
   77SLPC  H17S 7021   3.869   3.221   6.034  0.6034 -0.2021 -0.4573
   77SLPC  C218 7022   3.691   3.139   5.940 -0.1062  0.3426  0.5859
   77SLPC  H18R 7023   3.742   3.139   5.842  2.0892  1.8096  1.6391
   77SLPC  H18S 7024   3.625   3.229   5.942  1.2784  1.4113  0.0768
   77SLPC  H18T 7025   3.619   3.055   5.951 -0.3734  0.5924  0.7708
   77SLPC   C33 7026   4.307   3.072   7.566 -0.6772 -0.5666 -0.8030
   77SLPC   H3X 7027   4.296   3.182   7.554  1.2867 -0.2024  0.3645
   77SLPC   H3Y 7028   4.207   3.024   7.561 -1.2361  0.2859  1.2166
   77SLPC   C34 7029   4.392   3.020   7.445 -0.2890  0.6292  0.0608
   77SLPC   H4X 7030   4.407   2.913   7.469 -0.7235 -0.2136 -2.9797
   77SLPC   H4Y 7031   4.493   3.068   7.449 -0.2725  0.6985 -0.8848
   77SLPC   C35 7032   4.330   3.031   7.306 -0.0939 -0.5654 -0.5527
   77SLPC   H5X 7033   4.296   3.137   7.297 -1.3659 -0.9808 -0.8807
   77SLPC   H5Y 7034   4.231   2.981   7.317 -1.3364  2.0332  1.4275
   77SLPC   C36 7035   4.407   2.986   7.184  0.4812  0.1336 -0.6704
   77SLPC   H6X 7036   4.436   2.879   7.187 -0.1402 -0.0243  2.1040
   77SLPC   H6Y 7037   4.500   3.046   7.171  0.3698  0.4830  0.1112
   77SLPC   C37 7038   4.327   3.021   7.059 -0.2762 -0.0466  0.4654
   77SLPC   H7X 7039   4.297   3.128   7.054 -1.3423 -0.3463  0.0520
   77SLPC   H7Y 7040   4.236   2.957   7.050  0.0249 -0.6764  1.6849
   77SLPC   C38 7041   4.409   3.001   6.927  0.2421 -0.4479 -0.8413
   77SLPC   H8X 7042   4.429   2.897   6.895  0.4821 -0.8718  0.6489
   77SLPC   H8Y 7043   4.505   3.056   6.931 -1.1875  2.1747  1.9435
   77SLPC   C39 7044   4.325   3.062   6.812 -0.6649 -0.3268 -0.5587
   77SLPC   H9X 7045   4.299   3.165   6.845  0.9748  0.2166 -0.8844
   77SLPC   H9Y 7046   4.227   3.012   6.797 -0.8868 -0.1646  0.2988
   77SLPC  C310 7047   4.405   3.061   6.685 -0.2594 -0.2114  0.4691
   77SLPC  H10X 7048   4.434   2.956   6.665  0.4960  0.0025  0.4129
   77SLPC  H10Y 7049   4.496   3.124   6.676 -0.1018 -0.3691  0.9858
   77SLPC  C311 7050   4.303   3.082   6.567 -0.8836 -0.7459 -0.0114
   77SLPC  H11X 7051   4.224   3.158   6.588  0.6651  0.6229  1.0897
   77SLPC  H11Y 7052   4.241   2.992   6.546 -2.8016 -0.1501  2.5849
   77SLPC  C312 7053   4.367   3.116   6.433 -0.0011 -0.0631 -0.2160
   77SLPC  H12X 7054   4.441   3.036   6.412  1.1667  0.6550  0.9817
   77SLPC  H12Y 7055   4.420   3.213   6.449 -2.1068  0.8977  1.4844
   77SLPC  C313 7056   4.268   3.130   6.314  0.0568  0.8961 -0.6684
   77SLPC  H13X 7057   4.178   3.191   6.339 -1.2749 -1.1535 -0.2125
   77SLPC  H13Y 7058   4.225   3.030   6.294  0.4274  0.5161  0.3429
   77SLPC  C314 7059   4.316   3.195   6.186  0.5368  0.1722  0.0867
   77SLPC  H14X 7060   4.424   3.170   6.173  0.1397 -0.8222 -1.7270
   77SLPC  H14Y 7061   4.310   3.305   6.199 -0.6298  0.1709 -0.3370
   77SLPC  C315 7062   4.227   3.173   6.061 -0.0123 -0.2461  0.2886
   77SLPC  H15X 7063   4.247   3.256   5.989 -1.4328 -0.8194 -0.8283
   77SLPC  H15Y 7064   4.119   3.165   6.085  0.2281 -3.3310  0.7789
   77SLPC  C316 7065   4.267   3.034   5.999  0.0630 -0.0692 -0.4778
   77SLPC  H16X 7066   4.262   2.952   6.073  0.7602 -1.3731 -1.8247
   77SLPC  H16Y 7067   4.365   3.034   5.947 -0.6858 -1.8882 -2.0135
   77SLPC  C317 7068   4.156   3.002   5.894 -0.2396  0.5963  0.3172
   77SLPC  H17X 7069   4.148   3.099   5.840 -0.6820  0.6548  0.4840
   77SLPC  H17Y 7070   4.071   2.975   5.960  0.7937 -1.0345  1.0395
   77SLPC  C318 7071   4.192   2.897   5.790 -0.8617  1.1494  0.5076
   77SLPC  H18X 7072   4.287   2.844   5.814 -0.7523  0.5936 -1.0332
   77SLPC  H18Y 7073   4.208   2.958   5.699 -0.9751  0.4378  0.0012
   77SLPC  H18Z 7074   4.110   2.826   5.764 -0.1671  1.4546 -3.0039
   78SLPC     N 7075   0.762   2.102   8.845  0.1033 -0.6533  0.1964
   78SLPC   C13 7076   0.673   2.224   8.855 -0.5263  0.4118 -0.4618
   78SLPC  H13A 7077   0.669   2.251   8.960 -1.0334 -2.2063  0.2457
   78SLPC  H13B 7078   0.714   2.309   8.802  0.5043  0.7464  0.8021
   78SLPC  H13C 7079   0.578   2.197   8.813  0.0885 -1.0393 -0.9854
   78SLPC   C14 7080   0.708   1.998   8.940 -0.2804 -0.2036  0.6352
   78SLPC  H14A 7081   0.758   1.903   8.931 -2.0041 -1.0076 -1.2773
   78SLPC  H14B 7082   0.723   2.036   9.040  2.1926  0.5225  0.0417
   78SLPC  H14C 7083   0.603   1.971   8.936 -0.2106 -0.5491  1.0595
   78SLPC   C15 7084   0.899   2.147   8.891 -0.5504  0.1540  0.2924
   78SLPC  H15A 7085   0.927   2.237   8.839 -2.6968 -0.3009 -1.8053
   78SLPC  H15B 7086   0.898   2.158   8.998 -1.3415 -2.6289  0.6398
   78SLPC  H15C 7087   0.983   2.080   8.878  0.7759  1.7184  0.3421
   78SLPC   C12 7088   0.771   2.055   8.695 -0.5999  0.7121  0.4764
   78SLPC  H12A 7089   0.687   1.990   8.677 -2.5860  2.1695  3.5575
   78SLPC  H12B 7090   0.862   1.997   8.692 -2.4434 -2.3848 -0.0406
   78SLPC   C11 7091   0.775   2.158   8.580 -0.3886  0.1608  0.1319
   78SLPC  H11A 7092   0.681   2.218   8.578 -0.0704  0.6595 -0.2373
   78SLPC  H11B 7093   0.777   2.099   8.486  0.4474  1.4989 -0.7225
   78SLPC     P 7094   1.014   2.236   8.502 -0.0332  0.1744 -0.4054
   78SLPC   O13 7095   1.092   2.362   8.511  0.4723 -0.2850 -0.4064
   78SLPC   O14 7096   1.086   2.117   8.553 -0.3968  0.0414 -0.8607
   78SLPC   O12 7097   0.882   2.253   8.590  0.1583 -0.3104  0.3910
   78SLPC   O11 7098   0.973   2.206   8.351 -0.2932 -0.7621  0.3030
   78SLPC    C1 7099   0.873   2.257   8.271  0.2278  0.1581  0.3173
   78SLPC    HA 7100   0.839   2.183   8.196 -0.1798  0.6931 -0.0311
   78SLPC    HB 7101   0.791   2.278   8.342 -1.5959 -2.0221 -1.0191
   78SLPC    C2 7102   0.919   2.379   8.177  0.3863  0.4443 -0.0384
   78SLPC    HS 7103   0.906   2.471   8.237  1.4234  0.0533  0.8307
   78SLPC   O21 7104   0.838   2.382   8.055  0.1948 -0.7659  0.2755
   78SLPC   C21 7105   0.712   2.396   8.063  0.6450 -0.6726  0.1912
   78SLPC   O22 7106   0.644   2.402   8.165  0.4167  0.3797 -0.7424
   78SLPC   C22 7107   0.656   2.383   7.919 -0.5628  0.2873 -0.3661
   78SLPC   H2R 7108   0.736   2.417   7.850  0.6987 -2.1177 -0.2169
   78SLPC   H2S 7109   0.620   2.280   7.897  0.7010 -0.3824  0.5616
   78SLPC    C3 7110   1.067   2.372   8.138 -0.4222 -0.4676 -0.6807
   78SLPC    HX 7111   1.090   2.267   8.108 -0.8692 -0.4496 -1.0953
   78SLPC    HY 7112   1.134   2.393   8.224  0.7740 -3.4568 -0.7586
   78SLPC   O31 7113   1.097   2.451   8.022 -0.1966 -0.3905  0.0036
   78SLPC   C31 7114   1.078   2.582   8.041 -0.3965  0.1695  0.1626
   78SLPC   O32 7115   1.076   2.636   8.152  0.1098 -0.1897  0.3736
   78SLPC   C32 7116   1.070   2.646   7.909 -0.3165 -0.3812  0.3663
   78SLPC   H2X 7117   1.047   2.753   7.926  1.2560 -0.2558  2.0395
   78SLPC   H2Y 7118   0.979   2.606   7.860 -0.1535 -2.3406  1.5488
   78SLPC   C23 7119   0.532   2.472   7.906  0.3664  0.1425 -0.5826
   78SLPC   H3R 7120   0.561   2.574   7.937  0.2161 -0.3892  1.4812
   78SLPC   H3S 7121   0.453   2.441   7.979  1.0206 -1.1885 -0.3997
   78SLPC   C24 7122   0.481   2.492   7.761  0.3292  0.8028 -0.1417
   78SLPC   H4R 7123   0.566   2.518   7.695  0.3662 -0.5394 -0.6698
   78SLPC   H4S 7124   0.406   2.571   7.781 -0.4027  0.4252 -1.2872
   78SLPC   C25 7125   0.412   2.370   7.708 -0.2969 -0.0566  0.2079
   78SLPC   H5R 7126   0.354   2.318   7.787  0.2131 -1.3816 -0.2656
   78SLPC   H5S 7127   0.481   2.292   7.669  1.2259  0.9018  0.8666
   78SLPC   C26 7128   0.314   2.397   7.595 -0.3856  0.1435  0.2606
   78SLPC   H6R 7129   0.355   2.458   7.512 -1.1155 -0.5588 -0.6439
   78SLPC   H6S 7130   0.225   2.452   7.633 -0.8995  0.3358 -1.1805
   78SLPC   C27 7131   0.265   2.253   7.538  0.1605 -0.8528  0.0740
   78SLPC   H7R 7132   0.190   2.206   7.605 -0.6210 -1.1133 -0.9691
   78SLPC   H7S 7133   0.353   2.186   7.550  1.1532  0.2902 -0.6267
   78SLPC   C28 7134   0.226   2.247   7.387  0.5247  0.1723 -0.2260
   78SLPC   H8R 7135   0.163   2.156   7.388  0.1382  0.3983  2.1376
   78SLPC   H8S 7136   0.316   2.234   7.324  1.0717  1.1153  0.3310
   78SLPC   C29 7137   0.141   2.358   7.344  0.3614 -0.5702 -0.2345
   78SLPC   H9R 7138   0.056   2.369   7.413  0.3101 -1.1877 -0.1946
   78SLPC  C210 7139   0.148   2.426   7.222 -0.6367  0.1255 -0.1229
   78SLPC  H10R 7140   0.073   2.505   7.203 -0.2388  0.5319 -0.0337
   78SLPC  C211 7141   0.251   2.430   7.115 -0.2107  0.2653 -0.2491
   78SLPC  H11R 7142   0.352   2.415   7.158 -0.1269 -2.1597 -1.1641
   78SLPC  H11S 7143   0.241   2.533   7.074 -1.4823  0.9504  1.6620
   78SLPC  C212 7144   0.234   2.315   7.021 -0.6205  0.3046 -0.0687
   78SLPC  H12R 7145   0.229   2.219   7.074  1.0344  0.6616  0.8023
   78SLPC  C213 7146   0.221   2.327   6.889  0.8018  0.1336 -0.1191
   78SLPC  H13R 7147   0.192   2.242   6.826  1.4018 -1.2226  1.3939
   78SLPC  C214 7148   0.209   2.458   6.816 -0.1710  0.1107 -0.3181
   78SLPC  H14R 7149   0.310   2.500   6.797  0.1639  0.0760  1.2209
   78SLPC  H14S 7150   0.166   2.533   6.887 -2.5661 -0.9302 -0.5694
   78SLPC  C215 7151   0.113   2.472   6.692 -0.5418  0.0365 -0.0237
   78SLPC  H15R 7152   0.092   2.581   6.686  0.2152  0.2144  0.3724
   78SLPC  H15S 7153   0.014   2.428   6.716 -0.3227 -0.1304  0.5914
   78SLPC  C216 7154   0.173   2.434   6.555  0.2942  0.5093 -0.0340
   78SLPC  H16R 7155   0.164   2.323   6.555  1.5311  0.3571 -2.0559
   78SLPC  H16S 7156   0.278   2.469   6.542  0.5009 -1.0054 -3.9759
   78SLPC  C217 7157   0.097   2.513   6.443  0.5935  0.3013  0.0110
   78SLPC  H17R 7158   0.123   2.620   6.461  0.2917  0.8439 -2.3919
   78SLPC  H17S 7159  -0.012   2.496   6.456  0.9200 -0.2460  2.7203
   78SLPC  C218 7160   0.136   2.478   6.300  0.3091  0.2341 -0.2729
   78SLPC  H18R 7161   0.105   2.560   6.232  4.2055 -0.3321 -3.0407
   78SLPC  H18S 7162   0.102   2.375   6.273  0.3797 -0.4899  2.1145
   78SLPC  H18T 7163   0.246   2.463   6.297  0.3336  0.3616 -0.0423
   78SLPC   C33 7164   1.193   2.619   7.822 -0.1476  0.7616  0.4722
   78SLPC   H3X 7165   1.209   2.509   7.810  0.2658  0.9076 -0.4410
   78SLPC   H3Y 7166   1.287   2.655   7.868  0.0966  0.9845 -0.1932
   78SLPC   C34 7167   1.175   2.680   7.674  0.0308  0.0249 -0.1209
   78SLPC   H4X 7168   1.268   2.655   7.619 -1.0909 -2.0121 -1.2064
   78SLPC   H4Y 7169   1.159   2.788   7.693  0.9906  0.1619 -0.0351
   78SLPC   C35 7170   1.049   2.635   7.602  0.0719  0.0211  0.3799
   78SLPC   H5X 7171   0.955   2.661   7.655 -0.2829 -1.0302  0.3046
   78SLPC   H5Y 7172   1.055   2.524   7.613  1.0682  0.1874  1.7404
   78SLPC   C36 7173   1.052   2.678   7.452 -0.6469 -0.2351  0.1008
   78SLPC   H6X 7174   1.152   2.645   7.416  0.6424  3.2055  0.1421
   78SLPC   H6Y 7175   1.039   2.787   7.435 -1.1656 -0.5196 -1.5706
   78SLPC   C37 7176   0.950   2.611   7.365  0.2687  0.3407  0.0343
   78SLPC   H7X 7177   0.846   2.617   7.403 -0.4315 -2.7074 -1.0848
   78SLPC   H7Y 7178   0.972   2.503   7.382 -1.0851  0.3513  2.3200
   78SLPC   C38 7179   0.957   2.661   7.217  1.0055  1.1548  0.1211
   78SLPC   H8X 7180   1.057   2.651   7.170  0.1970 -0.4456 -1.3765
   78SLPC   H8Y 7181   0.931   2.769   7.229 -0.4668  0.6319  2.3847
   78SLPC   C39 7182   0.846   2.593   7.136  1.0405  0.5131  0.1657
   78SLPC   H9X 7183   0.752   2.578   7.192  0.7322 -0.9799 -0.6807
   78SLPC   H9Y 7184   0.887   2.492   7.113  1.7217  0.6426  0.7594
   78SLPC  C310 7185   0.821   2.647   6.991  0.3026 -0.0593  0.4325
   78SLPC  H10X 7186   0.920   2.662   6.942 -0.0495  1.8234  0.2271
   78SLPC  H10Y 7187   0.775   2.748   6.998  0.9488  0.2629  0.1120
   78SLPC  C311 7188   0.736   2.546   6.899 -0.3074 -0.6269 -0.5654
   78SLPC  H11X 7189   0.642   2.522   6.954  0.7802 -0.6489  1.3685
   78SLPC  H11Y 7190   0.793   2.452   6.887  0.4562 -0.3699  0.8340
   78SLPC  C312 7191   0.697   2.607   6.760 -0.3306 -0.3730  0.7533
   78SLPC  H12X 7192   0.790   2.635   6.706  0.6929 -2.4790  1.3060
   78SLPC  H12Y 7193   0.623   2.689   6.761  0.1889  0.1960 -1.6177
   78SLPC  C313 7194   0.652   2.497   6.654 -0.2762  0.1938 -0.2835
   78SLPC  H13X 7195   0.552   2.457   6.683 -0.9248  1.9537  0.0669
   78SLPC  H13Y 7196   0.724   2.413   6.646  1.3427  1.5217 -0.3579
   78SLPC  C314 7197   0.626   2.559   6.516 -0.0522 -0.2160  0.0638
   78SLPC  H14X 7198   0.709   2.623   6.480 -0.4643  1.0230  1.2529
   78SLPC  H14Y 7199   0.530   2.616   6.515 -0.0505 -0.1074 -2.9206
   78SLPC  C315 7200   0.614   2.458   6.404 -0.0671  0.8771  0.1471
   78SLPC  H15X 7201   0.511   2.416   6.410 -0.1222  1.0258  0.2346
   78SLPC  H15Y 7202   0.678   2.369   6.424 -0.5865  0.6960  1.0577
   78SLPC  C316 7203   0.651   2.514   6.266 -0.1660  0.1282  0.5306
   78SLPC  H16X 7204   0.755   2.551   6.252  0.4593 -1.5019  0.6320
   78SLPC  H16Y 7205   0.574   2.588   6.235  1.3607  1.9463  0.8789
   78SLPC  C317 7206   0.644   2.395   6.163  0.4412  0.0815  0.0214
   78SLPC  H17X 7207   0.539   2.365   6.140  1.1578 -0.6732 -2.5750
   78SLPC  H17Y 7208   0.690   2.303   6.203  1.1309  0.0993 -0.7265
   78SLPC  C318 7209   0.710   2.433   6.033 -0.4652 -0.5538 -0.3665
   78SLPC  H18X 7210   0.650   2.516   5.990  1.0538  0.4760 -0.5551
   78SLPC  H18Y 7211   0.709   2.351   5.958  1.2032 -4.1159  3.1283
   78SLPC  H18Z 7212   0.817   2.454   6.051 -0.7709  2.4903 -1.6297
   79SLPC     N 7213   0.088   3.472   8.571 -0.0874  0.8558 -0.4798
   79SLPC   C13 7214   0.030   3.408   8.691 -0.3083  0.7556  0.0252
   79SLPC  H13A 7215  -0.006   3.470   8.771 -0.0535  0.4285  0.4004
   79SLPC  H13B 7216  -0.043   3.338   8.653  0.2095  0.9329 -1.3528
   79SLPC  H13C 7217   0.119   3.358   8.727  0.9570 -0.4791 -4.2343
   79SLPC   C14 7218   0.165   3.362   8.498 -0.8040  0.3810 -0.1886
   79SLPC  H14A 7219   0.247   3.336   8.563  0.1739 -0.7753 -1.7995
   79SLPC  H14B 7220   0.105   3.276   8.475  1.0020 -1.3070  1.1231
   79SLPC  H14C 7221   0.200   3.409   8.407  0.1582  1.0536  0.5033
   79SLPC   C15 7222   0.188   3.573   8.613  0.1664  0.6750 -0.2704
   79SLPC  H15A 7223   0.146   3.628   8.696  1.4440  0.4408  0.5546
   79SLPC  H15B 7224   0.283   3.532   8.642  0.5572  2.1011  0.5147
   79SLPC  H15C 7225   0.221   3.640   8.535  0.1223 -0.5003 -1.3452
   79SLPC   C12 7226  -0.034   3.524   8.482 -0.6883  0.0049  0.0318
   79SLPC  H12A 7227   0.000   3.595   8.407  1.4921 -1.1629 -0.1515
   79SLPC  H12B 7228  -0.081   3.591   8.552  2.9139  2.6176  0.2203
   79SLPC   C11 7229  -0.116   3.417   8.405 -1.2654 -0.2329 -0.4438
   79SLPC  H11A 7230  -0.041   3.353   8.353  2.1780  2.5017  0.7932
   79SLPC  H11B 7231  -0.172   3.470   8.325 -0.2942  1.1046 -0.2733
   79SLPC     P 7232  -0.329   3.440   8.535  0.4307  0.0083 -0.2601
   79SLPC   O13 7233  -0.407   3.347   8.624 -0.2225 -0.0642  0.1392
   79SLPC   O14 7234  -0.290   3.567   8.594  0.0056 -0.5725 -0.6326
   79SLPC   O12 7235  -0.203   3.356   8.497 -0.3961 -0.0659  0.5076
   79SLPC   O11 7236  -0.408   3.463   8.398 -0.1671 -0.0997  0.3780
   79SLPC    C1 7237  -0.449   3.335   8.336 -0.6772 -0.7842  0.3157
   79SLPC    HA 7238  -0.382   3.248   8.356 -0.1029 -0.3612  0.2605
   79SLPC    HB 7239  -0.551   3.315   8.375 -0.9770  2.7635  1.7038
   79SLPC    C2 7240  -0.477   3.346   8.178 -1.4770  0.0681 -0.0145
   79SLPC    HS 7241  -0.532   3.253   8.150 -0.3444 -0.3604 -0.9226
   79SLPC   O21 7242  -0.358   3.356   8.102  0.0792  0.0324  0.6292
   79SLPC   C21 7243  -0.277   3.259   8.094  0.0845 -0.2079 -0.5633
   79SLPC   O22 7244  -0.281   3.152   8.152 -0.1259  0.1510 -0.3944
   79SLPC   C22 7245  -0.159   3.307   8.010  0.0342 -0.5096  1.3063
   79SLPC   H2R 7246  -0.189   3.405   7.966 -2.7790 -1.2074  1.4915
   79SLPC   H2S 7247  -0.070   3.326   8.073  0.0146  1.6529  0.7613
   79SLPC    C3 7248  -0.563   3.464   8.130 -0.0201 -0.3554 -0.0788
   79SLPC    HX 7249  -0.505   3.558   8.140 -1.4476  0.5290  0.2094
   79SLPC    HY 7250  -0.634   3.467   8.215  0.2341 -1.6065  0.1957
   79SLPC   O31 7251  -0.625   3.448   7.997  0.2741 -0.4246 -0.1054
   79SLPC   C31 7252  -0.564   3.511   7.894  0.5348 -0.4329  0.0681
   79SLPC   O32 7253  -0.464   3.578   7.907  0.2766 -0.7802 -0.4083
   79SLPC   C32 7254  -0.637   3.491   7.755  0.3458 -0.1304 -0.5426
   79SLPC   H2X 7255  -0.721   3.564   7.746  0.8081  0.5655  0.6688
   79SLPC   H2Y 7256  -0.675   3.387   7.756  0.5838 -0.2172 -0.0411
   79SLPC   C23 7257  -0.114   3.207   7.903  0.7130  0.8294  0.5960
   79SLPC   H3R 7258  -0.081   3.115   7.956  0.9449 -0.6568 -1.9394
   79SLPC   H3S 7259  -0.019   3.238   7.853  2.1667 -2.0292  1.3824
   79SLPC   C24 7260  -0.222   3.195   7.790 -0.5146 -0.2718 -0.1462
   79SLPC   H4R 7261  -0.263   3.296   7.767  2.3463  0.6516 -1.5837
   79SLPC   H4S 7262  -0.310   3.138   7.827 -0.2259 -0.0119  0.9727
   79SLPC   C25 7263  -0.179   3.118   7.668  0.0235 -0.7433  0.5208
   79SLPC   H5R 7264  -0.142   3.016   7.691  1.0560 -0.9302 -1.6606
   79SLPC   H5S 7265  -0.100   3.178   7.617  0.0288  2.0657  3.4859
   79SLPC   C26 7266  -0.293   3.075   7.576 -0.2762 -0.4453  0.3838
   79SLPC   H6R 7267  -0.363   3.018   7.641  0.0105  1.3803  2.4048
   79SLPC   H6S 7268  -0.242   3.010   7.502 -0.1535  0.2307 -0.1290
   79SLPC   C27 7269  -0.353   3.193   7.505  0.3249 -0.7143  0.1155
   79SLPC   H7R 7270  -0.404   3.251   7.585  0.7304 -0.5555  0.2591
   79SLPC   H7S 7271  -0.444   3.156   7.452  0.7184 -0.1181 -1.0102
   79SLPC   C28 7272  -0.268   3.284   7.413  0.3543 -0.3413 -0.2452
   79SLPC   H8R 7273  -0.209   3.347   7.483 -0.5477 -0.8499  1.0037
   79SLPC   H8S 7274  -0.338   3.354   7.362  0.9571 -0.4293 -1.2346
   79SLPC   C29 7275  -0.184   3.212   7.311 -0.0735  0.0345  0.8097
   79SLPC   H9R 7276  -0.107   3.149   7.357 -0.3334 -1.1551 -0.3257
   79SLPC  C210 7277  -0.212   3.204   7.181  0.1376  0.1230 -0.5031
   79SLPC  H10R 7278  -0.144   3.149   7.115  0.2431 -0.7519  0.3231
   79SLPC  C211 7279  -0.329   3.274   7.109 -0.2276 -0.0178  0.1828
   79SLPC  H11R 7280  -0.345   3.381   7.135 -0.5712 -0.1208  0.3965
   79SLPC  H11S 7281  -0.424   3.218   7.122 -0.4034  0.6963  2.3335
   79SLPC  C212 7282  -0.287   3.275   6.961  0.3595  0.4478 -0.2163
   79SLPC  H12R 7283  -0.272   3.172   6.926 -0.5222  0.6949 -1.3862
   79SLPC  C213 7284  -0.282   3.379   6.875  0.0908 -0.1349 -0.2677
   79SLPC  H13R 7285  -0.238   3.358   6.776  1.2685  0.6012  0.0792
   79SLPC  C214 7286  -0.301   3.532   6.903 -0.0460  1.0411  0.7847
   79SLPC  H14R 7287  -0.331   3.546   7.009 -0.5273  2.0703  0.5296
   79SLPC  H14S 7288  -0.382   3.574   6.838  0.8577 -0.6096 -1.5673
   79SLPC  C215 7289  -0.161   3.596   6.864 -0.1855  0.0263 -0.0736
   79SLPC  H15R 7290  -0.073   3.540   6.901 -1.4753 -0.0833  3.1021
   79SLPC  H15S 7291  -0.162   3.699   6.907  0.7574 -0.3570  0.8918
   79SLPC  C216 7292  -0.154   3.617   6.708  0.1475 -0.0965  0.2194
   79SLPC  H16R 7293  -0.238   3.678   6.670  2.0772 -0.0543 -4.7085
   79SLPC  H16S 7294  -0.149   3.515   6.665  1.0808  0.3067 -0.6795
   79SLPC  C217 7295  -0.022   3.681   6.666 -0.4427 -0.2070 -0.1555
   79SLPC  H17R 7296   0.061   3.624   6.712 -0.1481  1.3986  1.4408
   79SLPC  H17S 7297  -0.014   3.787   6.701 -1.3731  0.1103 -0.8669
   79SLPC  C218 7298  -0.011   3.669   6.518  0.1114 -0.2648 -0.2012
   79SLPC  H18R 7299   0.083   3.718   6.483  0.4903  0.6052  1.8559
   79SLPC  H18S 7300  -0.101   3.711   6.467 -1.2190  1.4093  3.2103
   79SLPC  H18T 7301  -0.009   3.561   6.491  1.2774 -0.3874  0.3268
   79SLPC   C33 7302  -0.554   3.501   7.620  0.7806  0.9960 -0.5856
   79SLPC   H3X 7303  -0.612   3.440   7.548  0.4985  0.9559 -0.3273
   79SLPC   H3Y 7304  -0.456   3.454   7.646  0.4795  1.0698  0.7342
   79SLPC   C34 7305  -0.534   3.636   7.563 -0.1330 -0.3618 -0.1679
   79SLPC   H4X 7306  -0.473   3.699   7.632 -3.5811  2.0232  1.0308
   79SLPC   H4Y 7307  -0.629   3.694   7.567 -0.5765 -1.1218  1.8715
   79SLPC   C35 7308  -0.486   3.635   7.420  0.3245 -0.8056  0.1443
   79SLPC   H5X 7309  -0.565   3.583   7.362 -1.4636  1.3148  0.5535
   79SLPC   H5Y 7310  -0.398   3.568   7.406  1.0516  0.6736 -3.3968
   79SLPC   C36 7311  -0.458   3.773   7.371 -0.9402 -0.5063  0.2496
   79SLPC   H6X 7312  -0.373   3.810   7.433  0.3709 -2.3332 -0.3654
   79SLPC   H6Y 7313  -0.540   3.844   7.398 -2.1908 -1.2817 -1.3924
   79SLPC   C37 7314  -0.429   3.791   7.220  0.0253  0.0691  0.0227
   79SLPC   H7X 7315  -0.517   3.756   7.162 -1.5520  1.5098  1.4316
   79SLPC   H7Y 7316  -0.334   3.746   7.185 -0.4312 -0.5259 -0.4657
   79SLPC   C38 7317  -0.425   3.933   7.169  1.4774 -0.4220  0.0839
   79SLPC   H8X 7318  -0.353   3.990   7.231  3.1251 -2.4516  0.1195
   79SLPC   H8Y 7319  -0.522   3.986   7.179  2.3313  1.4522 -0.9539
   79SLPC   C39 7320  -0.371   3.936   7.029  0.4487 -0.3384 -0.1946
   79SLPC   H9X 7321  -0.270   3.890   7.036 -0.6577 -2.8028  0.8413
   79SLPC   H9Y 7322  -0.358   4.045   7.015  0.7436 -0.2244  0.8842
   79SLPC  C310 7323  -0.462   3.867   6.928  0.7963  0.0862 -0.9461
   79SLPC  H10X 7324  -0.569   3.888   6.946  1.2729  0.2783  2.1348
   79SLPC  H10Y 7325  -0.437   3.759   6.938 -0.8782 -0.1098  2.0803
   79SLPC  C311 7326  -0.424   3.908   6.784  0.0522  0.1421  0.3259
   79SLPC  H11X 7327  -0.319   3.874   6.776  0.5838  1.1954  2.2511
   79SLPC  H11Y 7328  -0.416   4.017   6.764 -1.6612  0.0982 -0.8765
   79SLPC  C312 7329  -0.508   3.831   6.685  0.2334 -0.6224 -0.8260
   79SLPC  H12X 7330  -0.612   3.863   6.662  1.0862  1.4377 -2.1278
   79SLPC  H12Y 7331  -0.513   3.725   6.718 -0.3026 -0.3589 -0.0442
   79SLPC  C313 7332  -0.454   3.832   6.546  0.3461  0.6295  0.5765
   79SLPC  H13X 7333  -0.505   3.762   6.476 -0.1675  1.3765  0.1972
   79SLPC  H13Y 7334  -0.347   3.801   6.546 -0.1247 -1.2050  1.7492
   79SLPC  C314 7335  -0.459   3.967   6.483 -0.1157 -0.1969  0.0284
   79SLPC  H14X 7336  -0.397   4.039   6.540  0.7532 -1.3575  0.5827
   79SLPC  H14Y 7337  -0.562   4.009   6.484 -0.3536 -0.7473 -0.2861
   79SLPC  C315 7338  -0.433   3.960   6.333  0.3265 -0.5040 -0.3662
   79SLPC  H15X 7339  -0.505   3.889   6.285  1.4291 -0.5458 -2.0455
   79SLPC  H15Y 7340  -0.330   3.921   6.322  1.2502  1.7277 -0.0441
   79SLPC  C316 7341  -0.451   4.092   6.265 -1.0815  0.5295 -0.6745
   79SLPC  H16X 7342  -0.376   4.159   6.312 -3.0090  0.8235  2.1619
   79SLPC  H16Y 7343  -0.543   4.142   6.301  0.4873  2.6079  0.6864
   79SLPC  C317 7344  -0.436   4.087   6.106 -0.0628  0.7984 -0.1167
   79SLPC  H17X 7345  -0.462   4.188   6.066  1.2443  1.7320  1.2680
   79SLPC  H17Y 7346  -0.507   4.015   6.060  0.7884  0.2772 -0.6362
   79SLPC  C318 7347  -0.289   4.058   6.068 -1.3241 -0.1404  0.1939
   79SLPC  H18X 7348  -0.251   3.978   6.135 -0.6065  0.5299  0.5978
   79SLPC  H18Y 7349  -0.236   4.153   6.090  0.7100 -1.8266  3.2086
   79SLPC  H18Z 7350  -0.266   4.031   5.963 -1.7931 -0.2180  0.1060
   80SLPC     N 7351   3.722   1.387   8.209  0.3290  0.0189 -0.1494
   80SLPC   C13 7352   3.715   1.536   8.178 -0.9127 -0.6522  0.2345
   80SLPC  H13A 7353   3.648   1.592   8.242 -1.8876 -0.2720 -1.0656
   80SLPC  H13B 7354   3.815   1.574   8.191 -1.2262  0.8978 -1.3750
   80SLPC  H13C 7355   3.698   1.557   8.073 -0.8468  0.8857  0.5002
   80SLPC   C14 7356   3.807   1.329   8.099  0.1382  0.3572  0.1738
   80SLPC  H14A 7357   3.817   1.224   8.119 -2.6356 -0.1543 -0.6283
   80SLPC  H14B 7358   3.756   1.362   8.010 -0.4252  0.7983  0.6437
   80SLPC  H14C 7359   3.907   1.366   8.112 -0.1319  1.3812 -0.5032
   80SLPC   C15 7360   3.587   1.328   8.208  0.1489  0.0622 -0.4576
   80SLPC  H15A 7361   3.502   1.378   8.252  0.3524  0.9207 -0.9977
   80SLPC  H15B 7362   3.543   1.315   8.110 -2.0897  1.7061  0.2576
   80SLPC  H15C 7363   3.595   1.226   8.241 -0.6009  0.0929 -0.1779
   80SLPC   C12 7364   3.795   1.363   8.344 -0.3287  0.5530  0.8249
   80SLPC  H12A 7365   3.765   1.262   8.366 -0.0729 -0.1638 -1.7768
   80SLPC  H12B 7366   3.754   1.423   8.424 -0.7231  1.4036 -0.0049
   80SLPC   C11 7367   3.949   1.361   8.358 -0.4158  0.4069  0.4766
   80SLPC  H11A 7368   3.991   1.275   8.302 -0.8841 -0.2725  1.1506
   80SLPC  H11B 7369   3.972   1.346   8.466 -0.5574  0.8927  0.5784
   80SLPC     P 7370   4.161   1.507   8.315  0.3231 -0.0574 -0.0635
   80SLPC   O13 7371   4.201   1.651   8.305  0.0272  0.0433 -0.0361
   80SLPC   O14 7372   4.220   1.430   8.422  0.1663 -0.4271  0.2489
   80SLPC   O12 7373   4.001   1.485   8.319 -0.6326 -0.9356  0.0704
   80SLPC   O11 7374   4.202   1.449   8.178  0.0042 -0.1411 -0.6466
   80SLPC    C1 7375   4.285   1.333   8.178  0.0331 -0.2204  0.1639
   80SLPC    HA 7376   4.244   1.247   8.234  1.3459 -2.6965 -2.4244
   80SLPC    HB 7377   4.286   1.288   8.076  1.9743  1.2339 -0.5113
   80SLPC    C2 7378   4.439   1.369   8.212 -0.2920  0.5631  0.8382
   80SLPC    HS 7379   4.434   1.412   8.314  3.3488  0.0883  1.3517
   80SLPC   O21 7380   4.494   1.452   8.112 -0.3452  0.8234 -0.1675
   80SLPC   C21 7381   4.589   1.534   8.149  0.2370 -0.3823  0.2978
   80SLPC   O22 7382   4.622   1.558   8.266 -0.3685 -0.2419  0.7621
   80SLPC   C22 7383   4.652   1.601   8.019  0.2869 -0.2146 -0.7236
   80SLPC   H2R 7384   4.589   1.677   7.969 -0.1881 -0.0500  0.1001
   80SLPC   H2S 7385   4.737   1.649   8.072  0.2867 -2.6174  1.6812
   80SLPC    C3 7386   4.514   1.230   8.226 -0.3023 -0.2456  0.2239
   80SLPC    HX 7387   4.462   1.188   8.315 -0.6529  0.4824  0.3711
   80SLPC    HY 7388   4.615   1.255   8.264  0.9788 -1.9835 -1.8179
   80SLPC   O31 7389   4.501   1.140   8.109  0.1248  0.2189 -0.1733
   80SLPC   C31 7390   4.609   1.131   8.038 -0.6624  0.1026 -0.5748
   80SLPC   O32 7391   4.719   1.188   8.060  1.1276 -0.1145  0.1966
   80SLPC   C32 7392   4.583   1.061   7.904  0.0563  0.5501  0.2207
   80SLPC   H2X 7393   4.584   1.149   7.836 -1.7498  0.3097 -0.1786
   80SLPC   H2Y 7394   4.480   1.019   7.909  0.7522 -2.1072 -3.4104
   80SLPC   C23 7395   4.702   1.500   7.920  0.0935  0.8050 -0.3968
   80SLPC   H3R 7396   4.736   1.399   7.951  1.3930  1.0283 -1.0157
   80SLPC   H3S 7397   4.797   1.540   7.877  1.5826  0.2610  2.1707
   80SLPC   C24 7398   4.596   1.477   7.809  0.3916  0.9622 -0.4427
   80SLPC   H4R 7399   4.556   1.579   7.787  0.6942  1.2304  0.2100
   80SLPC   H4S 7400   4.513   1.409   7.840  1.8150 -1.0884 -0.9361
   80SLPC   C25 7401   4.653   1.433   7.678 -0.0865 -0.1396  0.5385
   80SLPC   H5R 7402   4.721   1.346   7.688 -0.8855 -0.7344  0.8898
   80SLPC   H5S 7403   4.720   1.518   7.655  1.7164 -0.6508  3.4378
   80SLPC   C26 7404   4.562   1.421   7.553  0.1790  0.0790 -0.3721
   80SLPC   H6R 7405   4.639   1.394   7.477 -0.1250 -0.4109 -0.5102
   80SLPC   H6S 7406   4.524   1.522   7.523  1.4216  0.3541 -1.0802
   80SLPC   C27 7407   4.451   1.324   7.575  0.4698  0.4761 -0.5342
   80SLPC   H7R 7408   4.393   1.374   7.654  1.5472 -2.1714  2.1375
   80SLPC   H7S 7409   4.491   1.236   7.631  1.1928  1.9664  1.4037
   80SLPC   C28 7410   4.355   1.304   7.454 -0.2056  0.3248  0.2159
   80SLPC   H8R 7411   4.336   1.406   7.415 -0.8120 -0.4652 -1.7195
   80SLPC   H8S 7412   4.261   1.247   7.472  1.4549 -1.9226  2.4338
   80SLPC   C29 7413   4.434   1.224   7.344 -0.4080 -0.5669  0.3082
   80SLPC   H9R 7414   4.488   1.140   7.389  1.4705  1.0519  1.2392
   80SLPC  C210 7415   4.464   1.260   7.214  0.0220  0.1117  0.3758
   80SLPC  H10R 7416   4.544   1.201   7.166  3.2268  2.2917  2.5653
   80SLPC  C211 7417   4.423   1.384   7.141  0.4362 -0.5372 -0.2250
   80SLPC  H11R 7418   4.339   1.440   7.189  0.8524 -1.4678  1.7078
   80SLPC  H11S 7419   4.382   1.357   7.042 -1.3673 -0.0295  0.3323
   80SLPC  C212 7420   4.530   1.488   7.124 -0.2305  0.8727  0.5777
   80SLPC  H12R 7421   4.582   1.507   7.219  1.8037  1.5666 -0.6195
   80SLPC  C213 7422   4.556   1.557   7.015 -0.9214 -0.3951  0.1078
   80SLPC  H13R 7423   4.640   1.628   7.021 -2.9813  2.5138 -2.1709
   80SLPC  C214 7424   4.506   1.530   6.874 -1.0791  0.1437 -0.7372
   80SLPC  H14R 7425   4.532   1.623   6.819  2.8496 -0.2876  0.0842
   80SLPC  H14S 7426   4.397   1.511   6.881 -1.2945  1.7293  1.0244
   80SLPC  C215 7427   4.572   1.410   6.811  0.6156 -0.2413  0.9686
   80SLPC  H15R 7428   4.550   1.318   6.869 -2.6557  1.1603  2.2380
   80SLPC  H15S 7429   4.682   1.419   6.797  0.7217 -2.5169 -0.1439
   80SLPC  C216 7430   4.508   1.378   6.674 -0.0123  0.4451  0.4093
   80SLPC  H16R 7431   4.473   1.474   6.631  0.3222  0.2451 -0.3458
   80SLPC  H16S 7432   4.412   1.327   6.693 -0.8209  1.3730 -0.9951
   80SLPC  C217 7433   4.599   1.311   6.571 -0.4591 -0.1507 -0.7678
   80SLPC  H17R 7434   4.595   1.207   6.610 -1.0169  0.1937  0.1200
   80SLPC  H17S 7435   4.707   1.334   6.578  0.4922 -2.6335 -4.3799
   80SLPC  C218 7436   4.565   1.334   6.422  0.2909 -0.3445 -0.6816
   80SLPC  H18R 7437   4.644   1.293   6.355  0.3282 -0.9975 -0.2468
   80SLPC  H18S 7438   4.549   1.443   6.406 -0.9645 -0.4469 -0.2625
   80SLPC  H18T 7439   4.469   1.288   6.389 -0.7776  1.2728  0.0124
   80SLPC   C33 7440   4.693   0.952   7.881  0.8291 -0.8476 -0.4700
   80SLPC   H3X 7441   4.657   0.868   7.817  0.1953 -0.8615 -0.1032
   80SLPC   H3Y 7442   4.711   0.905   7.980 -1.7055  1.9521  1.4839
   80SLPC   C34 7443   4.836   0.984   7.836 -0.0900  0.3507  0.0406
   80SLPC   H4X 7444   4.908   0.903   7.856 -1.5528 -0.7075  1.2623
   80SLPC   H4Y 7445   4.869   1.069   7.899  0.1063 -0.6007  1.2584
   80SLPC   C35 7446   4.846   1.023   7.691  0.0230  0.1194 -0.1697
   80SLPC   H5X 7447   4.954   1.041   7.673  0.1406  0.6345  0.9372
   80SLPC   H5Y 7448   4.802   1.123   7.672  0.6746  0.3943 -0.2687
   80SLPC   C36 7449   4.801   0.922   7.592  0.1222  0.1976 -0.3189
   80SLPC   H6X 7450   4.690   0.919   7.597  0.1421  0.4499  3.0224
   80SLPC   H6Y 7451   4.829   0.823   7.635 -1.0567 -0.2921 -0.6397
   80SLPC   C37 7452   4.852   0.945   7.447 -0.0990 -0.5118  0.2700
   80SLPC   H7X 7453   4.820   0.867   7.375 -2.4299 -0.2299  0.9439
   80SLPC   H7Y 7454   4.962   0.954   7.462  0.0378 -1.6090  0.0174
   80SLPC   C38 7455   4.804   1.082   7.384  0.3890  0.4529 -0.2031
   80SLPC   H8X 7456   4.852   1.160   7.446  2.7803 -1.2820  0.2871
   80SLPC   H8Y 7457   4.696   1.081   7.410  0.8973  3.9829  2.9120
   80SLPC   C39 7458   4.843   1.108   7.237  0.3708  0.0661  0.1568
   80SLPC   H9X 7459   4.953   1.100   7.224  0.4190 -1.2630  1.2049
   80SLPC   H9Y 7460   4.803   1.210   7.214  1.1041 -0.0245 -1.6261
   80SLPC  C310 7461   4.769   1.018   7.139 -0.1243 -0.7107 -0.0512
   80SLPC  H10X 7462   4.659   1.023   7.152 -0.2109  0.6321 -1.1318
   80SLPC  H10Y 7463   4.797   0.912   7.157 -0.3384 -0.5416  1.3908
   80SLPC  C311 7464   4.826   1.045   6.998  0.0411  0.0469 -0.1679
   80SLPC  H11X 7465   4.935   1.023   6.993  1.0034  3.6717  1.4446
   80SLPC  H11Y 7466   4.831   1.150   6.961  1.6835 -0.2843 -1.0267
   80SLPC  C312 7467   4.759   0.946   6.899  0.1128 -0.1378 -0.3638
   80SLPC  H12X 7468   4.650   0.945   6.921  0.3207 -0.1512  0.7139
   80SLPC  H12Y 7469   4.800   0.843   6.907  1.9413  0.6166  0.4149
   80SLPC  C313 7470   4.775   0.994   6.753 -0.1150  0.5487  0.3032
   80SLPC  H13X 7471   4.868   1.052   6.735  0.6891 -0.2270  1.7670
   80SLPC  H13Y 7472   4.687   1.060   6.736 -0.7995 -0.6846 -1.1780
   80SLPC  C314 7473   4.767   0.890   6.644 -0.2894  0.2815  0.5888
   80SLPC  H14X 7474   4.676   0.826   6.652  1.8433 -2.7989  2.0841
   80SLPC  H14Y 7475   4.856   0.829   6.668 -0.4912 -0.9332 -1.4725
   80SLPC  C315 7476   4.779   0.945   6.505 -0.1867 -0.1364 -0.1713
   80SLPC  H15X 7477   4.883   0.984   6.495 -1.2966  3.1941  0.3416
   80SLPC  H15Y 7478   4.719   1.038   6.497  1.8633  1.1753 -1.0781
   80SLPC  C316 7479   4.761   0.850   6.390 -0.4203 -0.0712 -0.2000
   80SLPC  H16X 7480   4.655   0.817   6.381 -0.5499  0.2909 -0.0377
   80SLPC  H16Y 7481   4.834   0.767   6.400 -0.1400 -0.3320 -3.4642
   80SLPC  C317 7482   4.806   0.918   6.253 -0.2486 -0.4355  0.2707
   80SLPC  H17X 7483   4.914   0.947   6.259 -0.3297 -0.1237  0.2601
   80SLPC  H17Y 7484   4.738   1.006   6.244 -0.9125 -0.9835 -0.1319
   80SLPC  C318 7485   4.795   0.825   6.132  0.2005 -0.1644  0.2280
   80SLPC  H18X 7486   4.696   0.775   6.148  0.4064 -1.6225 -2.3746
   80SLPC  H18Y 7487   4.886   0.761   6.138  0.4139  0.1132 -0.0215
   80SLPC  H18Z 7488   4.795   0.873   6.032 -1.1400  1.2222  0.8634
   81SLPC     N 7489   0.283   1.622   3.833 -0.0486  0.5437 -0.5800
   81SLPC   C13 7490   0.194   1.699   3.739 -0.8342 -0.1658  0.4092
   81SLPC  H13A 7491   0.237   1.796   3.717 -0.5992 -0.3578  0.0246
   81SLPC  H13B 7492   0.181   1.659   3.640  1.2163 -1.6806  0.6927
   81SLPC  H13C 7493   0.097   1.721   3.781 -1.2641  0.7705 -1.0027
   81SLPC   C14 7494   0.419   1.587   3.782  0.1907 -0.2642  0.1344
   81SLPC  H14A 7495   0.475   1.520   3.847  0.6697  1.8278  1.9924
   81SLPC  H14B 7496   0.417   1.542   3.684 -0.7522 -2.8346  1.2393
   81SLPC  H14C 7497   0.473   1.679   3.772  1.4067 -1.0594 -0.9558
   81SLPC   C15 7498   0.203   1.494   3.850  0.2854 -0.0275 -0.6228
   81SLPC  H15A 7499   0.098   1.512   3.870  0.1145 -1.4087 -0.2023
   81SLPC  H15B 7500   0.205   1.432   3.762 -1.1690 -3.5769  1.6359
   81SLPC  H15C 7501   0.248   1.432   3.925 -0.4623 -3.2885 -2.6910
   81SLPC   C12 7502   0.292   1.689   3.969 -0.2222 -0.6039  0.1978
   81SLPC  H12A 7503   0.361   1.632   4.029  2.3775 -0.2706 -2.2185
   81SLPC  H12B 7504   0.199   1.697   4.022 -0.1575 -2.2145  0.6109
   81SLPC   C11 7505   0.352   1.831   3.965 -0.4388  0.6745  0.1042
   81SLPC  H11A 7506   0.452   1.812   3.920 -1.2202 -0.5641 -1.2059
   81SLPC  H11B 7507   0.368   1.865   4.069 -0.0240  1.2531 -0.1460
   81SLPC     P 7508   0.152   1.989   3.910  0.1468  0.4689 -0.0181
   81SLPC   O13 7509   0.161   2.119   3.975 -0.8101 -0.2141  0.4407
   81SLPC   O14 7510   0.084   1.994   3.779 -0.1178  0.1735  0.2188
   81SLPC   O12 7511   0.299   1.935   3.886  0.0517  0.5897  0.7581
   81SLPC   O11 7512   0.097   1.879   4.007  0.2282 -0.1674  0.5864
   81SLPC    C1 7513   0.058   1.908   4.140 -0.3988  0.0740 -0.4981
   81SLPC    HA 7514   0.135   1.970   4.191 -2.2774  0.8951  1.5475
   81SLPC    HB 7515  -0.034   1.969   4.131  1.4078  3.3183  0.9573
   81SLPC    C2 7516   0.020   1.779   4.210 -0.0868  0.4365 -0.0776
   81SLPC    HS 7517  -0.033   1.783   4.308  0.6337 -2.7940  0.5759
   81SLPC   O21 7518   0.139   1.705   4.236 -0.3458  0.6453 -0.0929
   81SLPC   C21 7519   0.202   1.752   4.347  0.1427  0.0633  0.1264
   81SLPC   O22 7520   0.164   1.849   4.409  0.4182 -0.2275  0.3500
   81SLPC   C22 7521   0.317   1.653   4.378 -0.0162 -0.0060 -0.2385
   81SLPC   H2R 7522   0.281   1.547   4.378 -1.1846  0.3777 -0.4546
   81SLPC   H2S 7523   0.389   1.663   4.293 -0.7106  0.4198 -0.7856
   81SLPC    C3 7524  -0.079   1.695   4.122  1.3426 -0.0523  1.1075
   81SLPC    HX 7525  -0.040   1.674   4.020 -0.2347 -0.5828  0.5861
   81SLPC    HY 7526  -0.162   1.759   4.085  0.5040 -1.5716  0.2611
   81SLPC   O31 7527  -0.129   1.582   4.195  0.2310  0.7678  0.1399
   81SLPC   C31 7528  -0.069   1.468   4.173  0.6848 -0.1554  0.5705
   81SLPC   O32 7529   0.012   1.447   4.085 -0.1805  0.0205  0.0259
   81SLPC   C32 7530  -0.143   1.362   4.264 -0.0713 -0.2059 -1.0611
   81SLPC   H2X 7531  -0.207   1.290   4.209  0.2375 -2.1021  0.9524
   81SLPC   H2Y 7532  -0.208   1.413   4.339  1.5789 -2.0224  1.7906
   81SLPC   C23 7533   0.383   1.668   4.516 -0.3400 -0.2675  0.3184
   81SLPC   H3R 7534   0.422   1.772   4.525 -1.5660  0.3299 -0.8774
   81SLPC   H3S 7535   0.465   1.593   4.516  1.0635  1.2038  0.0844
   81SLPC   C24 7536   0.295   1.633   4.634 -0.1232  0.1354  0.6720
   81SLPC   H4R 7537   0.264   1.526   4.630  0.7802 -0.0850 -1.2050
   81SLPC   H4S 7538   0.201   1.692   4.624  0.3180  1.1264  2.1203
   81SLPC   C25 7539   0.360   1.651   4.771  0.1048  0.4951  0.7191
   81SLPC   H5R 7540   0.410   1.750   4.769 -0.1042  0.5962 -0.9457
   81SLPC   H5S 7541   0.437   1.572   4.786  0.0653  0.8185  3.1471
   81SLPC   C26 7542   0.258   1.657   4.884 -0.2459 -0.4628  0.1523
   81SLPC   H6R 7543   0.200   1.563   4.882  0.2548 -0.7992  1.1621
   81SLPC   H6S 7544   0.184   1.737   4.863  0.1163 -0.3417 -0.7276
   81SLPC   C27 7545   0.328   1.683   5.020 -0.5317  0.4219 -0.3982
   81SLPC   H7R 7546   0.390   1.773   4.999  0.1249  0.1637  0.3973
   81SLPC   H7S 7547   0.394   1.603   5.061 -1.4406  0.1894  0.6537
   81SLPC   C28 7548   0.220   1.709   5.135 -0.1112  0.0775 -0.0080
   81SLPC   H8R 7549   0.174   1.617   5.176 -0.5134  0.4205  0.3223
   81SLPC   H8S 7550   0.141   1.776   5.096 -1.1244  0.3883  2.4104
   81SLPC   C29 7551   0.282   1.795   5.240 -0.2407  1.0247  0.3784
   81SLPC   H9R 7552   0.362   1.859   5.200 -0.0355  1.2646  1.1492
   81SLPC  C210 7553   0.244   1.810   5.369  0.1469 -0.1528  0.3597
   81SLPC  H10R 7554   0.297   1.881   5.433  5.1158 -2.4998 -0.6642
   81SLPC  C211 7555   0.147   1.719   5.444  0.3219 -0.0378  0.1701
   81SLPC  H11R 7556   0.118   1.628   5.388  0.7062  0.0952 -0.2454
   81SLPC  H11S 7557   0.047   1.769   5.451 -0.3191 -1.4982  2.5774
   81SLPC  C212 7558   0.196   1.675   5.580 -0.0317  0.1170 -0.5023
   81SLPC  H12R 7559   0.266   1.591   5.568  2.4054  2.1867 -1.5839
   81SLPC  C213 7560   0.173   1.724   5.706 -0.4679 -0.2723 -0.4444
   81SLPC  H13R 7561   0.228   1.689   5.795 -2.0338  0.5016  0.8726
   81SLPC  C214 7562   0.085   1.845   5.731 -0.4316 -0.1971 -0.3920
   81SLPC  H14R 7563   0.021   1.872   5.645  0.2657  0.4576 -0.7173
   81SLPC  H14S 7564   0.145   1.938   5.742  0.8639 -0.9203 -1.0815
   81SLPC  C215 7565  -0.001   1.827   5.854  0.0578  0.3828 -0.3074
   81SLPC  H15R 7566  -0.049   1.726   5.850  0.6056  0.1571 -1.8885
   81SLPC  H15S 7567  -0.086   1.899   5.856 -0.3021  0.5818 -6.1404
   81SLPC  C216 7568   0.078   1.834   5.986 -0.2310 -0.6401  0.0083
   81SLPC  H16R 7569   0.180   1.792   5.972  0.0670  0.4924 -1.5693
   81SLPC  H16S 7570   0.031   1.781   6.071 -1.8830  0.8147  0.0514
   81SLPC  C217 7571   0.110   1.984   6.030  0.4624 -0.2780  0.0970
   81SLPC  H17R 7572   0.187   2.023   5.960  0.3169 -0.0445  0.0661
   81SLPC  H17S 7573   0.160   1.981   6.129 -0.6982  0.2773  0.7154
   81SLPC  C218 7574  -0.006   2.082   6.052 -0.1313 -0.6218  0.0092
   81SLPC  H18R 7575  -0.062   2.107   5.959  0.6929 -4.0055 -1.5334
   81SLPC  H18S 7576   0.036   2.178   6.090 -3.3568  1.1824 -0.5769
   81SLPC  H18T 7577  -0.078   2.043   6.127  0.3009 -1.2976  0.0728
   81SLPC   C33 7578  -0.040   1.276   4.346 -0.3096  0.2894 -0.0133
   81SLPC   H3X 7579   0.045   1.244   4.281  0.2932 -0.1799  0.9797
   81SLPC   H3Y 7580  -0.100   1.190   4.383  1.4937 -0.8363  0.4533
   81SLPC   C34 7581   0.014   1.361   4.468 -0.0112 -0.7486 -0.0470
   81SLPC   H4X 7582   0.063   1.454   4.433  0.7753 -0.8601  0.7343
   81SLPC   H4Y 7583   0.100   1.316   4.521 -0.0276 -0.6598  0.0556
   81SLPC   C35 7584  -0.085   1.388   4.577 -0.1290 -0.0056  0.2035
   81SLPC   H5X 7585  -0.150   1.301   4.601 -0.1247 -0.1766 -0.4081
   81SLPC   H5Y 7586  -0.166   1.454   4.541  0.0606  0.3630  0.4434
   81SLPC   C36 7587  -0.033   1.462   4.701  0.3155  0.5373 -0.3033
   81SLPC   H6X 7588   0.006   1.560   4.665  2.0851 -0.3686 -0.9916
   81SLPC   H6Y 7589   0.051   1.406   4.747  0.3722  0.4970 -0.4558
   81SLPC   C37 7590  -0.143   1.482   4.807 -0.7106 -0.1225  0.8181
   81SLPC   H7X 7591  -0.199   1.386   4.811  2.1777 -2.0179 -0.8293
   81SLPC   H7Y 7592  -0.206   1.567   4.773 -1.3404 -1.1617 -0.6671
   81SLPC   C38 7593  -0.082   1.503   4.946  0.4237 -0.2513 -0.2316
   81SLPC   H8X 7594  -0.022   1.596   4.944  2.1165 -1.3016  0.0221
   81SLPC   H8Y 7595  -0.025   1.415   4.982  1.6376  0.2639 -0.8528
   81SLPC   C39 7596  -0.190   1.526   5.050  0.1703 -0.1540 -0.1083
   81SLPC   H9X 7597  -0.242   1.428   5.063  0.0273  0.1120  1.6219
   81SLPC   H9Y 7598  -0.274   1.591   5.015  0.6992  0.4223 -0.3174
   81SLPC  C310 7599  -0.151   1.577   5.189 -0.6739  0.2668  0.6349
   81SLPC  H10X 7600  -0.144   1.687   5.203 -3.9534  0.4722  1.4976
   81SLPC  H10Y 7601  -0.046   1.542   5.202 -0.9111 -1.1642 -0.8306
   81SLPC  C311 7602  -0.232   1.508   5.298 -0.6244 -0.0081 -0.4489
   81SLPC  H11X 7603  -0.197   1.559   5.390  0.3800  0.4778 -1.0877
   81SLPC  H11Y 7604  -0.214   1.398   5.304 -4.2028 -0.7092 -0.1629
   81SLPC  C312 7605  -0.386   1.529   5.291 -0.9322 -0.1771 -0.1495
   81SLPC  H12X 7606  -0.420   1.506   5.188 -1.0028  0.5795 -0.3033
   81SLPC  H12Y 7607  -0.406   1.637   5.310 -0.3679 -0.1881  0.5656
   81SLPC  C313 7608  -0.452   1.434   5.385  0.1158 -0.1995  0.1018
   81SLPC  H13X 7609  -0.390   1.439   5.477 -1.0527  0.8097  0.8673
   81SLPC  H13Y 7610  -0.460   1.327   5.357  2.1999 -1.7850  4.6236
   81SLPC  C314 7611  -0.597   1.484   5.423 -0.3376 -0.5430  1.0266
   81SLPC  H14X 7612  -0.661   1.482   5.332 -0.0482  0.0958  0.7997
   81SLPC  H14Y 7613  -0.586   1.591   5.452  0.4235 -0.5708  0.8642
   81SLPC  C315 7614  -0.676   1.410   5.531 -0.5295 -0.5245  0.2396
   81SLPC  H15X 7615  -0.692   1.304   5.503  0.2970 -0.5024 -0.3713
   81SLPC  H15Y 7616  -0.771   1.466   5.541  0.5758  1.5048  0.0769
   81SLPC  C316 7617  -0.603   1.432   5.667 -0.4277  0.4888  1.1041
   81SLPC  H16X 7618  -0.598   1.542   5.681 -0.9540  0.4485  1.6570
   81SLPC  H16Y 7619  -0.504   1.381   5.656 -0.3448  1.1116 -2.0715
   81SLPC  C317 7620  -0.673   1.373   5.784 -0.1387 -0.0084  0.1397
   81SLPC  H17X 7621  -0.715   1.277   5.745  2.0652 -1.0664  0.2348
   81SLPC  H17Y 7622  -0.749   1.438   5.832  0.1183 -1.7943  3.3042
   81SLPC  C318 7623  -0.578   1.319   5.893 -0.3412 -0.1236  0.8239
   81SLPC  H18X 7624  -0.507   1.245   5.850 -0.2568 -0.7495  1.9954
   81SLPC  H18Y 7625  -0.630   1.263   5.973 -2.0849  1.7511  1.0781
   81SLPC  H18Z 7626  -0.528   1.395   5.956  0.2533  0.1848  0.0020
   82SLPC     N 7627   2.579   0.679   3.770 -0.1712 -0.7999  0.0029
   82SLPC   C13 7628   2.511   0.569   3.709 -0.3756  0.1540 -0.7136
   82SLPC  H13A 7629   2.419   0.601   3.663 -0.7933  1.8619  1.1450
   82SLPC  H13B 7630   2.579   0.516   3.644  0.0014  1.4125 -1.3898
   82SLPC  H13C 7631   2.480   0.502   3.787  0.4141 -0.5718 -1.0090
   82SLPC   C14 7632   2.488   0.756   3.860  0.1416 -1.0198 -0.0487
   82SLPC  H14A 7633   2.535   0.843   3.904  0.3094 -1.3618  0.4544
   82SLPC  H14B 7634   2.406   0.792   3.800 -0.5414 -1.5940  0.5349
   82SLPC  H14C 7635   2.458   0.690   3.940 -3.1292  0.5888  0.2102
   82SLPC   C15 7636   2.632   0.778   3.671 -0.2318 -0.5082 -0.1059
   82SLPC  H15A 7637   2.681   0.859   3.724  0.6999 -0.2132 -1.3912
   82SLPC  H15B 7638   2.687   0.722   3.598 -1.1361 -0.9231 -0.4920
   82SLPC  H15C 7639   2.552   0.821   3.613  0.4585 -0.2732 -0.8983
   82SLPC   C12 7640   2.697   0.639   3.861  0.6747 -0.4863  0.1855
   82SLPC  H12A 7641   2.742   0.733   3.888 -0.4245 -0.5373  2.4501
   82SLPC  H12B 7642   2.765   0.591   3.792  0.5487  0.8064 -0.8749
   82SLPC   C11 7643   2.673   0.561   3.990 -0.3909  0.0247 -0.2338
   82SLPC  H11A 7644   2.609   0.618   4.061  1.6327 -0.7204  2.3411
   82SLPC  H11B 7645   2.769   0.541   4.043 -1.1370  0.3371  1.2730
   82SLPC     P 7646   2.527   0.368   4.069 -0.3472  0.5362 -0.2639
   82SLPC   O13 7647   2.394   0.407   4.026  0.3510 -0.8500 -0.1665
   82SLPC   O14 7648   2.553   0.227   4.092  0.3802 -1.0259 -0.6487
   82SLPC   O12 7649   2.627   0.424   3.960 -0.4314 -0.3907  0.2576
   82SLPC   O11 7650   2.579   0.443   4.191 -0.0372 -0.1359 -0.1460
   82SLPC    C1 7651   2.491   0.480   4.301  0.2736 -0.3444 -0.1835
   82SLPC    HA 7652   2.481   0.590   4.297 -1.8130 -0.4063  1.8696
   82SLPC    HB 7653   2.397   0.423   4.318  0.7897 -0.9595  0.6963
   82SLPC    C2 7654   2.577   0.476   4.429 -0.6464  0.1953  0.6652
   82SLPC    HS 7655   2.628   0.377   4.430 -1.1241 -0.0519  1.2483
   82SLPC   O21 7656   2.488   0.507   4.542 -0.2774 -0.3136 -0.7086
   82SLPC   C21 7657   2.415   0.402   4.563  0.3996 -0.1382  0.4229
   82SLPC   O22 7658   2.431   0.291   4.527 -0.5264  0.6186 -0.4788
   82SLPC   C22 7659   2.309   0.429   4.672  0.0302 -0.4763 -0.2401
   82SLPC   H2R 7660   2.353   0.465   4.768  0.7042 -0.4708 -0.5452
   82SLPC   H2S 7661   2.244   0.510   4.632 -0.3743 -1.0780 -0.8136
   82SLPC    C3 7662   2.684   0.584   4.421 -0.7872 -0.5112  0.3011
   82SLPC    HX 7663   2.636   0.681   4.446  0.1147 -0.0026  0.1008
   82SLPC    HY 7664   2.727   0.600   4.320 -1.4826 -1.7058 -0.2069
   82SLPC   O31 7665   2.789   0.551   4.516  0.6866  0.6156  0.0402
   82SLPC   C31 7666   2.912   0.606   4.508 -0.0056  0.5308  0.0633
   82SLPC   O32 7667   2.952   0.679   4.417 -0.0751  0.8616  0.4310
   82SLPC   C32 7668   2.980   0.561   4.635  0.4526  0.1257 -0.0906
   82SLPC   H2X 7669   3.064   0.632   4.652 -1.1735  1.9815  0.5488
   82SLPC   H2Y 7670   3.024   0.464   4.603 -1.4606 -0.6301 -0.5479
   82SLPC   C23 7671   2.234   0.303   4.710  0.3456  0.6025 -0.0630
   82SLPC   H3R 7672   2.308   0.221   4.724  0.9513  1.1563  0.0208
   82SLPC   H3S 7673   2.165   0.287   4.625 -0.1159  0.4249  0.3442
   82SLPC   C24 7674   2.151   0.311   4.844  0.1361 -1.0627 -0.3384
   82SLPC   H4R 7675   2.213   0.309   4.937 -0.2291 -0.7168 -0.0858
   82SLPC   H4S 7676   2.087   0.221   4.858  0.3099 -0.8242  2.6302
   82SLPC   C25 7677   2.064   0.439   4.871  0.3374 -0.8773  0.2854
   82SLPC   H5R 7678   1.975   0.435   4.804  1.0088 -1.1412 -0.6019
   82SLPC   H5S 7679   2.133   0.523   4.850  2.4260 -2.7305 -0.6453
   82SLPC   C26 7680   2.004   0.468   5.008  0.6009  0.4365  0.6392
   82SLPC   H6R 7681   1.961   0.570   5.008  0.9865  0.6273 -0.8302
   82SLPC   H6S 7682   2.095   0.462   5.072  1.7888 -0.4691 -1.0541
   82SLPC   C27 7683   1.907   0.356   5.056 -0.6565 -0.1834 -0.5618
   82SLPC   H7R 7684   1.950   0.295   5.138 -2.6362 -0.0980  0.6157
   82SLPC   H7S 7685   1.873   0.293   4.971 -0.3549 -2.0840  0.6618
   82SLPC   C28 7686   1.781   0.414   5.116 -0.6654  1.1226 -0.0415
   82SLPC   H8R 7687   1.732   0.322   5.153  0.6425  0.1979 -0.5525
   82SLPC   H8S 7688   1.732   0.454   5.024 -1.4137 -1.1446 -0.7059
   82SLPC   C29 7689   1.797   0.509   5.228 -0.2419 -0.7382  0.1181
   82SLPC   H9R 7690   1.851   0.604   5.213 -1.5430 -0.1496 -1.1227
   82SLPC  C210 7691   1.731   0.500   5.343  0.1971  0.5131  0.2877
   82SLPC  H10R 7692   1.733   0.588   5.409  1.5443  0.3062  0.5522
   82SLPC  C211 7693   1.637   0.391   5.390 -0.4056  0.4816 -0.9946
   82SLPC  H11R 7694   1.576   0.349   5.307 -1.3878 -0.8223  0.3127
   82SLPC  H11S 7695   1.564   0.431   5.463  1.0902 -0.4783  1.1353
   82SLPC  C212 7696   1.726   0.271   5.444 -0.1427 -0.6062 -0.6190
   82SLPC  H12R 7697   1.805   0.236   5.375 -0.2607 -1.0935 -0.5154
   82SLPC  C213 7698   1.734   0.221   5.565  0.3030  0.3028 -0.0124
   82SLPC  H13R 7699   1.809   0.146   5.594 -0.3213  0.4443  2.1773
   82SLPC  C214 7700   1.644   0.256   5.678  0.0248  0.0782 -0.4409
   82SLPC  H14R 7701   1.611   0.171   5.742 -1.2661  0.4304 -0.5984
   82SLPC  H14S 7702   1.552   0.309   5.646  0.0574 -0.3086 -1.1974
   82SLPC  C215 7703   1.719   0.341   5.774 -0.5038  0.2904 -0.0405
   82SLPC  H15R 7704   1.756   0.433   5.723  1.4488 -0.6703 -0.4813
   82SLPC  H15S 7705   1.812   0.284   5.799  0.7686 -0.7251 -5.6229
   82SLPC  C216 7706   1.659   0.380   5.905  0.2871 -0.2124 -0.1987
   82SLPC  H16R 7707   1.728   0.443   5.966  0.3036 -0.2375 -0.1914
   82SLPC  H16S 7708   1.623   0.296   5.968 -2.3237  0.0169 -1.2316
   82SLPC  C217 7709   1.532   0.478   5.893  0.1992  0.1164  0.3110
   82SLPC  H17R 7710   1.479   0.481   5.990 -1.9775 -2.4264 -0.6546
   82SLPC  H17S 7711   1.459   0.435   5.821  0.2072  1.2652 -0.4062
   82SLPC  C218 7712   1.559   0.622   5.837 -0.6553 -0.5524  0.2430
   82SLPC  H18R 7713   1.482   0.692   5.875  0.6321  1.0167  0.0358
   82SLPC  H18S 7714   1.567   0.623   5.727 -0.1551 -0.4265  0.2789
   82SLPC  H18T 7715   1.656   0.655   5.880 -0.7682 -1.2411  1.0721
   82SLPC   C33 7716   2.888   0.540   4.754 -0.2076  0.0178  0.0200
   82SLPC   H3X 7717   2.942   0.503   4.844 -0.6946 -2.7453 -0.7365
   82SLPC   H3Y 7718   2.808   0.468   4.729  1.1000 -1.0956 -1.1217
   82SLPC   C34 7719   2.817   0.668   4.808 -0.6998  0.3863  0.0384
   82SLPC   H4X 7720   2.738   0.703   4.738  0.6946  3.0891 -0.3474
   82SLPC   H4Y 7721   2.885   0.755   4.826  0.2275 -0.5260  1.0499
   82SLPC   C35 7722   2.758   0.645   4.946 -0.1660  0.3183 -0.1560
   82SLPC   H5X 7723   2.746   0.732   5.014 -0.1797 -1.3725  2.1406
   82SLPC   H5Y 7724   2.816   0.564   4.995 -0.3106 -0.6243 -1.5066
   82SLPC   C36 7725   2.616   0.593   4.942 -0.0925 -0.7815  0.5725
   82SLPC   H6X 7726   2.637   0.499   4.887  3.2765  0.2448 -0.1440
   82SLPC   H6Y 7727   2.544   0.659   4.888 -0.0530  0.2653  1.7425
   82SLPC   C37 7728   2.568   0.553   5.088  0.3269 -0.8293  0.5365
   82SLPC   H7X 7729   2.517   0.641   5.133 -1.0429 -1.7695  0.8994
   82SLPC   H7Y 7730   2.654   0.520   5.149  1.7167  1.7627  0.1182
   82SLPC   C38 7731   2.456   0.444   5.089  0.4374 -0.7608  0.8781
   82SLPC   H8X 7732   2.494   0.353   5.039  2.9754  1.1148 -0.8328
   82SLPC   H8Y 7733   2.364   0.486   5.043  1.0535  0.0096  0.3380
   82SLPC   C39 7734   2.420   0.409   5.229  0.3432  0.6834  0.1686
   82SLPC   H9X 7735   2.388   0.505   5.274 -0.1169  1.0846 -0.9676
   82SLPC   H9Y 7736   2.507   0.363   5.280 -1.4616 -1.4335  1.5414
   82SLPC  C310 7737   2.308   0.306   5.241 -0.2656  0.6723 -0.2445
   82SLPC  H10X 7738   2.344   0.208   5.203  3.2094  2.0350 -0.8294
   82SLPC  H10Y 7739   2.219   0.336   5.180  0.9113  0.3786 -2.1945
   82SLPC  C311 7740   2.262   0.280   5.388  0.2398 -0.0209 -0.1589
   82SLPC  H11X 7741   2.348   0.273   5.458 -0.3725  1.5709  0.8044
   82SLPC  H11Y 7742   2.210   0.182   5.389 -1.5760  0.8967  1.7117
   82SLPC  C312 7743   2.170   0.381   5.456 -0.7065  0.7441 -0.3877
   82SLPC  H12X 7744   2.077   0.399   5.398 -1.4966 -2.2130 -0.2118
   82SLPC  H12Y 7745   2.229   0.474   5.459  0.3109  0.1871 -2.1621
   82SLPC  C313 7746   2.126   0.350   5.598 -0.2426 -0.1118 -0.2484
   82SLPC  H13X 7747   2.087   0.247   5.593 -2.4547  0.7279 -2.3757
   82SLPC  H13Y 7748   2.050   0.425   5.628 -0.4039 -0.3024 -0.1843
   82SLPC  C314 7749   2.238   0.356   5.698  0.1226 -0.5119 -0.1786
   82SLPC  H14X 7750   2.273   0.461   5.689  2.6331 -1.3945 -1.6963
   82SLPC  H14Y 7751   2.324   0.286   5.691  0.6716  0.0647  0.5617
   82SLPC  C315 7752   2.188   0.322   5.843 -0.6679  0.3206 -0.2208
   82SLPC  H15X 7753   2.121   0.400   5.885  0.8754 -0.0790  3.3617
   82SLPC  H15Y 7754   2.281   0.325   5.903 -1.1028 -0.6807  0.5287
   82SLPC  C316 7755   2.121   0.180   5.865  0.5024 -0.0654 -0.5016
   82SLPC  H16X 7756   2.207   0.112   5.846  0.8139  0.1961 -0.0474
   82SLPC  H16Y 7757   2.040   0.160   5.791  0.4452 -3.0760  0.2446
   82SLPC  C317 7758   2.078   0.167   6.012 -0.6031  0.1707 -0.7358
   82SLPC  H17X 7759   2.030   0.069   6.034 -1.5031  1.0531  1.5642
   82SLPC  H17Y 7760   1.998   0.242   6.030 -1.3991 -0.9680  0.6661
   82SLPC  C318 7761   2.197   0.202   6.114 -0.2323  0.5551  0.3470
   82SLPC  H18X 7762   2.166   0.179   6.219  0.5717 -0.9207  0.2816
   82SLPC  H18Y 7763   2.214   0.311   6.103  0.5906  0.3141 -0.9787
   82SLPC  H18Z 7764   2.289   0.144   6.090  0.3116  0.9042  1.4956
   83SLPC     N 7765   0.580   5.801   3.373  0.2185  0.2669 -0.5850
   83SLPC   C13 7766   0.462   5.866   3.429  0.2253 -0.0171 -0.1929
   83SLPC  H13A 7767   0.474   5.877   3.536  0.0367  0.7732 -0.2519
   83SLPC  H13B 7768   0.442   5.964   3.389  2.3420  0.3916 -0.3463
   83SLPC  H13C 7769   0.376   5.801   3.417  0.6076 -1.4182  3.4626
   83SLPC   C14 7770   0.703   5.883   3.411  0.6649  0.3323 -0.1014
   83SLPC  H14A 7771   0.790   5.851   3.356  0.0835 -0.7995 -0.4080
   83SLPC  H14B 7772   0.694   5.987   3.385  1.5060  0.1543 -1.1767
   83SLPC  H14C 7773   0.727   5.880   3.516  3.7311  3.2931 -0.5672
   83SLPC   C15 7774   0.568   5.812   3.224 -0.2123  0.2849  0.6519
   83SLPC  H15A 7775   0.547   5.913   3.193 -1.3748 -0.8035 -2.4915
   83SLPC  H15B 7776   0.666   5.803   3.179 -0.1420  3.2268  0.0666
   83SLPC  H15C 7777   0.491   5.749   3.181  0.2130  1.1751 -1.5709
   83SLPC   C12 7778   0.585   5.650   3.410  0.5527 -0.8017  0.7055
   83SLPC  H12A 7779   0.608   5.643   3.515  1.6483 -3.2534  0.3676
   83SLPC  H12B 7780   0.663   5.601   3.353 -1.1674 -0.2760 -2.2899
   83SLPC   C11 7781   0.460   5.565   3.383 -0.0290  0.1544 -0.3474
   83SLPC  H11A 7782   0.498   5.461   3.372  0.2557  0.3806 -1.6516
   83SLPC  H11B 7783   0.427   5.579   3.278  1.2842  3.6564 -0.4253
   83SLPC     P 7784   0.337   5.512   3.607 -0.1618 -0.0922  0.1480
   83SLPC   O13 7785   0.347   5.369   3.571 -0.1054  0.1316  0.4571
   83SLPC   O14 7786   0.449   5.553   3.695  0.1686 -0.2675  0.1243
   83SLPC   O12 7787   0.347   5.589   3.468 -0.1737 -0.2268 -0.2948
   83SLPC   O11 7788   0.198   5.554   3.671 -0.1639 -0.2636  0.0342
   83SLPC    C1 7789   0.147   5.693   3.674  0.1676  0.7249  0.0503
   83SLPC    HA 7790   0.211   5.760   3.612  1.4322 -0.3665  0.1237
   83SLPC    HB 7791   0.043   5.694   3.637  0.5235 -0.9432 -1.1248
   83SLPC    C2 7792   0.143   5.753   3.821 -0.5646  0.2703  0.2915
   83SLPC    HS 7793   0.248   5.763   3.858 -0.7185  1.2486  0.4806
   83SLPC   O21 7794   0.059   5.675   3.905  0.0798  0.2321 -0.4493
   83SLPC   C21 7795   0.085   5.688   4.032  0.1234  0.1017  0.7601
   83SLPC   O22 7796   0.157   5.766   4.087 -0.2361 -0.5872 -0.2933
   83SLPC   C22 7797  -0.013   5.596   4.112  0.2946 -0.2957 -0.3049
   83SLPC   H2R 7798  -0.086   5.673   4.145 -2.1941 -2.0796 -1.3637
   83SLPC   H2S 7799  -0.062   5.517   4.052  1.1530 -0.5926 -0.6367
   83SLPC    C3 7800   0.086   5.898   3.803 -0.2715 -1.2328 -0.3968
   83SLPC    HX 7801  -0.019   5.889   3.770 -1.3346  0.9734  2.0171
   83SLPC    HY 7802   0.141   5.946   3.719  0.5986 -2.1300 -0.3643
   83SLPC   O31 7803   0.089   5.979   3.922  0.8847 -0.4506  0.1905
   83SLPC   C31 7804   0.201   6.054   3.937  0.7450  0.8680 -0.2969
   83SLPC   O32 7805   0.287   6.061   3.849 -0.5095  0.0032 -0.4942
   83SLPC   C32 7806   0.193   6.130   4.070 -0.5195 -0.3217 -0.9435
   83SLPC   H2X 7807   0.153   6.048   4.134  0.0553 -0.5193 -0.8342
   83SLPC   H2Y 7808   0.121   6.215   4.071 -0.8927 -0.3819  4.0367
   83SLPC   C23 7809   0.054   5.535   4.233  0.7795  0.0863  0.6607
   83SLPC   H3R 7810   0.099   5.612   4.300  0.3101  1.6976 -0.8113
   83SLPC   H3S 7811   0.134   5.462   4.207  0.5823 -0.2309  0.9407
   83SLPC   C24 7812  -0.047   5.455   4.315  1.2685 -0.1881 -0.2804
   83SLPC   H4R 7813  -0.079   5.371   4.249 -1.2900 -1.0982  1.9315
   83SLPC   H4S 7814  -0.139   5.516   4.331  0.8842 -0.6899 -0.5277
   83SLPC   C25 7815   0.011   5.411   4.448 -0.5253  0.4953  0.1339
   83SLPC   H5R 7816   0.108   5.362   4.426 -0.3714  0.4403  0.8960
   83SLPC   H5S 7817  -0.061   5.342   4.497  0.9294 -1.6490 -0.6280
   83SLPC   C26 7818   0.036   5.532   4.545  0.8878  0.0910 -0.8711
   83SLPC   H6R 7819  -0.063   5.572   4.576  0.7359  0.5120 -1.8628
   83SLPC   H6S 7820   0.100   5.611   4.501  0.3923  0.5315 -0.8139
   83SLPC   C27 7821   0.117   5.489   4.669 -0.8758  0.1118  0.3936
   83SLPC   H7R 7822   0.128   5.583   4.727  0.6525 -1.2384  2.4649
   83SLPC   H7S 7823   0.218   5.468   4.627 -0.4252 -0.0204  1.5037
   83SLPC   C28 7824   0.062   5.377   4.755  0.0509 -0.3247  0.1581
   83SLPC   H8R 7825   0.142   5.362   4.831  1.3373 -0.9380 -1.2695
   83SLPC   H8S 7826   0.059   5.281   4.699  1.3053  0.3876 -1.1933
   83SLPC   C29 7827  -0.068   5.413   4.825 -0.6586 -0.4414  0.1082
   83SLPC   H9R 7828  -0.152   5.418   4.754  0.2682  0.5211 -0.9560
   83SLPC  C210 7829  -0.089   5.442   4.954  0.5616 -0.1291 -0.5949
   83SLPC  H10R 7830  -0.189   5.470   4.990  2.7985  2.1235  4.8672
   83SLPC  C211 7831   0.014   5.442   5.065  0.2647  0.8098 -0.1833
   83SLPC  H11R 7832   0.114   5.459   5.021  0.8995 -2.0213  0.0131
   83SLPC  H11S 7833   0.022   5.342   5.112 -2.8780 -0.4294 -1.9836
   83SLPC  C212 7834  -0.011   5.555   5.164 -1.0561 -0.2912 -0.2697
   83SLPC  H12R 7835  -0.089   5.540   5.240  1.0669  0.6858  2.2563
   83SLPC  C213 7836   0.051   5.679   5.160  0.0746 -0.4238  0.5497
   83SLPC  H13R 7837   0.022   5.750   5.239 -2.4493 -0.5947 -0.1216
   83SLPC  C214 7838   0.167   5.706   5.066 -0.0996 -0.0164 -0.1340
   83SLPC  H14R 7839   0.142   5.683   4.960  0.0312 -2.5704  0.3178
   83SLPC  H14S 7840   0.253   5.643   5.098  0.3084  0.5758 -0.0321
   83SLPC  C215 7841   0.211   5.848   5.084  0.4064  0.5151 -0.6580
   83SLPC  H15R 7842   0.246   5.858   5.189 -2.1473  3.7945  0.0606
   83SLPC  H15S 7843   0.120   5.912   5.079 -0.0867  0.3711  3.4198
   83SLPC  C216 7844   0.320   5.889   4.988 -1.0528 -0.0944 -0.4664
   83SLPC  H16R 7845   0.286   5.854   4.888 -1.0011 -0.4295 -0.3671
   83SLPC  H16S 7846   0.413   5.843   5.029 -1.1581  1.3055  1.4932
   83SLPC  C217 7847   0.338   6.040   4.980 -0.0923  0.4564  0.2475
   83SLPC  H17R 7848   0.371   6.076   5.080  0.8722  0.6812 -0.1442
   83SLPC  H17S 7849   0.241   6.089   4.957 -0.6088 -0.4180  0.4881
   83SLPC  C218 7850   0.441   6.085   4.877  0.8743  0.0657 -0.0907
   83SLPC  H18R 7851   0.449   6.195   4.875  0.5497  0.0923 -1.6864
   83SLPC  H18S 7852   0.403   6.067   4.774 -2.2077  4.6334 -0.0117
   83SLPC  H18T 7853   0.544   6.046   4.894  0.8697  0.3440  0.5781
   83SLPC   C33 7854   0.320   6.199   4.119 -0.0636 -0.1894 -0.2426
   83SLPC   H3X 7855   0.292   6.253   4.212 -0.0663  0.4289 -0.5991
   83SLPC   H3Y 7856   0.338   6.289   4.057  0.1005  1.1174  1.6411
   83SLPC   C34 7857   0.443   6.108   4.130  0.3387  0.5021  0.2386
   83SLPC   H4X 7858   0.531   6.161   4.172  0.8374  0.1368 -0.3248
   83SLPC   H4Y 7859   0.469   6.070   4.029  0.9773  4.1614 -1.1436
   83SLPC   C35 7860   0.411   5.991   4.223 -0.8010  0.5762 -0.2274
   83SLPC   H5X 7861   0.505   5.934   4.238 -0.0888  1.8720  0.4088
   83SLPC   H5Y 7862   0.343   5.921   4.170  0.2784 -0.8524  0.2133
   83SLPC   C36 7863   0.357   6.038   4.355  0.3136  0.2096 -0.6377
   83SLPC   H6X 7864   0.264   6.096   4.339 -0.4771 -1.1935 -1.3143
   83SLPC   H6Y 7865   0.435   6.096   4.409  1.6062 -1.3087 -0.7737
   83SLPC   C37 7866   0.318   5.920   4.442 -0.5863  0.0678 -0.3002
   83SLPC   H7X 7867   0.253   5.842   4.396 -1.4206 -0.5261  1.7642
   83SLPC   H7Y 7868   0.256   5.958   4.526  2.2337  1.2089  1.3853
   83SLPC   C38 7869   0.440   5.855   4.514  0.1281  0.3575 -0.2223
   83SLPC   H8X 7870   0.485   5.929   4.583  4.0252 -0.5363 -1.5436
   83SLPC   H8Y 7871   0.520   5.814   4.449 -0.5060 -4.3330  1.5659
   83SLPC   C39 7872   0.398   5.730   4.593  0.3473  0.0863 -0.0599
   83SLPC   H9X 7873   0.364   5.653   4.521  3.4713 -0.2326 -1.3345
   83SLPC   H9Y 7874   0.315   5.765   4.659 -1.7006  1.1147 -2.9849
   83SLPC  C310 7875   0.506   5.681   4.681 -0.4236 -0.3437 -0.3578
   83SLPC  H10X 7876   0.542   5.765   4.744  1.5988 -0.5774 -1.1098
   83SLPC  H10Y 7877   0.602   5.670   4.626  0.0353 -0.0734  0.3843
   83SLPC  C311 7878   0.481   5.551   4.749  0.8831  0.7360 -1.0677
   83SLPC  H11X 7879   0.469   5.463   4.681  0.1401 -0.3863  0.4499
   83SLPC  H11Y 7880   0.384   5.558   4.803  0.4852 -1.3364 -1.4232
   83SLPC  C312 7881   0.593   5.511   4.851  0.2311 -0.0288  0.7412
   83SLPC  H12X 7882   0.682   5.515   4.786 -0.6711  1.4073 -0.4736
   83SLPC  H12Y 7883   0.578   5.408   4.888 -0.7803  0.2064  1.0230
   83SLPC  C313 7884   0.614   5.601   4.971 -0.0455  0.0518 -0.3181
   83SLPC  H13X 7885   0.533   5.677   4.973 -0.8920 -0.8304  0.3530
   83SLPC  H13Y 7886   0.706   5.662   4.956 -0.4326  0.6206 -0.4054
   83SLPC  C314 7887   0.604   5.517   5.104 -0.3071  0.0647 -0.6306
   83SLPC  H14X 7888   0.684   5.439   5.104 -1.4848 -1.1892 -0.7470
   83SLPC  H14Y 7889   0.511   5.456   5.102 -0.0039 -0.6100  2.0263
   83SLPC  C315 7890   0.616   5.603   5.230 -0.4924  0.2630 -0.0803
   83SLPC  H15X 7891   0.533   5.676   5.219 -0.0530  0.7023 -0.5812
   83SLPC  H15Y 7892   0.711   5.661   5.231 -0.2875 -0.0523 -0.7115
   83SLPC  C316 7893   0.578   5.526   5.360 -1.0619  1.1205 -0.0536
   83SLPC  H16X 7894   0.628   5.427   5.362 -1.9944  0.4915  4.5682
   83SLPC  H16Y 7895   0.468   5.509   5.364 -0.7014 -1.3887  1.3444
   83SLPC  C317 7896   0.621   5.607   5.486  0.5535 -0.6263 -0.1853
   83SLPC  H17X 7897   0.717   5.661   5.470  0.5094  0.1074  1.7908
   83SLPC  H17Y 7898   0.632   5.544   5.576 -3.0787  2.0035  2.4292
   83SLPC  C318 7899   0.507   5.710   5.511  0.8332 -0.1611  0.1900
   83SLPC  H18X 7900   0.488   5.786   5.432  0.8645  1.2812  1.5192
   83SLPC  H18Y 7901   0.520   5.771   5.603 -0.9744  0.6506 -0.0472
   83SLPC  H18Z 7902   0.408   5.663   5.532  0.2132  0.6457 -0.7790
   84SLPC     N 7903   3.097   6.085   3.849  0.4157  0.0084  0.1550
   84SLPC   C13 7904   3.227   6.065   3.789  0.3284  0.3574 -0.1285
   84SLPC  H13A 7905   3.240   6.110   3.692 -0.7870 -0.9795 -0.9370
   84SLPC  H13B 7906   3.299   6.108   3.857  0.7025 -3.3581  2.0993
   84SLPC  H13C 7907   3.257   5.963   3.767  1.4462  0.6026  0.1590
   84SLPC   C14 7908   3.074   6.234   3.877 -0.2939  0.0195 -0.1959
   84SLPC  H14A 7909   3.123   6.280   3.961 -1.2491  1.3335 -0.3117
   84SLPC  H14B 7910   3.090   6.293   3.788 -1.2179 -0.9847 -1.0604
   84SLPC  H14C 7911   2.976   6.249   3.920  0.2707  1.2474  0.7367
   84SLPC   C15 7912   3.079   6.004   3.971 -0.6341 -0.5576  0.6047
   84SLPC  H15A 7913   3.064   5.902   3.940 -0.5308 -0.7487  1.1698
   84SLPC  H15B 7914   3.176   5.997   4.018  1.1262 -0.3291 -2.6681
   84SLPC  H15C 7915   3.006   6.039   4.043  0.5471 -2.9652  3.1786
   84SLPC   C12 7916   2.989   6.064   3.746  0.0154 -0.1954 -0.3434
   84SLPC  H12A 7917   3.003   6.140   3.671 -2.0632  0.9947  0.3929
   84SLPC  H12B 7918   2.899   6.083   3.802  0.2744  0.3716 -0.1137
   84SLPC   C11 7919   2.981   5.928   3.679  0.6249  0.6738 -0.3303
   84SLPC  H11A 7920   3.080   5.892   3.647  1.8558  0.2080  3.4361
   84SLPC  H11B 7921   2.920   5.938   3.587  0.3818 -0.8088 -0.3511
   84SLPC     P 7922   2.767   5.811   3.793 -0.4957  0.0953  0.3828
   84SLPC   O13 7923   2.721   5.935   3.863 -0.0041 -0.1507  0.5118
   84SLPC   O14 7924   2.696   5.772   3.669  0.0360  0.9012 -0.2299
   84SLPC   O12 7925   2.925   5.823   3.767 -0.2838 -0.4215 -0.8289
   84SLPC   O11 7926   2.770   5.696   3.900 -0.1904  0.8214 -0.3508
   84SLPC    C1 7927   2.882   5.651   3.980  0.0891  0.0037  0.0938
   84SLPC    HA 7928   2.973   5.714   3.968 -0.2092  0.2637 -0.8638
   84SLPC    HB 7929   2.841   5.658   4.083 -0.0523 -1.8218  0.2038
   84SLPC    C2 7930   2.914   5.500   3.957 -0.0729  0.2231  0.0735
   84SLPC    HS 7931   2.885   5.480   3.851 -0.9666  0.2017  0.3071
   84SLPC   O21 7932   2.838   5.417   4.047 -0.0856  0.1272 -0.0194
   84SLPC   C21 7933   2.820   5.295   4.013  0.4073 -0.8261  0.1557
   84SLPC   O22 7934   2.850   5.247   3.905  0.0993 -0.2703  0.0918
   84SLPC   C22 7935   2.758   5.210   4.129 -0.5093 -1.1632 -0.6027
   84SLPC   H2R 7936   2.838   5.157   4.186 -0.7664 -0.4069  0.4940
   84SLPC   H2S 7937   2.719   5.293   4.191 -0.2780 -0.9092 -0.7920
   84SLPC    C3 7938   3.063   5.471   3.966  0.5428  0.3135  0.1281
   84SLPC    HX 7939   3.114   5.525   3.883 -0.6689  0.0017 -0.8443
   84SLPC    HY 7940   3.071   5.362   3.948 -2.8202  0.0606 -0.3608
   84SLPC   O31 7941   3.109   5.508   4.090  0.2539  0.6219  0.3474
   84SLPC   C31 7942   3.162   5.408   4.164 -0.0891 -0.0228 -0.4548
   84SLPC   O32 7943   3.165   5.293   4.134 -0.6077  0.4651 -0.6258
   84SLPC   C32 7944   3.189   5.435   4.304 -0.0260 -1.0651 -0.6625
   84SLPC   H2X 7945   3.291   5.479   4.316 -0.6489  1.5994 -3.5971
   84SLPC   H2Y 7946   3.179   5.343   4.364 -1.1110 -0.3408  0.3215
   84SLPC   C23 7947   2.661   5.108   4.074  0.0260  0.7903  0.0376
   84SLPC   H3R 7948   2.704   5.036   4.002 -1.3569 -2.0729  1.8672
   84SLPC   H3S 7949   2.576   5.160   4.024  0.4305  0.0219 -1.5031
   84SLPC   C24 7950   2.614   5.007   4.184 -0.1909  0.7594 -0.1197
   84SLPC   H4R 7951   2.694   4.953   4.240 -0.9245 -1.1974 -0.8668
   84SLPC   H4S 7952   2.550   4.927   4.140 -2.7644  2.9190 -0.5357
   84SLPC   C25 7953   2.530   5.083   4.288  0.3806 -0.4374 -1.1110
   84SLPC   H5R 7954   2.455   5.139   4.227  0.8819  2.5272  0.7902
   84SLPC   H5S 7955   2.590   5.158   4.343 -0.2027 -0.3032 -0.6402
   84SLPC   C26 7956   2.452   4.995   4.390  0.3930 -0.0376 -0.7689
   84SLPC   H6R 7957   2.506   5.007   4.486  2.0821  0.8150 -1.7768
   84SLPC   H6S 7958   2.443   4.885   4.375 -2.0978  0.0470 -0.4290
   84SLPC   C27 7959   2.305   5.049   4.409  0.1768 -1.1519 -0.4691
   84SLPC   H7R 7960   2.257   5.041   4.310  1.9586 -0.6462 -1.4185
   84SLPC   H7S 7961   2.316   5.159   4.420 -0.0016 -1.1414 -0.4013
   84SLPC   C28 7962   2.221   4.982   4.519 -0.1330 -0.2057 -0.3096
   84SLPC   H8R 7963   2.120   5.026   4.535  0.2828  0.3506  0.9159
   84SLPC   H8S 7964   2.282   4.996   4.611  0.9487 -1.3177 -0.8307
   84SLPC   C29 7965   2.193   4.833   4.499 -0.5093  0.6604  0.0406
   84SLPC   H9R 7966   2.206   4.787   4.399  0.4520  0.0961  0.4123
   84SLPC  C210 7967   2.160   4.742   4.592 -0.1048 -0.3710 -0.3194
   84SLPC  H10R 7968   2.136   4.638   4.564  0.7511 -0.7929  0.4804
   84SLPC  C211 7969   2.124   4.776   4.735  0.2636  0.0591 -0.3427
   84SLPC  H11R 7970   2.016   4.762   4.753  0.2321  0.7012 -0.0087
   84SLPC  H11S 7971   2.138   4.881   4.768  0.6047 -0.1210  0.0912
   84SLPC  C212 7972   2.191   4.678   4.830  0.4587  0.0166 -0.2570
   84SLPC  H12R 7973   2.258   4.604   4.785  0.0313  0.7894 -2.2509
   84SLPC  C213 7974   2.179   4.677   4.962 -0.8449  0.3773 -0.3602
   84SLPC  H13R 7975   2.229   4.597   5.019  0.1298  0.7564 -0.6694
   84SLPC  C214 7976   2.102   4.774   5.050 -0.4804 -0.4335 -0.3802
   84SLPC  H14R 7977   2.037   4.838   4.987  0.1659  1.0252  0.3724
   84SLPC  H14S 7978   2.173   4.846   5.097  0.0566 -0.5786 -0.9619
   84SLPC  C215 7979   2.023   4.694   5.159 -0.8227 -0.2812 -0.3281
   84SLPC  H15R 7980   1.985   4.600   5.114  0.4347 -1.1163  0.3046
   84SLPC  H15S 7981   1.945   4.765   5.193  0.1267 -0.5861  2.7405
   84SLPC  C216 7982   2.107   4.659   5.286 -0.2664 -0.2390  0.2661
   84SLPC  H16R 7983   2.170   4.748   5.307  1.0887 -1.1839  0.3980
   84SLPC  H16S 7984   2.191   4.588   5.265  2.9992  3.1372  0.8020
   84SLPC  C217 7985   2.024   4.638   5.417  0.0349 -0.1196  0.5463
   84SLPC  H17R 7986   2.014   4.531   5.447  1.0022 -0.6530 -0.9468
   84SLPC  H17S 7987   1.919   4.673   5.412  0.0043 -0.2122  0.5286
   84SLPC  C218 7988   2.092   4.712   5.532  0.0723  0.0621 -0.8858
   84SLPC  H18R 7989   2.195   4.679   5.561 -0.6804 -1.7168 -0.0790
   84SLPC  H18S 7990   2.043   4.703   5.632  1.0766 -1.5340 -0.4986
   84SLPC  H18T 7991   2.106   4.817   5.501  1.7805  0.1412 -0.0391
   84SLPC   C33 7992   3.079   5.539   4.354  0.1508  1.1320 -0.5024
   84SLPC   H3X 7993   3.081   5.626   4.285  2.4865  1.4376 -0.1471
   84SLPC   H3Y 7994   3.110   5.584   4.451  0.4678 -0.2032  0.0413
   84SLPC   C34 7995   2.941   5.490   4.377  0.2727 -0.0092  0.4205
   84SLPC   H4X 7996   2.910   5.411   4.306  0.3967 -1.0106  1.4545
   84SLPC   H4Y 7997   2.868   5.574   4.370 -0.2445 -0.5201 -0.4581
   84SLPC   C35 7998   2.913   5.420   4.518  0.3166 -0.4056  0.5156
   84SLPC   H5X 7999   2.949   5.483   4.602  0.2254 -0.8836  0.9213
   84SLPC   H5Y 8000   2.990   5.340   4.529  0.5926 -0.2920 -0.4804
   84SLPC   C36 8001   2.779   5.375   4.546  0.4381  0.3213  0.5108
   84SLPC   H6X 8002   2.749   5.307   4.463  2.4357  1.4306 -1.2573
   84SLPC   H6Y 8003   2.709   5.460   4.530  0.8840  0.4432 -1.0021
   84SLPC   C37 8004   2.749   5.318   4.682  0.4695  0.0395 -0.4715
   84SLPC   H7X 8005   2.746   5.391   4.765  1.4754  0.5691 -0.8932
   84SLPC   H7Y 8006   2.820   5.235   4.703  0.6698  0.4140  0.3471
   84SLPC   C38 8007   2.607   5.263   4.677 -0.1763  0.2351 -0.2579
   84SLPC   H8X 8008   2.590   5.204   4.584  0.9324 -1.0146  0.2853
   84SLPC   H8Y 8009   2.538   5.347   4.656 -1.5990 -0.9512 -0.4727
   84SLPC   C39 8010   2.564   5.173   4.793  0.4079  0.7727 -0.3738
   84SLPC   H9X 8011   2.597   5.067   4.785  0.8783  0.7804  1.1326
   84SLPC   H9Y 8012   2.453   5.177   4.799  0.1661 -0.5600 -2.6633
   84SLPC  C310 8013   2.625   5.217   4.924 -0.0044 -0.0729 -0.5535
   84SLPC  H10X 8014   2.594   5.322   4.939 -0.3111 -0.5183  2.6209
   84SLPC  H10Y 8015   2.735   5.201   4.912  0.5263  3.1443 -0.9275
   84SLPC  C311 8016   2.556   5.136   5.040 -0.2075  0.5751 -0.4040
   84SLPC  H11X 8017   2.560   5.026   5.024  1.0059  0.3670  1.0879
   84SLPC  H11Y 8018   2.452   5.173   5.046  0.3160  1.8780  2.0277
   84SLPC  C312 8019   2.618   5.175   5.173 -1.8172 -1.2895  0.0893
   84SLPC  H12X 8020   2.620   5.286   5.176 -0.0336 -1.1968 -1.8897
   84SLPC  H12Y 8021   2.727   5.154   5.165 -1.2669  1.1895  0.4002
   84SLPC  C313 8022   2.574   5.097   5.298  0.2500 -0.2008  0.6515
   84SLPC  H13X 8023   2.587   4.987   5.287 -0.4174 -0.6218  3.2750
   84SLPC  H13Y 8024   2.467   5.110   5.324  0.1256  0.3640 -0.1236
   84SLPC  C314 8025   2.670   5.143   5.415 -0.0887  0.1778  0.0982
   84SLPC  H14X 8026   2.634   5.245   5.442 -3.5234 -0.0403 -2.8680
   84SLPC  H14Y 8027   2.774   5.146   5.378  0.5222 -0.7527  1.6322
   84SLPC  C315 8028   2.662   5.055   5.544 -0.1918  0.7518 -0.6290
   84SLPC  H15X 8029   2.709   4.956   5.526 -0.3176  0.8100 -1.3054
   84SLPC  H15Y 8030   2.555   5.027   5.548  0.0018  0.1507  0.6474
   84SLPC  C316 8031   2.711   5.121   5.667  0.2763 -0.4379 -0.7377
   84SLPC  H16X 8032   2.667   5.222   5.678  0.4539 -0.5546  1.3782
   84SLPC  H16Y 8033   2.821   5.138   5.666  0.0675  1.9063  2.4773
   84SLPC  C317 8034   2.695   5.040   5.792  0.4659  0.3260  0.2154
   84SLPC  H17X 8035   2.593   4.996   5.780  0.3382  0.9047 -1.0470
   84SLPC  H17Y 8036   2.705   5.093   5.889 -1.2412 -0.7978  1.0552
   84SLPC  C318 8037   2.798   4.931   5.796  0.0153  0.2831 -0.1122
   84SLPC  H18X 8038   2.784   4.856   5.715 -0.2806 -0.8910  0.9844
   84SLPC  H18Y 8039   2.778   4.877   5.892 -2.2089 -2.2040 -1.8211
   84SLPC  H18Z 8040   2.903   4.965   5.795  0.3994 -0.5268  2.6193
   85SLPC     N 8041   0.708   2.120   3.389  0.1357 -0.2124  0.6642
   85SLPC   C13 8042   0.607   2.213   3.323 -0.1623 -0.1698 -0.0695
   85SLPC  H13A 8043   0.619   2.218   3.216 -0.3044 -0.8770 -0.1223
   85SLPC  H13B 8044   0.504   2.189   3.346 -1.2175  3.1738 -0.7168
   85SLPC  H13C 8045   0.614   2.313   3.364  0.8549 -0.1153 -0.3424
   85SLPC   C14 8046   0.843   2.175   3.358  0.2266  0.7305 -0.4289
   85SLPC  H14A 8047   0.922   2.118   3.404  0.2698  1.0073 -0.1545
   85SLPC  H14B 8048   0.855   2.174   3.251  0.4820  1.8780 -0.4288
   85SLPC  H14C 8049   0.851   2.275   3.397  0.4613 -0.1077  1.7944
   85SLPC   C15 8050   0.701   1.982   3.327 -0.6761 -0.4153  0.4743
   85SLPC  H15A 8051   0.800   1.945   3.349 -0.7669 -0.7591  0.3054
   85SLPC  H15B 8052   0.623   1.932   3.383 -0.4703 -0.3197  0.8485
   85SLPC  H15C 8053   0.690   1.986   3.220 -1.0812  2.3181  0.5477
   85SLPC   C12 8054   0.690   2.113   3.538  0.1939 -0.2857  0.2599
   85SLPC  H12A 8055   0.760   2.046   3.586  0.4827  0.5603  1.0397
   85SLPC  H12B 8056   0.597   2.061   3.555  0.4753 -0.7180  0.4909
   85SLPC   C11 8057   0.688   2.251   3.609  0.0284 -0.2067 -0.2512
   85SLPC  H11A 8058   0.653   2.225   3.711  0.7891 -2.9641 -0.6313
   85SLPC  H11B 8059   0.609   2.313   3.561 -0.5912 -0.7238  0.0948
   85SLPC     P 8060   0.928   2.286   3.690 -0.0614  0.4052 -0.5184
   85SLPC   O13 8061   0.956   2.139   3.692  0.1890 -0.1579 -0.6433
   85SLPC   O14 8062   1.038   2.373   3.647  0.0607 -0.4108 -0.5230
   85SLPC   O12 8063   0.807   2.323   3.596 -0.2389  0.0731 -0.0726
   85SLPC   O11 8064   0.879   2.315   3.832  0.2945  0.7641  0.2325
   85SLPC    C1 8065   0.809   2.433   3.872  0.3487 -0.0733 -0.3308
   85SLPC    HA 8066   0.783   2.500   3.787 -0.3907  0.8016  0.5713
   85SLPC    HB 8067   0.723   2.414   3.938  0.6474  0.6479  0.2726
   85SLPC    C2 8068   0.894   2.526   3.963 -0.7735  0.1531 -0.0834
   85SLPC    HS 8069   0.984   2.549   3.902  0.3371 -1.0736  1.0256
   85SLPC   O21 8070   0.935   2.460   4.086 -0.1712  0.1718 -0.5158
   85SLPC   C21 8071   1.025   2.532   4.162  0.4893 -0.2479 -0.0184
   85SLPC   O22 8072   1.059   2.643   4.131  0.2531 -0.0317  0.1061
   85SLPC   C22 8073   1.061   2.459   4.296 -0.6106 -0.2655 -1.0778
   85SLPC   H2R 8074   0.967   2.455   4.354 -1.2660  0.2277 -2.0823
   85SLPC   H2S 8075   1.096   2.362   4.254  0.2320 -0.0231 -0.9486
   85SLPC    C3 8076   0.817   2.664   3.981 -0.0480  0.6136 -0.1332
   85SLPC    HX 8077   0.749   2.686   3.896 -2.1319 -0.7701  1.0771
   85SLPC    HY 8078   0.904   2.732   3.973  0.8154 -0.5916 -1.4353
   85SLPC   O31 8079   0.751   2.681   4.105  0.0817 -0.4557 -0.4424
   85SLPC   C31 8080   0.619   2.657   4.105 -0.3534  0.2703 -0.0165
   85SLPC   O32 8081   0.561   2.596   4.020  0.2933 -0.1661  0.3328
   85SLPC   C32 8082   0.552   2.705   4.238 -0.0249  0.1784  0.0432
   85SLPC   H2X 8083   0.512   2.807   4.222  0.8388  0.5749  0.3487
   85SLPC   H2Y 8084   0.635   2.726   4.310  0.8165  3.2200 -1.6673
   85SLPC   C23 8085   1.177   2.516   4.386  0.7865 -0.8822  0.6454
   85SLPC   H3R 8086   1.152   2.607   4.444  0.6100 -0.7265  0.3278
   85SLPC   H3S 8087   1.259   2.545   4.316 -0.5002  1.1048 -0.1475
   85SLPC   C24 8088   1.216   2.408   4.487  0.4140 -0.4891  0.2846
   85SLPC   H4R 8089   1.223   2.319   4.421 -0.0721 -0.4848  0.2252
   85SLPC   H4S 8090   1.122   2.396   4.545 -1.3034  0.1377 -2.1822
   85SLPC   C25 8091   1.348   2.431   4.557 -0.6121 -0.2928 -0.4373
   85SLPC   H5R 8092   1.374   2.335   4.607  1.2704 -0.3331 -1.3796
   85SLPC   H5S 8093   1.429   2.451   4.483 -1.1241 -1.5604 -1.3874
   85SLPC   C26 8094   1.340   2.540   4.663  0.1106  0.1772  0.3743
   85SLPC   H6R 8095   1.305   2.631   4.609 -2.6334 -1.5258 -0.9206
   85SLPC   H6S 8096   1.441   2.577   4.692  0.6690  0.0209 -1.2274
   85SLPC   C27 8097   1.254   2.519   4.790  0.1976  0.3678  0.4643
   85SLPC   H7R 8098   1.296   2.433   4.848 -0.6858  0.7133  1.6508
   85SLPC   H7S 8099   1.156   2.485   4.751 -0.8909  1.2625  2.3159
   85SLPC   C28 8100   1.233   2.659   4.867 -0.4372 -0.3061  0.0836
   85SLPC   H8R 8101   1.144   2.646   4.932 -3.0879 -0.6349 -3.3346
   85SLPC   H8S 8102   1.206   2.742   4.798 -3.2479 -2.1864 -1.2759
   85SLPC   C29 8103   1.359   2.690   4.942 -0.9172  0.2099  0.2742
   85SLPC   H9R 8104   1.436   2.740   4.881 -1.0429  0.3284  0.2125
   85SLPC  C210 8105   1.390   2.671   5.071  0.9775 -0.4966  0.0409
   85SLPC  H10R 8106   1.485   2.712   5.108  0.1320  2.6393 -0.9223
   85SLPC  C211 8107   1.299   2.606   5.172 -0.6543 -0.2292 -0.5905
   85SLPC  H11R 8108   1.355   2.545   5.246 -0.3935  0.4126 -0.2596
   85SLPC  H11S 8109   1.223   2.547   5.117  0.3745 -0.7559 -1.4820
   85SLPC  C212 8110   1.238   2.717   5.255 -0.4001 -0.5174  0.2986
   85SLPC  H12R 8111   1.161   2.783   5.212 -0.4257  0.4664  1.7593
   85SLPC  C213 8112   1.292   2.764   5.374 -0.7577  0.3456 -0.0733
   85SLPC  H13R 8113   1.257   2.855   5.425 -0.6147  0.1085  0.4567
   85SLPC  C214 8114   1.408   2.702   5.451  0.2894  0.3712 -0.1213
   85SLPC  H14R 8115   1.512   2.715   5.414  0.2310 -0.5170 -0.6312
   85SLPC  H14S 8116   1.397   2.592   5.446 -1.4843  0.4908  0.2325
   85SLPC  C215 8117   1.399   2.719   5.601 -0.3872 -0.0576 -0.0971
   85SLPC  H15R 8118   1.300   2.679   5.632 -0.2417 -1.4870 -1.3623
   85SLPC  H15S 8119   1.397   2.826   5.630 -0.4649 -0.7909  2.8883
   85SLPC  C216 8120   1.500   2.643   5.679 -0.6208  0.3356  0.0545
   85SLPC  H16R 8121   1.470   2.536   5.684  1.6926 -0.4352 -0.8563
   85SLPC  H16S 8122   1.507   2.687   5.781  1.5950 -1.5274  0.8022
   85SLPC  C217 8123   1.645   2.630   5.622 -0.7103 -0.1291  0.4811
   85SLPC  H17R 8124   1.679   2.728   5.582  1.3354 -0.6459  0.8607
   85SLPC  H17S 8125   1.650   2.559   5.537  1.3299 -0.0354  0.4844
   85SLPC  C218 8126   1.737   2.561   5.722 -0.0158 -0.2803  0.4237
   85SLPC  H18R 8127   1.701   2.461   5.754 -0.3516  0.4359  2.3801
   85SLPC  H18S 8128   1.739   2.615   5.819  0.2461  0.1002  0.2104
   85SLPC  H18T 8129   1.843   2.549   5.689  0.0092 -1.8877  0.9772
   85SLPC   C33 8130   0.448   2.605   4.293 -0.0265  0.3900  0.6152
   85SLPC   H3X 8131   0.503   2.508   4.289  0.3162  0.5997  0.1648
   85SLPC   H3Y 8132   0.355   2.610   4.232 -0.3347 -0.7054  0.9584
   85SLPC   C34 8133   0.406   2.646   4.432 -0.2762  0.0206 -0.3208
   85SLPC   H4X 8134   0.343   2.737   4.423 -1.8658 -1.1144 -1.2591
   85SLPC   H4Y 8135   0.492   2.661   4.500 -0.9797 -0.2755  0.6626
   85SLPC   C35 8136   0.305   2.549   4.505  0.4929 -0.1851  0.2469
   85SLPC   H5X 8137   0.347   2.448   4.487  1.6699  0.0844  1.2885
   85SLPC   H5Y 8138   0.204   2.561   4.461  1.6220  1.8405 -1.9656
   85SLPC   C36 8139   0.296   2.578   4.662  0.0159  0.8737  0.1157
   85SLPC   H6X 8140   0.287   2.688   4.681 -1.0557  0.6763  0.8293
   85SLPC   H6Y 8141   0.394   2.559   4.712 -0.1175  2.4286  1.0472
   85SLPC   C37 8142   0.189   2.495   4.740  0.0081  0.1989 -0.1629
   85SLPC   H7X 8143   0.217   2.388   4.726 -0.4049 -0.0019  0.5316
   85SLPC   H7Y 8144   0.091   2.513   4.691 -1.1487 -0.1686  1.9382
   85SLPC   C38 8145   0.167   2.543   4.880  0.1330 -1.1469 -0.5264
   85SLPC   H8X 8146   0.077   2.504   4.932 -1.7527  3.2883  0.0811
   85SLPC   H8Y 8147   0.160   2.654   4.882 -2.5781 -1.2450 -0.8199
   85SLPC   C39 8148   0.278   2.510   4.985 -0.3112  0.1013  0.4390
   85SLPC   H9X 8149   0.376   2.549   4.950 -1.1391  1.4320 -0.4910
   85SLPC   H9Y 8150   0.273   2.399   4.983 -1.9397  0.0384  3.0160
   85SLPC  C310 8151   0.252   2.529   5.136  0.0417 -0.3833  0.2426
   85SLPC  H10X 8152   0.339   2.493   5.195  0.6909 -1.9103 -1.5495
   85SLPC  H10Y 8153   0.167   2.466   5.169 -1.4664  1.4189 -0.0382
   85SLPC  C311 8154   0.222   2.674   5.169  0.7688 -0.1010 -0.1742
   85SLPC  H11X 8155   0.134   2.699   5.105  0.7621  0.0305 -0.1145
   85SLPC  H11Y 8156   0.298   2.749   5.137 -0.0936  0.8021 -0.1734
   85SLPC  C312 8157   0.172   2.708   5.312 -0.5712  0.5110 -0.2778
   85SLPC  H12X 8158   0.256   2.744   5.375  0.4708 -0.5170 -1.0230
   85SLPC  H12Y 8159   0.155   2.607   5.355 -0.2259 -1.0025 -3.3858
   85SLPC  C313 8160   0.049   2.799   5.330 -0.7027 -0.2686  0.2189
   85SLPC  H13X 8161  -0.046   2.747   5.307  0.3968 -1.4128 -1.9806
   85SLPC  H13Y 8162   0.072   2.882   5.260  2.1429 -3.2080 -2.7214
   85SLPC  C314 8163   0.039   2.844   5.474 -0.1956 -0.6016  0.2083
   85SLPC  H14X 8164  -0.065   2.880   5.491  0.9748  2.9646  0.6173
   85SLPC  H14Y 8165   0.099   2.935   5.493 -3.4904  1.8097  0.0913
   85SLPC  C315 8166   0.057   2.731   5.575 -0.0020 -0.0523 -0.1327
   85SLPC  H15X 8167   0.157   2.685   5.583 -0.3295 -1.0903 -1.5124
   85SLPC  H15Y 8168  -0.003   2.646   5.535  1.3895  0.6474 -4.1700
   85SLPC  C316 8169   0.012   2.763   5.718  0.6668  0.1321 -0.4737
   85SLPC  H16X 8170   0.036   2.673   5.779  0.2177 -1.2184 -2.2348
   85SLPC  H16Y 8171  -0.098   2.772   5.707  0.4248 -2.5834 -1.0733
   85SLPC  C317 8172   0.083   2.890   5.786  0.5099  0.0465  0.5187
   85SLPC  H17X 8173   0.066   2.983   5.727 -2.4581 -1.7742 -1.8100
   85SLPC  H17Y 8174   0.192   2.876   5.796  0.5757 -0.4213 -0.7221
   85SLPC  C318 8175   0.012   2.929   5.919 -0.4556 -0.7610 -0.0723
   85SLPC  H18X 8176  -0.092   2.964   5.901  0.1474  1.3502  0.3318
   85SLPC  H18Y 8177   0.061   3.017   5.966  0.7726 -2.0807  1.2349
   85SLPC  H18Z 8178   0.009   2.846   5.993 -2.6011 -2.3688 -1.8253
   86SLPC     N 8179   2.235   3.818   3.249 -0.5806 -0.4220  0.1094
   86SLPC   C13 8180   2.272   3.766   3.108  0.6718 -0.8044 -0.4714
   86SLPC  H13A 8181   2.225   3.827   3.033 -3.1469 -0.9665  1.5307
   86SLPC  H13B 8182   2.376   3.770   3.080  0.9002 -2.6549 -0.0100
   86SLPC  H13C 8183   2.234   3.665   3.097 -1.3954 -0.4095  2.0347
   86SLPC   C14 8184   2.082   3.804   3.252 -0.9840 -0.6074 -0.4863
   86SLPC  H14A 8185   2.036   3.855   3.335 -0.6734 -0.5806 -0.3292
   86SLPC  H14B 8186   2.043   3.842   3.159 -1.4624  0.3744  0.0961
   86SLPC  H14C 8187   2.054   3.699   3.253 -1.1222 -0.5692 -0.1451
   86SLPC   C15 8188   2.274   3.956   3.261 -0.0169  0.1674  0.9064
   86SLPC  H15A 8189   2.376   3.973   3.231  0.7637 -2.6609  1.6632
   86SLPC  H15B 8190   2.218   4.021   3.195  0.3611 -0.4946 -0.1073
   86SLPC  H15C 8191   2.256   3.994   3.360 -0.8867  1.3124  0.3355
   86SLPC   C12 8192   2.304   3.746   3.362 -0.2646  0.3856  0.2756
   86SLPC  H12A 8193   2.406   3.778   3.371  0.2221 -1.2543  0.9649
   86SLPC  H12B 8194   2.312   3.640   3.339 -2.1740  0.5087 -1.2892
   86SLPC   C11 8195   2.249   3.747   3.500  0.3375 -0.4489 -0.5384
   86SLPC  H11A 8196   2.302   3.682   3.573  0.7110  1.1643  0.6712
   86SLPC  H11B 8197   2.152   3.693   3.489  1.6111 -3.5469  1.8725
   86SLPC     P 8198   2.101   3.931   3.616  0.1719  0.0119 -0.0170
   86SLPC   O13 8199   2.120   4.066   3.659  0.0763  1.0391 -0.3954
   86SLPC   O14 8200   1.989   3.913   3.520 -0.1447  0.7059 -0.5757
   86SLPC   O12 8201   2.238   3.887   3.551  0.2274  0.3490  0.2250
   86SLPC   O11 8202   2.073   3.835   3.736  0.2555 -0.1712 -0.0864
   86SLPC    C1 8203   2.162   3.816   3.845 -0.0470 -0.3543 -0.2480
   86SLPC    HA 8204   2.156   3.714   3.889  1.4891 -0.0852  0.6701
   86SLPC    HB 8205   2.269   3.814   3.814 -0.5330 -1.4329 -2.0189
   86SLPC    C2 8206   2.134   3.924   3.950 -0.1834  0.3848 -0.3725
   86SLPC    HS 8207   2.107   4.018   3.897  2.1515 -0.1824 -2.8487
   86SLPC   O21 8208   2.261   3.936   4.021 -0.3300 -0.4879  0.0019
   86SLPC   C21 8209   2.273   4.050   4.074 -0.1189 -0.3967 -0.1263
   86SLPC   O22 8210   2.190   4.142   4.083  0.5112  0.6493 -0.2642
   86SLPC   C22 8211   2.415   4.063   4.125  0.3407 -0.5550 -0.4863
   86SLPC   H2R 8212   2.480   3.978   4.094  0.6285 -1.2663  1.8309
   86SLPC   H2S 8213   2.461   4.154   4.083 -0.4090  0.4974  0.8837
   86SLPC    C3 8214   2.019   3.886   4.049 -0.2032 -0.5328  0.2537
   86SLPC    HX 8215   1.919   3.865   4.005 -0.4009 -0.9958  0.8997
   86SLPC    HY 8216   2.011   3.975   4.115 -0.3787 -0.2175 -0.1923
   86SLPC   O31 8217   2.064   3.775   4.138 -0.8356 -0.0919 -0.2379
   86SLPC   C31 8218   1.993   3.660   4.137  0.6241 -0.2050  0.3956
   86SLPC   O32 8219   1.878   3.647   4.095  0.0781  0.6245 -0.3227
   86SLPC   C32 8220   2.068   3.546   4.208 -0.3911  0.0911 -0.2471
   86SLPC   H2X 8221   2.145   3.580   4.281  0.3772 -0.8941 -0.5883
   86SLPC   H2Y 8222   2.107   3.482   4.126  0.6455 -2.7134  2.2665
   86SLPC   C23 8223   2.421   4.086   4.280 -0.9415 -0.3566 -0.0075
   86SLPC   H3R 8224   2.367   4.177   4.314  0.0729  0.2124  0.1139
   86SLPC   H3S 8225   2.524   4.122   4.298 -1.3370  1.9660 -1.8432
   86SLPC   C24 8226   2.386   3.960   4.355  0.1178  0.4935 -0.0033
   86SLPC   H4R 8227   2.460   3.878   4.354  0.7048  0.9893  0.7739
   86SLPC   H4S 8228   2.285   3.948   4.310 -0.5453  3.6367  0.3954
   86SLPC   C25 8229   2.361   3.991   4.506 -0.0812  0.0325 -0.0272
   86SLPC   H5R 8230   2.296   3.911   4.548  0.0816 -0.5186 -0.7971
   86SLPC   H5S 8231   2.301   4.083   4.519 -1.2146 -0.6544 -0.2140
   86SLPC   C26 8232   2.494   4.014   4.574  0.4298 -0.4829 -0.0356
   86SLPC   H6R 8233   2.533   4.111   4.537 -1.4246  1.3631  2.4775
   86SLPC   H6S 8234   2.571   3.942   4.537 -0.2508 -0.7593 -0.9355
   86SLPC   C27 8235   2.490   4.008   4.736 -0.3125  0.2099 -0.5218
   86SLPC   H7R 8236   2.594   4.014   4.774 -1.3507 -2.6711  3.4238
   86SLPC   H7S 8237   2.454   3.910   4.773  1.4055  0.0689  0.9219
   86SLPC   C28 8238   2.400   4.119   4.783  0.3185 -0.1765  0.5193
   86SLPC   H8R 8239   2.303   4.089   4.738  0.1699  1.6469 -0.4616
   86SLPC   H8S 8240   2.430   4.221   4.751 -2.1660  0.6456  0.6197
   86SLPC   C29 8241   2.391   4.106   4.929  0.1249  0.1133  0.2429
   86SLPC   H9R 8242   2.406   4.007   4.974  0.1658  0.1765  0.3716
   86SLPC  C210 8243   2.405   4.205   5.023  0.2919 -0.1241 -0.0256
   86SLPC  H10R 8244   2.424   4.172   5.126 -1.1530  0.6921  0.5297
   86SLPC  C211 8245   2.424   4.353   4.993 -0.4669  0.0726  0.4597
   86SLPC  H11R 8246   2.366   4.409   5.069 -0.0192  2.0243 -0.5559
   86SLPC  H11S 8247   2.382   4.379   4.893 -0.0188 -1.0270 -0.0336
   86SLPC  C212 8248   2.566   4.393   4.995 -0.6228 -0.8221  0.7578
   86SLPC  H12R 8249   2.632   4.349   4.919 -2.0956 -0.2888 -0.8995
   86SLPC  C213 8250   2.618   4.470   5.089  1.1779  1.0349 -0.3267
   86SLPC  H13R 8251   2.726   4.484   5.104  1.1750 -0.5552  1.5806
   86SLPC  C214 8252   2.540   4.529   5.200  0.5903  0.5993 -0.0283
   86SLPC  H14R 8253   2.444   4.476   5.218  0.5549  0.9756  1.0226
   86SLPC  H14S 8254   2.518   4.634   5.172 -0.5221  0.3665 -0.0945
   86SLPC  C215 8255   2.633   4.535   5.321  0.3457  0.9364 -0.4802
   86SLPC  H15R 8256   2.739   4.549   5.294  0.3194 -1.4667 -2.1925
   86SLPC  H15S 8257   2.639   4.438   5.375  1.6373  0.7329 -0.9542
   86SLPC  C216 8258   2.588   4.652   5.418  0.7868  0.5761 -0.0743
   86SLPC  H16R 8259   2.600   4.751   5.368  0.3552 -0.5474 -2.5654
   86SLPC  H16S 8260   2.671   4.646   5.492 -0.1481 -4.6370  0.9079
   86SLPC  C217 8261   2.455   4.631   5.490 -0.3054  0.5564  0.0108
   86SLPC  H17R 8262   2.370   4.643   5.420  0.1851 -2.0015 -1.1419
   86SLPC  H17S 8263   2.449   4.715   5.562  3.1068 -0.9375  2.2946
   86SLPC  C218 8264   2.440   4.503   5.568 -0.6336 -0.1256  0.2889
   86SLPC  H18R 8265   2.342   4.499   5.620 -2.4164 -0.9654 -2.8333
   86SLPC  H18S 8266   2.531   4.481   5.627 -1.8724 -2.0224  1.6270
   86SLPC  H18T 8267   2.421   4.424   5.491  1.3945  0.0379 -0.4440
   86SLPC   C33 8268   1.977   3.451   4.286  0.4269  0.7697 -0.9199
   86SLPC   H3X 8269   1.911   3.391   4.220  1.9338 -2.0351 -0.0115
   86SLPC   H3Y 8270   1.914   3.510   4.357  0.2370 -0.2829 -0.1885
   86SLPC   C34 8271   2.051   3.355   4.377 -0.2800  0.3170 -0.3719
   86SLPC   H4X 8272   2.115   3.406   4.452 -0.6800 -1.0623  0.9805
   86SLPC   H4Y 8273   2.111   3.285   4.314 -1.2945  0.2011 -1.2366
   86SLPC   C35 8274   1.948   3.273   4.461 -0.2121  0.6818  0.1048
   86SLPC   H5X 8275   1.986   3.175   4.497 -2.2653  0.4462  1.8619
   86SLPC   H5Y 8276   1.864   3.257   4.391  0.2001 -1.6873  0.0761
   86SLPC   C36 8277   1.889   3.339   4.590 -0.1786  0.3043 -0.5887
   86SLPC   H6X 8278   1.783   3.310   4.605 -0.7695  2.3846 -0.3751
   86SLPC   H6Y 8279   1.903   3.448   4.577  1.9961  0.1470  0.1254
   86SLPC   C37 8280   1.964   3.294   4.724  0.2148 -0.7218 -0.9018
   86SLPC   H7X 8281   2.072   3.320   4.729 -0.0575  0.2539  1.3144
   86SLPC   H7Y 8282   1.953   3.184   4.713  0.4506 -1.5556  4.6157
   86SLPC   C38 8283   1.894   3.356   4.852 -0.0876  0.2636 -0.4505
   86SLPC   H8X 8284   1.784   3.337   4.853 -0.5158  2.3718 -0.5054
   86SLPC   H8Y 8285   1.910   3.464   4.829  0.6046  0.4228  0.6950
   86SLPC   C39 8286   1.967   3.348   4.988 -0.0086  0.1231  0.1991
   86SLPC   H9X 8287   1.898   3.397   5.061 -0.5788  1.4441 -1.1637
   86SLPC   H9Y 8288   2.067   3.395   4.984  1.2001 -2.3624 -0.3716
   86SLPC  C310 8289   1.985   3.212   5.048 -0.1246 -0.0816 -0.0653
   86SLPC  H10X 8290   2.035   3.138   4.982 -3.0473 -0.8772 -1.5976
   86SLPC  H10Y 8291   1.882   3.173   5.067 -1.2138  2.0235 -1.2389
   86SLPC  C311 8292   2.058   3.225   5.184  0.7031  0.6540  0.3038
   86SLPC  H11X 8293   2.148   3.288   5.178 -0.1579  1.9096  0.2418
   86SLPC  H11Y 8294   2.073   3.118   5.210  0.9685 -0.4699 -3.7527
   86SLPC  C312 8295   1.959   3.286   5.296  0.1048  0.4154  1.2735
   86SLPC  H12X 8296   1.876   3.214   5.306  1.3795 -1.6307 -1.5385
   86SLPC  H12Y 8297   1.919   3.381   5.255 -1.1388 -0.5681  0.1132
   86SLPC  C313 8298   2.026   3.302   5.432  0.8539 -0.8874 -0.3288
   86SLPC  H13X 8299   2.108   3.377   5.427 -0.3109  0.4999  0.4371
   86SLPC  H13Y 8300   2.056   3.202   5.469  2.0852 -0.4629 -0.1493
   86SLPC  C314 8301   1.928   3.373   5.535 -0.5843 -0.4086  0.0670
   86SLPC  H14X 8302   1.856   3.299   5.576  0.1315 -0.6996  0.8178
   86SLPC  H14Y 8303   1.879   3.464   5.492  0.0073  0.0258  0.2918
   86SLPC  C315 8304   2.010   3.423   5.659 -0.0096 -0.2825  0.5208
   86SLPC  H15X 8305   1.936   3.476   5.722 -3.4640  0.5716 -3.7730
   86SLPC  H15Y 8306   2.091   3.492   5.628  0.7188 -0.6145  1.5827
   86SLPC  C316 8307   2.084   3.312   5.741  0.5358 -0.1298  0.6321
   86SLPC  H16X 8308   2.185   3.295   5.699  0.0379  0.1896 -0.7827
   86SLPC  H16Y 8309   2.035   3.215   5.717  1.8077 -0.7067  0.2856
   86SLPC  C317 8310   2.087   3.356   5.887  0.4352 -0.0914 -0.0389
   86SLPC  H17X 8311   1.988   3.398   5.913  0.6746  1.0894 -0.9737
   86SLPC  H17Y 8312   2.156   3.442   5.900 -0.6163  0.4955  1.9879
   86SLPC  C318 8313   2.120   3.239   5.975  0.1356 -0.2000 -0.3887
   86SLPC  H18X 8314   2.049   3.156   5.951  1.6503 -1.3125 -1.1873
   86SLPC  H18Y 8315   2.116   3.266   6.083  0.5251 -1.8271  0.0619
   86SLPC  H18Z 8316   2.225   3.208   5.961  1.1462  1.8984  1.7518
   87SLPC     N 8317   0.192   4.471   3.569  0.4160 -0.6854  0.5168
   87SLPC   C13 8318   0.195   4.334   3.635 -0.1369  0.0650  0.0016
   87SLPC  H13A 8319   0.197   4.340   3.743 -2.4842 -3.1427  0.3732
   87SLPC  H13B 8320   0.101   4.289   3.607 -0.9045  0.9995  0.9807
   87SLPC  H13C 8321   0.284   4.280   3.607 -0.6029 -1.3740  1.1895
   87SLPC   C14 8322   0.162   4.451   3.425 -0.1134 -0.5212  0.0187
   87SLPC  H14A 8323   0.056   4.437   3.406 -0.1546 -0.1181 -0.0668
   87SLPC  H14B 8324   0.192   4.532   3.360 -0.2054  0.8265  1.5832
   87SLPC  H14C 8325   0.206   4.359   3.391  1.8663  0.5146 -0.3573
   87SLPC   C15 8326   0.330   4.528   3.580 -1.0920  0.2659 -0.2396
   87SLPC  H15A 8327   0.401   4.455   3.544 -1.7432  0.5650 -2.2700
   87SLPC  H15B 8328   0.344   4.620   3.526 -0.3877  0.6909  0.6385
   87SLPC  H15C 8329   0.355   4.544   3.684  1.9963 -0.9168 -0.6640
   87SLPC   C12 8330   0.079   4.552   3.640 -0.0672  0.0267 -0.2473
   87SLPC  H12A 8331  -0.005   4.487   3.658 -2.3292  3.0659  1.2627
   87SLPC  H12B 8332   0.046   4.636   3.580  0.8329  1.4526  1.1689
   87SLPC   C11 8333   0.111   4.613   3.783 -0.5942  0.3368 -0.7628
   87SLPC  H11A 8334   0.169   4.536   3.839  2.0276  1.6673 -1.4652
   87SLPC  H11B 8335   0.017   4.624   3.840 -0.8672 -1.4585 -0.8026
   87SLPC     P 8336   0.183   4.857   3.700 -0.4980  0.1669 -0.1461
   87SLPC   O13 8337   0.324   4.879   3.664  0.2072 -0.2816  0.2563
   87SLPC   O14 8338   0.092   4.841   3.590 -0.0987  0.7414 -0.3679
   87SLPC   O12 8339   0.186   4.730   3.789  0.4202  0.6998 -0.4483
   87SLPC   O11 8340   0.136   4.979   3.796 -0.6132 -0.2812  0.4822
   87SLPC    C1 8341   0.182   4.990   3.931 -0.1134  0.5961 -0.3946
   87SLPC    HA 8342   0.276   4.931   3.943  0.2949  0.7642 -2.3525
   87SLPC    HB 8343   0.205   5.097   3.951  0.2843  0.6869 -1.2905
   87SLPC    C2 8344   0.083   4.928   4.030  0.0449  0.2506  0.3300
   87SLPC    HS 8345   0.070   4.820   4.006 -1.7465 -0.0837  2.5099
   87SLPC   O21 8346  -0.049   4.984   4.019  0.4054  0.1872  0.3718
   87SLPC   C21 8347  -0.146   4.910   4.067 -0.2589 -0.3314 -0.3499
   87SLPC   O22 8348  -0.140   4.790   4.082 -0.3240  0.0638 -0.6538
   87SLPC   C22 8349  -0.265   4.988   4.102  1.3664 -0.2438  0.0334
   87SLPC   H2R 8350  -0.249   5.089   4.145  0.0065  0.3714 -0.8141
   87SLPC   H2S 8351  -0.307   5.004   4.000  3.4784 -0.5517 -0.9447
   87SLPC    C3 8352   0.143   4.959   4.173  0.5102  0.5938 -0.2171
   87SLPC    HX 8353   0.115   5.065   4.193 -1.0854 -0.1302  1.6338
   87SLPC    HY 8354   0.254   4.959   4.182  0.4607 -0.2132  0.4953
   87SLPC   O31 8355   0.077   4.877   4.276 -0.7488  0.3978  0.3860
   87SLPC   C31 8356   0.112   4.746   4.261  0.4730  0.1236 -0.2039
   87SLPC   O32 8357   0.195   4.704   4.183  0.0737  0.8726  0.4806
   87SLPC   C32 8358   0.032   4.663   4.362 -0.7062 -0.2595 -0.2124
   87SLPC   H2X 8359   0.054   4.558   4.331 -0.9154  0.2759 -2.3281
   87SLPC   H2Y 8360  -0.077   4.678   4.351 -1.1086  1.0059  3.7359
   87SLPC   C23 8361  -0.362   4.915   4.193 -1.1006  0.0668 -0.0173
   87SLPC   H3R 8362  -0.394   4.815   4.156 -1.9873  0.4238 -0.2564
   87SLPC   H3S 8363  -0.451   4.981   4.200  0.1516  1.7374  0.8255
   87SLPC   C24 8364  -0.311   4.893   4.334  0.5079  0.5885 -0.1648
   87SLPC   H4R 8365  -0.217   4.834   4.324  0.1664 -0.1233  0.7623
   87SLPC   H4S 8366  -0.391   4.838   4.387  0.0421  1.9493  0.5823
   87SLPC   C25 8367  -0.271   5.012   4.414 -0.2003  0.1371 -0.3800
   87SLPC   H5R 8368  -0.355   5.084   4.414 -0.1799  0.1882  0.7817
   87SLPC   H5S 8369  -0.194   5.075   4.365 -3.9587  3.4241 -2.6764
   87SLPC   C26 8370  -0.232   4.978   4.559 -0.3994 -0.0790  0.2803
   87SLPC   H6R 8371  -0.143   4.912   4.555  0.8608  1.5734 -0.7306
   87SLPC   H6S 8372  -0.319   4.919   4.595  0.0890 -2.8639 -2.6142
   87SLPC   C27 8373  -0.211   5.103   4.647  0.5473 -0.5987  0.1582
   87SLPC   H7R 8374  -0.304   5.163   4.651 -0.3303 -1.9947  1.5590
   87SLPC   H7S 8375  -0.135   5.173   4.604  0.2878 -0.0446  0.5803
   87SLPC   C28 8376  -0.169   5.070   4.788 -0.5939 -0.3463  0.0279
   87SLPC   H8R 8377  -0.150   5.161   4.848 -3.7332  2.1561 -2.3756
   87SLPC   H8S 8378  -0.079   5.005   4.787  0.7731  1.4195 -1.3718
   87SLPC   C29 8379  -0.272   4.986   4.870  0.2350  0.1788 -0.1265
   87SLPC   H9R 8380  -0.324   4.904   4.818  0.5098  0.1194 -0.3120
   87SLPC  C210 8381  -0.293   4.985   5.001 -0.2663 -0.4174  0.2456
   87SLPC  H10R 8382  -0.370   4.916   5.040 -1.4739  1.2036  0.8253
   87SLPC  C211 8383  -0.233   5.085   5.102  0.3786  0.7720  0.0721
   87SLPC  H11R 8384  -0.202   5.181   5.055 -2.6454  1.9228  0.2398
   87SLPC  H11S 8385  -0.155   5.041   5.167 -0.8058 -0.6882  0.5560
   87SLPC  C212 8386  -0.341   5.129   5.198 -0.4410 -0.1249 -0.3606
   87SLPC  H12R 8387  -0.439   5.080   5.189  0.1725 -1.9459  2.0884
   87SLPC  C213 8388  -0.323   5.208   5.305  0.0512 -0.2963 -0.2248
   87SLPC  H13R 8389  -0.406   5.249   5.364 -0.6687 -1.0304 -0.7104
   87SLPC  C214 8390  -0.200   5.272   5.349  0.4543 -0.4420 -0.1066
   87SLPC  H14R 8391  -0.239   5.364   5.397  0.8228 -1.3519  2.0279
   87SLPC  H14S 8392  -0.119   5.298   5.277  0.6503 -0.3319  0.1529
   87SLPC  C215 8393  -0.141   5.214   5.476  0.1568  0.1914  0.0824
   87SLPC  H15R 8394  -0.104   5.118   5.433  0.7852 -0.1986  1.4482
   87SLPC  H15S 8395  -0.211   5.189   5.558  0.6812 -2.4042 -0.1608
   87SLPC  C216 8396  -0.007   5.277   5.507 -0.2228  0.5263  0.0697
   87SLPC  H16R 8397   0.057   5.305   5.420 -1.3770  0.7908 -0.7047
   87SLPC  H16S 8398   0.055   5.215   5.576 -0.5322 -0.5106 -0.5644
   87SLPC  C217 8399  -0.037   5.408   5.590 -0.1420 -0.0229  0.0642
   87SLPC  H17R 8400  -0.083   5.361   5.679  0.6390 -0.8764  0.0286
   87SLPC  H17S 8401  -0.115   5.461   5.532 -0.2666 -0.8056 -0.5061
   87SLPC  C218 8402   0.093   5.493   5.622  0.9265  0.0273 -0.4195
   87SLPC  H18R 8403   0.147   5.526   5.531 -0.2755  0.3138 -1.0514
   87SLPC  H18S 8404   0.158   5.431   5.687  0.2062 -1.0879 -0.7326
   87SLPC  H18T 8405   0.061   5.590   5.668  0.5622 -0.3983  0.2340
   87SLPC   C33 8406   0.057   4.691   4.507 -0.1676 -0.1365  0.0900
   87SLPC   H3X 8407   0.061   4.800   4.529 -1.4788  0.5495 -2.6416
   87SLPC   H3Y 8408   0.160   4.656   4.533  0.5393  3.0423  2.1674
   87SLPC   C34 8409  -0.048   4.625   4.599 -0.2220 -0.4299 -0.6560
   87SLPC   H4X 8410  -0.067   4.517   4.582  1.7524 -0.7482 -1.0623
   87SLPC   H4Y 8411  -0.140   4.685   4.580 -0.2608  0.8605  2.7879
   87SLPC   C35 8412  -0.014   4.648   4.748 -0.7338 -0.3287 -0.6471
   87SLPC   H5X 8413   0.005   4.754   4.776 -1.2013 -0.6608  1.0366
   87SLPC   H5Y 8414   0.085   4.601   4.762  0.2888  1.8044 -0.2067
   87SLPC   C36 8415  -0.128   4.610   4.845 -0.5085 -0.2890  0.7402
   87SLPC   H6X 8416  -0.178   4.513   4.825 -0.5633 -0.2921  0.8921
   87SLPC   H6Y 8417  -0.214   4.680   4.837 -0.5339 -0.4223 -0.2316
   87SLPC   C37 8418  -0.083   4.617   4.990 -0.1896  0.7153  0.2092
   87SLPC   H7X 8419  -0.035   4.714   5.015 -2.0322  1.6877  0.1454
   87SLPC   H7Y 8420  -0.015   4.530   5.007  0.4508  0.9542 -1.0235
   87SLPC   C38 8421  -0.196   4.590   5.096 -0.0382  0.6788 -0.2826
   87SLPC   H8X 8422  -0.241   4.488   5.099  0.9180  0.2165 -1.1360
   87SLPC   H8Y 8423  -0.276   4.665   5.075 -0.3340  0.3041 -0.5046
   87SLPC   C39 8424  -0.137   4.609   5.237  0.3351  0.1122 -0.4515
   87SLPC   H9X 8425  -0.087   4.708   5.237 -0.9184  0.8208  1.7510
   87SLPC   H9Y 8426  -0.067   4.524   5.251  0.1635 -0.0231 -0.4018
   87SLPC  C310 8427  -0.236   4.602   5.360  0.5283 -0.1054  0.7793
   87SLPC  H10X 8428  -0.173   4.580   5.449  2.7782 -0.4283 -0.8284
   87SLPC  H10Y 8429  -0.311   4.521   5.345 -1.5567  1.6689  1.0309
   87SLPC  C311 8430  -0.322   4.733   5.372 -0.2302 -0.5207  0.4388
   87SLPC  H11X 8431  -0.347   4.762   5.268 -0.4050 -3.1699 -0.3275
   87SLPC  H11Y 8432  -0.265   4.814   5.423  0.6545 -1.3730  0.8107
   87SLPC  C312 8433  -0.444   4.702   5.458  0.0679 -0.2411  0.4673
   87SLPC  H12X 8434  -0.520   4.637   5.410  0.3007  1.1879 -2.0172
   87SLPC  H12Y 8435  -0.502   4.793   5.482  0.1726  0.0259 -0.2589
   87SLPC  C313 8436  -0.416   4.651   5.602 -0.5734 -0.4259  0.0315
   87SLPC  H13X 8437  -0.351   4.726   5.653  0.6987  0.0644 -2.1323
   87SLPC  H13Y 8438  -0.362   4.553   5.603  2.2424  0.9937  1.8888
   87SLPC  C314 8439  -0.542   4.643   5.689 -0.3224 -0.3694  0.3947
   87SLPC  H14X 8440  -0.599   4.566   5.633  1.1699  1.0401 -3.4586
   87SLPC  H14Y 8441  -0.592   4.742   5.685  2.0809  0.9007 -0.2734
   87SLPC  C315 8442  -0.509   4.604   5.829  0.3589 -0.3318  0.0012
   87SLPC  H15X 8443  -0.481   4.696   5.885 -0.2553 -1.0316  1.5383
   87SLPC  H15Y 8444  -0.428   4.530   5.845  0.9715  0.0196 -1.3779
   87SLPC  C316 8445  -0.622   4.553   5.924  0.1473  0.8259  0.0056
   87SLPC  H16X 8446  -0.701   4.631   5.926 -1.0283 -0.3377  0.9969
   87SLPC  H16Y 8447  -0.576   4.548   6.024 -2.1994  0.9175  1.1633
   87SLPC  C317 8448  -0.671   4.417   5.885  1.2464  0.5510  0.1328
   87SLPC  H17X 8449  -0.586   4.346   5.894 -0.7157 -1.5767  3.4662
   87SLPC  H17Y 8450  -0.706   4.406   5.780  0.7926 -0.6442  0.3983
   87SLPC  C318 8451  -0.775   4.358   5.979 -0.1371  0.0307  0.2402
   87SLPC  H18X 8452  -0.854   4.434   5.995 -0.9169 -0.2211 -2.0488
   87SLPC  H18Y 8453  -0.727   4.344   6.078 -0.1272 -0.2465  0.1978
   87SLPC  H18Z 8454  -0.814   4.263   5.936 -0.7836  0.4244 -0.0646
   88SLPC     N 8455   3.576   5.402   3.588 -0.1468 -0.2960 -0.1933
   88SLPC   C13 8456   3.431   5.441   3.563 -0.0486  0.1996 -0.0671
   88SLPC  H13A 8457   3.384   5.454   3.660  2.8164  1.2787  1.2866
   88SLPC  H13B 8458   3.432   5.533   3.506 -1.5697  1.1072  1.2621
   88SLPC  H13C 8459   3.379   5.365   3.507 -0.3356 -1.0575  1.8011
   88SLPC   C14 8460   3.644   5.382   3.456  0.0991  0.2107 -0.0807
   88SLPC  H14A 8461   3.751   5.366   3.453  0.0733 -0.2664  1.1402
   88SLPC  H14B 8462   3.597   5.307   3.394 -3.6377  0.4575  2.1331
   88SLPC  H14C 8463   3.633   5.473   3.397  0.5462 -0.4497 -1.2248
   88SLPC   C15 8464   3.576   5.278   3.669  0.3551 -0.0092 -0.4930
   88SLPC  H15A 8465   3.678   5.249   3.688  0.7034  1.1436 -0.5443
   88SLPC  H15B 8466   3.535   5.305   3.765  0.0509 -1.6659 -0.1275
   88SLPC  H15C 8467   3.524   5.198   3.619  0.9139 -0.0212 -1.0693
   88SLPC   C12 8468   3.646   5.524   3.651 -0.5999  0.0223  0.4521
   88SLPC  H12A 8469   3.629   5.610   3.589  0.9865 -0.5063 -0.7732
   88SLPC  H12B 8470   3.752   5.505   3.641 -0.2141  3.0463 -3.3843
   88SLPC   C11 8471   3.624   5.570   3.787 -0.4074 -0.5674 -0.5455
   88SLPC  H11A 8472   3.628   5.474   3.842 -0.2544 -1.0432 -1.3692
   88SLPC  H11B 8473   3.529   5.628   3.792  0.4346  0.8045  0.2571
   88SLPC     P 8474   3.729   5.770   3.923  0.6748  0.4719 -0.1065
   88SLPC   O13 8475   3.860   5.827   3.953 -0.4356  0.5223  0.3333
   88SLPC   O14 8476   3.621   5.861   3.884  0.0038  0.1771 -0.6806
   88SLPC   O12 8477   3.731   5.655   3.816 -0.0120  0.2667 -0.2462
   88SLPC   O11 8478   3.685   5.694   4.058 -0.4124  0.8390  0.5980
   88SLPC    C1 8479   3.762   5.590   4.117  0.5245 -0.2476 -0.4686
   88SLPC    HA 8480   3.701   5.497   4.124  0.3501 -0.1882 -1.1407
   88SLPC    HB 8481   3.858   5.563   4.067  1.2487  2.5520 -0.7226
   88SLPC    C2 8482   3.797   5.626   4.265 -0.0657 -0.4012 -0.5709
   88SLPC    HS 8483   3.819   5.534   4.324  0.6810  0.8628  1.2041
   88SLPC   O21 8484   3.696   5.701   4.335  0.0484 -0.5084 -0.3525
   88SLPC   C21 8485   3.588   5.625   4.358 -0.1179  0.3844  0.0848
   88SLPC   O22 8486   3.566   5.517   4.316 -1.3161 -0.0429 -0.3701
   88SLPC   C22 8487   3.493   5.714   4.432 -0.1050 -0.1741 -0.3762
   88SLPC   H2R 8488   3.493   5.813   4.383  0.3424 -0.4814 -1.0118
   88SLPC   H2S 8489   3.388   5.676   4.428 -0.2821  0.2650  0.0215
   88SLPC    C3 8490   3.926   5.715   4.267 -0.5903  0.2012  0.4196
   88SLPC    HX 8491   3.897   5.797   4.198 -0.8365  0.7004  1.1153
   88SLPC    HY 8492   4.013   5.664   4.220 -0.9085  1.5317 -1.7418
   88SLPC   O31 8493   3.960   5.778   4.393  0.9065 -0.1221  0.4260
   88SLPC   C31 8494   4.083   5.767   4.440  1.0652 -0.2680  0.3068
   88SLPC   O32 8495   4.173   5.704   4.393 -0.5391  0.3580  0.0316
   88SLPC   C32 8496   4.097   5.847   4.573 -0.3013  0.5217 -0.7295
   88SLPC   H2X 8497   4.047   5.945   4.560 -0.7572  0.5071  0.7172
   88SLPC   H2Y 8498   4.205   5.859   4.597 -0.5427  1.1017  0.0807
   88SLPC   C23 8499   3.540   5.723   4.584 -0.2015  0.1216  0.2200
   88SLPC   H3R 8500   3.477   5.791   4.645  0.9877  1.8108 -0.3475
   88SLPC   H3S 8501   3.644   5.762   4.580 -0.9378  2.1426 -2.7895
   88SLPC   C24 8502   3.531   5.586   4.665 -0.1143  0.1836  0.8866
   88SLPC   H4R 8503   3.592   5.515   4.604  1.1201  2.2782 -0.4302
   88SLPC   H4S 8504   3.426   5.550   4.669 -0.7128  1.3515 -1.7336
   88SLPC   C25 8505   3.584   5.601   4.810 -0.3076 -0.1210 -0.4170
   88SLPC   H5R 8506   3.679   5.659   4.809  0.6693 -1.6416  0.4013
   88SLPC   H5S 8507   3.617   5.497   4.832 -2.6363 -1.4977 -2.7850
   88SLPC   C26 8508   3.474   5.666   4.901 -0.7682 -0.3223 -0.3555
   88SLPC   H6R 8509   3.395   5.592   4.923 -0.2624 -0.8909 -0.4362
   88SLPC   H6S 8510   3.429   5.759   4.859 -0.5547  0.0202  0.1582
   88SLPC   C27 8511   3.533   5.705   5.038  0.1786 -0.4549  0.1120
   88SLPC   H7R 8512   3.590   5.797   5.015  2.0773 -1.6444 -0.1575
   88SLPC   H7S 8513   3.605   5.628   5.074 -0.9641 -1.8792 -0.5447
   88SLPC   C28 8514   3.425   5.724   5.152  0.3017 -0.0712 -0.3606
   88SLPC   H8R 8515   3.363   5.635   5.177 -1.6924  1.2226 -0.4321
   88SLPC   H8S 8516   3.361   5.809   5.120 -1.0848 -0.2273  1.7906
   88SLPC   C29 8517   3.492   5.775   5.280  0.0117  0.0272  0.5718
   88SLPC   H9R 8518   3.586   5.828   5.261 -0.1676 -0.1893 -1.1048
   88SLPC  C210 8519   3.427   5.787   5.401  0.3254  1.0578  0.4089
   88SLPC  H10R 8520   3.488   5.834   5.479  1.9908 -0.9748  0.4142
   88SLPC  C211 8521   3.281   5.751   5.427 -1.1958  0.6689 -0.4457
   88SLPC  H11R 8522   3.282   5.684   5.516 -1.5260  2.0298  0.6212
   88SLPC  H11S 8523   3.233   5.690   5.348 -1.3923 -0.5166  0.5564
   88SLPC  C212 8524   3.198   5.869   5.456 -0.8378  0.6429 -0.0720
   88SLPC  H12R 8525   3.150   5.911   5.365 -1.3454 -0.3369 -0.2716
   88SLPC  C213 8526   3.184   5.942   5.573  0.2861 -0.3779  0.8068
   88SLPC  H13R 8527   3.121   6.032   5.574  0.3681 -0.3193  1.9829
   88SLPC  C214 8528   3.237   5.902   5.707 -0.2768  0.7490  0.3566
   88SLPC  H14R 8529   3.267   5.795   5.700  3.6741  1.7651 -0.0600
   88SLPC  H14S 8530   3.147   5.897   5.773  0.6106 -0.2216  1.5447
   88SLPC  C215 8531   3.338   6.001   5.772 -0.1990  0.0643 -0.5758
   88SLPC  H15R 8532   3.302   6.105   5.755 -0.4563  0.0027 -0.4046
   88SLPC  H15S 8533   3.440   5.990   5.728 -0.7406  0.2190 -1.9090
   88SLPC  C216 8534   3.354   5.998   5.925  0.0829 -0.0388 -0.1611
   88SLPC  H16R 8535   3.364   5.891   5.954 -1.3792  0.4883  2.6683
   88SLPC  H16S 8536   3.258   6.043   5.959 -0.9391 -2.3528  0.1824
   88SLPC  C217 8537   3.463   6.089   5.992  0.0304  0.1794  0.6409
   88SLPC  H17R 8538   3.457   6.195   5.960  1.1153 -0.3101 -1.3079
   88SLPC  H17S 8539   3.558   6.042   5.957  0.3411 -0.7551  2.5649
   88SLPC  C218 8540   3.481   6.076   6.140  0.1185 -0.4796  0.4335
   88SLPC  H18R 8541   3.411   6.130   6.208 -0.5118 -0.8040  0.0551
   88SLPC  H18S 8542   3.580   6.118   6.166 -0.1743  1.2976 -1.0750
   88SLPC  H18T 8543   3.484   5.971   6.176  2.1479 -0.6237 -0.0812
   88SLPC   C33 8544   4.033   5.769   4.688  0.2606  0.4167  0.0306
   88SLPC   H3X 8545   4.101   5.683   4.697  0.6193  0.7437  0.5161
   88SLPC   H3Y 8546   3.931   5.731   4.667  0.1329 -0.9270  2.6543
   88SLPC   C34 8547   4.024   5.854   4.820  0.1210 -0.3745 -0.1398
   88SLPC   H4X 8548   3.990   5.958   4.803 -1.4070 -0.5360  1.5734
   88SLPC   H4Y 8549   4.122   5.868   4.871 -0.6157  0.1380  1.1848
   88SLPC   C35 8550   3.924   5.794   4.924 -0.1993 -0.2510  0.3365
   88SLPC   H5X 8551   3.943   5.685   4.931  2.3273 -0.0720 -2.0214
   88SLPC   H5Y 8552   3.820   5.805   4.886 -1.9436  1.8065  4.9425
   88SLPC   C36 8553   3.922   5.891   5.046  0.0192  0.2042  0.2720
   88SLPC   H6X 8554   3.856   5.977   5.019 -0.5352 -0.6872 -1.3936
   88SLPC   H6Y 8555   4.026   5.928   5.057 -0.4694  1.2934  1.4043
   88SLPC   C37 8556   3.877   5.811   5.174 -0.5063 -0.3489  0.2089
   88SLPC   H7X 8557   3.962   5.740   5.182  0.5544  1.0673  2.8382
   88SLPC   H7Y 8558   3.779   5.763   5.155  0.0743 -0.6133 -2.5268
   88SLPC   C38 8559   3.883   5.887   5.309 -0.3322 -0.3020 -0.3322
   88SLPC   H8X 8560   3.831   5.986   5.305  1.4646  0.7059  0.2476
   88SLPC   H8Y 8561   3.990   5.913   5.324 -1.0418  2.5905  0.3388
   88SLPC   C39 8562   3.843   5.802   5.433 -0.2922  0.4929 -0.9035
   88SLPC   H9X 8563   3.893   5.705   5.412 -2.3153 -0.1087 -3.4686
   88SLPC   H9Y 8564   3.732   5.796   5.431 -0.3486  1.4026 -3.0380
   88SLPC  C310 8565   3.891   5.867   5.565  0.5564  0.7190 -0.1602
   88SLPC  H10X 8566   4.001   5.875   5.550  0.6364 -1.8499 -1.3375
   88SLPC  H10Y 8567   3.872   5.801   5.652 -0.1699  0.4277 -0.5372
   88SLPC  C311 8568   3.820   6.002   5.581  0.3557 -0.4517  0.4176
   88SLPC  H11X 8569   3.712   5.991   5.558  0.2504  1.7709 -0.4159
   88SLPC  H11Y 8570   3.862   6.074   5.508 -3.6384  0.1449 -1.5673
   88SLPC  C312 8571   3.821   6.043   5.728 -0.2478 -0.1575 -0.4686
   88SLPC  H12X 8572   3.928   6.038   5.758 -1.0053 -0.0901  2.5488
   88SLPC  H12Y 8573   3.758   5.981   5.795  0.0944  0.2670  0.2597
   88SLPC  C313 8574   3.772   6.191   5.744 -0.4099  0.5742 -0.8575
   88SLPC  H13X 8575   3.662   6.177   5.743 -0.0387 -3.6207 -1.5287
   88SLPC  H13Y 8576   3.796   6.256   5.657  1.1294  1.3491  0.1080
   88SLPC  C314 8577   3.800   6.246   5.884 -0.0121 -0.5228 -0.1874
   88SLPC  H14X 8578   3.898   6.228   5.931 -0.4015 -0.1195  0.7992
   88SLPC  H14Y 8579   3.718   6.209   5.949  0.4660  0.5451  1.0535
   88SLPC  C315 8580   3.792   6.399   5.887 -0.3831  0.1544  0.2686
   88SLPC  H15X 8581   3.700   6.440   5.840 -0.8212  1.3644  2.0892
   88SLPC  H15Y 8582   3.873   6.444   5.826  0.0948 -0.9589  0.0548
   88SLPC  C316 8583   3.787   6.452   6.032 -0.5331 -0.5614 -0.1221
   88SLPC  H16X 8584   3.865   6.403   6.094 -2.1774 -0.8931  1.7967
   88SLPC  H16Y 8585   3.690   6.429   6.079 -0.9960 -0.0826 -0.8235
   88SLPC  C317 8586   3.816   6.603   6.051  0.3264  0.1088  0.0280
   88SLPC  H17X 8587   3.925   6.620   6.042  1.0482 -3.8995 -0.5757
   88SLPC  H17Y 8588   3.787   6.630   6.155  2.7305 -3.0199  1.6999
   88SLPC  C318 8589   3.740   6.692   5.947  0.3563  0.0945 -0.6187
   88SLPC  H18X 8590   3.635   6.661   5.931  0.2882  0.7085 -1.4059
   88SLPC  H18Y 8591   3.794   6.686   5.850 -0.4205 -2.3405 -0.9771
   88SLPC  H18Z 8592   3.725   6.795   5.985 -0.0202  0.0165 -0.5494
   89SAPE     N 8593   4.687   4.045   8.103  0.4409  0.9060 -0.5395
   89SAPE   HN1 8594   4.610   3.978   8.082 -0.6214  2.2237 -0.9438
   89SAPE   HN2 8595   4.681   4.112   8.023 -0.6709  2.5945  0.8981
   89SAPE   HN3 8596   4.785   4.009   8.100  0.2483  0.4237 -2.1679
   89SAPE   C12 8597   4.666   4.108   8.238  0.1420  0.2506 -0.7987
   89SAPE  H12A 8598   4.568   4.158   8.242  1.0001  1.9059  2.1052
   89SAPE  H12B 8599   4.743   4.184   8.264  0.9821 -0.9844  0.4639
   89SAPE   C11 8600   4.654   4.003   8.350 -0.1569  0.1458  0.1945
   89SAPE  H11A 8601   4.578   3.922   8.342  1.3298 -1.2607 -0.3120
   89SAPE  H11B 8602   4.616   4.059   8.438 -0.2082 -1.1051  0.9917
   89SAPE     P 8603   4.808   3.871   8.513  0.1401 -0.1425 -0.0184
   89SAPE   O13 8604   4.873   3.962   8.612 -0.6961 -0.2908  0.7950
   89SAPE   O14 8605   4.685   3.810   8.562  0.0714  0.0714 -0.2867
   89SAPE   O12 8606   4.779   3.949   8.380 -0.0980 -0.6914 -0.4706
   89SAPE   O11 8607   4.912   3.762   8.470 -0.3094 -0.3349 -0.6003
   89SAPE    C1 8608   5.032   3.801   8.405 -0.4001  0.4693 -0.3672
   89SAPE    HA 8609   5.079   3.895   8.439 -1.4635  0.5433  1.0294
   89SAPE    HB 8610   5.102   3.716   8.421 -0.8962 -0.1292 -1.3005
   89SAPE    C2 8611   5.030   3.810   8.251  0.0481 -0.3943 -0.7942
   89SAPE    HS 8612   4.982   3.909   8.240  0.9334 -0.0732 -1.9723
   89SAPE   O21 8613   4.954   3.704   8.189  0.2923  0.1181  0.0919
   89SAPE   C21 8614   4.872   3.737   8.095 -0.1510  0.7653 -0.1016
   89SAPE   O22 8615   4.860   3.844   8.041 -0.0661 -0.3196 -0.1262
   89SAPE   C22 8616   4.798   3.611   8.058 -0.5707 -0.1659 -0.6298
   89SAPE   H2R 8617   4.869   3.540   8.011  0.3303  0.8297 -0.8042
   89SAPE   H2S 8618   4.784   3.562   8.157 -0.5742  0.0577 -0.5191
   89SAPE    C3 8619   5.168   3.832   8.179  0.3797 -0.0893  0.5493
   89SAPE    HX 8620   5.219   3.734   8.167 -2.4819 -1.5440 -0.6772
   89SAPE    HY 8621   5.236   3.900   8.234  2.2129  0.6315 -2.4049
   89SAPE   O31 8622   5.142   3.882   8.043  0.6405 -0.3085 -0.5998
   89SAPE   C31 8623   5.238   3.865   7.952  0.6520 -0.9220 -0.1793
   89SAPE   O32 8624   5.349   3.827   7.964 -0.1328  0.3195  0.3651
   89SAPE   C32 8625   5.175   3.900   7.816  0.0373 -0.1557 -0.4820
   89SAPE   H2X 8626   5.092   3.828   7.796  1.4419 -1.1309 -3.3449
   89SAPE   H2Y 8627   5.252   3.871   7.742  0.3664  0.9866 -0.6134
   89SAPE   C23 8628   4.666   3.608   7.968  0.1327 -0.2179 -0.0896
   89SAPE   H3R 8629   4.589   3.670   8.018  1.3521  0.1975  1.3551
   89SAPE   H3S 8630   4.635   3.502   7.968  0.6057 -0.3832 -2.0997
   89SAPE   C24 8631   4.690   3.659   7.823  0.0764 -0.4838 -1.2279
   89SAPE   H4R 8632   4.767   3.588   7.786  2.2781  0.5689  1.0044
   89SAPE   H4S 8633   4.735   3.761   7.826 -2.2938  0.6674  2.3618
   89SAPE   C25 8634   4.550   3.658   7.763 -0.4208 -0.5065 -0.1529
   89SAPE   H5R 8635   4.468   3.720   7.803 -1.8166 -1.7419 -0.9577
   89SAPE   C26 8636   4.522   3.595   7.652  0.2012  1.1946  0.1015
   89SAPE   H6R 8637   4.429   3.617   7.599  0.1539  1.0145  0.1111
   89SAPE   C27 8638   4.620   3.518   7.572  0.2693  0.1310  0.0985
   89SAPE   H7R 8639   4.716   3.574   7.574  0.3971 -0.0185 -1.1995
   89SAPE   H7S 8640   4.587   3.523   7.466 -1.6705 -0.6298  0.6130
   89SAPE   C28 8641   4.649   3.374   7.613  0.2507 -0.0533 -0.6430
   89SAPE   H8R 8642   4.630   3.344   7.717 -3.3432 -1.5740 -1.5797
   89SAPE   C29 8643   4.708   3.285   7.532  0.1625 -0.2071  0.2560
   89SAPE   H9R 8644   4.726   3.184   7.571  1.0697 -0.2607 -0.2544
   89SAPE  C210 8645   4.733   3.305   7.382  0.4270  0.4942 -0.6344
   89SAPE  H10R 8646   4.815   3.236   7.353  1.6577  1.4586  0.3958
   89SAPE  H10S 8647   4.763   3.412   7.373 -0.2150  0.7589  0.2608
   89SAPE  C211 8648   4.601   3.296   7.311 -0.1738 -0.1757 -0.1262
   89SAPE  H11R 8649   4.518   3.242   7.359 -2.8194  0.6955 -3.2972
   89SAPE  C212 8650   4.568   3.346   7.195 -0.5411 -0.5171  0.6544
   89SAPE  H12R 8651   4.462   3.340   7.167 -0.2832 -2.5066 -0.0330
   89SAPE  C213 8652   4.677   3.414   7.115  0.2357 -0.0402  0.0595
   89SAPE  H13R 8653   4.767   3.349   7.111 -0.2171 -0.7273  0.7235
   89SAPE  H13S 8654   4.713   3.508   7.162 -0.7876  0.7678 -0.7220
   89SAPE  C214 8655   4.625   3.449   6.978  0.2677  0.4580 -0.1078
   89SAPE  H14R 8656   4.551   3.530   6.977 -0.7377 -0.3789 -3.0720
   89SAPE  C215 8657   4.670   3.404   6.859 -0.2291  0.3712 -0.6786
   89SAPE  H15R 8658   4.626   3.455   6.772 -0.4325  0.5457 -0.4775
   89SAPE  C216 8659   4.783   3.304   6.838  0.2435 -0.7817 -0.1289
   89SAPE  H16R 8660   4.754   3.200   6.861 -1.2724 -0.2011  0.7795
   89SAPE  H16S 8661   4.871   3.333   6.900  0.7081  1.4767 -1.7171
   89SAPE  C217 8662   4.826   3.302   6.687  0.0091  0.3772  0.2025
   89SAPE  H17R 8663   4.739   3.266   6.627 -0.6247  0.0606  1.2863
   89SAPE  H17S 8664   4.917   3.241   6.671 -0.1612  0.1729  0.0001
   89SAPE  C218 8665   4.861   3.449   6.625 -0.1059 -0.3148 -0.4783
   89SAPE  H18R 8666   4.772   3.514   6.636 -0.2367 -0.7361  1.1995
   89SAPE  H18S 8667   4.876   3.436   6.515  1.1572  0.5027 -0.4174
   89SAPE  C219 8668   4.969   3.535   6.698 -0.6035 -0.3212  0.2449
   89SAPE  H19R 8669   4.936   3.561   6.801 -0.5316  1.6011 -0.1678
   89SAPE  H19S 8670   4.975   3.630   6.641 -0.6969 -1.0209 -0.9593
   89SAPE  C220 8671   5.102   3.462   6.737 -0.0256 -0.7600  0.4584
   89SAPE  H20R 8672   5.129   3.398   6.650  2.6574  1.7022 -0.6930
   89SAPE  H20S 8673   5.099   3.401   6.830 -0.3641  1.2621  1.8524
   89SAPE  H20T 8674   5.174   3.541   6.765 -1.0376  0.0143  0.9482
   89SAPE   C33 8675   5.125   4.043   7.791  0.9736  0.1505 -0.1184
   89SAPE   H3X 8676   5.203   4.108   7.837 -0.1691  1.9395 -0.6346
   89SAPE   H3Y 8677   5.029   4.065   7.841 -0.0963 -0.7296 -1.6976
   89SAPE   C34 8678   5.106   4.071   7.640 -0.2403  0.5885 -0.0295
   89SAPE   H4X 8679   5.018   4.138   7.626 -0.7046  0.5049  2.1057
   89SAPE   H4Y 8680   5.081   3.982   7.579 -2.0498 -0.4936  2.1500
   89SAPE   C35 8681   5.237   4.127   7.581  0.1123  0.3252 -0.0484
   89SAPE   H5X 8682   5.318   4.064   7.623 -0.3802  0.7659  1.6256
   89SAPE   H5Y 8683   5.240   4.232   7.616 -2.0860  1.9206 -3.9913
   89SAPE   C36 8684   5.240   4.132   7.432  0.2118  0.5463  0.2811
   89SAPE   H6X 8685   5.330   4.194   7.412  0.8063 -0.7758 -1.3784
   89SAPE   H6Y 8686   5.154   4.185   7.385 -0.7091  0.5804  1.9213
   89SAPE   C37 8687   5.250   3.998   7.351 -0.1903  0.6115 -0.5715
   89SAPE   H7X 8688   5.162   3.937   7.383  0.5643 -1.1874 -1.8183
   89SAPE   H7Y 8689   5.340   3.939   7.377 -2.7080 -2.1544  2.9422
   89SAPE   C38 8690   5.242   4.018   7.195  0.4545  0.4256 -0.1518
   89SAPE   H8X 8691   5.329   4.079   7.163  2.0050 -1.3422  0.5030
   89SAPE   H8Y 8692   5.148   4.074   7.176 -0.5598 -0.9837  0.5482
   89SAPE   C39 8693   5.255   3.890   7.116 -0.3054 -0.0686  0.4979
   89SAPE   H9X 8694   5.170   3.823   7.143  0.0413 -0.5752  0.3527
   89SAPE   H9Y 8695   5.343   3.825   7.136  0.2484  0.1763 -1.0237
   89SAPE  C310 8696   5.257   3.912   6.964  0.0369  0.4775  0.0688
   89SAPE  H10X 8697   5.360   3.946   6.939  0.4364 -1.5088 -1.1633
   89SAPE  H10Y 8698   5.183   3.993   6.948 -1.0410 -0.8180 -1.7579
   89SAPE  C311 8699   5.221   3.784   6.884  0.1768  0.7505  0.3335
   89SAPE  H11X 8700   5.121   3.754   6.922  0.1312  1.3906  0.7435
   89SAPE  H11Y 8701   5.298   3.706   6.897  0.5923  1.3899  2.0967
   89SAPE  C312 8702   5.202   3.818   6.733  0.7159 -0.5438  0.3759
   89SAPE  H12X 8703   5.178   3.727   6.674  0.1078 -0.6246  0.7391
   89SAPE  H12Y 8704   5.304   3.842   6.698  0.6856 -3.0633 -1.6746
   89SAPE  C313 8705   5.100   3.923   6.683  0.4883 -0.0487 -0.5949
   89SAPE  H13X 8706   5.100   4.007   6.756  0.4492 -0.4951 -0.0767
   89SAPE  H13Y 8707   4.998   3.882   6.691  0.5085  0.2158  1.9479
   89SAPE  C314 8708   5.120   3.972   6.535  0.0165 -0.2627 -0.3587
   89SAPE  H14X 8709   5.036   4.045   6.521 -1.0626 -0.5914  3.3779
   89SAPE  H14Y 8710   5.096   3.885   6.470 -1.6886  0.0011 -0.1449
   89SAPE  C315 8711   5.255   4.029   6.512  0.3077 -0.2448  0.2744
   89SAPE  H15X 8712   5.327   3.944   6.510  1.1848  0.4771 -1.2497
   89SAPE  H15Y 8713   5.288   4.095   6.595 -1.3951  1.5370 -0.3871
   89SAPE  C316 8714   5.271   4.091   6.373 -0.0599  0.7741 -0.2359
   89SAPE  H16X 8715   5.378   4.121   6.365  0.4325 -0.9917 -0.6745
   89SAPE  H16Y 8716   5.203   4.175   6.351 -3.0113 -1.3695  0.1139
   89SAPE  C317 8717   5.253   3.977   6.270 -0.0555 -0.9932  0.5399
   89SAPE  H17X 8718   5.153   3.929   6.282  0.3457 -1.7252  1.0312
   89SAPE  H17Y 8719   5.339   3.907   6.272  0.9406  0.1520 -0.5420
   89SAPE  C318 8720   5.249   4.031   6.127 -0.0398  0.7475 -0.9760
   89SAPE  H18X 8721   5.248   3.946   6.057  2.7051 -1.1158  1.0492
   89SAPE  H18Y 8722   5.334   4.099   6.104  0.5467  0.2834 -0.2177
   89SAPE  H18Z 8723   5.161   4.096   6.105 -0.2298  0.4367 -1.1386
   90SAPE     N 8724   4.092   2.584   8.141  0.0491 -0.6836  0.2519
   90SAPE   HN1 8725   4.176   2.556   8.087 -0.5094  0.8437 -1.4887
   90SAPE   HN2 8726   4.019   2.612   8.072 -0.7289 -0.0825  1.2820
   90SAPE   HN3 8727   4.119   2.666   8.199  0.1879  1.1170 -2.2231
   90SAPE   C12 8728   4.050   2.469   8.229 -0.5513 -0.3877  0.3573
   90SAPE  H12A 8729   3.974   2.506   8.301 -1.4340 -3.2180  0.9933
   90SAPE  H12B 8730   4.139   2.440   8.289 -0.8811 -3.1735 -0.3678
   90SAPE   C11 8731   4.001   2.347   8.147  0.6833 -0.2021 -0.0566
   90SAPE  H11A 8732   3.925   2.385   8.075  1.8995  0.2517 -1.1368
   90SAPE  H11B 8733   3.960   2.278   8.224 -0.2845 -0.8588 -1.1166
   90SAPE     P 8734   4.123   2.143   8.022 -0.0609  0.1585  0.0616
   90SAPE   O13 8735   4.263   2.106   8.032 -0.5241  0.2229 -0.5277
   90SAPE   O14 8736   4.028   2.060   8.104 -0.0560  0.2141 -0.5076
   90SAPE   O12 8737   4.114   2.295   8.068  0.2104 -0.3890  0.0586
   90SAPE   O11 8738   4.077   2.147   7.875 -0.1310  0.2240 -0.0118
   90SAPE    C1 8739   3.951   2.178   7.824  0.3394 -0.3940  0.1281
   90SAPE    HA 8740   3.897   2.247   7.893 -2.2486 -1.8395 -0.2918
   90SAPE    HB 8741   3.940   2.220   7.721 -1.4051  0.8870  0.7819
   90SAPE    C2 8742   3.872   2.039   7.812 -0.1518  0.2938 -0.1837
   90SAPE    HS 8743   3.898   1.988   7.908  0.5423 -1.3122 -1.1858
   90SAPE   O21 8744   3.932   1.962   7.698  0.7583  0.2755  0.0791
   90SAPE   C21 8745   3.911   1.837   7.708 -0.1605  0.1470  0.9714
   90SAPE   O22 8746   3.855   1.777   7.795 -0.4489  0.2085  0.1592
   90SAPE   C22 8747   3.964   1.767   7.578  0.2912  0.5016  0.1575
   90SAPE   H2R 8748   3.865   1.739   7.535  0.3426  0.8520 -0.1909
   90SAPE   H2S 8749   4.029   1.833   7.517 -0.3147  1.3379  0.4044
   90SAPE    C3 8750   3.715   2.057   7.804 -0.8012  0.5698  0.0296
   90SAPE    HX 8751   3.690   2.122   7.892  1.5456 -0.3989  1.5002
   90SAPE    HY 8752   3.669   1.958   7.826  2.4395 -1.4309 -1.5261
   90SAPE   O31 8753   3.664   2.110   7.680  0.5614 -0.2126 -0.2401
   90SAPE   C31 8754   3.538   2.073   7.657  0.4047 -0.1914  0.5096
   90SAPE   O32 8755   3.466   2.009   7.725 -0.1812 -0.2658  0.0239
   90SAPE   C32 8756   3.475   2.150   7.537  0.3085  0.2925 -0.4806
   90SAPE   H2X 8757   3.557   2.174   7.466  0.9989 -2.3389 -0.7008
   90SAPE   H2Y 8758   3.435   2.243   7.581  0.4181  0.4633 -0.7392
   90SAPE   C23 8759   4.043   1.637   7.621 -0.1874 -0.4174  0.2783
   90SAPE   H3R 8760   3.970   1.568   7.670 -0.1111  0.6419  1.9652
   90SAPE   H3S 8761   4.136   1.662   7.676  0.4668 -2.4170  0.1283
   90SAPE   C24 8762   4.090   1.564   7.491  0.1449 -0.2530  0.3334
   90SAPE   H4R 8763   3.996   1.540   7.437  1.0800 -0.7087 -1.1539
   90SAPE   H4S 8764   4.127   1.463   7.520 -2.0296 -0.9232  0.9636
   90SAPE   C25 8765   4.192   1.647   7.408  0.4766  0.2052  0.5965
   90SAPE   H5R 8766   4.288   1.660   7.462  0.4336  0.1794  0.6791
   90SAPE   C26 8767   4.197   1.666   7.273  0.0944  0.0427  0.3518
   90SAPE   H6R 8768   4.273   1.731   7.227 -0.9033  0.5382 -0.6443
   90SAPE   C27 8769   4.093   1.632   7.171  0.0630  0.1690 -0.0770
   90SAPE   H7R 8770   4.049   1.537   7.208  1.4351 -1.1888 -1.7646
   90SAPE   H7S 8771   4.142   1.607   7.075 -1.1562 -0.9087 -0.4379
   90SAPE   C28 8772   3.988   1.746   7.163  0.3641 -0.5514  0.2015
   90SAPE   H8R 8773   3.957   1.802   7.252  0.3894 -0.5903  0.2343
   90SAPE   C29 8774   3.929   1.786   7.047  0.0213  0.3000 -0.4494
   90SAPE   H9R 8775   3.859   1.870   7.060  0.9948  1.2881 -1.4053
   90SAPE  C210 8776   3.955   1.744   6.900  0.3620  0.2207 -0.1785
   90SAPE  H10R 8777   4.045   1.790   6.854  1.6820 -2.3273 -0.2753
   90SAPE  H10S 8778   3.873   1.785   6.836  0.6784  0.6716 -0.3001
   90SAPE  C211 8779   3.956   1.596   6.877 -0.4468  0.7006  0.8345
   90SAPE  H11R 8780   3.941   1.534   6.966  4.8620 -0.7581  1.0808
   90SAPE  C212 8781   3.997   1.539   6.762  0.4960 -0.7761  0.1138
   90SAPE  H12R 8782   3.992   1.430   6.751 -1.9431 -0.6064 -1.1989
   90SAPE  C213 8783   4.037   1.607   6.641  0.5863 -0.0529 -0.0745
   90SAPE  H13R 8784   3.978   1.700   6.631  2.0937  1.3374  2.6483
   90SAPE  H13S 8785   4.026   1.536   6.556 -1.3981 -0.9071  0.8447
   90SAPE  C214 8786   4.185   1.643   6.648  0.1056 -0.3330 -0.6109
   90SAPE  H14R 8787   4.243   1.559   6.689  0.3745  0.7298  1.2832
   90SAPE  C215 8788   4.254   1.746   6.595  1.1684  0.0837 -0.5667
   90SAPE  H15R 8789   4.364   1.743   6.591  1.2568 -3.7182  0.9107
   90SAPE  C216 8790   4.193   1.869   6.537  0.2223  0.6874 -0.7953
   90SAPE  H16R 8791   4.265   1.944   6.575  1.8525 -1.3655  0.3267
   90SAPE  H16S 8792   4.090   1.890   6.573 -0.4454  1.6596 -3.0570
   90SAPE  C217 8793   4.192   1.878   6.377 -0.3563  0.0157 -0.5088
   90SAPE  H17R 8794   4.150   1.972   6.337 -1.4594  0.0740  0.7065
   90SAPE  H17S 8795   4.122   1.795   6.351  1.8675 -2.6362  1.2694
   90SAPE  C218 8796   4.328   1.860   6.303 -0.9042  0.1126 -0.2895
   90SAPE  H18R 8797   4.356   1.753   6.315  3.2310  1.0779  0.1879
   90SAPE  H18S 8798   4.405   1.915   6.362 -1.8403  1.3678 -0.2083
   90SAPE  C219 8799   4.327   1.915   6.157 -0.3579  0.3237 -0.7855
   90SAPE  H19R 8800   4.428   1.895   6.114  0.3875  2.2918 -0.0710
   90SAPE  H19S 8801   4.321   2.026   6.158  1.2899  0.4444  1.2576
   90SAPE  C220 8802   4.222   1.859   6.075  0.2860 -0.2876 -0.2821
   90SAPE  H20R 8803   4.215   1.912   5.978  2.2482  0.1402 -0.2352
   90SAPE  H20S 8804   4.120   1.869   6.118  0.6853  1.2627  0.3625
   90SAPE  H20T 8805   4.236   1.749   6.065 -2.8265 -0.7037 -1.4734
   90SAPE   C33 8806   3.362   2.079   7.457 -0.4710  0.0253  0.1409
   90SAPE   H3X 8807   3.311   2.162   7.404 -0.2019 -0.3254 -0.6900
   90SAPE   H3Y 8808   3.295   2.033   7.532 -0.7389 -0.6680 -0.5098
   90SAPE   C34 8809   3.415   1.974   7.365 -0.5518  0.5771 -0.0437
   90SAPE   H4X 8810   3.454   1.888   7.424 -0.4665  0.7634  0.1733
   90SAPE   H4Y 8811   3.497   2.006   7.297 -0.5101  2.9516  1.0303
   90SAPE   C35 8812   3.305   1.916   7.269  0.2105 -0.6403  0.6000
   90SAPE   H5X 8813   3.274   2.007   7.213  1.5706 -1.4351 -1.5144
   90SAPE   H5Y 8814   3.219   1.885   7.333 -0.6429  0.7382  0.1642
   90SAPE   C36 8815   3.361   1.828   7.161 -0.0034  0.0724  0.5447
   90SAPE   H6X 8816   3.391   1.731   7.206 -1.4983  0.5504  2.7138
   90SAPE   H6Y 8817   3.455   1.867   7.115  0.2417 -0.7338  0.3451
   90SAPE   C37 8818   3.258   1.796   7.053 -0.2224  0.1905  0.0533
   90SAPE   H7X 8819   3.225   1.892   7.008  0.3243 -0.0544 -0.8983
   90SAPE   H7Y 8820   3.170   1.745   7.097  0.6608 -0.4204  1.1588
   90SAPE   C38 8821   3.314   1.717   6.936  0.3072 -0.1426  0.4472
   90SAPE   H8X 8822   3.381   1.639   6.978 -0.0488  0.4411  2.2303
   90SAPE   H8Y 8823   3.374   1.791   6.880 -0.1334  0.0963  0.2837
   90SAPE   C39 8824   3.209   1.660   6.838  0.8322  0.3347 -0.5119
   90SAPE   H9X 8825   3.128   1.736   6.826  0.8638  0.3167 -0.8309
   90SAPE   H9Y 8826   3.156   1.571   6.877  0.5811  0.9718  0.6667
   90SAPE  C310 8827   3.266   1.630   6.705  0.1085  1.3320 -0.0007
   90SAPE  H10X 8828   3.350   1.560   6.722 -2.1803 -1.8569 -0.9208
   90SAPE  H10Y 8829   3.325   1.717   6.669  3.2504 -0.6382 -0.0295
   90SAPE  C311 8830   3.177   1.579   6.594  0.3386 -0.5613 -0.8852
   90SAPE  H11X 8831   3.103   1.660   6.573  1.3880  0.5584 -0.4028
   90SAPE  H11Y 8832   3.127   1.488   6.633  0.1066 -0.1388 -0.1856
   90SAPE  C312 8833   3.256   1.542   6.468  0.1834 -0.0129  0.8839
   90SAPE  H12X 8834   3.350   1.485   6.484  0.5065 -0.2669 -1.5448
   90SAPE  H12Y 8835   3.302   1.632   6.422  1.0169 -1.5434 -1.4403
   90SAPE  C313 8836   3.179   1.468   6.361 -0.1643 -0.0581 -0.1254
   90SAPE  H13X 8837   3.238   1.457   6.268 -1.6938  0.3758 -1.1939
   90SAPE  H13Y 8838   3.089   1.532   6.347 -1.7701 -2.1741  0.0572
   90SAPE  C314 8839   3.140   1.325   6.403  0.6616 -0.1374 -0.2870
   90SAPE  H14X 8840   3.068   1.320   6.488  0.8656  0.8337 -0.0479
   90SAPE  H14Y 8841   3.233   1.291   6.455  0.4382 -0.9688 -0.4171
   90SAPE  C315 8842   3.112   1.238   6.280  0.1670 -0.2777 -0.3923
   90SAPE  H15X 8843   3.104   1.130   6.307 -1.0304 -0.1255 -0.1158
   90SAPE  H15Y 8844   3.197   1.253   6.209  0.2376  1.4253  0.0170
   90SAPE  C316 8845   2.979   1.258   6.213 -0.4821 -0.4266 -0.6828
   90SAPE  H16X 8846   2.970   1.182   6.133  0.7274  0.0111 -1.2562
   90SAPE  H16Y 8847   2.987   1.359   6.168  1.8760 -1.3445 -2.5312
   90SAPE  C317 8848   2.858   1.255   6.304  0.1569 -0.8273  0.5728
   90SAPE  H17X 8849   2.864   1.351   6.358  1.6394 -0.4844 -0.1303
   90SAPE  H17Y 8850   2.881   1.162   6.360 -0.5129 -1.9357 -0.9012
   90SAPE  C318 8851   2.722   1.242   6.236 -0.6152  0.2074 -0.3630
   90SAPE  H18X 8852   2.725   1.161   6.161 -3.1536 -0.2420 -0.0698
   90SAPE  H18Y 8853   2.687   1.334   6.184 -1.6783 -0.6160 -1.1388
   90SAPE  H18Z 8854   2.641   1.215   6.307 -0.3607  1.1868  0.3268
   91SAPE     N 8855   2.455   0.492   8.454  0.3382 -0.4088  0.2429
   91SAPE   HN1 8856   2.556   0.487   8.428  0.7754 -0.4176  1.8438
   91SAPE   HN2 8857   2.407   0.532   8.371  1.6289  0.9452  0.1123
   91SAPE   HN3 8858   2.446   0.561   8.531 -1.7331 -0.6933  0.3148
   91SAPE   C12 8859   2.397   0.368   8.508 -0.4620  0.4114 -0.5321
   91SAPE  H12A 8860   2.298   0.396   8.548 -0.2969 -1.9553  1.8267
   91SAPE  H12B 8861   2.460   0.335   8.594 -1.3852  0.1867  0.0668
   91SAPE   C11 8862   2.386   0.263   8.399 -0.1942  0.0252  0.7397
   91SAPE  H11A 8863   2.328   0.316   8.321  0.3685  1.0020  0.9730
   91SAPE  H11B 8864   2.323   0.179   8.437 -2.3823  0.7710 -1.0411
   91SAPE     P 8865   2.524   0.122   8.229 -0.1593 -0.2843 -0.0188
   91SAPE   O13 8866   2.661   0.147   8.173 -0.0318 -0.4269 -0.2449
   91SAPE   O14 8867   2.491  -0.019   8.270 -0.1237 -0.8985  0.1624
   91SAPE   O12 8868   2.518   0.220   8.355 -0.9069  0.7818  0.1221
   91SAPE   O11 8869   2.423   0.178   8.123  0.1177  0.1901 -0.0702
   91SAPE    C1 8870   2.336   0.092   8.050  0.2045 -0.3082  0.7824
   91SAPE    HA 8871   2.285   0.018   8.115 -0.0259 -1.7946 -1.0059
   91SAPE    HB 8872   2.251   0.144   8.000  1.1879  2.6133  1.9153
   91SAPE    C2 8873   2.415   0.016   7.941  0.2599 -0.2802  0.3855
   91SAPE    HS 8874   2.505  -0.034   7.982  0.7902  0.5319  0.2465
   91SAPE   O21 8875   2.444   0.106   7.834  0.1516 -0.6182  0.3144
   91SAPE   C21 8876   2.536   0.066   7.755 -0.0183  0.0092 -0.2844
   91SAPE   O22 8877   2.601  -0.036   7.768 -0.4494 -0.1678 -0.4119
   91SAPE   C22 8878   2.540   0.164   7.645  0.1206 -0.5441  0.6943
   91SAPE   H2R 8879   2.566   0.265   7.683  0.4435 -1.3571  2.7455
   91SAPE   H2S 8880   2.626   0.138   7.579  2.5094  1.5100  2.8057
   91SAPE    C3 8881   2.320  -0.102   7.881  0.4347  0.3729 -0.1728
   91SAPE    HX 8882   2.330  -0.173   7.966 -1.4722  0.6596  0.3286
   91SAPE    HY 8883   2.350  -0.163   7.793 -1.8787 -0.7068 -0.2762
   91SAPE   O31 8884   2.184  -0.061   7.871 -0.0993 -0.0756 -0.2860
   91SAPE   C31 8885   2.109  -0.115   7.780  0.0723 -0.6365 -0.1263
   91SAPE   O32 8886   2.141  -0.209   7.710 -0.0342  0.5206 -0.2951
   91SAPE   C32 8887   1.981  -0.036   7.777  0.2652  0.0625  0.5046
   91SAPE   H2X 8888   2.003   0.072   7.794  0.0889 -0.1736  2.3971
   91SAPE   H2Y 8889   1.920  -0.063   7.866  2.2144  1.9634  2.5642
   91SAPE   C23 8890   2.405   0.182   7.578 -0.0281  0.5683  0.5649
   91SAPE   H3R 8891   2.411   0.264   7.504 -0.5783 -0.6441 -0.8908
   91SAPE   H3S 8892   2.328   0.233   7.640  1.3880  3.3188  0.1609
   91SAPE   C24 8893   2.347   0.053   7.514  0.5746 -0.0340  0.0887
   91SAPE   H4R 8894   2.263   0.094   7.455 -0.4418  0.1063  1.5810
   91SAPE   H4S 8895   2.292  -0.002   7.593 -1.4398  2.0405  0.2276
   91SAPE   C25 8896   2.437  -0.026   7.410 -0.1298 -0.2244 -0.1218
   91SAPE   H5R 8897   2.488  -0.108   7.464  0.7725  1.8671  2.4293
   91SAPE   C26 8898   2.451  -0.002   7.277  0.1120  0.5451  0.2290
   91SAPE   H6R 8899   2.524  -0.069   7.231 -0.6639 -0.7893  0.8770
   91SAPE   C27 8900   2.380   0.103   7.194  0.5599  0.2341  0.0287
   91SAPE   H7R 8901   2.323   0.179   7.251 -0.2132  0.3140 -0.8219
   91SAPE   H7S 8902   2.296   0.070   7.129 -0.5890  1.8126  0.6434
   91SAPE   C28 8903   2.490   0.170   7.117 -0.2289 -0.0027  0.1726
   91SAPE   H8R 8904   2.540   0.253   7.169  2.1735 -1.8166  0.9338
   91SAPE   C29 8905   2.531   0.131   6.994 -0.0448  0.4570  0.4417
   91SAPE   H9R 8906   2.618   0.181   6.951  0.6763  0.7189  2.1166
   91SAPE  C210 8907   2.481   0.015   6.899  0.0177 -0.6461 -0.8398
   91SAPE  H10R 8908   2.378   0.041   6.868 -0.0948 -2.1466 -1.8011
   91SAPE  H10S 8909   2.465  -0.068   6.971  0.2694  1.3504  1.6820
   91SAPE  C211 8910   2.568  -0.027   6.778  0.6673  0.0109 -0.5594
   91SAPE  H11R 8911   2.658  -0.077   6.818 -0.2498  0.5153  2.2831
   91SAPE  C212 8912   2.554  -0.008   6.647  0.3007  0.3585 -0.1292
   91SAPE  H12R 8913   2.640  -0.042   6.587  0.0538 -0.7185  0.0992
   91SAPE  C213 8914   2.443   0.080   6.592  0.1643 -0.0597  0.1308
   91SAPE  H13R 8915   2.470   0.186   6.612  0.5288  0.1812 -1.4952
   91SAPE  H13S 8916   2.348   0.075   6.650 -0.9736  0.1640 -1.6334
   91SAPE  C214 8917   2.410   0.061   6.445  0.1509  0.0949  0.5020
   91SAPE  H14R 8918   2.315   0.017   6.415  0.7494 -0.5458 -0.4990
   91SAPE  C215 8919   2.491   0.113   6.348  0.1878 -0.8847 -0.3782
   91SAPE  H15R 8920   2.457   0.113   6.244 -1.5245 -0.8878  0.1526
   91SAPE  C216 8921   2.635   0.170   6.353  0.0444 -0.0586  0.6591
   91SAPE  H16R 8922   2.667   0.179   6.459 -3.5354 -0.4192  1.9078
   91SAPE  H16S 8923   2.645   0.272   6.311  0.5658  0.1139  1.1940
   91SAPE  C217 8924   2.731   0.075   6.276 -0.0387  0.5317 -0.0998
   91SAPE  H17R 8925   2.686   0.052   6.177 -2.1709  3.3074  0.1047
   91SAPE  H17S 8926   2.735  -0.014   6.342  0.5886  0.9755  0.4843
   91SAPE  C218 8927   2.866   0.139   6.249 -0.4539  0.6614 -0.2878
   91SAPE  H18R 8928   2.845   0.241   6.211 -1.8670  0.4790 -0.0631
   91SAPE  H18S 8929   2.919   0.092   6.164  0.1274  2.9938 -1.3014
   91SAPE  C219 8930   2.954   0.131   6.369 -0.2455 -0.4943 -0.0398
   91SAPE  H19R 8931   2.963   0.025   6.399 -2.2474 -1.2818 -1.9843
   91SAPE  H19S 8932   2.907   0.177   6.459 -2.2988 -2.0858 -0.2339
   91SAPE  C220 8933   3.096   0.180   6.335 -0.2785  0.1076 -0.3617
   91SAPE  H20R 8934   3.134   0.127   6.245 -0.1431 -1.1733  0.4295
   91SAPE  H20S 8935   3.171   0.169   6.417  0.3851  0.2726 -0.9329
   91SAPE  H20T 8936   3.098   0.286   6.302  1.8752 -0.3182 -1.8631
   91SAPE   C33 8937   1.911  -0.055   7.631  0.2074 -0.0113 -0.3118
   91SAPE   H3X 8938   1.806  -0.023   7.649  0.9678  1.7583  1.3165
   91SAPE   H3Y 8939   1.907  -0.157   7.588  3.3064 -0.4945  0.3584
   91SAPE   C34 8940   1.963   0.045   7.525 -1.0334  0.3851  0.0635
   91SAPE   H4X 8941   2.072   0.025   7.525 -1.2396 -1.0507  1.8235
   91SAPE   H4Y 8942   1.949   0.146   7.570 -0.4073  1.0307 -1.1390
   91SAPE   C35 8943   1.895   0.035   7.389  0.0252  0.4035 -0.1847
   91SAPE   H5X 8944   1.807   0.102   7.382  0.7290  1.3212 -0.3627
   91SAPE   H5Y 8945   1.863  -0.071   7.377 -2.7236  0.7214  3.0420
   91SAPE   C36 8946   1.986   0.052   7.266  0.7968  0.1761  0.2194
   91SAPE   H6X 8947   2.062  -0.028   7.254 -1.0437 -1.3329 -2.3917
   91SAPE   H6Y 8948   2.043   0.147   7.278  2.5672 -0.7286 -0.6753
   91SAPE   C37 8949   1.906   0.069   7.133 -0.3001  0.5000  0.0635
   91SAPE   H7X 8950   1.839   0.157   7.146 -0.0845  0.6087  0.4436
   91SAPE   H7Y 8951   1.832  -0.013   7.141  0.6408 -0.2637  1.1699
   91SAPE   C38 8952   2.003   0.079   7.019  0.0613 -0.3860 -0.2095
   91SAPE   H8X 8953   2.075  -0.005   7.005  1.0075  0.4231 -0.3461
   91SAPE   H8Y 8954   2.069   0.166   7.041 -0.2714  0.2708 -1.6542
   91SAPE   C39 8955   1.929   0.097   6.891 -0.2783 -0.7512 -0.4686
   91SAPE   H9X 8956   1.864   0.187   6.895  1.2836  0.5506 -2.4463
   91SAPE   H9Y 8957   1.868   0.006   6.874 -1.3020 -0.0163 -0.8337
   91SAPE  C310 8958   2.030   0.127   6.772  0.0103  0.0999  0.0182
   91SAPE  H10X 8959   2.121   0.068   6.797  1.1510  2.0427  0.6259
   91SAPE  H10Y 8960   2.051   0.236   6.763 -0.7914  0.2303 -0.3105
   91SAPE  C311 8961   1.959   0.089   6.634  0.5758 -0.0118 -0.1791
   91SAPE  H11X 8962   1.866   0.151   6.627 -0.7085 -1.9145 -0.8520
   91SAPE  H11Y 8963   1.916  -0.011   6.655  1.9701 -0.7305 -0.6600
   91SAPE  C312 8964   2.036   0.099   6.505 -0.3328 -0.1078 -0.2477
   91SAPE  H12X 8965   2.109   0.017   6.487 -2.5858 -1.8461 -2.1084
   91SAPE  H12Y 8966   2.092   0.192   6.482 -0.6518 -0.7264 -4.2525
   91SAPE  C313 8967   1.957   0.061   6.374  0.1274  0.2856  0.3824
   91SAPE  H13X 8968   2.033   0.042   6.295  0.0135 -2.0084  0.7428
   91SAPE  H13Y 8969   1.886   0.143   6.351 -2.5665 -2.1506 -0.7215
   91SAPE  C314 8970   1.862  -0.059   6.381  0.2849  0.3253  1.0422
   91SAPE  H14X 8971   1.783  -0.028   6.452  0.7723  0.9661  1.3114
   91SAPE  H14Y 8972   1.906  -0.155   6.416  0.9007  0.4426  0.6168
   91SAPE  C315 8973   1.803  -0.098   6.241 -0.5930 -0.9047 -0.0062
   91SAPE  H15X 8974   1.741  -0.189   6.254 -2.1011  0.2770  1.4391
   91SAPE  H15Y 8975   1.894  -0.119   6.181 -0.8161  0.3571 -0.8374
   91SAPE  C316 8976   1.702   0.006   6.190  0.8612  0.2057 -0.5838
   91SAPE  H16X 8977   1.746   0.108   6.184 -0.0240  0.6941  0.6505
   91SAPE  H16Y 8978   1.620   0.012   6.265  0.2953 -1.0087 -1.0807
   91SAPE  C317 8979   1.628  -0.009   6.059 -0.8404  0.7353  0.5744
   91SAPE  H17X 8980   1.558   0.077   6.051 -2.1903 -0.3948 -0.1191
   91SAPE  H17Y 8981   1.565  -0.101   6.056  0.4854 -0.1640 -0.9945
   91SAPE  C318 8982   1.709  -0.010   5.928 -0.1849  0.1424 -0.6434
   91SAPE  H18X 8983   1.650  -0.014   5.834 -2.0144 -1.4528  0.5064
   91SAPE  H18Y 8984   1.778  -0.097   5.915 -0.5186 -0.0277 -1.3549
   91SAPE  H18Z 8985   1.775   0.079   5.914  2.6130 -1.5472  0.8667
   92SAPE     N 8986   0.583   0.110   8.426 -0.6534  0.4036 -0.4974
   92SAPE   HN1 8987   0.480   0.094   8.431 -0.4993 -0.3555  2.3864
   92SAPE   HN2 8988   0.622   0.110   8.522 -0.1405 -0.9129 -0.6917
   92SAPE   HN3 8989   0.589   0.210   8.399  1.9644  1.3967  2.9642
   92SAPE   C12 8990   0.665   0.029   8.333 -0.2418  0.5729 -0.3582
   92SAPE  H12A 8991   0.700   0.100   8.255 -0.9754  1.7961  0.3765
   92SAPE  H12B 8992   0.591  -0.040   8.288 -1.0845  0.8626  0.5403
   92SAPE   C11 8993   0.773  -0.041   8.411 -0.4180  0.0012  0.3168
   92SAPE  H11A 8994   0.821  -0.099   8.328  0.5032 -0.5608  1.2184
   92SAPE  H11B 8995   0.723  -0.115   8.477  1.6599 -2.3118 -0.5186
   92SAPE     P 8996   0.977   0.139   8.389 -0.1507 -0.0597  0.0691
   92SAPE   O13 8997   0.908   0.248   8.317  0.1983 -0.0451 -0.0892
   92SAPE   O14 8998   1.097   0.171   8.473  0.0325  0.4408 -0.5547
   92SAPE   O12 8999   0.866   0.057   8.471  0.2797  0.5260 -0.4981
   92SAPE   O11 9000   1.021   0.024   8.287  0.2560 -0.1117  0.3714
   92SAPE    C1 9001   1.159   0.014   8.251 -0.2029  0.3267  0.7645
   92SAPE    HA 9002   1.209   0.113   8.235  0.0217  0.3264  1.4154
   92SAPE    HB 9003   1.213  -0.043   8.329  1.0144 -1.8611 -1.5582
   92SAPE    C2 9004   1.171  -0.074   8.121 -0.2024 -0.1715  0.1920
   92SAPE    HS 9005   1.276  -0.095   8.093 -0.7948 -1.1868 -1.3995
   92SAPE   O21 9006   1.093  -0.038   8.006  0.7721 -0.1291 -0.6799
   92SAPE   C21 9007   1.133   0.081   7.953  0.0812  0.8360 -0.0789
   92SAPE   O22 9008   1.202   0.161   8.010  0.3798 -0.3257 -0.4267
   92SAPE   C22 9009   1.070   0.074   7.817 -0.8018  0.0466  0.3258
   92SAPE   H2R 9010   1.084  -0.028   7.776 -0.2194 -0.1633  1.0212
   92SAPE   H2S 9011   0.961   0.087   7.833 -0.6377  1.3025  0.4927
   92SAPE    C3 9012   1.124  -0.218   8.162 -0.1942  0.4929 -0.5293
   92SAPE    HX 9013   1.032  -0.205   8.223  1.3793 -0.5555  2.2759
   92SAPE    HY 9014   1.192  -0.264   8.237 -0.7839  1.0059  0.3465
   92SAPE   O31 9015   1.102  -0.310   8.052 -0.5665 -0.2426  0.0128
   92SAPE   C31 9016   1.210  -0.343   7.979 -0.2215 -0.3635 -0.0962
   92SAPE   O32 9017   1.327  -0.309   8.008  0.3279 -0.2233  0.6346
   92SAPE   C32 9018   1.172  -0.453   7.878 -0.1348 -0.1876 -0.2025
   92SAPE   H2X 9019   1.062  -0.438   7.868  0.0606  1.0573 -0.6398
   92SAPE   H2Y 9020   1.203  -0.555   7.908  0.1119 -0.0075  0.1679
   92SAPE   C23 9021   1.130   0.177   7.720 -0.3134 -0.3685 -0.4393
   92SAPE   H3R 9022   1.226   0.130   7.689  1.1374  2.5072 -0.6323
   92SAPE   H3S 9023   1.153   0.274   7.770 -0.3309 -1.0062  0.8321
   92SAPE   C24 9024   1.047   0.189   7.592  0.2350  1.3384 -0.8200
   92SAPE   H4R 9025   0.939   0.194   7.620  0.0008  0.9409 -1.6332
   92SAPE   H4S 9026   1.065   0.101   7.527 -0.0155  0.5239  0.1833
   92SAPE   C25 9027   1.088   0.312   7.508  0.3302  0.4354 -0.1560
   92SAPE   H5R 9028   1.078   0.401   7.571  0.5225 -1.1782  2.3168
   92SAPE   C26 9029   1.137   0.331   7.386  0.0028 -0.4259 -0.0792
   92SAPE   H6R 9030   1.146   0.436   7.356 -0.9491  0.6936  3.1307
   92SAPE   C27 9031   1.164   0.229   7.282  0.3652 -0.0990  0.5912
   92SAPE   H7R 9032   1.239   0.156   7.319  1.4095  0.2269 -0.8043
   92SAPE   H7S 9033   1.209   0.279   7.194  0.5194  1.8262  1.7104
   92SAPE   C28 9034   1.043   0.147   7.230  0.2703  0.3985 -0.3905
   92SAPE   H8R 9035   0.964   0.139   7.307 -1.2606 -1.5856 -2.0822
   92SAPE   C29 9036   1.016   0.093   7.111 -0.2302 -1.0808  0.2357
   92SAPE   H9R 9037   0.925   0.033   7.094 -0.2409 -0.6435 -1.4266
   92SAPE  C210 9038   1.094   0.120   6.983 -0.0678  0.1708 -0.0501
   92SAPE  H10R 9039   1.173   0.194   7.007 -0.4991  0.0943  1.7454
   92SAPE  H10S 9040   1.024   0.166   6.910 -2.3688 -1.1149  1.2351
   92SAPE  C211 9041   1.152  -0.012   6.931  0.2211  0.1311  0.1572
   92SAPE  H11R 9042   1.183  -0.084   7.008  2.1455 -0.0647 -0.7449
   92SAPE  C212 9043   1.159  -0.048   6.802 -0.6528  0.4430  0.2027
   92SAPE  H12R 9044   1.189  -0.153   6.787 -2.1879 -0.3168  2.0523
   92SAPE  C213 9045   1.108   0.009   6.670 -0.1749 -0.7678 -0.8006
   92SAPE  H13R 9046   1.177  -0.026   6.591 -0.1527 -2.0784 -0.2274
   92SAPE  H13S 9047   1.121   0.119   6.660  0.4635 -0.9586 -2.2059
   92SAPE  C214 9048   0.965  -0.030   6.648 -0.3184  0.5879  0.1480
   92SAPE  H14R 9049   0.914  -0.092   6.724 -0.7212  0.2720 -0.3745
   92SAPE  C215 9050   0.908  -0.025   6.524  0.1469  0.1563 -0.2514
   92SAPE  H15R 9051   0.805  -0.061   6.510 -0.5970  1.8381  0.6387
   92SAPE  C216 9052   0.962   0.030   6.397 -0.1672 -0.0736  0.2196
   92SAPE  H16R 9053   1.072   0.040   6.395 -0.2256  0.9800  1.2374
   92SAPE  H16S 9054   0.927   0.135   6.386 -1.8359 -0.7842 -2.2699
   92SAPE  C217 9055   0.925  -0.044   6.266 -0.1461 -0.6181 -0.1660
   92SAPE  H17R 9056   0.986  -0.136   6.268 -0.0375 -0.5375  0.9991
   92SAPE  H17S 9057   0.939   0.016   6.173 -2.4446 -1.5527 -1.2213
   92SAPE  C218 9058   0.779  -0.094   6.245 -0.3699 -0.2099 -0.3456
   92SAPE  H18R 9059   0.712  -0.007   6.262  0.2807  0.7184 -2.1926
   92SAPE  H18S 9060   0.752  -0.177   6.313  1.8700 -1.5916 -1.0493
   92SAPE  C219 9061   0.740  -0.141   6.100  0.6443 -0.6357 -0.6944
   92SAPE  H19R 9062   0.738  -0.045   6.044  2.5363 -0.3673 -0.3734
   92SAPE  H19S 9063   0.639  -0.184   6.111  0.5365  0.3494  4.1331
   92SAPE  C220 9064   0.837  -0.236   6.034 -0.4540 -0.4171  0.0601
   92SAPE  H20R 9065   0.942  -0.199   6.034 -1.3346  2.2856  0.2815
   92SAPE  H20S 9066   0.809  -0.251   5.928  2.4565  1.9449 -1.2034
   92SAPE  H20T 9067   0.834  -0.330   6.094  0.6296  0.1389  1.0407
   92SAPE   C33 9068   1.227  -0.431   7.738  0.0632 -0.2566 -0.0882
   92SAPE   H3X 9069   1.338  -0.437   7.741  0.0849  0.3313  1.4933
   92SAPE   H3Y 9070   1.199  -0.332   7.698  0.2261 -0.1253  0.1186
   92SAPE   C34 9071   1.184  -0.546   7.642  0.2830 -0.4887 -0.3806
   92SAPE   H4X 9072   1.073  -0.545   7.638  0.2435  1.5168  0.2778
   92SAPE   H4Y 9073   1.226  -0.639   7.686  0.5538 -0.3737 -0.3966
   92SAPE   C35 9074   1.246  -0.518   7.500  0.4614  0.4882 -0.2183
   92SAPE   H5X 9075   1.260  -0.411   7.472 -0.5912  0.3682 -1.3001
   92SAPE   H5Y 9076   1.172  -0.546   7.422  0.4708  1.9794 -0.7953
   92SAPE   C36 9077   1.381  -0.587   7.467  0.4386 -0.8552 -0.8677
   92SAPE   H6X 9078   1.385  -0.694   7.494  1.8680 -0.0479  2.6406
   92SAPE   H6Y 9079   1.463  -0.558   7.536 -0.1342 -3.2609  0.9093
   92SAPE   C37 9080   1.438  -0.562   7.330 -0.4884 -0.2347  1.0015
   92SAPE   H7X 9081   1.530  -0.618   7.303 -0.3497 -0.0255  1.0379
   92SAPE   H7Y 9082   1.467  -0.455   7.328 -0.5570 -0.2190 -0.6541
   92SAPE   C38 9083   1.341  -0.597   7.210  0.1179 -0.1511  0.3489
   92SAPE   H8X 9084   1.262  -0.519   7.202 -0.9380 -1.1518  0.7427
   92SAPE   H8Y 9085   1.284  -0.692   7.223 -1.2133  0.5296 -0.3374
   92SAPE   C39 9086   1.421  -0.623   7.084  0.7684 -0.2789  0.3715
   92SAPE   H9X 9087   1.495  -0.704   7.106 -0.3293 -0.8573  2.2078
   92SAPE   H9Y 9088   1.465  -0.528   7.048  0.1818 -0.4714 -0.8965
   92SAPE  C310 9089   1.340  -0.669   6.964 -0.3424  0.1059 -0.4100
   92SAPE  H10X 9090   1.276  -0.582   6.935  0.2457  1.0157  0.9583
   92SAPE  H10Y 9091   1.282  -0.762   6.980  1.2722 -0.4989  2.5105
   92SAPE  C311 9092   1.430  -0.688   6.836 -0.3349  0.0250 -0.4494
   92SAPE  H11X 9093   1.517  -0.751   6.863  0.9619  1.3753 -1.3259
   92SAPE  H11Y 9094   1.462  -0.588   6.799  0.1275 -0.4344 -1.3159
   92SAPE  C312 9095   1.353  -0.752   6.717  0.4165  0.8967 -0.4002
   92SAPE  H12X 9096   1.249  -0.716   6.735  0.8170  0.7927  2.6075
   92SAPE  H12Y 9097   1.357  -0.861   6.737  3.3591  1.3159  1.9632
   92SAPE  C313 9098   1.411  -0.717   6.581 -0.6717 -0.0459 -0.2566
   92SAPE  H13X 9099   1.505  -0.774   6.563  0.8778  1.0187  3.4756
   92SAPE  H13Y 9100   1.444  -0.610   6.583 -0.7284 -0.0412  0.6636
   92SAPE  C314 9101   1.305  -0.720   6.471 -0.4902  0.0936  0.1054
   92SAPE  H14X 9102   1.215  -0.667   6.508  0.3466  0.0553  2.3881
   92SAPE  H14Y 9103   1.274  -0.826   6.466 -2.9352  0.7679 -0.5394
   92SAPE  C315 9104   1.351  -0.682   6.330 -0.1518 -0.4820  0.2095
   92SAPE  H15X 9105   1.354  -0.571   6.330  0.8918 -0.5065  0.0840
   92SAPE  H15Y 9106   1.278  -0.724   6.257  1.5851 -1.8444 -0.8277
   92SAPE  C316 9107   1.488  -0.741   6.277 -0.5860 -0.8330 -0.5871
   92SAPE  H16X 9108   1.504  -0.844   6.314  1.0094 -0.1734  0.7031
   92SAPE  H16Y 9109   1.574  -0.698   6.332 -1.7186 -1.7563  2.1016
   92SAPE  C317 9110   1.499  -0.738   6.123 -0.1757  0.1711  0.7094
   92SAPE  H17X 9111   1.507  -0.630   6.096 -2.0214  0.8061  2.4931
   92SAPE  H17Y 9112   1.408  -0.786   6.081  0.2835 -2.4586  2.4849
   92SAPE  C318 9113   1.619  -0.824   6.067  0.3371  0.3328  0.6745
   92SAPE  H18X 9114   1.592  -0.931   6.078 -1.6950  0.7666  0.2449
   92SAPE  H18Y 9115   1.715  -0.809   6.119  1.4657 -1.6153 -0.6878
   92SAPE  H18Z 9116   1.646  -0.804   5.961 -0.6227  0.3466  0.4196
   93SAPE     N 9117   5.951   2.636   8.739 -0.2397 -0.0586  0.0656
   93SAPE   HN1 9118   5.872   2.578   8.707 -1.4664  2.2155 -1.3008
   93SAPE   HN2 9119   6.030   2.609   8.677 -0.3545  0.3456 -0.2593
   93SAPE   HN3 9120   5.971   2.614   8.839  0.1389  1.1042  0.2711
   93SAPE   C12 9121   5.921   2.784   8.717 -0.6744 -0.2299  0.1823
   93SAPE  H12A 9122   5.838   2.820   8.781  0.0919 -0.1225  1.1499
   93SAPE  H12B 9123   5.888   2.796   8.612  2.7947  1.5503 -0.8522
   93SAPE   C11 9124   6.045   2.874   8.748 -0.4164 -0.5404 -0.6466
   93SAPE  H11A 9125   6.124   2.870   8.670 -0.2682 -1.3650 -0.4653
   93SAPE  H11B 9126   6.084   2.831   8.843  0.8607  1.0063 -0.4313
   93SAPE     P 9127   6.094   3.137   8.726  0.3176  0.0319 -0.8063
   93SAPE   O13 9128   6.003   3.251   8.757  0.2218 -0.2113  0.2462
   93SAPE   O14 9129   6.223   3.115   8.799 -0.0095  0.0780 -0.1487
   93SAPE   O12 9130   5.998   3.014   8.767 -0.1188 -0.6095  0.3199
   93SAPE   O11 9131   6.120   3.123   8.575  0.5970  0.4408  0.0274
   93SAPE    C1 9132   6.001   3.132   8.490 -0.1075 -0.5722  0.4234
   93SAPE    HA 9133   5.908   3.129   8.551  0.6415  0.8795  1.6971
   93SAPE    HB 9134   5.999   3.227   8.432 -1.0272 -0.6195  0.3599
   93SAPE    C2 9135   5.997   3.018   8.393 -0.8980  0.2609 -0.4759
   93SAPE    HS 9136   6.018   2.934   8.462  1.5620  1.0793 -0.1024
   93SAPE   O21 9137   6.110   3.030   8.298  0.2862 -0.2007 -0.1006
   93SAPE   C21 9138   6.134   2.921   8.226  0.4436 -0.0920 -0.5001
   93SAPE   O22 9139   6.074   2.814   8.247 -0.0424 -0.0857 -0.7474
   93SAPE   C22 9140   6.238   2.959   8.121  0.0581 -0.5166  0.1202
   93SAPE   H2R 9141   6.180   3.002   8.037  0.7665 -1.0377 -0.6485
   93SAPE   H2S 9142   6.301   3.034   8.175 -1.6018  2.4431 -1.7888
   93SAPE    C3 9143   5.859   2.992   8.320 -0.5618  0.2261  0.2505
   93SAPE    HX 9144   5.774   2.988   8.392 -1.6001  1.0989 -0.8910
   93SAPE    HY 9145   5.862   2.890   8.274  2.8165  0.0809  0.5125
   93SAPE   O31 9146   5.841   3.102   8.225  0.1808  0.4520  0.0576
   93SAPE   C31 9147   5.709   3.118   8.197  0.0939  0.7401 -0.4490
   93SAPE   O32 9148   5.617   3.058   8.248 -0.3494  0.4014 -0.0836
   93SAPE   C32 9149   5.710   3.207   8.072  0.3537  0.5300  0.0615
   93SAPE   H2X 9150   5.815   3.229   8.043  0.3765  2.3303  1.2961
   93SAPE   H2Y 9151   5.667   3.307   8.096  0.0304  0.2537  0.6408
   93SAPE   C23 9152   6.331   2.841   8.069 -0.4542  0.2798  0.0992
   93SAPE   H3R 9153   6.375   2.792   8.157 -0.4235  1.6759  0.8864
   93SAPE   H3S 9154   6.418   2.892   8.022  0.9047  0.6634  2.8858
   93SAPE   C24 9155   6.258   2.735   7.984  0.0770 -0.0479 -0.8220
   93SAPE   H4R 9156   6.194   2.782   7.905 -1.9413  2.1770  1.9196
   93SAPE   H4S 9157   6.185   2.688   8.053 -0.1179 -0.7767 -1.5091
   93SAPE   C25 9158   6.343   2.621   7.939 -0.2461 -0.5317 -1.0013
   93SAPE   H5R 9159   6.396   2.564   8.016 -1.2204  0.1718  0.2284
   93SAPE   C26 9160   6.377   2.598   7.811  0.0001  0.1767 -0.6188
   93SAPE   H6R 9161   6.450   2.518   7.793 -0.3947 -0.7122  1.5337
   93SAPE   C27 9162   6.334   2.693   7.697 -0.6407  0.8288 -0.2055
   93SAPE   H7R 9163   6.399   2.695   7.607  1.3619  2.5728  1.1521
   93SAPE   H7S 9164   6.336   2.799   7.730  0.0479  0.0310  2.5678
   93SAPE   C28 9165   6.191   2.661   7.664 -0.0136  0.1406 -0.0496
   93SAPE   H8R 9166   6.156   2.558   7.684  1.7644 -0.5307 -0.1552
   93SAPE   C29 9167   6.102   2.734   7.596  0.6864  0.0681 -0.2091
   93SAPE   H9R 9168   6.003   2.687   7.599  0.4900  0.4962  0.5600
   93SAPE  C210 9169   6.102   2.878   7.551  0.1471  0.0869  0.0922
   93SAPE  H10R 9170   6.070   2.883   7.445 -2.2538  0.7219  0.7653
   93SAPE  H10S 9171   6.205   2.918   7.540  0.2277 -0.5840 -2.0385
   93SAPE  C211 9172   6.006   2.969   7.636  0.4445 -0.1335  0.2839
   93SAPE  H11R 9173   5.943   2.913   7.707  0.4635  0.1363  0.5173
   93SAPE  C212 9174   5.971   3.094   7.612 -0.0728 -0.6296 -0.6867
   93SAPE  H12R 9175   5.905   3.145   7.684 -1.9766 -2.2160 -1.2438
   93SAPE  C213 9176   6.032   3.173   7.501 -0.5590  0.8755 -0.1507
   93SAPE  H13R 9177   6.076   3.100   7.429  0.1327 -0.4012  1.5052
   93SAPE  H13S 9178   6.115   3.226   7.552  0.9829 -0.7382 -0.8904
   93SAPE  C214 9179   5.941   3.278   7.443 -0.0980 -0.3177 -0.0540
   93SAPE  H14R 9180   5.880   3.336   7.515  2.6233 -0.0089  2.1628
   93SAPE  C215 9181   5.942   3.322   7.313  0.6775  0.0144  0.0474
   93SAPE  H15R 9182   5.860   3.393   7.294  0.7376 -0.0533 -0.4682
   93SAPE  C216 9183   6.011   3.273   7.195 -0.2530 -0.0865 -0.1639
   93SAPE  H16R 9184   5.947   3.198   7.144 -0.9916 -1.4845  2.6173
   93SAPE  H16S 9185   6.108   3.225   7.220 -0.4383 -1.7424 -2.3153
   93SAPE  C217 9186   6.049   3.390   7.103 -0.9448  1.5411  0.2884
   93SAPE  H17R 9187   6.125   3.448   7.158 -1.6319  3.0257 -0.2839
   93SAPE  H17S 9188   5.957   3.445   7.074 -1.6220 -0.0351 -0.6838
   93SAPE  C218 9189   6.091   3.347   6.966 -0.0841  0.6057 -0.5205
   93SAPE  H18R 9190   6.034   3.263   6.920  0.6921  0.0027 -0.4070
   93SAPE  H18S 9191   6.188   3.298   6.989  0.1138  2.3356  2.9822
   93SAPE  C219 9192   6.105   3.462   6.864  0.1188  1.0370 -0.3511
   93SAPE  H19R 9193   6.170   3.539   6.911  0.7006  0.7449 -0.6692
   93SAPE  H19S 9194   6.014   3.524   6.848  1.1650  2.7021 -0.1006
   93SAPE  C220 9195   6.160   3.432   6.729 -0.4049  0.8382  0.5388
   93SAPE  H20R 9196   6.096   3.355   6.681 -0.0783 -0.2240  1.7616
   93SAPE  H20S 9197   6.261   3.387   6.739  0.4190  2.7109  1.1461
   93SAPE  H20T 9198   6.173   3.523   6.666  0.9470 -0.6934 -1.5289
   93SAPE   C33 9199   5.631   3.142   7.959 -0.1893  0.8219  0.7703
   93SAPE   H3X 9200   5.525   3.149   7.988  0.0566  1.3172  1.5725
   93SAPE   H3Y 9201   5.665   3.038   7.937 -1.9402  0.3558  0.1199
   93SAPE   C34 9202   5.654   3.216   7.827  0.7432 -0.2768  0.3306
   93SAPE   H4X 9203   5.756   3.210   7.785  0.1637 -1.6592 -0.9963
   93SAPE   H4Y 9204   5.634   3.325   7.831  1.2143  0.0159 -2.6080
   93SAPE   C35 9205   5.546   3.173   7.722  0.2835  0.3804  0.2214
   93SAPE   H5X 9206   5.446   3.217   7.740 -0.4160 -1.1982  0.3461
   93SAPE   H5Y 9207   5.536   3.063   7.740  0.4146  0.6993  2.5613
   93SAPE   C36 9208   5.588   3.190   7.577 -0.4231 -0.5187  0.9528
   93SAPE   H6X 9209   5.699   3.198   7.575 -0.3247 -1.6836  0.8672
   93SAPE   H6Y 9210   5.551   3.284   7.531  2.0177 -0.1605 -0.4746
   93SAPE   C37 9211   5.541   3.078   7.485  0.0657 -0.4065 -0.1856
   93SAPE   H7X 9212   5.433   3.094   7.468  0.6258  0.1760 -4.1491
   93SAPE   H7Y 9213   5.552   2.983   7.542 -3.2045 -0.3610  0.7328
   93SAPE   C38 9214   5.623   3.053   7.355  0.4000  0.2104 -0.4492
   93SAPE   H8X 9215   5.728   3.042   7.388 -0.5160 -0.8674  2.3178
   93SAPE   H8Y 9216   5.638   3.140   7.287  0.7733 -0.2257 -0.9323
   93SAPE   C39 9217   5.581   2.942   7.257 -0.3207  0.3821 -0.1145
   93SAPE   H9X 9218   5.473   2.952   7.234 -0.0071 -1.1929 -2.6307
   93SAPE   H9Y 9219   5.596   2.836   7.287  1.0716  0.5672 -0.0808
   93SAPE  C310 9220   5.662   2.954   7.120 -0.5823  1.2271 -0.6320
   93SAPE  H10X 9221   5.771   2.957   7.143 -0.0678  0.3895 -2.7105
   93SAPE  H10Y 9222   5.642   3.049   7.068  1.2481  1.1366 -1.5698
   93SAPE  C311 9223   5.639   2.831   7.026 -0.5091  1.0002 -0.3020
   93SAPE  H11X 9224   5.533   2.799   7.030  0.2395 -1.5923  2.6843
   93SAPE  H11Y 9225   5.681   2.753   7.093 -0.9068  1.5672  0.6136
   93SAPE  C312 9226   5.696   2.826   6.883  0.6831  0.3009 -0.2354
   93SAPE  H12X 9227   5.705   2.719   6.853 -0.5566 -0.0886  0.6991
   93SAPE  H12Y 9228   5.794   2.877   6.877  0.7878  0.8485  3.4745
   93SAPE  C313 9229   5.593   2.878   6.778  0.2343  0.0113 -0.0056
   93SAPE  H13X 9230   5.496   2.823   6.779  0.2929 -0.1664  2.9796
   93SAPE  H13Y 9231   5.635   2.846   6.680  0.1439 -2.5683  0.7350
   93SAPE  C314 9232   5.562   3.030   6.777  0.3697  0.2654 -0.6469
   93SAPE  H14X 9233   5.528   3.063   6.878 -0.4808  0.2745 -0.9299
   93SAPE  H14Y 9234   5.484   3.066   6.706 -0.3469  0.8714  0.4117
   93SAPE  C315 9235   5.679   3.128   6.744 -0.8013 -0.2561  0.2355
   93SAPE  H15X 9236   5.687   3.155   6.637  1.1699  1.6989  0.8061
   93SAPE  H15Y 9237   5.771   3.073   6.774 -0.6394  1.5763  3.6365
   93SAPE  C316 9238   5.680   3.263   6.818  0.4203  0.7669  0.7428
   93SAPE  H16X 9239   5.697   3.231   6.923 -1.1335  0.1206  0.8258
   93SAPE  H16Y 9240   5.578   3.307   6.818 -0.1804 -0.6053  0.9145
   93SAPE  C317 9241   5.772   3.372   6.785  0.0264 -1.1756 -0.1223
   93SAPE  H17X 9242   5.879   3.342   6.774  0.0396 -1.7220  1.3551
   93SAPE  H17Y 9243   5.778   3.441   6.871 -2.8178  0.0256 -0.7948
   93SAPE  C318 9244   5.735   3.425   6.646 -0.1210 -0.2949 -0.0061
   93SAPE  H18X 9245   5.790   3.521   6.634 -0.9089  1.2070  5.4262
   93SAPE  H18Y 9246   5.627   3.450   6.640  0.6311  3.2466 -1.5972
   93SAPE  H18Z 9247   5.766   3.350   6.570 -0.5446  1.0470 -1.5545
   94SAPE     N 9248   4.241   5.833   7.879 -0.0682 -0.9116  0.0307
   94SAPE   HN1 9249   4.322   5.782   7.838 -0.3867 -2.8165  1.6697
   94SAPE   HN2 9250   4.264   5.905   7.951  0.6266 -2.1104  1.0471
   94SAPE   HN3 9251   4.179   5.767   7.928 -1.2413  0.1096 -0.0243
   94SAPE   C12 9252   4.158   5.903   7.772  0.3334 -0.1452  0.5760
   94SAPE  H12A 9253   4.134   5.827   7.695  0.0903  2.0149 -1.5937
   94SAPE  H12B 9254   4.217   5.984   7.724 -1.5201 -0.9769 -3.5271
   94SAPE   C11 9255   4.034   5.975   7.833  0.0822  0.9046  0.1462
   94SAPE  H11A 9256   3.989   6.045   7.759 -1.9456 -0.2329  0.2273
   94SAPE  H11B 9257   4.069   6.040   7.916  0.7695  0.9912 -0.2098
   94SAPE     P 9258   3.807   5.921   7.951 -0.1325  0.2128 -0.0544
   94SAPE   O13 9259   3.716   5.809   7.925  0.3631 -0.2565  0.0398
   94SAPE   O14 9260   3.832   5.947   8.092 -0.7287 -0.0518 -0.3901
   94SAPE   O12 9261   3.944   5.872   7.876  0.2336  0.3699  0.0314
   94SAPE   O11 9262   3.750   6.047   7.872 -0.7389 -0.2059 -0.2340
   94SAPE    C1 9263   3.619   6.092   7.900  0.7728 -0.0299  0.4130
   94SAPE    HA 9264   3.545   6.025   7.851 -1.3222  1.7652  0.9801
   94SAPE    HB 9265   3.605   6.096   8.010  1.7283 -1.2759  0.6096
   94SAPE    C2 9266   3.587   6.238   7.868 -0.4810 -0.1338 -0.2181
   94SAPE    HS 9267   3.477   6.246   7.873 -0.5785 -1.9704  2.4653
   94SAPE   O21 9268   3.652   6.285   7.746  0.2657  0.2382  0.2891
   94SAPE   C21 9269   3.573   6.268   7.643 -0.1325  0.5761  0.5489
   94SAPE   O22 9270   3.474   6.199   7.642  0.5767 -0.0675  0.0245
   94SAPE   C22 9271   3.629   6.355   7.527  0.3856 -0.1635  0.1522
   94SAPE   H2R 9272   3.615   6.459   7.562 -1.8535 -0.8905  1.6377
   94SAPE   H2S 9273   3.738   6.334   7.514  0.3677  0.6797 -1.8146
   94SAPE    C3 9274   3.646   6.320   7.985 -0.3006 -0.2107 -0.2773
   94SAPE    HX 9275   3.753   6.309   7.955 -0.0645 -0.5552  0.6493
   94SAPE    HY 9276   3.622   6.284   8.088 -1.0956  0.8701 -0.0719
   94SAPE   O31 9277   3.589   6.448   7.973 -0.2423 -0.0461 -0.0304
   94SAPE   C31 9278   3.667   6.551   8.006 -0.4783 -0.2309  0.0522
   94SAPE   O32 9279   3.785   6.548   8.021  0.3075 -0.0659 -0.1591
   94SAPE   C32 9280   3.576   6.680   8.004 -0.8116  0.1169 -0.2704
   94SAPE   H2X 9281   3.640   6.761   8.044 -0.4359 -1.6110  2.9753
   94SAPE   H2Y 9282   3.494   6.679   8.079  0.1295 -1.8464  0.8349
   94SAPE   C23 9283   3.559   6.327   7.391  0.3084  0.1793 -0.3560
   94SAPE   H3R 9284   3.522   6.419   7.341  0.6694 -0.7920 -2.5207
   94SAPE   H3S 9285   3.465   6.271   7.403  0.5803 -0.2644 -0.2848
   94SAPE   C24 9286   3.645   6.255   7.291 -0.0405 -0.1549 -0.1973
   94SAPE   H4R 9287   3.735   6.319   7.276 -0.9194  0.9056 -1.2247
   94SAPE   H4S 9288   3.610   6.250   7.186 -0.0320 -1.1507 -0.1569
   94SAPE   C25 9289   3.668   6.113   7.336 -1.0967  0.2757 -0.6760
   94SAPE   H5R 9290   3.583   6.053   7.372 -0.5194  0.1331  0.4938
   94SAPE   C26 9291   3.785   6.051   7.332  0.2264 -0.0237  0.0020
   94SAPE   H6R 9292   3.787   5.944   7.360  3.0856  0.0108  0.2242
   94SAPE   C27 9293   3.921   6.102   7.302 -0.0759  0.4243  0.1042
   94SAPE   H7R 9294   3.924   6.214   7.305  3.5208  0.4287  1.7221
   94SAPE   H7S 9295   3.945   6.072   7.198 -0.2372 -1.4667  0.5902
   94SAPE   C28 9296   4.022   6.049   7.403 -0.2732  0.0930  0.2728
   94SAPE   H8R 9297   4.009   6.054   7.512 -0.1321  1.7697  0.2364
   94SAPE   C29 9298   4.124   5.973   7.366  1.1043  0.9438  0.0790
   94SAPE   H9R 9299   4.195   5.936   7.441  1.2830 -1.1099 -1.0314
   94SAPE  C210 9300   4.159   5.931   7.227 -0.3047 -0.3958  0.2558
   94SAPE  H10R 9301   4.067   5.906   7.170  0.4547 -0.7061 -0.8578
   94SAPE  H10S 9302   4.217   5.836   7.233 -1.7380 -1.2544  1.3973
   94SAPE  C211 9303   4.239   6.034   7.143  0.4738  0.1425 -0.8474
   94SAPE  H11R 9304   4.302   6.100   7.204 -1.3141  1.1573 -0.0259
   94SAPE  C212 9305   4.228   6.054   7.012 -0.1231  0.3372 -0.5418
   94SAPE  H12R 9306   4.301   6.124   6.968  2.2977 -2.6258 -1.5545
   94SAPE  C213 9307   4.136   5.983   6.907 -0.3665  0.2314  0.3335
   94SAPE  H13R 9308   4.169   5.878   6.894  0.5701  0.7957 -2.4167
   94SAPE  H13S 9309   4.159   6.035   6.812 -0.7542  1.2392  0.7662
   94SAPE  C214 9310   3.986   5.980   6.908 -0.3953 -0.2405  0.0804
   94SAPE  H14R 9311   3.940   5.995   7.007 -0.8442  0.3951 -0.2188
   94SAPE  C215 9312   3.918   5.963   6.797  0.5331  0.7239 -0.1119
   94SAPE  H15R 9313   3.809   5.952   6.810  0.8656 -0.1396  2.6553
   94SAPE  C216 9314   3.967   5.935   6.660  0.4462  0.7367 -1.0847
   94SAPE  H16R 9315   3.899   5.863   6.610 -0.9662  0.6067  0.8988
   94SAPE  H16S 9316   4.068   5.891   6.663  0.1822  0.0410  2.7743
   94SAPE  C217 9317   3.962   6.065   6.564  0.1265  0.6217 -0.2172
   94SAPE  H17R 9318   3.859   6.106   6.571  0.1629  0.9799 -1.6145
   94SAPE  H17S 9319   3.977   6.024   6.462  1.7922  1.1537 -0.2066
   94SAPE  C218 9320   4.062   6.178   6.582 -0.0932 -0.3028 -0.4117
   94SAPE  H18R 9321   4.166   6.145   6.561 -0.2105 -0.8553 -0.1403
   94SAPE  H18S 9322   4.049   6.192   6.691  2.5683 -1.7284  0.1843
   94SAPE  C219 9323   4.028   6.304   6.503 -0.7502  0.6367 -0.5433
   94SAPE  H19R 9324   4.113   6.375   6.510 -0.2930  0.1794 -1.3937
   94SAPE  H19S 9325   3.938   6.352   6.546 -0.1975  1.1426  0.0754
   94SAPE  C220 9326   4.016   6.282   6.351 -0.2009 -0.0060  0.6322
   94SAPE  H20R 9327   4.083   6.206   6.305 -0.9243 -1.0343  1.2253
   94SAPE  H20S 9328   4.032   6.381   6.302 -0.0750  0.0199  0.7271
   94SAPE  H20T 9329   3.912   6.252   6.322 -0.9717  1.4537  1.7687
   94SAPE   C33 9330   3.534   6.721   7.865 -0.4942 -0.1094 -0.7605
   94SAPE   H3X 9331   3.473   6.814   7.863  0.1271  0.4125  1.4167
   94SAPE   H3Y 9332   3.472   6.643   7.816 -0.1869 -1.3437  0.7423
   94SAPE   C34 9333   3.659   6.754   7.786  0.0952  1.5874  0.1555
   94SAPE   H4X 9334   3.705   6.660   7.748  1.1696  1.5355  1.4805
   94SAPE   H4Y 9335   3.734   6.811   7.845  0.0752  1.0955  0.6658
   94SAPE   C35 9336   3.620   6.839   7.665  0.0667  0.5392  0.1381
   94SAPE   H5X 9337   3.708   6.861   7.601  0.0762  0.7598  0.2246
   94SAPE   H5Y 9338   3.582   6.937   7.701  0.5755  0.1499  1.8057
   94SAPE   C36 9339   3.509   6.778   7.573 -0.8544 -0.8025  0.3883
   94SAPE   H6X 9340   3.420   6.775   7.638 -1.0456  1.4562  0.3308
   94SAPE   H6Y 9341   3.540   6.682   7.527  3.2356  0.9191 -0.9811
   94SAPE   C37 9342   3.459   6.881   7.472  0.6038  0.8024  0.8778
   94SAPE   H7X 9343   3.539   6.917   7.404  1.1954 -1.4374  0.3056
   94SAPE   H7Y 9344   3.430   6.967   7.537  1.0672  0.0773  2.0751
   94SAPE   C38 9345   3.345   6.818   7.380  0.1942 -0.3551  0.1650
   94SAPE   H8X 9346   3.258   6.883   7.355 -0.1436 -0.2649  1.5038
   94SAPE   H8Y 9347   3.306   6.732   7.438 -2.0182  0.8565  0.5952
   94SAPE   C39 9348   3.405   6.765   7.249 -0.4272 -0.5844 -0.2442
   94SAPE   H9X 9349   3.495   6.703   7.265 -0.8750 -1.1002  0.3044
   94SAPE   H9Y 9350   3.443   6.853   7.191 -1.1113 -1.6358 -2.3961
   94SAPE  C310 9351   3.309   6.683   7.161  0.3881 -0.2589 -0.0140
   94SAPE  H10X 9352   3.218   6.743   7.137  0.8609  0.6531  0.4105
   94SAPE  H10Y 9353   3.276   6.603   7.230  0.1487  0.7275  1.0457
   94SAPE  C311 9354   3.359   6.622   7.030  0.0567  0.5495  0.1881
   94SAPE  H11X 9355   3.286   6.557   6.979  0.7962  0.4853 -0.8229
   94SAPE  H11Y 9356   3.451   6.565   7.054  0.2384  1.5715  2.1446
   94SAPE  C312 9357   3.388   6.742   6.937 -0.6832  0.8069  0.1081
   94SAPE  H12X 9358   3.437   6.821   6.998 -0.7453 -0.5006  1.9118
   94SAPE  H12Y 9359   3.291   6.773   6.892 -0.3620  0.0318 -1.1826
   94SAPE  C313 9360   3.469   6.705   6.813  0.2479  0.4934 -0.0158
   94SAPE  H13X 9361   3.428   6.605   6.786 -1.2784  0.6758  1.4514
   94SAPE  H13Y 9362   3.575   6.690   6.840  0.2451 -0.9211 -0.7326
   94SAPE  C314 9363   3.442   6.807   6.695  0.0552  0.3206 -0.4355
   94SAPE  H14X 9364   3.476   6.905   6.734  1.9581 -0.1521 -0.8226
   94SAPE  H14Y 9365   3.334   6.827   6.676 -0.5305 -1.5873  0.6213
   94SAPE  C315 9366   3.507   6.768   6.562 -0.8230  0.0744 -0.1411
   94SAPE  H15X 9367   3.500   6.659   6.541 -0.8211 -0.0622  0.5480
   94SAPE  H15Y 9368   3.617   6.761   6.568 -0.8090 -0.2949 -0.7521
   94SAPE  C316 9369   3.467   6.857   6.451  0.3513 -0.4353  0.2684
   94SAPE  H16X 9370   3.451   6.966   6.468 -2.2949 -0.4268 -1.5946
   94SAPE  H16Y 9371   3.369   6.816   6.419 -0.6918  0.7995  1.7155
   94SAPE  C317 9372   3.575   6.852   6.334  0.8823  0.2495  0.4464
   94SAPE  H17X 9373   3.525   6.869   6.236  0.3998  1.1069  0.8320
   94SAPE  H17Y 9374   3.613   6.748   6.334 -1.5209 -0.6901 -0.3237
   94SAPE  C318 9375   3.695   6.952   6.358 -0.3740  1.3147 -0.0584
   94SAPE  H18X 9376   3.735   6.950   6.461 -2.6961  0.0897  0.9045
   94SAPE  H18Y 9377   3.651   7.051   6.334  2.0982  2.8313  1.3673
   94SAPE  H18Z 9378   3.773   6.913   6.289 -1.7091  2.0509 -2.0927
   95SAPE     N 9379   3.480   4.377   8.490 -0.5142 -0.1623 -0.4001
   95SAPE   HN1 9380   3.397   4.417   8.442 -0.2889 -0.4593 -1.0438
   95SAPE   HN2 9381   3.456   4.277   8.507 -2.0149  0.5029  1.9280
   95SAPE   HN3 9382   3.500   4.423   8.581 -0.3532  0.1918 -0.6135
   95SAPE   C12 9383   3.592   4.391   8.396 -0.1346  0.5179 -0.2462
   95SAPE  H12A 9384   3.670   4.459   8.436 -1.0103  0.2679  2.0098
   95SAPE  H12B 9385   3.546   4.431   8.303 -0.6643 -0.4900 -0.4303
   95SAPE   C11 9386   3.653   4.253   8.359  0.2148 -0.1760 -0.6302
   95SAPE  H11A 9387   3.702   4.208   8.448 -0.7932  1.1233  0.6083
   95SAPE  H11B 9388   3.742   4.266   8.294  0.9593 -2.6472 -0.2456
   95SAPE     P 9389   3.560   4.019   8.279 -0.2632 -0.6996  0.5229
   95SAPE   O13 9390   3.688   3.981   8.226 -0.5832 -0.0441  0.0364
   95SAPE   O14 9391   3.517   3.951   8.403  0.3623  0.6520 -0.0392
   95SAPE   O12 9392   3.548   4.174   8.302  0.8530  0.1695  0.8234
   95SAPE   O11 9393   3.457   3.986   8.162  0.4343 -0.4198 -0.0612
   95SAPE    C1 9394   3.437   4.071   8.044 -0.7280  0.7283 -0.1711
   95SAPE    HA 9395   3.470   4.176   8.056  2.0833 -0.1603  0.4821
   95SAPE    HB 9396   3.506   4.040   7.963  2.1237 -0.7643  2.6110
   95SAPE    C2 9397   3.294   4.058   7.993  0.1395 -0.7841 -0.0602
   95SAPE    HS 9398   3.269   3.950   7.994 -1.7910 -0.3744 -0.4381
   95SAPE   O21 9399   3.292   4.103   7.857  0.1434  0.1795  0.5195
   95SAPE   C21 9400   3.190   4.057   7.790 -0.5984 -0.3357  0.1335
   95SAPE   O22 9401   3.105   3.978   7.832  0.2661 -0.8277 -0.3329
   95SAPE   C22 9402   3.193   4.100   7.648  0.6541  0.0952  0.3214
   95SAPE   H2R 9403   3.150   4.202   7.634  2.9927  1.2324  0.8123
   95SAPE   H2S 9404   3.293   4.119   7.603  0.2482 -0.6148 -0.9181
   95SAPE    C3 9405   3.189   4.129   8.081 -0.6205  0.3290 -0.4305
   95SAPE    HX 9406   3.229   4.109   8.183 -1.6580 -0.3929 -0.1552
   95SAPE    HY 9407   3.098   4.066   8.084  0.1791 -0.8222  0.9009
   95SAPE   O31 9408   3.171   4.270   8.056 -0.2435 -0.2273  0.1769
   95SAPE   C31 9409   3.049   4.310   8.006 -0.0942  1.0705 -1.2812
   95SAPE   O32 9410   2.975   4.232   7.944 -0.2516  0.3263  0.1679
   95SAPE   C32 9411   3.010   4.457   8.038 -0.1308 -0.1145 -0.1837
   95SAPE   H2X 9412   3.085   4.501   8.107  0.9898 -2.6595  0.3407
   95SAPE   H2Y 9413   2.918   4.440   8.098  1.3071 -1.5519  1.7155
   95SAPE   C23 9414   3.118   4.002   7.549  0.7272 -0.2906  0.6976
   95SAPE   H3R 9415   3.081   4.064   7.465  1.4272 -0.0541  0.5603
   95SAPE   H3S 9416   3.022   3.972   7.596  0.1382  0.9295  0.3022
   95SAPE   C24 9417   3.200   3.884   7.499  0.4235  1.0122  0.0439
   95SAPE   H4R 9418   3.267   3.846   7.579  0.6988  1.3012 -0.0471
   95SAPE   H4S 9419   3.270   3.924   7.423 -0.7284  0.4073 -1.3676
   95SAPE   C25 9420   3.110   3.781   7.442  0.6037  0.0204  1.0108
   95SAPE   H5R 9421   3.077   3.706   7.515 -0.3316  0.1835  0.7667
   95SAPE   C26 9422   3.071   3.773   7.312  0.1413 -0.9304 -0.3111
   95SAPE   H6R 9423   3.000   3.696   7.275 -2.3739  0.2813  1.6681
   95SAPE   C27 9424   3.120   3.860   7.194  0.1235  0.3113  0.4267
   95SAPE   H7R 9425   3.222   3.833   7.159 -0.1759 -0.6225  0.2369
   95SAPE   H7S 9426   3.127   3.969   7.213 -2.1549  0.9843 -2.0956
   95SAPE   C28 9427   3.034   3.857   7.071 -0.4033 -0.4531 -0.0987
   95SAPE   H8R 9428   2.951   3.929   7.074 -0.7890 -0.9179  0.7194
   95SAPE   C29 9429   3.043   3.777   6.967  0.3152  0.8886 -0.2795
   95SAPE   H9R 9430   2.958   3.770   6.898  0.3379  0.9300 -0.3116
   95SAPE  C210 9431   3.134   3.654   6.959 -0.0669  0.2642 -0.3656
   95SAPE  H10R 9432   3.077   3.569   6.914 -1.0695  0.7421 -0.0417
   95SAPE  H10S 9433   3.168   3.617   7.058 -0.0544  2.9651  0.7214
   95SAPE  C211 9434   3.257   3.686   6.877  0.3336  0.2746 -0.2178
   95SAPE  H11R 9435   3.320   3.765   6.922 -0.6164  1.4529 -0.9107
   95SAPE  C212 9436   3.311   3.629   6.772 -0.7691 -0.7271  0.3467
   95SAPE  H12R 9437   3.401   3.678   6.732  0.3054 -1.2140  2.0787
   95SAPE  C213 9438   3.256   3.511   6.689  0.4736  0.2791 -0.4878
   95SAPE  H13R 9439   3.241   3.546   6.584 -0.0863  0.5251 -0.3314
   95SAPE  H13S 9440   3.153   3.489   6.724 -0.1613  1.2471 -1.6779
   95SAPE  C214 9441   3.344   3.390   6.697 -0.3917  0.0839  0.1162
   95SAPE  H14R 9442   3.400   3.377   6.790 -0.5373 -0.0555  0.1844
   95SAPE  C215 9443   3.358   3.291   6.601  0.2680 -0.2223  0.0520
   95SAPE  H15R 9444   3.420   3.202   6.614 -1.5328 -1.3641  1.1888
   95SAPE  C216 9445   3.272   3.289   6.480  0.2639  0.0460 -0.2773
   95SAPE  H16R 9446   3.172   3.333   6.499  0.0342 -0.4631 -0.2643
   95SAPE  H16S 9447   3.250   3.181   6.461  2.6517 -1.1375  2.8139
   95SAPE  C217 9448   3.348   3.350   6.358 -0.0349 -0.2025  0.6842
   95SAPE  H17R 9449   3.424   3.278   6.321  0.6197  0.4098  0.8245
   95SAPE  H17S 9450   3.402   3.441   6.392  0.4074  1.2277 -3.3127
   95SAPE  C218 9451   3.248   3.398   6.243 -0.7372 -0.5659 -0.1477
   95SAPE  H18R 9452   3.169   3.470   6.270  1.3396  2.9732 -2.6160
   95SAPE  H18S 9453   3.191   3.307   6.215 -1.5746  0.1441 -0.7690
   95SAPE  C219 9454   3.312   3.476   6.128 -0.1399 -0.0609 -0.3773
   95SAPE  H19R 9455   3.389   3.545   6.168  0.1361 -0.4588 -0.2132
   95SAPE  H19S 9456   3.236   3.536   6.072 -0.5930 -0.6504 -0.3997
   95SAPE  C220 9457   3.374   3.381   6.022 -0.0261  0.1451  0.0746
   95SAPE  H20R 9458   3.433   3.447   5.955 -0.4285  1.7130  1.1915
   95SAPE  H20S 9459   3.290   3.334   5.968  1.1033 -2.1416  0.1874
   95SAPE  H20T 9460   3.431   3.303   6.077  0.2743  1.0391  1.0642
   95SAPE   C33 9461   2.976   4.535   7.916 -0.4901  0.5081 -0.3199
   95SAPE   H3X 9462   2.920   4.627   7.943 -0.2118  0.8011 -0.7172
   95SAPE   H3Y 9463   2.924   4.482   7.834 -0.8724  1.2370 -0.5582
   95SAPE   C34 9464   3.107   4.592   7.847 -0.4989  0.1943 -0.3018
   95SAPE   H4X 9465   3.191   4.519   7.843 -1.8240 -1.7044  2.5748
   95SAPE   H4Y 9466   3.151   4.667   7.915  0.7567 -1.9419  1.3977
   95SAPE   C35 9467   3.074   4.665   7.716  0.1489  0.2500 -0.2444
   95SAPE   H5X 9468   3.160   4.729   7.685  0.8269 -0.5248 -0.0086
   95SAPE   H5Y 9469   2.981   4.725   7.723  0.7384  1.1495  0.0907
   95SAPE   C36 9470   3.056   4.577   7.596 -0.3394  0.0878 -0.4668
   95SAPE   H6X 9471   3.030   4.633   7.504 -0.9471 -0.2271 -0.4944
   95SAPE   H6Y 9472   2.967   4.512   7.616  0.5703 -0.7470  1.0989
   95SAPE   C37 9473   3.175   4.482   7.567 -0.2013 -0.6191  0.0085
   95SAPE   H7X 9474   3.206   4.413   7.648 -3.7324  0.1964  2.2768
   95SAPE   H7Y 9475   3.257   4.556   7.554 -0.7204  0.4030  2.1617
   95SAPE   C38 9476   3.163   4.399   7.439 -0.9422  0.2906 -0.1855
   95SAPE   H8X 9477   3.061   4.356   7.445 -1.9563  2.6515  0.3612
   95SAPE   H8Y 9478   3.246   4.326   7.429 -1.8027 -1.2226  2.5850
   95SAPE   C39 9479   3.172   4.483   7.307 -0.0862  0.8453 -0.5617
   95SAPE   H9X 9480   3.280   4.506   7.294  0.6414 -2.2262 -0.6541
   95SAPE   H9Y 9481   3.109   4.574   7.304 -0.0521  0.8586 -0.8437
   95SAPE  C310 9482   3.130   4.408   7.190  0.9268  0.3727 -0.2804
   95SAPE  H10X 9483   3.138   4.474   7.101 -0.2576 -1.4412 -1.8218
   95SAPE  H10Y 9484   3.023   4.379   7.204  0.9387  0.0884 -0.7737
   95SAPE  C311 9485   3.205   4.270   7.177  0.5236 -0.1650 -0.6932
   95SAPE  H11X 9486   3.155   4.225   7.088  0.2815 -1.5894  0.1259
   95SAPE  H11Y 9487   3.186   4.203   7.264  0.6194  0.9181  0.1819
   95SAPE  C312 9488   3.355   4.293   7.155 -0.3164  0.0578 -0.0196
   95SAPE  H12X 9489   3.414   4.332   7.241  1.1067 -0.9722 -0.4979
   95SAPE  H12Y 9490   3.373   4.369   7.076  0.0109 -0.0441 -0.0454
   95SAPE  C313 9491   3.432   4.177   7.089  0.0714  0.1398 -0.5045
   95SAPE  H13X 9492   3.453   4.104   7.170 -0.2033  0.4199 -0.1797
   95SAPE  H13Y 9493   3.535   4.207   7.059  0.7259  0.6971  1.9878
   95SAPE  C314 9494   3.361   4.105   6.969 -0.2101 -0.5340  0.2839
   95SAPE  H14X 9495   3.258   4.079   7.001  0.3087 -0.8328  1.7622
   95SAPE  H14Y 9496   3.422   4.017   6.941 -0.8442 -0.3613 -1.8306
   95SAPE  C315 9497   3.367   4.183   6.839 -0.5512  0.0705  0.6668
   95SAPE  H15X 9498   3.471   4.203   6.805 -1.3895  0.4215 -1.8677
   95SAPE  H15Y 9499   3.317   4.282   6.849  0.7404  0.7320  0.7108
   95SAPE  C316 9500   3.309   4.102   6.714 -0.4098  0.0269  0.2112
   95SAPE  H16X 9501   3.246   4.014   6.738  0.7592 -1.1261 -0.7811
   95SAPE  H16Y 9502   3.402   4.071   6.660  0.1100  2.4701 -0.4116
   95SAPE  C317 9503   3.228   4.192   6.615  0.0677 -0.9214 -0.4811
   95SAPE  H17X 9504   3.294   4.280   6.597 -0.6295  0.1774  1.9863
   95SAPE  H17Y 9505   3.137   4.224   6.669  0.1113 -0.2467 -0.8050
   95SAPE  C318 9506   3.200   4.118   6.488  0.0105  0.6693 -0.0662
   95SAPE  H18X 9507   3.291   4.063   6.455 -2.4175 -1.5596 -3.7736
   95SAPE  H18Y 9508   3.166   4.177   6.400  0.8903  2.6706  0.8667
   95SAPE  H18Z 9509   3.133   4.034   6.515  0.6445 -0.0257 -0.6059
   96SAPE     N 9510   2.206   1.216   8.502 -0.3161  0.5381  0.5415
   96SAPE   HN1 9511   2.210   1.118   8.535 -0.6690 -0.0007 -0.9708
   96SAPE   HN2 9512   2.304   1.244   8.480  0.1569 -1.4560 -0.0682
   96SAPE   HN3 9513   2.162   1.281   8.570 -1.4496  0.8498 -0.4658
   96SAPE   C12 9514   2.125   1.229   8.374  0.6079 -0.5747 -0.2903
   96SAPE  H12A 9515   2.127   1.339   8.358 -1.2752  0.2338  3.8056
   96SAPE  H12B 9516   2.021   1.203   8.404  1.0616 -0.6303  1.3153
   96SAPE   C11 9517   2.178   1.137   8.259  0.5188 -0.6194  0.5750
   96SAPE  H11A 9518   2.099   1.139   8.181 -0.3768  3.0648  1.3775
   96SAPE  H11B 9519   2.197   1.035   8.297  1.4845 -0.7237 -0.1812
   96SAPE     P 9520   2.445   1.158   8.260  0.1596  0.1395  0.3928
   96SAPE   O13 9521   2.463   1.231   8.390  0.4815 -0.0688  0.0408
   96SAPE   O14 9522   2.456   1.009   8.257 -0.2004  0.4936 -0.6667
   96SAPE   O12 9523   2.300   1.192   8.208 -0.2022  0.3985  0.4425
   96SAPE   O11 9524   2.544   1.213   8.151 -0.1073  0.1931 -0.1183
   96SAPE    C1 9525   2.519   1.322   8.065 -0.7443 -0.6303 -0.0764
   96SAPE    HA 9526   2.452   1.399   8.108  1.8188  0.7488  1.7520
   96SAPE    HB 9527   2.616   1.373   8.047  0.2145 -3.2943 -3.4760
   96SAPE    C2 9528   2.464   1.282   7.927 -0.5373  0.1506  0.3648
   96SAPE    HS 9529   2.477   1.364   7.854 -0.2403  0.9356  1.2697
   96SAPE   O21 9530   2.330   1.243   7.927 -0.7736  0.9761 -0.7349
   96SAPE   C21 9531   2.243   1.345   7.931  0.3400 -0.0091 -0.2900
   96SAPE   O22 9532   2.260   1.465   7.954 -0.2481  0.1539  0.2043
   96SAPE   C22 9533   2.105   1.288   7.900 -0.1524  0.1388 -0.1252
   96SAPE   H2R 9534   2.084   1.201   7.966 -3.1691  1.0429  0.2528
   96SAPE   H2S 9535   2.031   1.366   7.929  0.6475  1.7935 -2.2899
   96SAPE    C3 9536   2.554   1.168   7.871  0.1515 -0.5273 -0.2294
   96SAPE    HX 9537   2.551   1.089   7.948 -0.6060 -0.0991  0.1917
   96SAPE    HY 9538   2.658   1.206   7.878  0.1985 -0.8925  1.5686
   96SAPE   O31 9539   2.531   1.128   7.733  0.0054  0.0694  0.1587
   96SAPE   C31 9540   2.432   1.039   7.715  0.1003  0.0208 -0.5420
   96SAPE   O32 9541   2.390   0.960   7.800  0.1799  0.1915  0.5203
   96SAPE   C32 9542   2.366   1.049   7.579  0.0872 -0.2053  0.8059
   96SAPE   H2X 9543   2.365   1.156   7.550  0.4078 -0.1197  1.1099
   96SAPE   H2Y 9544   2.260   1.018   7.590 -1.2916  4.1830  1.8432
   96SAPE   C23 9545   2.091   1.257   7.753 -0.0387 -0.1447  0.0065
   96SAPE   H3R 9546   1.995   1.202   7.739 -0.4682 -0.3045  3.0130
   96SAPE   H3S 9547   2.163   1.182   7.713 -0.3883 -0.4904  0.0146
   96SAPE   C24 9548   2.090   1.378   7.654 -0.1694  0.2939  0.1765
   96SAPE   H4R 9549   2.082   1.335   7.552 -2.3857  0.7284  0.1282
   96SAPE   H4S 9550   2.193   1.418   7.663  0.3725 -0.8511 -0.6174
   96SAPE   C25 9551   1.986   1.488   7.685 -0.0872  0.2413  0.2199
   96SAPE   H5R 9552   1.917   1.468   7.769  1.3933 -2.2097  0.9720
   96SAPE   C26 9553   1.967   1.599   7.620 -0.2718  0.4612  0.8499
   96SAPE   H6R 9554   1.881   1.663   7.643 -2.2599 -1.4395 -0.8686
   96SAPE   C27 9555   2.047   1.629   7.496 -0.0973  0.0918  0.4846
   96SAPE   H7R 9556   1.987   1.660   7.409  1.9257 -0.9506 -1.3726
   96SAPE   H7S 9557   2.099   1.541   7.453  0.4079  1.8623 -2.7904
   96SAPE   C28 9558   2.153   1.735   7.535  1.4241  0.6152 -0.2506
   96SAPE   H8R 9559   2.157   1.777   7.637  1.5440  1.4238 -0.5828
   96SAPE   C29 9560   2.231   1.797   7.444  0.1309 -0.0291 -0.1676
   96SAPE   H9R 9561   2.296   1.877   7.482  0.2839 -0.7502  1.1444
   96SAPE  C210 9562   2.242   1.751   7.299  0.1644 -0.1113 -0.1776
   96SAPE  H10R 9563   2.299   1.826   7.239 -1.7488  0.3973 -1.4597
   96SAPE  H10S 9564   2.141   1.743   7.254 -0.7502 -0.0164  1.7492
   96SAPE  C211 9565   2.310   1.619   7.293 -0.1032 -0.2134  0.2997
   96SAPE  H11R 9566   2.356   1.582   7.386 -0.0367 -0.8898  0.0104
   96SAPE  C212 9567   2.299   1.535   7.187  0.8309  0.4063  0.6702
   96SAPE  H12R 9568   2.335   1.433   7.208  1.5102  0.2353 -1.1811
   96SAPE  C213 9569   2.229   1.565   7.051 -0.4499  0.1411  0.0953
   96SAPE  H13R 9570   2.273   1.541   6.952 -0.8243 -0.1109 -0.0141
   96SAPE  H13S 9571   2.222   1.676   7.051  0.9214  0.2411  0.5210
   96SAPE  C214 9572   2.091   1.508   7.053  0.2886 -0.2697  0.2111
   96SAPE  H14R 9573   2.036   1.489   7.146 -0.7259  2.9655  0.4138
   96SAPE  C215 9574   2.023   1.482   6.942  0.0647 -0.0263 -0.3274
   96SAPE  H15R 9575   1.929   1.426   6.953 -0.9989  1.6428 -0.5025
   96SAPE  C216 9576   2.057   1.501   6.793 -0.5213 -0.1382  0.3316
   96SAPE  H16R 9577   2.047   1.404   6.739  3.3525 -1.5184  1.7472
   96SAPE  H16S 9578   2.156   1.547   6.772 -0.0730 -0.9772  0.5506
   96SAPE  C217 9579   1.953   1.594   6.725 -0.0832 -0.6906  0.0832
   96SAPE  H17R 9580   1.964   1.694   6.773  0.8289 -1.4873  1.5952
   96SAPE  H17S 9581   1.848   1.564   6.745 -0.5714 -0.4650 -1.9094
   96SAPE  C218 9582   1.966   1.607   6.570  0.6769 -0.2759 -0.2665
   96SAPE  H18R 9583   1.952   1.504   6.530  1.8640 -0.0690 -1.2740
   96SAPE  H18S 9584   2.069   1.642   6.547  1.4411 -0.7640  2.1078
   96SAPE  C219 9585   1.859   1.707   6.514  0.0705 -0.0611 -0.5190
   96SAPE  H19R 9586   1.758   1.670   6.543  0.4448 -0.9714 -0.3380
   96SAPE  H19S 9587   1.866   1.705   6.403 -0.0511  0.0151 -0.5283
   96SAPE  C220 9588   1.881   1.851   6.563 -0.1796 -0.3681  0.1940
   96SAPE  H20R 9589   1.835   1.864   6.663  0.4190 -0.9312  0.5475
   96SAPE  H20S 9590   1.840   1.929   6.495  0.6923 -0.4163 -0.3997
   96SAPE  H20T 9591   1.991   1.868   6.564 -0.4908  2.0561 -0.5914
   96SAPE   C33 9592   2.435   0.973   7.469 -0.8904 -0.3215 -0.2283
   96SAPE   H3X 9593   2.377   0.985   7.375  2.4608 -0.5143 -2.5385
   96SAPE   H3Y 9594   2.452   0.867   7.498  1.2789  0.5378  2.0008
   96SAPE   C34 9595   2.578   1.037   7.444  0.7475  0.5415 -0.2583
   96SAPE   H4X 9596   2.648   1.013   7.527  1.0993 -0.8525 -0.9394
   96SAPE   H4Y 9597   2.569   1.147   7.431  0.5447  0.4689 -0.7503
   96SAPE   C35 9598   2.635   0.970   7.317 -0.0504 -0.7507  0.3519
   96SAPE   H5X 9599   2.641   0.860   7.323  2.1816 -0.7226 -0.4198
   96SAPE   H5Y 9600   2.741   1.004   7.315  0.3038 -1.8712 -1.8269
   96SAPE   C36 9601   2.577   1.006   7.179  0.6530  0.2855  0.3903
   96SAPE   H6X 9602   2.480   0.956   7.161  1.0821 -0.6084  0.4888
   96SAPE   H6Y 9603   2.655   0.970   7.108 -1.5855 -0.4883 -1.7897
   96SAPE   C37 9604   2.548   1.159   7.166 -0.2175  0.2067 -0.7503
   96SAPE   H7X 9605   2.638   1.222   7.176  0.5077 -0.9047 -0.1223
   96SAPE   H7Y 9606   2.484   1.198   7.248  3.8451  2.2529  1.7255
   96SAPE   C38 9607   2.493   1.195   7.027 -0.3655 -0.3827  0.0369
   96SAPE   H8X 9608   2.561   1.172   6.942 -0.4239 -0.6317  0.0582
   96SAPE   H8Y 9609   2.480   1.306   7.026 -0.4212 -0.3792  0.9725
   96SAPE   C39 9610   2.352   1.149   6.991 -0.0909  0.1391  0.1164
   96SAPE   H9X 9611   2.364   1.043   6.958 -1.8103  0.5739 -2.1364
   96SAPE   H9Y 9612   2.316   1.207   6.904 -2.2317 -1.3078 -0.0499
   96SAPE  C310 9613   2.247   1.157   7.095 -0.2937 -0.2890 -0.3639
   96SAPE  H10X 9614   2.235   1.263   7.124 -1.4826  0.4569 -3.2061
   96SAPE  H10Y 9615   2.287   1.110   7.187  0.8831 -0.5477 -0.9912
   96SAPE  C311 9616   2.108   1.089   7.059  0.0533 -0.5241 -0.0395
   96SAPE  H11X 9617   2.131   0.981   7.054  1.7724 -0.2070  0.5283
   96SAPE  H11Y 9618   2.078   1.131   6.961 -2.1551  1.6932  1.4560
   96SAPE  C312 9619   1.994   1.109   7.162 -0.4337 -0.0273  0.0425
   96SAPE  H12X 9620   1.910   1.044   7.129 -2.3133  0.6163  3.1568
   96SAPE  H12Y 9621   1.956   1.213   7.150  0.2724  0.1152 -1.1172
   96SAPE  C313 9622   2.029   1.075   7.301  0.0571  0.4030  0.2703
   96SAPE  H13X 9623   2.111   1.140   7.338  0.8721 -0.8827  0.7631
   96SAPE  H13Y 9624   2.069   0.972   7.304  1.4096  0.9367  2.5667
   96SAPE  C314 9625   1.917   1.081   7.400 -0.5168 -0.7984 -0.4379
   96SAPE  H14X 9626   1.820   1.051   7.355 -0.8284  0.6279 -0.7551
   96SAPE  H14Y 9627   1.922   1.187   7.433  1.1309 -0.8617 -0.3916
   96SAPE  C315 9628   1.937   0.985   7.522  0.3701  0.2673 -0.3610
   96SAPE  H15X 9629   2.034   1.013   7.569  0.8370 -0.7999 -0.6390
   96SAPE  H15Y 9630   1.941   0.875   7.504 -2.8696 -0.4733  2.4530
   96SAPE  C316 9631   1.826   1.003   7.631 -0.0536  0.3300  0.0257
   96SAPE  H16X 9632   1.725   0.995   7.586 -0.2821  0.2337  0.5507
   96SAPE  H16Y 9633   1.819   1.104   7.677  0.9764 -0.5420  2.2426
   96SAPE  C317 9634   1.827   0.894   7.743  0.0881  0.3961  0.2211
   96SAPE  H17X 9635   1.777   0.939   7.832  0.0496 -0.6453  0.7380
   96SAPE  H17Y 9636   1.929   0.868   7.779  0.0720  0.5026  0.3423
   96SAPE  C318 9637   1.761   0.768   7.690  0.3710 -0.3554  0.0520
   96SAPE  H18X 9638   1.770   0.675   7.751 -1.0657  0.9935  2.4849
   96SAPE  H18Y 9639   1.784   0.759   7.581  0.2720 -0.9058  0.0712
   96SAPE  H18Z 9640   1.650   0.776   7.682  0.2042 -0.7569  1.5852
   97SAPE     N 9641   4.761   6.479   8.456  0.0418  0.2401 -0.3173
   97SAPE   HN1 9642   4.716   6.457   8.547  1.1409 -1.0389 -0.0516
   97SAPE   HN2 9643   4.722   6.409   8.389 -0.8991  0.6638 -0.2292
   97SAPE   HN3 9644   4.864   6.469   8.457  0.1012  0.6689 -1.0410
   97SAPE   C12 9645   4.733   6.619   8.419  0.0374 -0.3679 -0.6958
   97SAPE  H12A 9646   4.813   6.685   8.460  0.1855 -1.3097  0.6224
   97SAPE  H12B 9647   4.634   6.650   8.457  0.7254 -0.1550  1.0498
   97SAPE   C11 9648   4.730   6.647   8.271  0.3883  0.5013  0.0232
   97SAPE  H11A 9649   4.693   6.750   8.251  2.4149  1.1087 -0.8563
   97SAPE  H11B 9650   4.650   6.579   8.235  0.3152  1.0528 -0.8825
   97SAPE     P 9651   4.886   6.530   8.093 -0.3211 -0.3094 -0.1665
   97SAPE   O13 9652   5.023   6.577   8.043  0.1116 -0.0498 -0.1719
   97SAPE   O14 9653   4.868   6.392   8.139 -0.0736  0.2008 -0.6561
   97SAPE   O12 9654   4.857   6.630   8.214  0.0134 -0.1229  0.5003
   97SAPE   O11 9655   4.775   6.572   7.990 -0.1601 -0.2195 -0.8452
   97SAPE    C1 9656   4.777   6.699   7.928  0.0544  0.2463 -0.3175
   97SAPE    HA 9657   4.844   6.770   7.981 -1.6206 -0.0235  2.4038
   97SAPE    HB 9658   4.806   6.697   7.821  0.0665  0.5864 -0.3231
   97SAPE    C2 9659   4.635   6.758   7.923  0.1958 -0.9031 -0.5083
   97SAPE    HS 9660   4.607   6.780   8.028  0.0293 -0.6874 -0.5971
   97SAPE   O21 9661   4.547   6.665   7.872  0.5488 -0.1875  0.1248
   97SAPE   C21 9662   4.420   6.665   7.914  0.2130 -0.3898 -0.4374
   97SAPE   O22 9663   4.374   6.756   7.982  0.7063 -0.2531 -0.1448
   97SAPE   C22 9664   4.341   6.546   7.868  0.5360  0.3660 -0.0034
   97SAPE   H2R 9665   4.293   6.590   7.778  1.1779 -0.9193 -1.0111
   97SAPE   H2S 9666   4.409   6.461   7.844 -1.1853 -0.5919 -1.8309
   97SAPE    C3 9667   4.633   6.900   7.846 -0.8092 -0.0734  0.0038
   97SAPE    HX 9668   4.709   6.964   7.896  1.7951 -2.4786 -0.6593
   97SAPE    HY 9669   4.534   6.950   7.860  0.4194  2.2954  0.7399
   97SAPE   O31 9670   4.669   6.879   7.708 -0.1839 -0.2258  0.0667
   97SAPE   C31 9671   4.575   6.858   7.613 -0.5204 -0.2296  0.3398
   97SAPE   O32 9672   4.460   6.875   7.634  0.6479 -0.4119 -0.1385
   97SAPE   C32 9673   4.631   6.817   7.479  0.3655 -0.3694 -0.5467
   97SAPE   H2X 9674   4.729   6.768   7.497  0.3464  0.1161  1.0070
   97SAPE   H2Y 9675   4.649   6.904   7.411 -1.3417  2.4813  2.3362
   97SAPE   C23 9676   4.246   6.495   7.973  0.4828  0.4246  0.2435
   97SAPE   H3R 9677   4.180   6.580   8.003  0.2055  1.4238 -2.8511
   97SAPE   H3S 9678   4.289   6.446   8.063 -1.5488  0.8490  1.5215
   97SAPE   C24 9679   4.145   6.389   7.924 -0.4053 -0.0683  0.6571
   97SAPE   H4R 9680   4.076   6.365   8.008  1.7528 -0.7927  2.3367
   97SAPE   H4S 9681   4.208   6.298   7.912 -1.5919 -0.4775 -4.0536
   97SAPE   C25 9682   4.073   6.424   7.802  0.2962 -0.1978 -0.6825
   97SAPE   H5R 9683   3.979   6.481   7.813 -0.5982 -1.7942  0.3842
   97SAPE   C26 9684   4.097   6.378   7.678 -0.2259  0.0527  0.2393
   97SAPE   H6R 9685   4.034   6.419   7.598  1.3154  0.8303 -0.6125
   97SAPE   C27 9686   4.221   6.294   7.643  0.2987  0.9660 -0.5960
   97SAPE   H7R 9687   4.184   6.190   7.649 -0.4778  1.2505 -0.2908
   97SAPE   H7S 9688   4.305   6.307   7.714 -0.2713  3.0577 -0.2312
   97SAPE   C28 9689   4.282   6.338   7.504  0.0880  0.1219 -0.2425
   97SAPE   H8R 9690   4.245   6.427   7.452 -1.5391 -0.6890 -0.5246
   97SAPE   C29 9691   4.380   6.271   7.435  0.4835 -0.3440 -1.7681
   97SAPE   H9R 9692   4.436   6.325   7.358  0.7375 -0.4699 -1.6705
   97SAPE  C210 9693   4.445   6.135   7.464  0.5028  0.2566  0.2709
   97SAPE  H10R 9694   4.413   6.061   7.387  1.0018  1.1071 -0.7863
   97SAPE  H10S 9695   4.414   6.088   7.560  1.4968  0.4872  0.7181
   97SAPE  C211 9696   4.596   6.147   7.462 -0.2981  0.1079  0.0772
   97SAPE  H11R 9697   4.636   6.180   7.559  0.6892 -1.4360  0.2314
   97SAPE  C212 9698   4.683   6.112   7.367 -0.0610 -0.6898  0.2326
   97SAPE  H12R 9699   4.789   6.105   7.397 -0.2086 -1.3283  0.6352
   97SAPE  C213 9700   4.634   6.076   7.223 -0.8138 -0.0807 -0.0270
   97SAPE  H13R 9701   4.543   6.132   7.192 -1.1237 -0.3189  0.4442
   97SAPE  H13S 9702   4.605   5.969   7.223  3.0049 -1.2928  2.1853
   97SAPE  C214 9703   4.736   6.091   7.121  0.2750 -0.4724  0.4074
   97SAPE  H14R 9704   4.840   6.104   7.156  1.5584 -1.0647 -2.8001
   97SAPE  C215 9705   4.722   6.082   6.988  0.1973  0.1884 -0.1576
   97SAPE  H15R 9706   4.799   6.101   6.912 -0.8042 -0.3741 -1.3502
   97SAPE  C216 9707   4.585   6.052   6.929 -0.1294 -0.1915 -0.1944
   97SAPE  H16R 9708   4.530   6.149   6.926 -0.0738 -0.1643 -0.3353
   97SAPE  H16S 9709   4.528   5.982   6.994  1.5993  0.7752  2.5507
   97SAPE  C217 9710   4.589   5.996   6.781  0.5046  0.5866 -0.1543
   97SAPE  H17R 9711   4.647   5.901   6.776  0.5884  0.7072 -1.9755
   97SAPE  H17S 9712   4.627   6.079   6.717 -0.8703  1.7883  0.5287
   97SAPE  C218 9713   4.447   5.968   6.734 -0.6364  0.6672 -0.3496
   97SAPE  H18R 9714   4.400   6.067   6.721  1.4017  1.6415 -0.6730
   97SAPE  H18S 9715   4.389   5.906   6.806  3.0020 -2.1950  0.4564
   97SAPE  C219 9716   4.453   5.890   6.604 -0.2604 -0.0903 -0.1183
   97SAPE  H19R 9717   4.474   5.784   6.631 -2.1644  0.0370  2.2001
   97SAPE  H19S 9718   4.535   5.924   6.538  0.3020 -1.9363 -0.4372
   97SAPE  C220 9719   4.323   5.895   6.523 -0.0846 -0.4169 -0.4273
   97SAPE  H20R 9720   4.301   5.999   6.493 -0.2093 -0.2895  0.1090
   97SAPE  H20S 9721   4.251   5.852   6.596  1.5721  0.8173  2.0785
   97SAPE  H20T 9722   4.325   5.824   6.437  0.3750 -1.2044  0.2115
   97SAPE   C33 9723   4.546   6.706   7.406  0.0884 -0.9730 -0.2932
   97SAPE   H3X 9724   4.436   6.722   7.401  0.1605 -0.7829 -1.5362
   97SAPE   H3Y 9725   4.552   6.609   7.460 -2.7596 -0.8675  0.3873
   97SAPE   C34 9726   4.578   6.687   7.253 -0.6830  0.3572  0.0891
   97SAPE   H4X 9727   4.685   6.658   7.249 -1.0046 -1.0293  0.7792
   97SAPE   H4Y 9728   4.568   6.789   7.209 -0.2178 -0.0726 -1.0302
   97SAPE   C35 9729   4.507   6.570   7.185 -0.1470 -0.3871  0.1136
   97SAPE   H5X 9730   4.403   6.554   7.222 -0.2409 -1.6960 -0.6296
   97SAPE   H5Y 9731   4.553   6.478   7.228  2.6662  0.9643  0.2531
   97SAPE   C36 9732   4.495   6.574   7.035 -0.3903 -0.2371  0.2350
   97SAPE   H6X 9733   4.594   6.560   6.987  0.1476 -1.9079  1.7321
   97SAPE   H6Y 9734   4.461   6.674   6.999 -0.6899 -0.1957  0.6245
   97SAPE   C37 9735   4.408   6.458   6.981 -0.1531  0.0263 -0.1631
   97SAPE   H7X 9736   4.317   6.464   7.045  1.7118  0.2884  2.6239
   97SAPE   H7Y 9737   4.461   6.363   7.005 -1.0110 -0.2201  0.8484
   97SAPE   C38 9738   4.356   6.467   6.835  0.4287 -0.6944  0.3520
   97SAPE   H8X 9739   4.341   6.565   6.786  2.9285 -0.0611  0.7261
   97SAPE   H8Y 9740   4.261   6.409   6.832  0.2212 -0.3522  0.3428
   97SAPE   C39 9741   4.454   6.387   6.747 -0.2004  0.8098  0.2840
   97SAPE   H9X 9742   4.462   6.283   6.785 -1.1606  0.1220 -1.2890
   97SAPE   H9Y 9743   4.555   6.430   6.764  0.8092 -0.7432 -1.3747
   97SAPE  C310 9744   4.429   6.371   6.601 -0.3600 -0.0664  0.1982
   97SAPE  H10X 9745   4.398   6.471   6.564  0.1711  0.4067  0.9954
   97SAPE  H10Y 9746   4.344   6.304   6.577  0.9674 -2.4759  1.8629
   97SAPE  C311 9747   4.559   6.334   6.536  0.2148 -0.0831  0.5500
   97SAPE  H11X 9748   4.595   6.235   6.572  1.8352  0.1120 -0.4265
   97SAPE  H11Y 9749   4.639   6.409   6.557  0.1062 -0.1774  1.3405
   97SAPE  C312 9750   4.550   6.314   6.383  0.2854 -0.0791  0.4170
   97SAPE  H12X 9751   4.502   6.404   6.340 -1.1615 -0.5845  0.9297
   97SAPE  H12Y 9752   4.483   6.230   6.356 -0.6415 -0.2029  2.8518
   97SAPE  C313 9753   4.692   6.293   6.308  0.8494 -0.8572  0.9675
   97SAPE  H13X 9754   4.751   6.379   6.345 -0.0042  0.4070 -0.5066
   97SAPE  H13Y 9755   4.685   6.298   6.197  0.6523  0.1324  1.0137
   97SAPE  C314 9756   4.773   6.172   6.355  0.4045  0.6103 -0.1317
   97SAPE  H14X 9757   4.726   6.075   6.328 -1.1869  1.5928 -1.0488
   97SAPE  H14Y 9758   4.775   6.175   6.466 -0.4570 -0.2329 -0.0823
   97SAPE  C315 9759   4.925   6.167   6.316  0.2828 -0.0940  0.3529
   97SAPE  H15X 9760   4.970   6.070   6.348  1.9364  0.1708 -1.0487
   97SAPE  H15Y 9761   4.981   6.251   6.362  1.3595 -0.4943 -0.1941
   97SAPE  C316 9762   4.946   6.172   6.168 -0.0520 -0.1623  0.0685
   97SAPE  H16X 9763   4.893   6.254   6.114  0.5090  1.3225  1.6706
   97SAPE  H16Y 9764   4.898   6.087   6.115 -0.5363  2.0369 -3.3194
   97SAPE  C317 9765   5.093   6.194   6.131 -0.3199  0.1945 -0.1594
   97SAPE  H17X 9766   5.151   6.106   6.165 -2.5484 -1.6089 -0.7632
   97SAPE  H17Y 9767   5.124   6.285   6.187 -1.2741 -0.0138  0.7532
   97SAPE  C318 9768   5.126   6.209   5.979 -0.6161 -0.0807 -0.1690
   97SAPE  H18X 9769   5.113   6.115   5.923  0.1137  0.4372 -1.2453
   97SAPE  H18Y 9770   5.232   6.244   5.983 -1.7047  3.5396  0.7916
   97SAPE  H18Z 9771   5.060   6.287   5.935 -2.1823 -1.5122 -0.4490
   98SAPE     N 9772   6.695   2.759   8.224  0.3801  0.0176 -0.4134
   98SAPE   HN1 9773   6.792   2.753   8.262  0.0786 -2.5359  0.1444
   98SAPE   HN2 9774   6.654   2.845   8.267 -1.0965 -1.1416  0.6105
   98SAPE   HN3 9775   6.643   2.677   8.262 -0.6785  0.2206 -1.3879
   98SAPE   C12 9776   6.703   2.770   8.078  0.2706 -0.4244 -0.5039
   98SAPE  H12A 9777   6.749   2.865   8.043 -0.0728 -1.5486 -4.5217
   98SAPE  H12B 9778   6.604   2.750   8.031  0.1378  0.2727 -0.5339
   98SAPE   C11 9779   6.794   2.660   8.018 -0.6076 -0.4217 -0.2273
   98SAPE  H11A 9780   6.783   2.653   7.907 -3.4225  0.4663 -0.0796
   98SAPE  H11B 9781   6.757   2.561   8.052 -1.7293 -0.1762 -0.6963
   98SAPE     P 9782   6.997   2.617   8.180 -0.0370 -0.0640  0.1288
   98SAPE   O13 9783   6.919   2.662   8.299 -0.3656 -0.2372 -0.6024
   98SAPE   O14 9784   7.020   2.471   8.175 -0.2765 -0.3770  0.5795
   98SAPE   O12 9785   6.936   2.674   8.055 -0.1902 -0.6518 -0.1259
   98SAPE   O11 9786   7.134   2.696   8.185 -0.0761 -0.0059 -0.4892
   98SAPE    C1 9787   7.152   2.831   8.214  0.1395  0.1004  0.6595
   98SAPE    HA 9788   7.053   2.883   8.207 -0.1266 -0.5974 -2.0397
   98SAPE    HB 9789   7.182   2.844   8.320 -0.2004  1.2526  0.6357
   98SAPE    C2 9790   7.244   2.911   8.119  0.1148 -0.0010  0.2951
   98SAPE    HS 9791   7.229   3.021   8.129 -0.2966 -0.1443  1.3293
   98SAPE   O21 9792   7.219   2.872   7.980  0.7161 -0.6891 -0.4902
   98SAPE   C21 9793   7.098   2.917   7.933  0.3117  0.1211 -0.1572
   98SAPE   O22 9794   7.029   3.004   7.990 -0.0864  0.1996  0.4419
   98SAPE   C22 9795   7.066   2.842   7.799 -0.7400 -0.7312 -0.6737
   98SAPE   H2R 9796   7.160   2.848   7.741 -0.6616 -0.0319 -0.4790
   98SAPE   H2S 9797   7.059   2.735   7.830  0.8248 -0.9712 -1.0675
   98SAPE    C3 9798   7.396   2.894   8.145 -0.4871 -0.2849 -0.4822
   98SAPE    HX 9799   7.419   2.787   8.163  0.7336  0.1877  0.9917
   98SAPE    HY 9800   7.416   2.955   8.235 -1.6270  2.2490 -1.8576
   98SAPE   O31 9801   7.468   2.939   8.032 -0.0370  0.2863  0.1117
   98SAPE   C31 9802   7.569   2.860   7.986  0.5125 -0.0101 -0.0981
   98SAPE   O32 9803   7.621   2.761   8.032  0.7655  0.1177 -0.1829
   98SAPE   C32 9804   7.602   2.924   7.852  1.1453  0.3468 -0.4396
   98SAPE   H2X 9805   7.689   2.868   7.812  1.3790  1.2184 -1.1809
   98SAPE   H2Y 9806   7.647   3.024   7.872  2.1321 -0.0575 -0.5661
   98SAPE   C23 9807   6.951   2.896   7.713 -0.4904 -0.2654 -0.1177
   98SAPE   H3R 9808   6.971   3.003   7.691  0.7672 -0.1497  1.4691
   98SAPE   H3S 9809   6.858   2.898   7.774  0.7422 -0.0383  1.8281
   98SAPE   C24 9810   6.918   2.811   7.585  0.0179 -0.9352 -0.3266
   98SAPE   H4R 9811   7.014   2.776   7.543 -0.1747 -2.6616  0.5683
   98SAPE   H4S 9812   6.880   2.896   7.525  2.5239 -0.3242 -1.1521
   98SAPE   C25 9813   6.823   2.697   7.586  0.2426 -0.5177 -0.4355
   98SAPE   H5R 9814   6.826   2.644   7.682  3.5570 -0.3056 -0.2900
   98SAPE   C26 9815   6.749   2.653   7.492  0.3435  0.5060 -0.4690
   98SAPE   H6R 9816   6.690   2.561   7.506  0.3520  0.3512 -1.3739
   98SAPE   C27 9817   6.746   2.712   7.354  0.4606  0.0090  0.2589
   98SAPE   H7R 9818   6.848   2.735   7.315  0.0686  1.6431  0.1316
   98SAPE   H7S 9819   6.708   2.816   7.359 -2.5376 -0.7721 -2.4298
   98SAPE   C28 9820   6.662   2.632   7.258  0.0668 -0.5060 -0.3841
   98SAPE   H8R 9821   6.601   2.556   7.310  0.2670  0.9773  2.2247
   98SAPE   C29 9822   6.650   2.637   7.128  0.3847 -0.2269 -0.2133
   98SAPE   H9R 9823   6.596   2.559   7.072 -0.0824  0.1209 -0.2523
   98SAPE  C210 9824   6.714   2.743   7.039  0.0207  0.0847 -0.3527
   98SAPE  H10R 9825   6.758   2.694   6.949  1.0624 -0.4728  0.4301
   98SAPE  H10S 9826   6.787   2.816   7.079 -3.9986  4.1611  0.2754
   98SAPE  C211 9827   6.612   2.840   6.983  0.1804 -0.0592 -0.0558
   98SAPE  H11R 9828   6.557   2.901   7.055 -1.2004 -2.3021  0.9042
   98SAPE  C212 9829   6.577   2.866   6.856 -0.5235  0.3701 -0.2283
   98SAPE  H12R 9830   6.512   2.950   6.828  1.0560  1.4077 -0.9278
   98SAPE  C213 9831   6.642   2.792   6.745 -0.2985  0.7675  0.7749
   98SAPE  H13R 9832   6.753   2.784   6.751 -0.3027 -2.5076 -1.3023
   98SAPE  H13S 9833   6.615   2.839   6.648 -1.8640 -4.2429 -1.5722
   98SAPE  C214 9834   6.599   2.642   6.726  0.0538 -0.1657 -0.8886
   98SAPE  H14R 9835   6.663   2.566   6.773 -1.9154  0.1033  2.5619
   98SAPE  C215 9836   6.476   2.604   6.685 -0.6267  0.4393  0.1946
   98SAPE  H15R 9837   6.468   2.497   6.706  1.6612  0.4538  1.5353
   98SAPE  C216 9838   6.371   2.697   6.625 -0.0860  0.0073 -0.1763
   98SAPE  H16R 9839   6.406   2.715   6.521  0.6367 -0.8462 -0.0995
   98SAPE  H16S 9840   6.368   2.792   6.683 -2.0697 -1.4557  2.3036
   98SAPE  C217 9841   6.233   2.639   6.621 -0.6002 -0.5758  0.1326
   98SAPE  H17R 9842   6.242   2.531   6.599  0.1984 -0.2380 -1.3187
   98SAPE  H17S 9843   6.183   2.682   6.532 -0.2969  1.4922  0.9155
   98SAPE  C218 9844   6.150   2.656   6.750  0.3287  0.2746 -0.1585
   98SAPE  H18R 9845   6.129   2.765   6.761  0.5980  0.3877 -0.7611
   98SAPE  H18S 9846   6.207   2.620   6.838 -1.2665  2.6215  1.9977
   98SAPE  C219 9847   6.013   2.582   6.758 -0.2098  0.6112  0.1295
   98SAPE  H19R 9848   5.966   2.607   6.855 -3.0334 -1.9740 -0.4286
   98SAPE  H19S 9849   6.034   2.473   6.758  0.2208  0.6451 -2.1608
   98SAPE  C220 9850   5.914   2.616   6.648 -0.2151  0.1539 -0.0043
   98SAPE  H20R 9851   5.970   2.613   6.552  2.4127 -1.0579  1.4652
   98SAPE  H20S 9852   5.892   2.723   6.663 -0.6093  0.1615 -0.5857
   98SAPE  H20T 9853   5.831   2.541   6.641 -0.1477  0.0355  0.4709
   98SAPE   C33 9854   7.484   2.927   7.752  0.5466 -0.3560  0.1669
   98SAPE   H3X 9855   7.477   3.035   7.727  0.0333 -0.3182  0.4543
   98SAPE   H3Y 9856   7.389   2.896   7.800  1.2711 -0.2533  1.7494
   98SAPE   C34 9857   7.504   2.857   7.619 -0.1415 -0.0699 -0.2246
   98SAPE   H4X 9858   7.529   2.750   7.635 -0.7355  0.0549  1.7750
   98SAPE   H4Y 9859   7.589   2.903   7.565  0.7831  1.6400  2.5205
   98SAPE   C35 9860   7.376   2.856   7.530 -0.2405 -0.1436  0.1284
   98SAPE   H5X 9861   7.330   2.953   7.503 -0.7515 -0.3852  0.1239
   98SAPE   H5Y 9862   7.294   2.807   7.587 -0.3235  0.9143  0.9617
   98SAPE   C36 9863   7.404   2.769   7.406  0.3691  1.2986 -0.3217
   98SAPE   H6X 9864   7.439   2.668   7.437 -2.7245 -0.0810 -0.8839
   98SAPE   H6Y 9865   7.472   2.824   7.338  0.1904  0.5324 -1.1417
   98SAPE   C37 9866   7.280   2.749   7.329  0.1206 -0.5820  0.7600
   98SAPE   H7X 9867   7.207   2.695   7.393  0.0691 -2.2470 -0.6147
   98SAPE   H7Y 9868   7.297   2.667   7.255  1.9320  0.6884 -0.3186
   98SAPE   C38 9869   7.226   2.878   7.260 -0.6366 -0.2380 -0.0223
   98SAPE   H8X 9870   7.307   2.945   7.224 -0.6929  0.3118  0.8536
   98SAPE   H8Y 9871   7.169   2.942   7.331 -0.0552  1.1092 -0.7288
   98SAPE   C39 9872   7.128   2.851   7.147  0.1045  0.8296 -0.3843
   98SAPE   H9X 9873   7.061   2.939   7.135  0.0462  1.4876  3.5830
   98SAPE   H9Y 9874   7.062   2.769   7.183 -2.5948  2.7598 -0.6495
   98SAPE  C310 9875   7.197   2.821   7.016 -0.0361 -0.4323  0.4153
   98SAPE  H10X 9876   7.239   2.718   7.010  0.3690 -0.2910  0.8098
   98SAPE  H10Y 9877   7.286   2.887   7.006 -1.9291  2.6599  2.3599
   98SAPE  C311 9878   7.097   2.837   6.897  0.5608 -0.4527  0.3998
   98SAPE  H11X 9879   7.042   2.930   6.919  0.7711 -0.4030  0.7392
   98SAPE  H11Y 9880   7.015   2.762   6.893 -0.1756  0.3509  0.2941
   98SAPE  C312 9881   7.168   2.820   6.761 -0.3145 -0.9573 -0.0162
   98SAPE  H12X 9882   7.193   2.713   6.746  1.8085 -0.6520  0.9464
   98SAPE  H12Y 9883   7.253   2.891   6.764 -0.3490 -0.8999 -0.3254
   98SAPE  C313 9884   7.067   2.858   6.647 -0.1440  0.3559 -1.4085
   98SAPE  H13X 9885   7.039   2.965   6.664  1.1716  0.5372 -0.1630
   98SAPE  H13Y 9886   6.975   2.799   6.667  0.4689  0.2257  1.5985
   98SAPE  C314 9887   7.121   2.853   6.510 -0.4983  0.1824  0.4375
   98SAPE  H14X 9888   7.132   2.746   6.482 -2.1083  0.1174 -0.0189
   98SAPE  H14Y 9889   7.225   2.892   6.500  0.1238 -1.1003  1.4898
   98SAPE  C315 9890   7.039   2.910   6.402 -0.1502 -0.6495 -1.1811
   98SAPE  H15X 9891   7.011   3.010   6.441 -1.4247 -1.2995 -0.3485
   98SAPE  H15Y 9892   6.939   2.861   6.391 -0.6875  0.0471  0.2564
   98SAPE  C316 9893   7.115   2.903   6.268 -0.2960  0.5619 -0.3606
   98SAPE  H16X 9894   7.220   2.939   6.275  0.7888 -2.3622 -0.3663
   98SAPE  H16Y 9895   7.077   2.967   6.185 -0.5753 -0.6299 -1.1764
   98SAPE  C317 9896   7.115   2.763   6.199  0.0047  0.2553  0.0281
   98SAPE  H17X 9897   7.009   2.746   6.170  0.3959  0.1521 -1.4040
   98SAPE  H17Y 9898   7.147   2.684   6.272 -1.5528  0.7148  1.2751
   98SAPE  C318 9899   7.196   2.747   6.077  0.8330 -0.5376 -0.0623
   98SAPE  H18X 9900   7.179   2.839   6.018 -0.3851 -0.9183 -0.3375
   98SAPE  H18Y 9901   7.173   2.660   6.012 -0.3720  0.1544 -0.6033
   98SAPE  H18Z 9902   7.303   2.749   6.106  0.5709  0.1670  0.9214
   99SAPE     N 9903   4.999   6.146   8.011 -0.3055  0.3264  0.2332
   99SAPE   HN1 9904   5.029   6.053   7.976  1.5008  1.8860 -2.8671
   99SAPE   HN2 9905   4.930   6.142   8.089  0.0807  2.0482  0.7019
   99SAPE   HN3 9906   4.949   6.199   7.936  0.3004  3.4690  1.8928
   99SAPE   C12 9907   5.127   6.209   8.037  0.0669 -0.5074  0.0374
   99SAPE  H12A 9908   5.111   6.316   8.064 -0.8160 -1.2587  2.9131
   99SAPE  H12B 9909   5.187   6.212   7.944  2.5342 -0.5639  1.5210
   99SAPE   C11 9910   5.205   6.127   8.146  1.0960 -0.2923 -0.2454
   99SAPE  H11A 9911   5.133   6.122   8.230 -0.9605  0.0434 -1.9128
   99SAPE  H11B 9912   5.287   6.183   8.195 -0.5759  1.3854  0.7671
   99SAPE     P 9913   5.288   5.883   8.201 -0.2393 -0.3228  0.0268
   99SAPE   O13 9914   5.234   5.916   8.333  0.4675  0.0634  0.1166
   99SAPE   O14 9915   5.265   5.745   8.155  0.3932  0.3967  0.2741
   99SAPE   O12 9916   5.232   5.989   8.094 -0.2064  0.5735  0.0241
   99SAPE   O11 9917   5.438   5.907   8.206 -0.4251  0.8439  0.1897
   99SAPE    C1 9918   5.539   5.876   8.116 -0.4712  0.0243  0.5408
   99SAPE    HA 9919   5.630   5.889   8.178 -0.2794  1.4340  0.0162
   99SAPE    HB 9920   5.525   5.775   8.073 -1.0356  0.9163 -1.4731
   99SAPE    C2 9921   5.562   5.978   7.996  0.4757  0.8955 -0.3469
   99SAPE    HS 9922   5.541   6.077   8.043 -0.2848 -0.1855  1.7132
   99SAPE   O21 9923   5.479   5.943   7.888  0.6817 -0.0491 -0.6945
   99SAPE   C21 9924   5.408   6.044   7.823 -0.2837 -0.2055  0.5840
   99SAPE   O22 9925   5.423   6.163   7.847  0.1025 -0.3594  0.7000
   99SAPE   C22 9926   5.308   5.988   7.723 -0.1952  0.0781 -0.6016
   99SAPE   H2R 9927   5.344   5.889   7.690  1.0943 -0.0741  1.1407
   99SAPE   H2S 9928   5.209   5.967   7.767 -1.9360  0.8244 -3.8069
   99SAPE    C3 9929   5.709   5.978   7.942 -0.0161 -0.0210 -0.8193
   99SAPE    HX 9930   5.722   5.872   7.913 -1.0681 -0.6216  0.7622
   99SAPE    HY 9931   5.779   6.004   8.025  2.1920  1.9233 -3.1244
   99SAPE   O31 9932   5.728   6.070   7.833 -0.4680 -0.1386 -0.4104
   99SAPE   C31 9933   5.765   6.193   7.869 -0.0788  0.4361 -0.5665
   99SAPE   O32 9934   5.782   6.233   7.982  0.4702 -0.1389  0.1851
   99SAPE   C32 9935   5.792   6.280   7.750  0.6391 -0.6261  0.5215
   99SAPE   H2X 9936   5.897   6.311   7.767  1.8149 -4.1044  0.5580
   99SAPE   H2Y 9937   5.723   6.366   7.758  1.3605  0.1764 -1.3819
   99SAPE   C23 9938   5.294   6.085   7.611 -0.2032  0.2132  0.9204
   99SAPE   H3R 9939   5.393   6.104   7.564  0.1351  0.7377  1.8289
   99SAPE   H3S 9940   5.252   6.182   7.644 -1.5186 -0.2724  0.7423
   99SAPE   C24 9941   5.207   6.031   7.498 -0.1445  0.8990 -0.3213
   99SAPE   H4R 9942   5.114   5.981   7.535  1.4634 -2.0285  0.1020
   99SAPE   H4S 9943   5.268   5.950   7.452 -1.1914 -0.1591  0.0867
   99SAPE   C25 9944   5.164   6.128   7.391  0.1966 -0.3100  0.2541
   99SAPE   H5R 9945   5.090   6.202   7.422 -0.3394 -1.3824  1.6684
   99SAPE   C26 9946   5.219   6.137   7.267  0.3834  0.2271 -0.6497
   99SAPE   H6R 9947   5.189   6.209   7.189 -1.4948  0.9186  0.6350
   99SAPE   C27 9948   5.331   6.053   7.209  0.3467 -0.5290 -0.4327
   99SAPE   H7R 9949   5.313   5.943   7.207 -0.1214 -0.5165  1.3417
   99SAPE   H7S 9950   5.424   6.042   7.269  1.3381 -1.1105 -2.0020
   99SAPE   C28 9951   5.380   6.112   7.076 -0.0591  0.0137 -0.7195
   99SAPE   H8R 9952   5.465   6.182   7.080 -0.4377  0.5467 -1.7240
   99SAPE   C29 9953   5.317   6.088   6.956  0.3937  0.5401  0.5041
   99SAPE   H9R 9954   5.350   6.148   6.870  0.3800 -1.1176 -0.7092
   99SAPE  C210 9955   5.189   6.005   6.930  0.3608  0.6325 -0.1957
   99SAPE  H10R 9956   5.128   5.985   7.021 -2.6322 -0.9743 -2.3900
   99SAPE  H10S 9957   5.226   5.905   6.900  1.7468  0.9798  0.2554
   99SAPE  C211 9958   5.096   6.065   6.834  0.1866 -0.9842  0.3936
   99SAPE  H11R 9959   5.065   6.165   6.865  0.6939  0.2516 -2.6539
   99SAPE  C212 9960   5.057   6.018   6.714 -0.0158 -0.8983 -0.2048
   99SAPE  H12R 9961   4.995   6.079   6.647  1.2600 -0.7672 -1.3045
   99SAPE  C213 9962   5.098   5.894   6.642 -0.1088 -0.0613 -0.1099
   99SAPE  H13R 9963   5.204   5.872   6.665 -0.1137  0.4847  0.4625
   99SAPE  H13S 9964   5.086   5.914   6.534 -1.5712  2.5816  0.4466
   99SAPE  C214 9965   5.004   5.788   6.692  0.2251  0.0937  0.2857
   99SAPE  H14R 9966   5.008   5.764   6.799 -0.0589  0.2478  0.3340
   99SAPE  C215 9967   4.916   5.714   6.623 -1.7250  1.1355 -0.1671
   99SAPE  H15R 9968   4.846   5.651   6.679 -0.1008 -0.1261  0.5233
   99SAPE  C216 9969   4.904   5.725   6.477 -0.3944 -0.2375 -0.3858
   99SAPE  H16R 9970   4.988   5.662   6.442  1.9783  1.5995  1.6314
   99SAPE  H16S 9971   4.922   5.826   6.432 -0.0153 -0.1992 -0.1467
   99SAPE  C217 9972   4.765   5.669   6.430  0.0777 -0.0783  0.2887
   99SAPE  H17R 9973   4.670   5.716   6.465 -0.3242 -0.0683 -0.7634
   99SAPE  H17S 9974   4.750   5.563   6.457 -0.6015 -0.6682 -2.1168
   99SAPE  C218 9975   4.756   5.671   6.276 -0.5906  0.6895 -0.0192
   99SAPE  H18R 9976   4.664   5.617   6.246 -0.4479 -0.4143  1.4102
   99SAPE  H18S 9977   4.841   5.619   6.225  0.8083 -0.5674  3.3059
   99SAPE  C219 9978   4.752   5.812   6.224 -0.5577 -0.6335  0.3643
   99SAPE  H19R 9979   4.811   5.884   6.284  1.2286 -0.2797 -1.7021
   99SAPE  H19S 9980   4.647   5.850   6.214 -0.6793 -0.6060  1.6461
   99SAPE  C220 9981   4.812   5.823   6.082 -0.2460  0.0886  0.4345
   99SAPE  H20R 9982   4.922   5.815   6.086 -0.3094 -1.8561 -0.4991
   99SAPE  H20S 9983   4.774   5.919   6.039 -0.1740  0.6566  1.6041
   99SAPE  H20T 9984   4.774   5.737   6.022 -0.9093  0.6711  0.0039
   99SAPE   C33 9985   5.786   6.211   7.610 -0.0297 -0.0079 -0.6131
   99SAPE   H3X 9986   5.691   6.154   7.607 -0.1017  0.0404  0.4597
   99SAPE   H3Y 9987   5.872   6.143   7.595  0.9656  0.8671  0.8233
   99SAPE   C34 9988   5.791   6.314   7.494 -0.4400 -0.0215 -0.4131
   99SAPE   H4X 9989   5.893   6.355   7.485 -0.8605  0.6408 -3.0447
   99SAPE   H4Y 9990   5.709   6.389   7.500 -1.1007 -0.7454 -0.1378
   99SAPE   C35 9991   5.765   6.252   7.358  0.1334  0.2688 -0.6687
   99SAPE   H5X 9992   5.658   6.224   7.353 -0.1984  1.2772  0.3906
   99SAPE   H5Y 9993   5.816   6.153   7.355  2.2615  1.2257  0.9516
   99SAPE   C36 9994   5.803   6.340   7.246  0.1024 -0.5971 -0.1096
   99SAPE   H6X 9995   5.904   6.369   7.281 -0.7130  1.1731  0.9882
   99SAPE   H6Y 9996   5.735   6.428   7.259  1.0584 -0.0693  1.6107
   99SAPE   C37 9997   5.795   6.274   7.113  0.4080 -0.3135  0.1324
   99SAPE   H7X 9998   5.690   6.238   7.101 -0.5040  2.3479 -0.5316
   99SAPE   H7Y 9999   5.858   6.183   7.110  0.6100 -0.1533 -1.9022
   99SAPE   C3810000   5.831   6.359   6.996 -0.0088  0.6746  0.2707
   99SAPE   H8X10001   5.940   6.383   6.997 -0.2199  2.1547 -2.4245
   99SAPE   H8Y10002   5.770   6.451   6.999  1.1430  1.6185 -2.4662
   99SAPE   C3910003   5.815   6.268   6.869 -0.3758 -0.3080 -0.1030
   99SAPE   H9X10004   5.719   6.213   6.875  0.4545 -1.7457  0.7532
   99SAPE   H9Y10005   5.895   6.192   6.884  0.6025  0.8133  0.5576
   99SAPE  C31010006   5.832   6.347   6.733 -0.2875  0.4946  0.2375
   99SAPE  H10X10007   5.928   6.403   6.727  0.1075 -0.2630 -0.8253
   99SAPE  H10Y10008   5.757   6.430   6.734  0.2792  1.0984  3.4675
   99SAPE  C31110009   5.816   6.263   6.601 -0.1230 -0.0601  0.0091
   99SAPE  H11X10010   5.841   6.326   6.513  0.1772  1.8033  1.3576
   99SAPE  H11Y10011   5.710   6.232   6.598  0.3364 -1.7655  0.1938
   99SAPE  C31210012   5.910   6.140   6.586 -0.3316  0.4960 -0.7090
   99SAPE  H12X10013   5.886   6.075   6.673  1.3050  0.0657 -0.5386
   99SAPE  H12Y10014   6.016   6.169   6.605 -0.2933  0.5258 -0.9536
   99SAPE  C31310015   5.883   6.065   6.456 -0.0356  0.2325 -0.4652
   99SAPE  H13X10016   5.924   6.119   6.368  3.1379  0.8579  1.2225
   99SAPE  H13Y10017   5.773   6.052   6.451  0.0097 -2.4234  2.2884
   99SAPE  C31410018   5.931   5.917   6.467 -0.1350 -0.3333  0.5091
   99SAPE  H14X10019   5.897   5.862   6.558  0.0552 -1.1934  0.0776
   99SAPE  H14Y10020   6.042   5.922   6.477 -0.2301  1.5231  1.0160
   99SAPE  C31510021   5.901   5.845   6.334  0.4623  0.0336 -0.0227
   99SAPE  H15X10022   5.936   5.899   6.244 -0.1289 -0.7946 -0.7782
   99SAPE  H15Y10023   5.790   5.843   6.326  0.5448 -1.3053 -1.2561
   99SAPE  C31610024   5.963   5.701   6.315  0.1136 -0.0379 -0.4087
   99SAPE  H16X10025   5.935   5.655   6.218 -2.8559  0.9395 -0.1005
   99SAPE  H16Y10026   5.904   5.636   6.383 -0.6905 -2.1249 -2.9218
   99SAPE  C31710027   6.114   5.676   6.329 -0.1827 -0.4743  0.1740
   99SAPE  H17X10028   6.128   5.567   6.317  1.2053 -0.2856 -0.1381
   99SAPE  H17Y10029   6.137   5.707   6.433  3.7780  0.2991 -0.7710
   99SAPE  C31810030   6.214   5.760   6.247  0.1533 -0.3606  0.1254
   99SAPE  H18X10031   6.198   5.868   6.267 -0.4734 -0.5718  0.7975
   99SAPE  H18Y10032   6.200   5.728   6.141 -0.8197 -0.9868  0.4330
   99SAPE  H18Z10033   6.315   5.723   6.275 -0.0862 -0.5951  0.6899
  100SAPE     N10034   0.344   4.235   8.469 -0.2874 -0.2847 -0.5436
  100SAPE   HN110035   0.245   4.225   8.439  0.5613 -0.2136 -3.7187
  100SAPE   HN210036   0.365   4.176   8.552 -2.2779  2.4223  2.0741
  100SAPE   HN310037   0.354   4.333   8.502 -0.3329 -0.1075 -1.0530
  100SAPE   C1210038   0.441   4.197   8.363 -0.0868 -0.1387  0.6098
  100SAPE  H12A10039   0.542   4.224   8.400 -0.3446 -0.5878  1.6985
  100SAPE  H12B10040   0.413   4.259   8.275 -3.6625 -3.0050 -0.5202
  100SAPE   C1110041   0.430   4.046   8.329 -0.2079  0.0951 -0.4029
  100SAPE  H11A10042   0.494   4.032   8.239  0.8041  1.2353  0.1023
  100SAPE  H11B10043   0.324   4.022   8.304  0.5214 -2.1163 -1.6328
  100SAPE     P10044   0.442   3.819   8.452  0.0728 -0.1548 -0.1307
  100SAPE   O1310045   0.537   3.752   8.536 -0.0608  0.3436  0.7634
  100SAPE   O1410046   0.301   3.818   8.496 -0.0731 -0.2374 -0.3936
  100SAPE   O1210047   0.485   3.974   8.445 -0.1075 -0.1699 -0.5223
  100SAPE   O1110048   0.451   3.770   8.310  0.3899  0.3843 -0.3553
  100SAPE    C110049   0.573   3.733   8.251 -0.0128 -0.4775  0.0388
  100SAPE    HA10050   0.663   3.780   8.296 -0.6154  0.5939  0.1657
  100SAPE    HB10051   0.590   3.624   8.256  0.4525 -0.3598  2.4194
  100SAPE    C210052   0.577   3.776   8.097 -0.2291  0.3297 -0.3945
  100SAPE    HS10053   0.574   3.886   8.086 -2.2007  0.2701 -0.8942
  100SAPE   O2110054   0.466   3.717   8.027  0.3351  0.6916 -0.6131
  100SAPE   C2110055   0.374   3.803   7.992  0.4036 -0.5694  0.1523
  100SAPE   O2210056   0.374   3.924   8.006  0.1885 -0.6175  0.5280
  100SAPE   C2210057   0.270   3.726   7.921 -0.1371  0.2598  0.0727
  100SAPE   H2R10058   0.259   3.626   7.968  0.2757 -0.6072 -1.5927
  100SAPE   H2S10059   0.184   3.794   7.938  0.7852  0.9689  2.1251
  100SAPE    C310060   0.715   3.735   8.036 -0.0153 -0.5383  0.6065
  100SAPE    HX10061   0.737   3.626   8.040  1.7580 -0.3184 -1.3410
  100SAPE    HY10062   0.792   3.781   8.101  0.0052 -1.3200  1.1530
  100SAPE   O3110063   0.725   3.798   7.907 -0.5456 -0.1237  0.9235
  100SAPE   C3110064   0.717   3.712   7.808  0.4465  0.3347 -0.2281
  100SAPE   O3210065   0.690   3.594   7.827  0.3441  0.0254  0.1978
  100SAPE   C3210066   0.755   3.773   7.670 -0.1698 -0.5123 -0.4014
  100SAPE   H2X10067   0.828   3.705   7.622  0.6794  0.7897 -0.9761
  100SAPE   H2Y10068   0.795   3.875   7.685 -0.1274 -0.4859 -0.6988
  100SAPE   C2310069   0.300   3.704   7.769 -0.5337  0.4129 -0.5685
  100SAPE   H3R10070   0.396   3.648   7.758 -0.3917  0.5105  0.1162
  100SAPE   H3S10071   0.324   3.800   7.717  1.4451 -1.2404 -2.9774
  100SAPE   C2410072   0.185   3.631   7.697 -0.1076 -0.1846  0.5418
  100SAPE   H4R10073   0.172   3.534   7.748  4.1027 -0.6889  0.9710
  100SAPE   H4S10074   0.215   3.603   7.594  0.9640 -2.2462  1.3629
  100SAPE   C2510075   0.068   3.721   7.696 -0.1130 -0.9759 -0.1590
  100SAPE   H5R10076   0.051   3.783   7.785  0.6661  0.6414 -1.0918
  100SAPE   C2610077  -0.019   3.716   7.598  0.3590 -1.1079 -0.6513
  100SAPE   H6R10078  -0.101   3.790   7.594  1.7031  0.6082  1.2890
  100SAPE   C2710079  -0.006   3.643   7.472 -0.1820  0.0606  0.0417
  100SAPE   H7R10080  -0.015   3.538   7.506  0.4319 -0.2438 -0.7134
  100SAPE   H7S10081   0.099   3.655   7.438 -0.2150  0.2295 -0.0024
  100SAPE   C2810082  -0.105   3.649   7.360  0.8954  0.2605  0.3173
  100SAPE   H8R10083  -0.206   3.610   7.380  1.2150 -0.0181  1.4698
  100SAPE   C2910084  -0.068   3.698   7.237  0.7506 -0.0950  0.4320
  100SAPE   H9R10085  -0.137   3.674   7.154 -1.1344 -1.7452  2.3425
  100SAPE  C21010086   0.058   3.760   7.197 -0.4360 -0.6512  0.2191
  100SAPE  H10R10087   0.136   3.687   7.229 -0.0570  0.4164  1.8551
  100SAPE  H10S10088   0.081   3.856   7.247  3.2482 -1.1130 -0.3320
  100SAPE  C21110089   0.090   3.776   7.053 -0.2626  0.0001 -0.3944
  100SAPE  H11R10090   0.037   3.861   7.007 -1.9472 -0.7961  0.0014
  100SAPE  C21210091   0.183   3.712   6.978 -0.1396  0.0831  0.2386
  100SAPE  H12R10092   0.175   3.737   6.871 -0.3757  2.3830  0.7473
  100SAPE  C21310093   0.271   3.598   7.027  0.6418 -1.3145  0.8773
  100SAPE  H13R10094   0.307   3.556   6.930  1.8189  0.6099  0.4183
  100SAPE  H13S10095   0.195   3.529   7.069 -0.2904 -0.2685  0.9290
  100SAPE  C21410096   0.383   3.637   7.120  0.9989  0.2267  0.9384
  100SAPE  H14R10097   0.359   3.639   7.227 -0.9039 -0.0840  0.5574
  100SAPE  C21510098   0.512   3.638   7.093  0.1826 -0.3220  0.2880
  100SAPE  H15R10099   0.581   3.660   7.175 -0.6843  2.8400  0.2838
  100SAPE  C21610100   0.577   3.628   6.956 -0.5422 -0.1468 -0.2659
  100SAPE  H16R10101   0.500   3.657   6.881 -1.6035  0.1495  0.9078
  100SAPE  H16S10102   0.602   3.522   6.934  0.2852  0.1789 -0.9362
  100SAPE  C21710103   0.705   3.716   6.928 -0.5624 -0.0099 -0.3278
  100SAPE  H17R10104   0.780   3.676   7.000 -1.4783  0.8221  1.1530
  100SAPE  H17S10105   0.680   3.823   6.945  1.0248  0.2968  0.2853
  100SAPE  C21810106   0.773   3.703   6.793 -0.3635  0.5456  0.3645
  100SAPE  H18R10107   0.881   3.714   6.817  0.0767 -0.4178 -1.0525
  100SAPE  H18S10108   0.751   3.788   6.725  0.9417 -0.2664 -1.1374
  100SAPE  C21910109   0.748   3.573   6.711 -0.1396 -0.1723  0.7268
  100SAPE  H19R10110   0.637   3.565   6.705 -0.2062  1.4697 -1.3561
  100SAPE  H19S10111   0.787   3.475   6.744  0.7785  0.1919  0.7326
  100SAPE  C22010112   0.805   3.590   6.570 -0.4335  0.7366 -0.0757
  100SAPE  H20R10113   0.804   3.692   6.527 -1.3643  0.4148 -0.8520
  100SAPE  H20S10114   0.751   3.535   6.491 -1.7016 -0.6317  1.6563
  100SAPE  H20T10115   0.904   3.539   6.566 -0.9912 -0.2623 -1.7210
  100SAPE   C3310116   0.624   3.775   7.581 -0.3554 -0.2445  0.4401
  100SAPE   H3X10117   0.560   3.862   7.608 -1.2805 -0.6131 -0.5130
  100SAPE   H3Y10118   0.571   3.678   7.596 -1.5949  0.4602  0.7193
  100SAPE   C3410119   0.651   3.798   7.427 -0.0425  0.1589 -0.3698
  100SAPE   H4X10120   0.549   3.812   7.386 -0.0174  0.1498 -0.4349
  100SAPE   H4Y10121   0.688   3.697   7.401 -0.8151  0.1730 -1.6095
  100SAPE   C3510122   0.742   3.912   7.397  0.7279  0.0681 -0.0146
  100SAPE   H5X10123   0.845   3.888   7.432  0.8268  0.2590 -0.1753
  100SAPE   H5Y10124   0.706   4.007   7.441  0.2930  0.8376 -1.9492
  100SAPE   C3610125   0.741   3.951   7.250  0.2161  0.3544  0.1750
  100SAPE   H6X10126   0.636   3.969   7.216  0.8551  1.3691 -1.3982
  100SAPE   H6Y10127   0.782   3.863   7.195 -2.5137 -0.6854 -0.3778
  100SAPE   C3710128   0.823   4.068   7.218  0.0113 -0.8247  0.3880
  100SAPE   H7X10129   0.926   4.045   7.250  0.2305  1.8145  1.8977
  100SAPE   H7Y10130   0.780   4.153   7.276  0.8648  0.6895 -1.0822
  100SAPE   C3810131   0.806   4.117   7.071 -0.7678  0.1441 -0.2745
  100SAPE   H8X10132   0.816   4.227   7.063  0.6649  0.1243  0.8233
  100SAPE   H8Y10133   0.707   4.098   7.025 -0.4282 -2.9987  0.0313
  100SAPE   C3910134   0.905   4.045   6.985  0.4553  0.2500 -0.5458
  100SAPE   H9X10135   0.888   3.935   6.985  0.8715  0.1603  1.1141
  100SAPE   H9Y10136   1.003   4.060   7.034  0.1113 -1.2645  0.6983
  100SAPE  C31010137   0.913   4.107   6.840 -0.7435  0.3997  0.5110
  100SAPE  H10X10138   0.940   4.214   6.849 -1.2962  0.5095  0.9024
  100SAPE  H10Y10139   0.819   4.091   6.783 -0.5799 -1.4029  0.6632
  100SAPE  C31110140   1.014   4.028   6.758  0.3573  0.3489  0.3711
  100SAPE  H11X10141   0.979   3.922   6.754 -1.2115  0.8549 -0.0123
  100SAPE  H11Y10142   1.110   4.039   6.814  1.2875  1.5227 -1.3529
  100SAPE  C31210143   1.027   4.076   6.612  0.3313  0.4723  0.1467
  100SAPE  H12X10144   1.103   4.158   6.612  0.1659  0.6610 -1.7329
  100SAPE  H12Y10145   0.930   4.127   6.593 -0.2035 -0.7990 -0.6277
  100SAPE  C31310146   1.063   3.971   6.506  0.6186  0.3113  0.7366
  100SAPE  H13X10147   0.983   3.895   6.511 -0.4777  1.4783  1.3921
  100SAPE  H13Y10148   1.162   3.925   6.527  0.3074 -0.5569  0.3691
  100SAPE  C31410149   1.059   4.021   6.356  0.2388  0.3746 -0.1504
  100SAPE  H14X10150   1.135   4.100   6.337  0.1252 -0.0527 -2.6884
  100SAPE  H14Y10151   0.959   4.069   6.340  0.2292  0.6823  0.7400
  100SAPE  C31510152   1.066   3.907   6.262  0.0248  0.4105  0.3965
  100SAPE  H15X10153   1.163   3.855   6.278  0.1963 -0.5818 -3.1097
  100SAPE  H15Y10154   1.072   3.952   6.161 -1.3352 -0.6772 -0.2012
  100SAPE  C31610155   0.947   3.803   6.264 -0.7198 -0.1002  0.2659
  100SAPE  H16X10156   0.846   3.849   6.270 -0.4348  0.5146  0.5126
  100SAPE  H16Y10157   0.957   3.754   6.363  0.5635 -0.2201  0.0902
  100SAPE  C31710158   0.955   3.687   6.159  0.0304 -1.0041 -1.1591
  100SAPE  H17X10159   1.023   3.619   6.215  1.1592  1.9888  1.3910
  100SAPE  H17Y10160   1.008   3.718   6.066 -0.9317  0.2780 -1.2964
  100SAPE  C31810161   0.826   3.608   6.140  0.4093  0.0948 -0.0048
  100SAPE  H18X10162   0.793   3.573   6.240  2.9416 -0.5612  0.6753
  100SAPE  H18Y10163   0.848   3.522   6.073 -1.4972 -0.3097 -0.1568
  100SAPE  H18Z10164   0.749   3.677   6.100  0.5618  0.8544  0.9894
  101SAPE     N10165   5.405   0.318   8.154  0.0174 -0.3345  0.7547
  101SAPE   HN110166   5.509   0.319   8.145  0.0237 -1.3054  0.6384
  101SAPE   HN210167   5.389   0.409   8.201  0.4973  1.8715 -2.9895
  101SAPE   HN310168   5.393   0.233   8.212 -0.2010  0.3347  1.7174
  101SAPE   C1210169   5.337   0.302   8.025 -0.4497  0.5007  0.0447
  101SAPE  H12A10170   5.232   0.273   8.046  0.2433 -0.1299  3.0890
  101SAPE  H12B10171   5.380   0.217   7.967 -0.1578  0.4364  0.3545
  101SAPE   C1110172   5.340   0.432   7.938 -0.0289  0.4505 -0.0965
  101SAPE  H11A10173   5.280   0.401   7.850  0.7424 -0.9443 -0.1711
  101SAPE  H11B10174   5.444   0.465   7.917 -0.1353  0.8902  0.0550
  101SAPE     P10175   5.130   0.584   7.983  0.2417 -0.0307  0.2118
  101SAPE   O1310176   5.057   0.466   8.022  0.0901  0.1328 -0.3382
  101SAPE   O1410177   5.098   0.717   8.038 -0.6298 -0.2992 -0.8917
  101SAPE   O1210178   5.281   0.543   8.008 -0.0034  0.0668  0.4937
  101SAPE   O1110179   5.124   0.600   7.826 -0.7984  0.1293 -0.8057
  101SAPE    C110180   5.024   0.562   7.738  0.3019 -0.4966 -0.3459
  101SAPE    HA10181   4.922   0.594   7.767 -0.3985 -0.8683 -2.2260
  101SAPE    HB10182   5.029   0.615   7.640 -2.8644  0.6975  0.0330
  101SAPE    C210183   5.016   0.415   7.714 -0.3681  0.4490 -0.4592
  101SAPE    HS10184   5.025   0.378   7.818  0.0392  1.3242 -0.1692
  101SAPE   O2110185   5.125   0.364   7.630 -0.2735 -0.2626 -0.3379
  101SAPE   C2110186   5.145   0.243   7.652  0.0491  0.4836 -0.1167
  101SAPE   O2210187   5.096   0.175   7.742 -0.2509 -0.1443 -0.6167
  101SAPE   C2210188   5.248   0.197   7.545 -0.0859  0.7203  0.2680
  101SAPE   H2R10189   5.286   0.283   7.486 -0.6887  1.2157  0.5826
  101SAPE   H2S10190   5.324   0.146   7.607 -0.0491  0.2743 -0.1426
  101SAPE    C310191   4.877   0.378   7.657  0.5841 -0.0381  0.0893
  101SAPE    HX10192   4.792   0.391   7.727 -0.7858  2.3306 -1.8448
  101SAPE    HY10193   4.880   0.270   7.633  1.2310 -0.4599  1.8616
  101SAPE   O3110194   4.848   0.474   7.562  0.1592  0.1100 -0.5803
  101SAPE   C3110195   4.777   0.430   7.451  0.0767  0.7893  0.1216
  101SAPE   O3210196   4.756   0.312   7.423  0.3667  0.7466  0.2723
  101SAPE   C3210197   4.743   0.557   7.379  0.7188  0.1372  0.7258
  101SAPE   H2X10198   4.831   0.624   7.381  1.8000 -1.1011 -1.4392
  101SAPE   H2Y10199   4.660   0.598   7.440 -0.4835 -0.8975 -0.1478
  101SAPE   C2310200   5.189   0.079   7.460 -0.0375 -0.9957 -0.0994
  101SAPE   H3R10201   5.162  -0.009   7.522  0.6386 -2.4144 -1.7330
  101SAPE   H3S10202   5.267   0.027   7.400  0.8032 -2.3571  2.0352
  101SAPE   C2410203   5.063   0.117   7.375 -0.2185 -0.2698 -0.2005
  101SAPE   H4R10204   5.084   0.217   7.333 -0.5210  0.0076  0.2929
  101SAPE   H4S10205   4.977   0.128   7.444 -0.6355 -0.0826 -0.7473
  101SAPE   C2510206   5.036   0.018   7.259  0.0567  0.2436 -0.4271
  101SAPE   H5R10207   5.088  -0.078   7.278 -0.0888  0.3684  0.6862
  101SAPE   C2610208   4.970   0.041   7.146  0.1764  0.1414 -0.2383
  101SAPE   H6R10209   4.962  -0.041   7.072  0.0224 -1.9590  1.9620
  101SAPE   C2710210   4.894   0.166   7.111 -0.2781 -0.2720  0.0359
  101SAPE   H7R10211   4.914   0.246   7.185  0.4564 -0.2416 -0.1892
  101SAPE   H7S10212   4.784   0.149   7.118 -0.9514  2.3474 -2.4512
  101SAPE   C2810213   4.934   0.229   6.983  0.0646  0.2186 -0.2375
  101SAPE   H8R10214   5.036   0.270   6.980 -0.1978  1.1178  1.4746
  101SAPE   C2910215   4.849   0.222   6.874  0.1568 -0.3406  0.0141
  101SAPE   H9R10216   4.884   0.272   6.782  1.1193 -0.8886  0.0658
  101SAPE  C21010217   4.710   0.158   6.872  0.1140  0.1373  0.1439
  101SAPE  H10R10218   4.633   0.229   6.910 -0.4227 -0.4303  0.1206
  101SAPE  H10S10219   4.699   0.071   6.940 -0.8611  0.1678  0.0409
  101SAPE  C21110220   4.663   0.115   6.729  0.1007  0.0362 -0.0686
  101SAPE  H11R10221   4.744   0.069   6.670  1.3685  1.7783  0.2414
  101SAPE  C21210222   4.545   0.142   6.671 -0.5502 -0.0052 -1.0576
  101SAPE  H12R10223   4.540   0.121   6.563  1.0019  0.7305 -1.2914
  101SAPE  C21310224   4.424   0.208   6.727  0.5790 -0.0160 -0.4187
  101SAPE  H13R10225   4.364   0.238   6.639  0.6165  0.0907 -0.4083
  101SAPE  H13S10226   4.442   0.301   6.786  1.4160  1.1303 -2.3869
  101SAPE  C21410227   4.343   0.109   6.810 -1.4078  0.5470 -0.6478
  101SAPE  H14R10228   4.327   0.012   6.762 -0.3865  0.4090 -0.7220
  101SAPE  C21510229   4.299   0.119   6.935  0.2906  0.1432  0.1752
  101SAPE  H15R10230   4.260   0.029   6.983  0.8466  0.3880  1.1116
  101SAPE  C21610231   4.297   0.244   7.025  0.2653 -0.1281 -0.0377
  101SAPE  H16R10232   4.190   0.274   7.031 -0.1384 -1.5888  0.4800
  101SAPE  H16S10233   4.353   0.317   6.962 -1.1878  0.5358 -0.6278
  101SAPE  C21710234   4.341   0.221   7.166 -0.5564  0.1568 -0.2109
  101SAPE  H17R10235   4.442   0.174   7.175 -0.5115  0.3198  0.1311
  101SAPE  H17S10236   4.266   0.146   7.200  0.1867  0.2753  1.7965
  101SAPE  C21810237   4.326   0.347   7.257 -0.0779  0.4800 -0.4613
  101SAPE  H18R10238   4.226   0.396   7.254 -0.3119 -0.0308 -1.8298
  101SAPE  H18S10239   4.405   0.414   7.215  0.4578  0.2543  0.1681
  101SAPE  C21910240   4.363   0.309   7.395  0.1425 -0.3635 -0.5650
  101SAPE  H19R10241   4.459   0.253   7.396  0.7503  0.6466 -1.2299
  101SAPE  H19S10242   4.293   0.233   7.435 -0.0462 -0.6404 -1.4058
  101SAPE  C22010243   4.371   0.429   7.492 -0.7681 -0.0876 -0.3687
  101SAPE  H20R10244   4.453   0.491   7.450  0.1541 -0.5327  0.7034
  101SAPE  H20S10245   4.412   0.406   7.593  0.4660  0.4983 -0.7119
  101SAPE  H20T10246   4.277   0.485   7.510  0.2092  1.7153 -0.6974
  101SAPE   C3310247   4.696   0.528   7.237  0.7195 -0.5172 -0.2085
  101SAPE   H3X10248   4.605   0.465   7.232  0.6906 -0.3970 -2.6340
  101SAPE   H3Y10249   4.775   0.484   7.171 -0.5275 -1.0783 -1.3877
  101SAPE   C3410250   4.657   0.658   7.169  0.4963 -0.1938 -0.4466
  101SAPE   H4X10251   4.739   0.733   7.180  1.1726 -1.0855  0.9088
  101SAPE   H4Y10252   4.580   0.690   7.242  0.8290  2.2039 -1.0747
  101SAPE   C3510253   4.590   0.644   7.031 -0.2697  0.7806 -0.7761
  101SAPE   H5X10254   4.544   0.740   6.998 -3.6861 -0.0677  0.9871
  101SAPE   H5Y10255   4.501   0.578   7.039 -1.1858  2.1540  1.7948
  101SAPE   C3610256   4.675   0.592   6.924  0.1723 -0.3321  0.4430
  101SAPE   H6X10257   4.703   0.485   6.941  0.8701  0.0026  1.4911
  101SAPE   H6Y10258   4.771   0.648   6.926  0.1568 -0.2536 -0.4665
  101SAPE   C3710259   4.595   0.595   6.793 -0.0376  0.8071  0.1059
  101SAPE   H7X10260   4.552   0.692   6.761 -0.6983  0.9119  1.2514
  101SAPE   H7Y10261   4.503   0.533   6.796 -0.4141  1.3377 -0.3148
  101SAPE   C3810262   4.678   0.538   6.673 -0.2411  0.5403  0.5109
  101SAPE   H8X10263   4.698   0.433   6.703 -2.3032 -0.1325 -0.3464
  101SAPE   H8Y10264   4.775   0.593   6.672  0.7051 -1.0148 -1.3354
  101SAPE   C3910265   4.613   0.544   6.535 -0.1002 -0.1484  0.8283
  101SAPE   H9X10266   4.688   0.497   6.468  0.0742 -1.8793  2.1474
  101SAPE   H9Y10267   4.602   0.649   6.501  0.8340  0.4383  2.2834
  101SAPE  C31010268   4.494   0.460   6.519 -0.0250  0.6091 -0.2608
  101SAPE  H10X10269   4.430   0.480   6.608  0.7064 -0.3570  0.4963
  101SAPE  H10Y10270   4.517   0.352   6.514  1.7149  1.0192 -2.8118
  101SAPE  C31110271   4.401   0.491   6.392 -0.4872 -0.3660 -0.9586
  101SAPE  H11X10272   4.327   0.567   6.424 -0.8209 -1.5446  1.2240
  101SAPE  H11Y10273   4.350   0.396   6.367  1.5638 -1.2721 -2.0260
  101SAPE  C31210274   4.481   0.543   6.269 -0.1646 -0.6072 -0.4809
  101SAPE  H12X10275   4.584   0.503   6.258  0.4473  1.0594 -1.2216
  101SAPE  H12Y10276   4.484   0.654   6.276 -3.5720 -0.1383 -3.2621
  101SAPE  C31310277   4.405   0.525   6.132  0.4250 -0.1902  0.1104
  101SAPE  H13X10278   4.309   0.579   6.145  0.8067  1.1766 -2.1718
  101SAPE  H13Y10279   4.382   0.417   6.124  0.5696 -0.2479  0.4652
  101SAPE  C31410280   4.479   0.570   6.007  0.1841  0.7050  0.4071
  101SAPE  H14X10281   4.585   0.538   6.022  0.0196  1.1476  3.0426
  101SAPE  H14Y10282   4.469   0.681   6.011 -1.7136  0.5486  0.9272
  101SAPE  C31510283   4.418   0.519   5.870 -0.2460 -0.6239  0.3465
  101SAPE  H15X10284   4.399   0.410   5.863 -1.9461 -0.3198 -0.1977
  101SAPE  H15Y10285   4.483   0.551   5.785 -1.9642  0.7899 -0.4851
  101SAPE  C31610286   4.293   0.594   5.838  0.1042  0.1596 -0.2691
  101SAPE  H16X10287   4.300   0.705   5.835 -0.0117  0.1581 -0.7743
  101SAPE  H16Y10288   4.215   0.583   5.916  1.1358 -0.2099  0.7281
  101SAPE  C31710289   4.243   0.536   5.706  0.3455 -0.2752  0.5074
  101SAPE  H17X10290   4.227   0.426   5.697 -0.1583 -0.0687 -1.5436
  101SAPE  H17Y10291   4.310   0.555   5.619  2.2432 -0.9854  1.7261
  101SAPE  C31810292   4.107   0.588   5.680 -0.3728  0.4561  0.2637
  101SAPE  H18X10293   4.108   0.695   5.651  1.1656  0.2529 -0.5214
  101SAPE  H18Y10294   4.041   0.572   5.768 -0.1967  0.7596  0.4492
  101SAPE  H18Z10295   4.061   0.527   5.598 -1.2942 -0.8352  1.6746
  102SAPE     N10296   0.192   5.322   8.317 -0.0018 -0.5036 -0.6472
  102SAPE   HN110297   0.171   5.389   8.394 -0.6514 -2.7189  1.2120
  102SAPE   HN210298   0.099   5.293   8.280 -1.1401 -0.9808  2.3421
  102SAPE   HN310299   0.227   5.239   8.369 -2.2651 -0.6935  0.6997
  102SAPE   C1210300   0.282   5.364   8.205 -0.4708  0.0345  0.4502
  102SAPE  H12A10301   0.385   5.332   8.233 -1.2175 -1.2414  1.8838
  102SAPE  H12B10302   0.291   5.475   8.210  1.0890  0.0331 -1.3122
  102SAPE   C1110303   0.231   5.317   8.071 -0.4341 -0.6103 -0.2233
  102SAPE  H11A10304   0.240   5.207   8.060  0.1552 -0.4226 -1.9410
  102SAPE  H11B10305   0.285   5.363   7.985 -0.8180  0.0153 -0.1349
  102SAPE     P10306   0.025   5.432   7.958 -0.6500 -0.0196  0.0090
  102SAPE   O1310307  -0.115   5.464   7.998  0.4190 -0.2019  0.3443
  102SAPE   O1410308   0.119   5.543   7.946 -0.3947 -0.8499 -0.2980
  102SAPE   O1210309   0.087   5.334   8.069  0.2978  0.2022 -0.8117
  102SAPE   O1110310   0.045   5.346   7.832 -0.3906 -0.1204  0.1859
  102SAPE    C110311  -0.063   5.250   7.803  0.0150 -0.6023  0.1026
  102SAPE    HA10312  -0.158   5.270   7.857  0.6112  0.4192  0.8261
  102SAPE    HB10313  -0.077   5.255   7.693  0.4908 -0.3248  0.0507
  102SAPE    C210314  -0.016   5.104   7.826  0.0750 -0.6986 -0.6427
  102SAPE    HS10315   0.002   5.091   7.935  1.5023  1.4028 -0.5697
  102SAPE   O2110316   0.096   5.083   7.744 -0.2311 -0.0556  0.2782
  102SAPE   C2110317   0.188   5.004   7.788  0.2989  0.0663 -0.1242
  102SAPE   O2210318   0.178   4.941   7.893  0.2300 -0.7354 -0.0233
  102SAPE   C2210319   0.302   4.997   7.691 -0.6503 -0.5371  0.0037
  102SAPE   H2R10320   0.345   4.895   7.679  0.1409 -0.1865 -0.2028
  102SAPE   H2S10321   0.277   5.057   7.601 -1.6274  0.6851  1.0411
  102SAPE    C310322  -0.129   5.006   7.780  0.3946 -0.4208 -0.4861
  102SAPE    HX10323  -0.223   5.033   7.833 -0.1174 -0.0918 -1.5468
  102SAPE    HY10324  -0.088   4.907   7.810  2.0396 -0.2378 -1.9500
  102SAPE   O3110325  -0.142   5.018   7.637  0.7348  0.1602  0.6305
  102SAPE   C3110326  -0.069   4.941   7.559 -0.4526  0.2407 -0.6577
  102SAPE   O3210327   0.004   4.852   7.595 -0.3489  0.5395 -0.3654
  102SAPE   C3210328  -0.096   4.977   7.417 -0.1486 -0.0057 -0.7540
  102SAPE   H2X10329  -0.055   5.080   7.402  0.0774 -0.3711 -2.9687
  102SAPE   H2Y10330  -0.204   4.983   7.392  0.0068 -0.6217 -1.6246
  102SAPE   C2310331   0.425   5.074   7.756 -0.0738  0.3521 -0.4214
  102SAPE   H3R10332   0.458   5.001   7.833 -2.3932  0.2227  0.5205
  102SAPE   H3S10333   0.388   5.167   7.804  0.0753 -0.6331  1.7178
  102SAPE   C2410334   0.551   5.102   7.667  0.0536  0.5136 -0.0012
  102SAPE   H4R10335   0.585   4.999   7.645  1.0473  1.1704 -1.6987
  102SAPE   H4S10336   0.627   5.160   7.722 -0.6091  0.8836  0.5402
  102SAPE   C2510337   0.509   5.183   7.540  0.0762 -0.8420 -0.8351
  102SAPE   H5R10338   0.494   5.291   7.556 -0.6926 -1.2457  1.4236
  102SAPE   C2610339   0.500   5.141   7.414 -0.7696 -0.1807 -0.2103
  102SAPE   H6R10340   0.477   5.208   7.330  2.4341 -1.8487 -2.6168
  102SAPE   C2710341   0.534   5.004   7.368  0.1230 -0.1553  0.4271
  102SAPE   H7R10342   0.571   4.932   7.445  1.5028 -0.1813 -0.2286
  102SAPE   H7S10343   0.619   5.009   7.297 -1.3089  0.4504 -1.3074
  102SAPE   C2810344   0.414   4.940   7.309  0.2995  0.6160  0.1387
  102SAPE   H8R10345   0.328   4.928   7.376  0.9495 -1.8150  0.6228
  102SAPE   C2910346   0.397   4.916   7.176 -0.4460 -0.5829  0.7627
  102SAPE   H9R10347   0.294   4.885   7.153 -1.7232  1.3401  3.3651
  102SAPE  C21010348   0.500   4.923   7.059 -0.0069  1.3421  0.4729
  102SAPE  H10R10349   0.452   4.850   6.990  3.0091 -2.2242  1.7965
  102SAPE  H10S10350   0.600   4.881   7.083 -0.6830  0.3836  1.7214
  102SAPE  C21110351   0.509   5.059   6.996 -0.1577  0.1951 -0.3025
  102SAPE  H11R10352   0.537   5.143   7.059 -1.6016 -0.7063  1.6433
  102SAPE  C21210353   0.480   5.078   6.867  0.2188 -0.0173  0.2123
  102SAPE  H12R10354   0.480   5.181   6.831  2.8560  0.0025  0.0238
  102SAPE  C21310355   0.435   4.968   6.771  1.0094  0.0379 -0.3274
  102SAPE  H13R10356   0.357   4.899   6.812  0.4285 -0.9339 -2.8616
  102SAPE  H13S10357   0.513   4.906   6.722 -0.4239 -0.4236 -2.1283
  102SAPE  C21410358   0.370   5.035   6.656  0.0604 -0.6839  0.7021
  102SAPE  H14R10359   0.334   5.139   6.658  1.1837 -0.2787  1.0487
  102SAPE  C21510360   0.349   4.985   6.534  0.1625  0.5632 -0.2471
  102SAPE  H15R10361   0.316   5.054   6.455 -1.1062  1.6256  1.1492
  102SAPE  C21610362   0.377   4.846   6.488 -0.6616 -0.4702  0.1867
  102SAPE  H16R10363   0.292   4.806   6.428 -0.3939 -1.4094  0.4224
  102SAPE  H16S10364   0.391   4.784   6.578 -2.6206  1.3293  1.8408
  102SAPE  C21710365   0.502   4.831   6.396 -0.4051 -0.0787  0.9977
  102SAPE  H17R10366   0.499   4.725   6.364 -1.0034 -0.2007  1.4464
  102SAPE  H17S10367   0.596   4.837   6.455  0.3048 -0.5396 -0.0645
  102SAPE  C21810368   0.511   4.921   6.263  0.3251  0.1819 -0.3829
  102SAPE  H18R10369   0.542   5.027   6.277  0.8702 -0.0450  0.1989
  102SAPE  H18S10370   0.415   4.920   6.208 -0.1545 -1.0477  0.4141
  102SAPE  C21910371   0.606   4.852   6.168  0.0054  0.6830 -0.1153
  102SAPE  H19R10372   0.583   4.744   6.155 -0.9420  0.9616 -0.8991
  102SAPE  H19S10373   0.703   4.864   6.222 -1.0597  0.8055  1.8869
  102SAPE  C22010374   0.620   4.909   6.031  0.0053 -0.3791 -0.5053
  102SAPE  H20R10375   0.656   5.015   6.031 -0.1143 -0.3364  0.1229
  102SAPE  H20S10376   0.526   4.910   5.972 -0.4625 -2.4605  0.1589
  102SAPE  H20T10377   0.699   4.858   5.972  0.4275  0.9687 -1.1470
  102SAPE   C3310378  -0.032   4.875   7.324  0.2507  0.9327  0.6159
  102SAPE   H3X10379  -0.083   4.777   7.336 -2.1799  2.1047  0.4652
  102SAPE   H3Y10380   0.078   4.873   7.340 -0.0062 -0.9287  2.6442
  102SAPE   C3410381  -0.071   4.908   7.180 -0.1169 -0.7767 -0.1716
  102SAPE   H4X10382  -0.182   4.900   7.178 -0.3751 -0.0039  3.7644
  102SAPE   H4Y10383  -0.034   4.837   7.104 -1.3346 -0.2218 -1.3287
  102SAPE   C3510384  -0.038   5.051   7.137 -0.5265 -0.5341 -0.2713
  102SAPE   H5X10385   0.071   5.069   7.150 -0.2858 -0.3626 -2.1381
  102SAPE   H5Y10386  -0.086   5.122   7.207  1.6858 -0.7140  1.5251
  102SAPE   C3610387  -0.075   5.079   6.996  0.2201  0.2278  0.0235
  102SAPE   H6X10388  -0.043   5.178   6.957 -0.1000 -0.5436 -2.3707
  102SAPE   H6Y10389  -0.184   5.067   6.977  0.0696  0.1167  0.9313
  102SAPE   C3710390  -0.005   4.994   6.890 -0.0045  0.2958  0.8882
  102SAPE   H7X10391  -0.010   4.888   6.920 -2.8368  0.5929  1.8191
  102SAPE   H7Y10392   0.104   5.012   6.878  0.0367 -0.2854  0.3033
  102SAPE   C3810393  -0.080   5.029   6.759 -0.1414  0.5484  0.2577
  102SAPE   H8X10394  -0.059   5.135   6.734  1.3948  0.1564 -0.2218
  102SAPE   H8Y10395  -0.189   5.018   6.776 -0.1957 -1.7145 -1.2017
  102SAPE   C3910396  -0.054   4.945   6.632 -0.1889 -0.6477  0.5830
  102SAPE   H9X10397  -0.072   4.835   6.638 -2.2974 -0.3583  0.5012
  102SAPE   H9Y10398   0.055   4.956   6.615 -0.5749  1.7638 -0.6146
  102SAPE  C31010399  -0.127   5.000   6.509  1.3942 -0.8096 -0.1856
  102SAPE  H10X10400  -0.131   5.107   6.538  0.3009 -0.3472 -1.8704
  102SAPE  H10Y10401  -0.230   4.960   6.496  0.3785  1.8893 -1.3123
  102SAPE  C31110402  -0.070   5.002   6.369  0.0556  0.2886 -0.5681
  102SAPE  H11X10403  -0.051   4.897   6.337  3.3519  0.6987 -0.3757
  102SAPE  H11Y10404   0.032   5.047   6.367 -0.8747  2.4936 -1.7049
  102SAPE  C31210405  -0.153   5.076   6.264  0.3247 -0.0787 -0.4056
  102SAPE  H12X10406  -0.154   5.186   6.258  0.2838 -0.1516 -2.5325
  102SAPE  H12Y10407  -0.259   5.053   6.287  0.2330 -0.4095 -1.1126
  102SAPE  C31310408  -0.128   5.014   6.127 -0.1818  0.0864 -0.2597
  102SAPE  H13X10409  -0.147   4.905   6.137 -1.5158  0.3668  0.5577
  102SAPE  H13Y10410  -0.020   5.025   6.108  0.2935  0.7909  2.4174
  102SAPE  C31410411  -0.202   5.083   6.006 -0.0549  0.2341  0.6373
  102SAPE  H14X10412  -0.176   5.037   5.909 -0.9243  0.7101  0.1669
  102SAPE  H14Y10413  -0.180   5.192   6.002 -4.2132  1.1735 -1.3935
  102SAPE  C31510414  -0.358   5.084   6.018 -0.5070  0.0013 -0.3191
  102SAPE  H15X10415  -0.377   5.117   6.122  1.2006 -1.3537  0.4663
  102SAPE  H15Y10416  -0.387   4.978   6.004 -0.3187 -0.0121 -0.6150
  102SAPE  C31610417  -0.419   5.187   5.926  0.2407 -0.0859 -0.3453
  102SAPE  H16X10418  -0.383   5.288   5.956  2.4310 -0.7191 -0.6461
  102SAPE  H16Y10419  -0.528   5.191   5.946  0.8428  1.5479  3.5480
  102SAPE  C31710420  -0.391   5.160   5.776  0.0682  0.2670  0.1586
  102SAPE  H17X10421  -0.281   5.168   5.759  0.3699 -0.8588  1.3660
  102SAPE  H17Y10422  -0.439   5.242   5.719  1.2687 -0.0410 -1.3765
  102SAPE  C31810423  -0.452   5.024   5.727 -0.1298  0.4023  0.7535
  102SAPE  H18X10424  -0.419   4.933   5.783 -0.9911  0.0006  0.6127
  102SAPE  H18Y10425  -0.426   5.017   5.619 -1.3939  0.9993  0.3958
  102SAPE  H18Z10426  -0.562   5.025   5.741  0.0816 -0.1360  2.7694
  103SAPE     N10427   1.599   1.922   3.744 -0.5277 -0.0672  0.6728
  103SAPE   HN110428   1.680   1.970   3.788  1.1723 -0.2764 -1.9988
  103SAPE   HN210429   1.606   1.930   3.640 -1.8049  1.0810  0.6386
  103SAPE   HN310430   1.509   1.973   3.761 -0.6956  1.2490 -3.1345
  103SAPE   C1210431   1.610   1.780   3.785  0.3555  0.5917 -0.2987
  103SAPE  H12A10432   1.534   1.719   3.731  0.6878  0.1779 -0.3060
  103SAPE  H12B10433   1.599   1.771   3.895  1.1302  0.7832 -0.2017
  103SAPE   C1110434   1.751   1.738   3.764  0.1259  0.1553  1.1917
  103SAPE  H11A10435   1.773   1.735   3.655 -1.9777  1.8189  0.6657
  103SAPE  H11B10436   1.759   1.631   3.795  1.7544  0.4251  1.7899
  103SAPE     P10437   2.000   1.819   3.807 -0.3794  0.0678 -0.1570
  103SAPE   O1310438   2.032   1.696   3.733 -0.3753 -0.0788  0.2477
  103SAPE   O1410439   2.050   1.949   3.751  0.2897 -0.2346 -0.1031
  103SAPE   O1210440   1.847   1.827   3.824 -0.0801 -0.2574  0.3054
  103SAPE   O1110441   2.049   1.801   3.954  0.5774 -0.4493  0.4368
  103SAPE    C110442   1.982   1.714   4.046 -0.3712 -0.0421 -0.3276
  103SAPE    HA10443   1.900   1.664   3.990 -1.4386  0.8806  0.3536
  103SAPE    HB10444   2.056   1.639   4.081  0.5242 -0.1916 -2.3916
  103SAPE    C210445   1.927   1.799   4.168 -0.4522  0.7073  0.2152
  103SAPE    HS10446   1.860   1.876   4.124 -3.1084 -2.6882 -2.2370
  103SAPE   O2110447   2.049   1.840   4.236 -0.0499 -0.5597 -0.0481
  103SAPE   C2110448   2.051   1.968   4.277 -0.4067  1.1492  0.0955
  103SAPE   O2210449   1.962   2.053   4.250 -0.3427  0.1150 -0.7505
  103SAPE   C2210450   2.167   1.983   4.369 -0.1929 -0.2427  0.7350
  103SAPE   H2R10451   2.198   1.890   4.421  0.2532 -1.1384 -1.0385
  103SAPE   H2S10452   2.257   2.013   4.312  0.0129  1.2513  1.8023
  103SAPE    C310453   1.843   1.710   4.264  0.7082  0.2255 -0.1641
  103SAPE    HX10454   1.912   1.630   4.300  0.4699  0.2648  0.3872
  103SAPE    HY10455   1.756   1.668   4.209  0.0304  0.1253  0.9532
  103SAPE   O3110456   1.795   1.787   4.380  0.6895 -0.0873 -0.0982
  103SAPE   C3110457   1.771   1.705   4.482  0.1299 -0.4029 -0.1971
  103SAPE   O3210458   1.768   1.580   4.481  0.7742 -0.0497  0.3580
  103SAPE   C3210459   1.777   1.798   4.606  0.2184 -0.0094 -0.3259
  103SAPE   H2X10460   1.708   1.884   4.592 -0.1233  0.0037  1.2472
  103SAPE   H2Y10461   1.881   1.838   4.610  0.2857 -0.2348  0.3413
  103SAPE   C2310462   2.148   2.106   4.463 -0.1386  0.3392 -0.0610
  103SAPE   H3R10463   2.045   2.100   4.505 -0.3370 -2.1543 -0.7526
  103SAPE   H3S10464   2.146   2.200   4.403 -0.4166  0.3465 -0.0418
  103SAPE   C2410465   2.247   2.104   4.579 -0.0149  0.2310 -0.4228
  103SAPE   H4R10466   2.226   2.199   4.632  0.6985 -1.0269  2.3152
  103SAPE   H4S10467   2.345   2.126   4.533 -0.3584  2.5115 -0.1552
  103SAPE   C2510468   2.220   1.986   4.671  0.3790  0.1813  0.3571
  103SAPE   H5R10469   2.247   1.887   4.632  1.2214  1.4879 -2.6881
  103SAPE   C2610470   2.167   2.002   4.794  0.6104  0.4698  0.3346
  103SAPE   H6R10471   2.147   1.910   4.850  0.0395  0.0002 -0.6055
  103SAPE   C2710472   2.137   2.136   4.859  0.2273  0.2941 -0.3004
  103SAPE   H7R10473   2.077   2.202   4.794  1.6575  1.3187 -0.6387
  103SAPE   H7S10474   2.235   2.188   4.864 -0.5291  1.6104  2.9450
  103SAPE   C2810475   2.074   2.121   4.999 -0.6927  0.1237 -0.5727
  103SAPE   H8R10476   1.966   2.139   4.998 -1.1968 -2.6075 -1.5935
  103SAPE   C2910477   2.139   2.091   5.116  0.8383  0.1750 -0.7697
  103SAPE   H9R10478   2.091   2.081   5.214  1.3029 -1.7456 -0.6871
  103SAPE  C21010479   2.285   2.050   5.136  0.3666 -0.2050 -0.1845
  103SAPE  H10R10480   2.342   2.067   5.042  2.7524  0.7360  1.3425
  103SAPE  H10S10481   2.291   1.941   5.154  1.7688 -0.1763 -0.3578
  103SAPE  C21110482   2.342   2.121   5.253 -0.2766  0.2254  0.0746
  103SAPE  H11R10483   2.366   2.226   5.230 -1.6831  0.8283  1.1689
  103SAPE  C21210484   2.361   2.072   5.374 -0.2242  0.0948 -0.1801
  103SAPE  H12R10485   2.401   2.136   5.454 -1.2656  0.6686 -0.1103
  103SAPE  C21310486   2.337   1.931   5.420  0.5818 -0.1638  0.6482
  103SAPE  H13R10487   2.249   1.884   5.371  0.0866  2.2539 -0.9781
  103SAPE  H13S10488   2.319   1.943   5.529 -0.7034  0.6195  0.3760
  103SAPE  C21410489   2.453   1.834   5.397  0.8263  0.1198  0.6738
  103SAPE  H14R10490   2.517   1.877   5.318  1.2682 -1.3575  0.2040
  103SAPE  C21510491   2.488   1.734   5.473  0.2123 -0.0966  0.1260
  103SAPE  H15R10492   2.579   1.682   5.442  0.0171 -0.2668 -0.1721
  103SAPE  C21610493   2.413   1.677   5.593  0.5993  0.0954  0.1034
  103SAPE  H16R10494   2.417   1.567   5.581  0.6237 -0.2307  2.6110
  103SAPE  H16S10495   2.307   1.710   5.591  0.2719 -0.8144  1.2619
  103SAPE  C21710496   2.462   1.710   5.736  0.0042 -0.3921  0.2013
  103SAPE  H17R10497   2.421   1.806   5.774  1.2413  0.0465  0.4761
  103SAPE  H17S10498   2.573   1.707   5.733 -0.0074 -0.2797 -0.4250
  103SAPE  C21810499   2.424   1.587   5.829  0.6457 -0.0528 -0.1743
  103SAPE  H18R10500   2.475   1.493   5.799 -0.7296 -1.0130  0.3456
  103SAPE  H18S10501   2.315   1.581   5.807  0.8054 -0.2629 -0.9071
  103SAPE  C21910502   2.436   1.621   5.977  0.2080  0.4375  0.1867
  103SAPE  H19R10503   2.408   1.727   5.994 -0.3060  0.2589  0.4761
  103SAPE  H19S10504   2.543   1.621   6.008  0.8777 -4.8082 -1.2796
  103SAPE  C22010505   2.358   1.540   6.077 -0.0377  0.2572 -0.0945
  103SAPE  H20R10506   2.361   1.431   6.057 -1.6442  0.3933 -1.2652
  103SAPE  H20S10507   2.252   1.571   6.071  0.4894  1.8605 -2.4748
  103SAPE  H20T10508   2.393   1.566   6.180  0.6781 -2.3641  0.4030
  103SAPE   C3310509   1.749   1.717   4.739  0.1265 -0.3134 -0.7529
  103SAPE   H3X10510   1.805   1.621   4.744  3.8780  1.6826  3.6192
  103SAPE   H3Y10511   1.641   1.693   4.744 -0.0451  0.1563 -2.0179
  103SAPE   C3410512   1.795   1.801   4.866 -0.1895 -0.8920 -0.4589
  103SAPE   H4X10513   1.714   1.875   4.881  0.5803 -0.1742  0.2093
  103SAPE   H4Y10514   1.893   1.852   4.859 -1.5568  1.9658  0.0561
  103SAPE   C3510515   1.795   1.715   5.000 -0.3751 -0.1016  0.6158
  103SAPE   H5X10516   1.846   1.616   4.996  0.3423  0.3065 -1.4129
  103SAPE   H5Y10517   1.689   1.688   5.019 -0.9592  0.7896 -1.1624
  103SAPE   C3610518   1.861   1.795   5.114  0.2388  0.1732 -0.0717
  103SAPE   H6X10519   1.851   1.903   5.092  1.0485  0.8319  2.4571
  103SAPE   H6Y10520   1.970   1.781   5.095  0.4876 -0.0884  1.3886
  103SAPE   C3710521   1.838   1.761   5.258 -0.2133 -0.0853 -0.0528
  103SAPE   H7X10522   1.872   1.656   5.270  0.8867  0.5826  4.3955
  103SAPE   H7Y10523   1.730   1.772   5.277 -1.0787 -1.2392 -3.5376
  103SAPE   C3810524   1.916   1.850   5.354  0.1257  0.1768  0.1650
  103SAPE   H8X10525   1.898   1.957   5.328  2.3232 -0.0547 -2.7780
  103SAPE   H8Y10526   2.025   1.831   5.341  0.1386  0.0989  0.3878
  103SAPE   C3910527   1.890   1.808   5.501 -0.2189  0.8471 -0.3147
  103SAPE   H9X10528   1.891   1.697   5.506  0.9708  0.8506 -0.1384
  103SAPE   H9Y10529   1.790   1.846   5.530 -0.2593  0.1488  0.4929
  103SAPE  C31010530   1.996   1.868   5.597 -0.3709 -0.7105 -0.7259
  103SAPE  H10X10531   2.011   1.977   5.578  0.1276 -0.7335 -0.4869
  103SAPE  H10Y10532   2.092   1.814   5.580  0.7559  1.0259 -0.2485
  103SAPE  C31110533   1.958   1.847   5.745 -0.1061  0.0668 -0.0477
  103SAPE  H11X10534   1.861   1.894   5.770 -0.6237 -0.7857 -0.4067
  103SAPE  H11Y10535   2.040   1.896   5.801 -0.5765  1.4556 -0.5346
  103SAPE  C31210536   1.951   1.696   5.779  0.3774 -0.2530 -0.0853
  103SAPE  H12X10537   2.042   1.634   5.762 -1.3375 -2.5342 -1.5185
  103SAPE  H12Y10538   1.879   1.646   5.711  0.9985  0.6661 -1.4892
  103SAPE  C31310539   1.900   1.670   5.918  0.7728  0.3153 -0.0173
  103SAPE  H13X10540   1.816   1.732   5.956 -2.1510 -2.9151 -0.6746
  103SAPE  H13Y10541   1.986   1.688   5.986 -1.6287  2.5114  2.7141
  103SAPE  C31410542   1.846   1.521   5.937 -0.1061  0.4973 -0.0071
  103SAPE  H14X10543   1.914   1.436   5.914 -0.2508  1.0015 -2.5573
  103SAPE  H14Y10544   1.757   1.512   5.872  0.6670 -0.0591 -1.0193
  103SAPE  C31510545   1.805   1.502   6.088  0.5534 -1.0273  0.3105
  103SAPE  H15X10546   1.736   1.585   6.113  0.3334 -0.1890 -2.6863
  103SAPE  H15Y10547   1.886   1.503   6.165 -2.1057 -1.6768  3.3535
  103SAPE  C31610548   1.721   1.376   6.093  0.4224  0.2313  0.1837
  103SAPE  H16X10549   1.774   1.289   6.049 -1.1866 -0.9919  0.5840
  103SAPE  H16Y10550   1.629   1.375   6.032 -0.2120 -2.7212  1.0723
  103SAPE  C31710551   1.686   1.336   6.237  0.2681  0.2911 -0.1652
  103SAPE  H17X10552   1.607   1.409   6.264 -1.5027 -1.2330 -0.9721
  103SAPE  H17Y10553   1.774   1.335   6.304 -1.3592 -0.1760  2.0947
  103SAPE  C31810554   1.611   1.202   6.242 -0.2330  0.4467 -0.2552
  103SAPE  H18X10555   1.681   1.118   6.221 -0.5834 -0.5461  2.2601
  103SAPE  H18Y10556   1.531   1.195   6.165 -1.8142 -1.1347  1.4337
  103SAPE  H18Z10557   1.570   1.185   6.344  1.4203  1.1041  0.5619
  104SAPE     N10558   2.717   2.786   3.950  0.4681  0.8794 -0.3704
  104SAPE   HN110559   2.709   2.887   3.970 -2.2659  0.9151 -1.1689
  104SAPE   HN210560   2.623   2.741   3.941 -0.2933  2.5961 -1.5888
  104SAPE   HN310561   2.774   2.736   4.021  0.0142  0.0667 -0.5647
  104SAPE   C1210562   2.779   2.757   3.818 -0.5319 -0.2544 -0.0962
  104SAPE  H12A10563   2.823   2.855   3.790  0.2234 -0.4615  0.3434
  104SAPE  H12B10564   2.702   2.719   3.748 -1.0496 -0.7548  0.7325
  104SAPE   C1110565   2.885   2.643   3.838 -0.2130 -0.5096  0.1278
  104SAPE  H11A10566   2.959   2.681   3.912  0.0477 -1.6907  0.5085
  104SAPE  H11B10567   2.955   2.637   3.752  1.2509  0.4775  1.1895
  104SAPE     P10568   2.839   2.462   4.017 -0.2154 -0.1277  0.0488
  104SAPE   O1310569   2.795   2.572   4.105  0.4709 -0.5377 -0.2587
  104SAPE   O1410570   2.752   2.344   4.036  0.4987 -0.1890  0.3948
  104SAPE   O1210571   2.829   2.512   3.867 -0.3202  0.3272  0.5067
  104SAPE   O1110572   2.986   2.422   4.050 -0.0843 -0.1129 -0.0063
  104SAPE    C110573   3.030   2.288   4.085 -0.0422  0.6223  0.7527
  104SAPE    HA10574   2.970   2.215   4.027 -2.4841  2.4101  0.9007
  104SAPE    HB10575   3.136   2.285   4.052 -0.3872  0.1263 -0.3448
  104SAPE    C210576   3.032   2.264   4.238  0.7100  0.4412  0.6155
  104SAPE    HS10577   3.088   2.169   4.254 -1.2862 -0.7568  0.8011
  104SAPE   O2110578   2.896   2.252   4.290  0.3070  0.1101  0.1528
  104SAPE   C2110579   2.829   2.138   4.254  0.3451  0.0220 -0.3713
  104SAPE   O2210580   2.878   2.052   4.177 -0.1146 -0.0979  0.2498
  104SAPE   C2210581   2.694   2.110   4.331  0.2574 -0.6679 -0.1170
  104SAPE   H2R10582   2.702   2.176   4.419 -0.2840  0.2293 -0.7254
  104SAPE   H2S10583   2.618   2.128   4.251  1.4954 -0.8817 -1.3845
  104SAPE    C310584   3.102   2.384   4.314 -0.9120 -0.0314 -0.3327
  104SAPE    HX10585   3.035   2.469   4.289 -0.7611  0.0432 -0.4881
  104SAPE    HY10586   3.199   2.408   4.266 -0.2529  1.3981  1.6009
  104SAPE   O3110587   3.114   2.359   4.455  0.5007  0.4268  0.0010
  104SAPE   C3110588   3.206   2.268   4.484 -0.2207  0.0332 -0.1495
  104SAPE   O3210589   3.286   2.225   4.403  0.7393  0.2154  0.1465
  104SAPE   C3210590   3.177   2.220   4.628  0.1184 -1.0916  0.5574
  104SAPE   H2X10591   3.110   2.132   4.613  0.6258 -1.4451  0.3292
  104SAPE   H2Y10592   3.115   2.297   4.678 -1.1592 -1.5507 -0.2704
  104SAPE   C2310593   2.687   1.964   4.377  0.0389  0.2716 -0.1763
  104SAPE   H3R10594   2.783   1.938   4.426  0.2754 -0.1624 -0.8560
  104SAPE   H3S10595   2.687   1.907   4.282 -0.5818  1.4384 -0.9107
  104SAPE   C2410596   2.558   1.934   4.456 -0.2436 -0.4010 -0.7829
  104SAPE   H4R10597   2.471   1.944   4.388 -0.6281 -0.5486 -0.3146
  104SAPE   H4S10598   2.545   2.013   4.533  0.3267 -0.8652 -0.2040
  104SAPE   C2510599   2.570   1.790   4.503 -0.3851  0.2886 -0.4081
  104SAPE   H5R10600   2.573   1.720   4.418 -0.4386  0.9091 -0.9328
  104SAPE   C2610601   2.580   1.750   4.635  0.2772  0.1817 -0.0967
  104SAPE   H6R10602   2.589   1.642   4.648 -0.7177  0.1693  0.6802
  104SAPE   C2710603   2.595   1.841   4.755 -0.4342  0.1551 -0.6349
  104SAPE   H7R10604   2.596   1.947   4.723 -0.3111  0.5803  0.6966
  104SAPE   H7S10605   2.692   1.807   4.798 -1.6505 -1.5806  0.9005
  104SAPE   C2810606   2.506   1.825   4.876 -0.0452  0.0944 -0.1749
  104SAPE   H8R10607   2.424   1.898   4.886 -1.8002 -1.7373 -0.6858
  104SAPE   C2910608   2.511   1.737   4.976 -0.4704  0.2339  0.2223
  104SAPE   H9R10609   2.426   1.735   5.046 -1.6909 -3.2375 -1.1476
  104SAPE  C21010610   2.601   1.612   4.984 -0.3390  0.9221  0.1046
  104SAPE  H10R10611   2.684   1.614   4.910  0.2023 -1.0344  0.6035
  104SAPE  H10S10612   2.542   1.523   4.954  0.9554  0.2384 -0.4826
  104SAPE  C21110613   2.667   1.601   5.121  0.3028  0.0932 -0.0662
  104SAPE  H11R10614   2.730   1.689   5.141 -2.5565  2.1047  0.8634
  104SAPE  C21210615   2.646   1.514   5.222 -0.6961 -0.0041 -0.3756
  104SAPE  H12R10616   2.719   1.508   5.303  1.3964  0.9783 -2.0879
  104SAPE  C21310617   2.563   1.391   5.215  0.0070  0.3562 -0.1922
  104SAPE  H13R10618   2.628   1.301   5.215 -1.0754 -0.4796  1.3768
  104SAPE  H13S10619   2.503   1.369   5.124 -0.9976  2.7518 -0.1737
  104SAPE  C21410620   2.471   1.370   5.331  0.5656 -0.2120 -0.5029
  104SAPE  H14R10621   2.379   1.431   5.329  1.2471  0.8598 -2.9666
  104SAPE  C21510622   2.487   1.303   5.445 -0.0060  0.3726 -0.2297
  104SAPE  H15R10623   2.400   1.305   5.513  0.2119  0.2755  0.0527
  104SAPE  C21610624   2.623   1.254   5.495  0.4738 -0.5220  0.1007
  104SAPE  H16R10625   2.674   1.327   5.562 -0.8259 -0.3851  0.9755
  104SAPE  H16S10626   2.693   1.239   5.411 -1.9513 -1.3115 -1.9017
  104SAPE  C21710627   2.616   1.121   5.562  0.1620  0.0818  0.2884
  104SAPE  H17R10628   2.721   1.086   5.572  0.3289 -0.7467 -3.0543
  104SAPE  H17S10629   2.563   1.050   5.494  1.3417 -0.5590  0.0090
  104SAPE  C21810630   2.554   1.127   5.700 -0.0915  0.1650  0.9799
  104SAPE  H18R10631   2.446   1.143   5.679  0.2294  1.0100 -0.1265
  104SAPE  H18S10632   2.598   1.210   5.760  2.4153 -1.7735  1.9993
  104SAPE  C21910633   2.572   1.002   5.779  0.6488 -0.6944 -0.3222
  104SAPE  H19R10634   2.517   0.913   5.743 -2.2107  0.3625  1.0513
  104SAPE  H19S10635   2.531   1.022   5.881 -0.0809  2.6526 -1.1431
  104SAPE  C22010636   2.722   0.970   5.805  1.1303 -0.3671  0.1386
  104SAPE  H20R10637   2.775   0.932   5.716  2.6521 -1.2779  1.3857
  104SAPE  H20S10638   2.734   0.891   5.882 -0.4687 -1.4890 -0.7027
  104SAPE  H20T10639   2.772   1.065   5.833  0.0555  0.7603 -1.6385
  104SAPE   C3310640   3.305   2.192   4.706  0.6832  0.7461 -0.2667
  104SAPE   H3X10641   3.360   2.285   4.730  2.3005 -1.0305  3.9780
  104SAPE   H3Y10642   3.374   2.126   4.649  1.2773  1.5003 -0.4356
  104SAPE   C3410643   3.289   2.127   4.847  0.3407 -0.0993 -0.2106
  104SAPE   H4X10644   3.383   2.068   4.853  1.3244  1.2716 -1.3876
  104SAPE   H4Y10645   3.201   2.061   4.863  0.2278  0.4114  1.5445
  104SAPE   C3510646   3.268   2.231   4.960  0.2906 -0.5356 -0.1671
  104SAPE   H5X10647   3.173   2.286   4.945  0.8104  0.7290  0.9816
  104SAPE   H5Y10648   3.350   2.306   4.961 -0.7755  0.6741  0.8908
  104SAPE   C3610649   3.258   2.167   5.096 -0.0264 -0.3879 -0.3427
  104SAPE   H6X10650   3.352   2.118   5.127  0.7053 -0.5430 -2.5991
  104SAPE   H6Y10651   3.171   2.097   5.091 -1.5474  1.4539 -1.2912
  104SAPE   C3710652   3.249   2.277   5.209 -0.5560  0.2381  0.2557
  104SAPE   H7X10653   3.180   2.349   5.160  0.1252  0.5552 -0.2377
  104SAPE   H7Y10654   3.347   2.328   5.220 -0.5487  0.8349 -2.1027
  104SAPE   C3810655   3.189   2.235   5.347 -0.5973 -0.0505  0.8526
  104SAPE   H8X10656   3.264   2.166   5.391  1.3056  1.3089 -0.0999
  104SAPE   H8Y10657   3.098   2.175   5.327 -1.9020  1.6611  1.4098
  104SAPE   C3910658   3.158   2.354   5.439  0.2433 -0.2226  0.4311
  104SAPE   H9X10659   3.080   2.420   5.396  0.7579 -0.3066 -0.6776
  104SAPE   H9Y10660   3.249   2.415   5.452 -0.7483  0.8395  2.9833
  104SAPE  C31010661   3.116   2.318   5.576 -0.0119 -0.8281 -0.5319
  104SAPE  H10X10662   3.204   2.264   5.618 -1.0936 -3.4934 -1.5106
  104SAPE  H10Y10663   3.041   2.238   5.566  0.6859 -1.9009  1.9478
  104SAPE  C31110664   3.059   2.434   5.659  0.5501 -0.0901  0.1655
  104SAPE  H11X10665   2.985   2.492   5.600  1.4092  2.1975  1.1882
  104SAPE  H11Y10666   3.137   2.508   5.690  0.8078 -0.8185  1.3078
  104SAPE  C31210667   2.990   2.386   5.787 -0.8803  0.0363  0.1023
  104SAPE  H12X10668   2.899   2.328   5.760 -0.1305 -0.0055 -2.6603
  104SAPE  H12Y10669   2.945   2.469   5.846 -1.0663  0.4912 -0.6733
  104SAPE  C31310670   3.086   2.295   5.863 -0.3511 -0.2960  0.1553
  104SAPE  H13X10671   3.172   2.360   5.887 -1.3761  0.6714  1.3076
  104SAPE  H13Y10672   3.116   2.209   5.798 -0.2756 -0.0303 -0.1651
  104SAPE  C31410673   3.035   2.237   5.995 -0.2995  0.0311  0.1032
  104SAPE  H14X10674   2.960   2.163   5.960 -2.0582  2.0909 -0.6846
  104SAPE  H14Y10675   2.986   2.318   6.053  1.7126  1.1765  0.2983
  104SAPE  C31510676   3.151   2.175   6.081  0.1011 -0.3329 -0.3684
  104SAPE  H15X10677   3.215   2.259   6.116  1.2318 -1.3530  0.0428
  104SAPE  H15Y10678   3.211   2.111   6.013  0.0697 -0.1548 -0.5660
  104SAPE  C31610679   3.106   2.083   6.191 -0.3716  0.0096 -0.1757
  104SAPE  H16X10680   3.017   2.022   6.165  0.0477 -0.0861 -1.4583
  104SAPE  H16Y10681   3.087   2.148   6.280 -0.4818  0.7808 -0.7469
  104SAPE  C31710682   3.210   1.985   6.239  0.0433 -0.1932 -0.6208
  104SAPE  H17X10683   3.308   2.036   6.249  1.3163 -2.2565 -1.6897
  104SAPE  H17Y10684   3.234   1.908   6.162  0.5248 -0.6100 -0.0683
  104SAPE  C31810685   3.183   1.935   6.384  0.7816 -0.4396 -0.3667
  104SAPE  H18X10686   3.185   2.015   6.461 -2.3285  1.1797 -1.7865
  104SAPE  H18Y10687   3.250   1.848   6.399 -0.3080 -1.0766  0.9854
  104SAPE  H18Z10688   3.080   1.894   6.390  0.1313  0.7307 -2.4604
  105SAPE     N10689   4.628   6.091   4.141 -0.4698  0.4562 -0.2982
  105SAPE   HN110690   4.687   6.009   4.116 -0.1045  0.8077 -0.6055
  105SAPE   HN210691   4.682   6.128   4.222  1.6802 -1.1115 -0.9093
  105SAPE   HN310692   4.538   6.055   4.178  0.4748 -2.2935 -0.4354
  105SAPE   C1210693   4.627   6.178   4.022  0.5395 -0.6016 -0.0932
  105SAPE  H12A10694   4.553   6.259   4.042 -0.7228 -1.8757  0.5927
  105SAPE  H12B10695   4.597   6.115   3.936  0.0936  1.8895 -1.8636
  105SAPE   C1110696   4.767   6.227   3.992 -0.3908 -0.3484  0.6995
  105SAPE  H11A10697   4.794   6.295   4.076  1.2693 -0.5720  0.3702
  105SAPE  H11B10698   4.766   6.291   3.901 -2.9450  0.7966  1.4163
  105SAPE     P10699   5.014   6.160   3.959 -0.5086  0.1424  0.1690
  105SAPE   O1310700   5.066   6.035   3.912 -0.3084 -0.3778  0.6074
  105SAPE   O1410701   5.016   6.264   3.858  0.2121  0.7834  0.0399
  105SAPE   O1210702   4.861   6.125   3.983 -0.0763 -0.1573  0.1872
  105SAPE   O1110703   5.067   6.207   4.100 -0.9959  0.0505 -0.1178
  105SAPE    C110704   5.165   6.305   4.118 -0.1714  0.1627 -0.7243
  105SAPE    HA10705   5.236   6.296   4.033 -0.3629 -0.5255 -0.8183
  105SAPE    HB10706   5.115   6.404   4.121 -0.2038  0.1221  1.5107
  105SAPE    C210707   5.247   6.277   4.248  0.4074  0.1470 -0.5545
  105SAPE    HS10708   5.317   6.363   4.256  1.4927 -0.3739 -3.3135
  105SAPE   O2110709   5.301   6.142   4.236  0.2661  0.1233 -1.1785
  105SAPE   C2110710   5.410   6.130   4.308 -0.3728 -0.4807  0.0283
  105SAPE   O2210711   5.462   6.220   4.371  0.0504  0.0825 -0.7179
  105SAPE   C2210712   5.458   5.984   4.304 -0.9472 -0.1306 -0.1432
  105SAPE   H2R10713   5.373   5.920   4.273  1.2074 -1.2616 -4.6537
  105SAPE   H2S10714   5.535   5.977   4.224 -0.7523 -0.4908  0.0678
  105SAPE    C310715   5.141   6.274   4.367  0.8295  0.6030 -0.3671
  105SAPE    HX10716   5.076   6.188   4.341  2.1834 -0.9233  1.1059
  105SAPE    HY10717   5.075   6.364   4.363  1.6472  1.2316 -0.0445
  105SAPE   O3110718   5.197   6.257   4.497 -0.2729  0.3902 -0.7413
  105SAPE   C3110719   5.242   6.377   4.547 -0.2581 -0.1877  0.2688
  105SAPE   O3210720   5.238   6.485   4.486 -0.3020 -0.0546 -0.4583
  105SAPE   C3210721   5.300   6.354   4.683 -0.2311 -0.6489 -0.6215
  105SAPE   H2X10722   5.396   6.410   4.677  0.3689 -1.6437 -0.6105
  105SAPE   H2Y10723   5.327   6.247   4.699  1.3478 -0.0735  0.8853
  105SAPE   C2310724   5.530   5.933   4.433  0.8477  0.0337 -0.7241
  105SAPE   H3R10725   5.609   6.005   4.461  1.6402 -1.5387  1.3787
  105SAPE   H3S10726   5.576   5.832   4.421 -0.8101 -0.7623 -0.6577
  105SAPE   C2410727   5.434   5.918   4.558 -0.1457  0.0379  0.0269
  105SAPE   H4R10728   5.383   6.016   4.561  1.5258  0.9851 -0.7105
  105SAPE   H4S10729   5.492   5.902   4.652  1.9828 -0.2826 -1.2531
  105SAPE   C2510730   5.345   5.796   4.542 -0.1066 -0.5839 -0.0456
  105SAPE   H5R10731   5.398   5.700   4.551 -2.0161 -1.6032  0.9788
  105SAPE   C2610732   5.208   5.787   4.550 -0.0160 -0.2425 -0.0957
  105SAPE   H6R10733   5.154   5.695   4.521 -1.1565 -0.0394  1.2562
  105SAPE   C2710734   5.118   5.905   4.573 -0.5511  0.4450  0.1318
  105SAPE   H7R10735   5.011   5.873   4.578 -0.7586  1.2532  1.1541
  105SAPE   H7S10736   5.123   5.954   4.474 -0.9386 -1.7415 -1.0256
  105SAPE   C2810737   5.139   6.000   4.687 -0.2816 -0.0929 -0.0700
  105SAPE   H8R10738   5.171   6.100   4.654 -0.0418 -0.6539 -1.6485
  105SAPE   C2910739   5.143   5.980   4.820 -0.0143 -0.3236  0.6294
  105SAPE   H9R10740   5.159   6.070   4.881  2.3670 -1.3795  1.7007
  105SAPE  C21010741   5.132   5.851   4.886  0.0851  0.2572 -0.2750
  105SAPE  H10R10742   5.122   5.767   4.814  1.9451  0.7912 -1.2095
  105SAPE  H10S10743   5.037   5.844   4.944  0.7239  1.3892  0.9590
  105SAPE  C21110744   5.266   5.835   4.957  0.0589 -0.1066  0.8905
  105SAPE  H11R10745   5.350   5.800   4.894  0.0830 -0.3307  1.0420
  105SAPE  C21210746   5.289   5.851   5.090  0.7685  0.5921  0.4105
  105SAPE  H12R10747   5.393   5.842   5.125  0.5561 -0.7666  0.7482
  105SAPE  C21310748   5.185   5.898   5.198  0.2422 -0.3523 -0.1250
  105SAPE  H13R10749   5.171   5.822   5.278 -1.2560  1.1596  1.1183
  105SAPE  H13S10750   5.083   5.906   5.156 -0.3606  2.0352  1.5602
  105SAPE  C21410751   5.199   6.032   5.268 -0.9707  0.4500 -0.0738
  105SAPE  H14R10752   5.193   6.115   5.197 -0.6180 -0.5609 -1.3280
  105SAPE  C21510753   5.207   6.061   5.404  1.2463  0.1374  0.9956
  105SAPE  H15R10754   5.238   6.164   5.426  0.0291  0.3423  1.8219
  105SAPE  C21610755   5.203   5.972   5.528 -0.0787  0.1498  0.0720
  105SAPE  H16R10756   5.193   5.862   5.523  1.7442 -0.1330  1.4215
  105SAPE  H16S10757   5.119   6.006   5.592  1.1432 -1.6395  2.8244
  105SAPE  C21710758   5.338   5.992   5.612  0.0870  0.0695  0.1374
  105SAPE  H17R10759   5.336   5.936   5.708  0.5126  0.0818  0.1544
  105SAPE  H17S10760   5.347   6.102   5.627  0.2089  0.2716 -1.2370
  105SAPE  C21810761   5.460   5.937   5.533  0.7436  0.0402 -0.8297
  105SAPE  H18R10762   5.480   5.992   5.439  3.7077 -0.1480 -0.4062
  105SAPE  H18S10763   5.451   5.832   5.497 -0.6763  0.2346 -1.0766
  105SAPE  C21910764   5.589   5.936   5.621  0.5910 -0.6606  0.1465
  105SAPE  H19R10765   5.561   5.875   5.709 -0.7090  1.0857  0.9948
  105SAPE  H19S10766   5.614   6.035   5.664 -0.8443 -0.4295  0.4862
  105SAPE  C22010767   5.710   5.867   5.554 -0.6090  0.2589 -0.3179
  105SAPE  H20R10768   5.747   5.930   5.470 -3.8508  0.9536 -1.3701
  105SAPE  H20S10769   5.686   5.767   5.511  0.7721 -0.0479 -0.3953
  105SAPE  H20T10770   5.796   5.866   5.624  0.0030  0.0743 -1.0569
  105SAPE   C3310771   5.211   6.411   4.796 -0.5658 -0.1606  0.6292
  105SAPE   H3X10772   5.226   6.345   4.884  0.7827 -0.5695  0.1070
  105SAPE   H3Y10773   5.102   6.410   4.773 -0.6693  2.0562  0.7288
  105SAPE   C3410774   5.264   6.550   4.844  0.6049  0.4199  0.1042
  105SAPE   H4X10775   5.184   6.598   4.904  1.7243  2.2455  0.2011
  105SAPE   H4Y10776   5.290   6.604   4.750  1.3313 -1.2445 -0.7085
  105SAPE   C3510777   5.386   6.546   4.937 -0.3704 -0.7944  0.2553
  105SAPE   H5X10778   5.424   6.650   4.946 -0.6036 -0.8445  2.4768
  105SAPE   H5Y10779   5.470   6.499   4.882 -0.9376 -1.0678 -0.3824
  105SAPE   C3610780   5.356   6.488   5.077  0.4812 -0.4027  0.0855
  105SAPE   H6X10781   5.390   6.383   5.084  2.8321  0.3468  1.0996
  105SAPE   H6Y10782   5.246   6.476   5.083  0.3480 -0.8814 -2.3081
  105SAPE   C3710783   5.416   6.576   5.182 -0.1372 -0.5035 -0.8596
  105SAPE   H7X10784   5.405   6.686   5.166  2.6348  0.1946  1.1884
  105SAPE   H7Y10785   5.526   6.568   5.195 -0.1005  0.1206 -0.7125
  105SAPE   C3810786   5.359   6.558   5.319  1.0341  0.4267 -0.1594
  105SAPE   H8X10787   5.388   6.457   5.354  0.3554  0.6910  1.2470
  105SAPE   H8Y10788   5.249   6.548   5.313  0.8943 -2.2418  3.3741
  105SAPE   C3910789   5.397   6.665   5.418  0.3499  0.5429  0.1853
  105SAPE   H9X10790   5.351   6.758   5.378  2.0464  1.0610 -0.6465
  105SAPE   H9Y10791   5.505   6.685   5.434  0.1868  0.3727  1.6932
  105SAPE  C31010792   5.334   6.624   5.557 -0.0180  0.1712  0.0343
  105SAPE  H10X10793   5.244   6.560   5.547 -0.8422  0.9396  2.0569
  105SAPE  H10Y10794   5.308   6.714   5.616 -0.7218  0.2454 -0.3834
  105SAPE  C31110795   5.431   6.537   5.648  0.0342  0.7538 -0.0932
  105SAPE  H11X10796   5.530   6.585   5.665  0.7712 -0.5284 -0.5781
  105SAPE  H11Y10797   5.456   6.447   5.587  0.7619  0.8757  0.0131
  105SAPE  C31210798   5.371   6.483   5.781 -0.4275  0.7667  0.2719
  105SAPE  H12X10799   5.287   6.417   5.752  1.7582 -1.8033 -0.7080
  105SAPE  H12Y10800   5.319   6.565   5.833 -2.0566  1.2899 -2.0189
  105SAPE  C31310801   5.466   6.421   5.887 -0.1189  0.8092 -0.6380
  105SAPE  H13X10802   5.417   6.411   5.986  0.6800 -0.5359 -0.3598
  105SAPE  H13Y10803   5.554   6.487   5.904  0.9738 -0.5678 -0.7217
  105SAPE  C31410804   5.525   6.282   5.846  0.5559 -0.5171 -0.3769
  105SAPE  H14X10805   5.549   6.282   5.737 -2.9147  0.0496 -1.2617
  105SAPE  H14Y10806   5.438   6.214   5.847 -2.8227  3.4303  1.4341
  105SAPE  C31510807   5.641   6.236   5.932  0.0292 -0.1492  0.3969
  105SAPE  H15X10808   5.706   6.325   5.920 -2.8533  1.8268 -1.9641
  105SAPE  H15Y10809   5.685   6.147   5.881  1.6923  1.0459 -0.3406
  105SAPE  C31610810   5.606   6.204   6.078  0.0503 -0.3847 -0.2588
  105SAPE  H16X10811   5.544   6.278   6.132  0.0010 -0.7487  0.1889
  105SAPE  H16Y10812   5.703   6.198   6.131  2.3512 -0.8215 -4.1084
  105SAPE  C31710813   5.532   6.073   6.103 -0.9209  0.2856 -0.1128
  105SAPE  H17X10814   5.431   6.072   6.057 -0.6077 -1.5301 -0.8324
  105SAPE  H17Y10815   5.528   6.063   6.213  0.4493  2.3158  0.1819
  105SAPE  C31810816   5.612   5.944   6.054  0.1041  0.1444  0.7925
  105SAPE  H18X10817   5.717   5.946   6.089  0.1114 -0.4679  0.8203
  105SAPE  H18Y10818   5.607   5.936   5.943 -0.8580 -0.8865  0.8932
  105SAPE  H18Z10819   5.550   5.863   6.100 -1.3296  0.9422  0.3337
  106SAPE     N10820   0.852   3.115   4.006 -0.1853 -0.1484 -0.3495
  106SAPE   HN110821   0.939   3.148   4.052 -1.3021  1.7777  0.5715
  106SAPE   HN210822   0.877   3.044   3.935  1.4583 -0.0805  0.1157
  106SAPE   HN310823   0.808   3.193   3.953  0.5652 -1.7177 -3.5074
  106SAPE   C1210824   0.763   3.052   4.107 -0.0821 -0.1257  0.3925
  106SAPE  H12A10825   0.767   3.105   4.205  0.4543 -1.1758  0.9611
  106SAPE  H12B10826   0.809   2.951   4.113  0.5864 -0.0210 -2.1870
  106SAPE   C1110827   0.626   3.033   4.044  0.9155  0.6019 -0.7779
  106SAPE  H11A10828   0.596   3.132   4.002 -0.9080  0.4559  0.0904
  106SAPE  H11B10829   0.551   3.018   4.125  1.5916 -1.5252 -0.4929
  106SAPE     P10830   0.504   2.940   3.839 -0.4447  0.2035  0.1269
  106SAPE   O1310831   0.569   3.013   3.728  0.3129 -0.0007  0.3523
  106SAPE   O1410832   0.449   2.812   3.793  0.1820 -0.3794  0.1067
  106SAPE   O1210833   0.606   2.917   3.954 -0.0050  0.4627  0.0507
  106SAPE   O1110834   0.386   3.038   3.893  0.1682 -0.8244 -0.2827
  106SAPE    C110835   0.267   2.991   3.954 -0.4605 -0.3349  0.0633
  106SAPE    HA10836   0.184   2.965   3.885 -0.8969 -0.0997  0.4970
  106SAPE    HB10837   0.280   2.899   4.015 -0.8259  0.2374  1.0323
  106SAPE    C210838   0.220   3.100   4.058 -0.4767  0.1398  0.1921
  106SAPE    HS10839   0.175   3.184   4.001 -1.4858  0.2891  1.1632
  106SAPE   O2110840   0.340   3.152   4.123  0.2797  0.3905 -0.2065
  106SAPE   C2110841   0.338   3.281   4.151  0.2756  0.2004 -0.7341
  106SAPE   O2210842   0.254   3.364   4.116 -0.0628  0.0132 -0.5091
  106SAPE   C2210843   0.445   3.315   4.259  0.8762 -0.1027  0.1631
  106SAPE   H2R10844   0.547   3.317   4.216  0.8821  3.2757  0.0547
  106SAPE   H2S10845   0.427   3.422   4.285 -0.3846  0.0799 -1.2523
  106SAPE    C310846   0.111   3.046   4.153  0.2650  0.1492 -0.0751
  106SAPE    HX10847   0.137   2.942   4.179  0.0035 -0.0266 -0.5039
  106SAPE    HY10848   0.020   3.040   4.089 -0.4445 -3.1885  1.0673
  106SAPE   O3110849   0.100   3.117   4.275 -0.1672 -0.0698 -0.3941
  106SAPE   C3110850   0.007   3.214   4.275  0.1328 -0.3258  0.0523
  106SAPE   O3210851  -0.064   3.240   4.182  0.2750  0.0363 -0.7193
  106SAPE   C3210852   0.006   3.264   4.418 -0.0404 -0.0731  0.3796
  106SAPE   H2X10853   0.107   3.292   4.454  1.1611 -2.6074 -0.8014
  106SAPE   H2Y10854  -0.035   3.182   4.481 -2.1941  0.1793 -0.5753
  106SAPE   C2310855   0.421   3.229   4.386 -0.0526  0.4145  0.7801
  106SAPE   H3R10856   0.445   3.123   4.366  1.7247  0.9199  0.0879
  106SAPE   H3S10857   0.312   3.242   4.409 -0.3035  2.5731 -1.2426
  106SAPE   C2410858   0.511   3.280   4.502 -0.0381 -0.0218 -0.5143
  106SAPE   H4R10859   0.532   3.389   4.505 -1.2532  0.2331 -0.4113
  106SAPE   H4S10860   0.610   3.234   4.482 -0.1040 -1.4005  1.9295
  106SAPE   C2510861   0.446   3.233   4.632  0.6072  0.2690  0.4255
  106SAPE   H5R10862   0.393   3.312   4.687  0.1612  0.4677 -0.2708
  106SAPE   C2610863   0.447   3.111   4.678 -0.2417  0.7327  0.0765
  106SAPE   H6R10864   0.377   3.088   4.759 -2.8281  0.2720 -2.1342
  106SAPE   C2710865   0.522   2.989   4.623  0.4724  0.4401 -0.2475
  106SAPE   H7R10866   0.589   3.007   4.537  1.5640 -0.0289  0.4799
  106SAPE   H7S10867   0.450   2.915   4.583  4.0149 -2.4587 -1.8811
  106SAPE   C2810868   0.605   2.932   4.736  0.2803 -0.1136 -0.4009
  106SAPE   H8R10869   0.597   2.977   4.835  0.9602 -0.3417 -0.2394
  106SAPE   C2910870   0.701   2.839   4.719  0.5360 -0.1720  0.2530
  106SAPE   H9R10871   0.763   2.814   4.807 -1.2809 -2.6471  0.9504
  106SAPE  C21010872   0.748   2.781   4.588  0.1093  0.3240 -0.4086
  106SAPE  H10R10873   0.778   2.872   4.531  0.4436  0.1889 -0.4473
  106SAPE  H10S10874   0.674   2.714   4.539  1.8305 -1.6834 -0.4246
  106SAPE  C21110875   0.873   2.698   4.606  0.2273 -0.1779  0.2456
  106SAPE  H11R10876   0.968   2.732   4.562  0.9389 -1.6686  0.5788
  106SAPE  C21210877   0.877   2.582   4.676  0.3745  0.0869  0.2236
  106SAPE  H12R10878   0.973   2.530   4.688  0.6269  0.4669 -0.1349
  106SAPE  C21310879   0.768   2.512   4.747 -0.1305  0.2761 -0.6121
  106SAPE  H13R10880   0.727   2.444   4.670  1.7696  0.0284 -1.4561
  106SAPE  H13S10881   0.676   2.565   4.781 -0.1601 -0.6708  0.8430
  106SAPE  C21410882   0.828   2.429   4.861  1.4448  0.0089 -0.6807
  106SAPE  H14R10883   0.842   2.324   4.829  1.9585 -1.4444  3.6651
  106SAPE  C21510884   0.829   2.446   4.996  0.2059  0.7025  0.1095
  106SAPE  H15R10885   0.864   2.361   5.057 -0.1707  0.0941 -0.5078
  106SAPE  C21610886   0.780   2.580   5.060 -0.3524 -0.0019  0.1110
  106SAPE  H16R10887   0.724   2.640   4.986  2.0904  2.8294  0.3844
  106SAPE  H16S10888   0.866   2.646   5.085  0.1542 -0.5114 -0.2551
  106SAPE  C21710889   0.705   2.553   5.192  0.4282 -0.3112  0.2613
  106SAPE  H17R10890   0.783   2.548   5.271  0.0078  0.6623  0.7567
  106SAPE  H17S10891   0.643   2.460   5.191 -0.3250  0.0683  2.7665
  106SAPE  C21810892   0.592   2.650   5.219  0.6225 -0.3747  0.2308
  106SAPE  H18R10893   0.527   2.614   5.301 -0.9109  2.2306  0.2793
  106SAPE  H18S10894   0.514   2.657   5.139 -0.1978 -2.6206  0.7553
  106SAPE  C21910895   0.636   2.790   5.262  0.5054 -0.0633  0.3058
  106SAPE  H19R10896   0.718   2.771   5.335  0.3072  0.3398  0.6384
  106SAPE  H19S10897   0.553   2.839   5.318 -1.0320 -2.6429  0.4785
  106SAPE  C22010898   0.681   2.879   5.148  0.9171  0.5107 -0.8004
  106SAPE  H20R10899   0.604   2.880   5.068 -2.5878  2.1906  2.2851
  106SAPE  H20S10900   0.780   2.848   5.107  0.8709 -0.3328 -0.3026
  106SAPE  H20T10901   0.695   2.983   5.184 -1.8298  2.5869 -4.9662
  106SAPE   C3310902  -0.099   3.378   4.437  0.4135 -0.0746 -0.0858
  106SAPE   H3X10903  -0.200   3.340   4.409 -1.5402  3.3091  1.5737
  106SAPE   H3Y10904  -0.096   3.466   4.368 -2.2787 -0.4925 -0.8865
  106SAPE   C3410905  -0.107   3.429   4.582  0.4022  0.5955  0.6710
  106SAPE   H4X10906  -0.130   3.348   4.654  0.2239  0.1605  0.1317
  106SAPE   H4Y10907  -0.189   3.502   4.593 -0.5573 -0.7406  2.8054
  106SAPE   C3510908   0.022   3.496   4.637  0.0149 -0.2535 -0.7121
  106SAPE   H5X10909   0.046   3.564   4.553 -0.6996 -0.8868 -1.4406
  106SAPE   H5Y10910   0.108   3.426   4.645  0.0708 -0.0736  0.4479
  106SAPE   C3610911   0.007   3.579   4.769  0.1694  0.3260  0.6482
  106SAPE   H6X10912  -0.067   3.660   4.754  1.3518  1.1723 -0.9663
  106SAPE   H6Y10913   0.100   3.634   4.794  0.4202  0.7720 -1.1407
  106SAPE   C3710914  -0.023   3.489   4.895  0.4642 -0.2216 -0.1115
  106SAPE   H7X10915   0.064   3.421   4.910 -0.6159 -1.7817 -0.6259
  106SAPE   H7Y10916  -0.114   3.427   4.878 -1.1413  1.6757  1.1305
  106SAPE   C3810917  -0.031   3.554   5.031  0.0183  0.5941  0.1548
  106SAPE   H8X10918  -0.115   3.627   5.041  2.8107  3.7983  3.0328
  106SAPE   H8Y10919   0.060   3.614   5.053 -0.4971  1.0303  1.1669
  106SAPE   C3910920  -0.053   3.450   5.150 -0.2160 -0.1577  0.2622
  106SAPE   H9X10921   0.014   3.362   5.140  0.2025 -0.4128  3.9480
  106SAPE   H9Y10922  -0.156   3.410   5.153  0.0966 -0.9094  1.1042
  106SAPE  C31010923  -0.019   3.525   5.279 -0.2348 -0.2933 -0.1654
  106SAPE  H10X10924  -0.074   3.621   5.270  1.9603  0.9051 -1.8040
  106SAPE  H10Y10925   0.086   3.560   5.271  0.1901 -1.4040  0.2789
  106SAPE  C31110926  -0.040   3.435   5.405 -0.4281  0.7037  0.7284
  106SAPE  H11X10927   0.026   3.347   5.390 -1.0486  0.2995  0.3069
  106SAPE  H11Y10928  -0.146   3.402   5.416 -0.4233  0.7681  0.9868
  106SAPE  C31210929   0.016   3.498   5.535  0.3153 -0.5832 -0.8915
  106SAPE  H12X10930  -0.035   3.597   5.545 -0.5055 -1.0642 -0.2125
  106SAPE  H12Y10931   0.124   3.506   5.511  0.7708  0.4246  1.2342
  106SAPE  C31310932  -0.021   3.413   5.658 -0.1305  0.3377  0.4541
  106SAPE  H13X10933   0.046   3.325   5.645 -0.7525 -0.3630  1.7092
  106SAPE  H13Y10934  -0.132   3.402   5.659 -0.1836  0.7615 -0.3940
  106SAPE  C31410935   0.040   3.469   5.781  0.1569  0.0239 -0.4144
  106SAPE  H14X10936  -0.017   3.561   5.808 -2.5645 -0.6709 -3.2157
  106SAPE  H14Y10937   0.142   3.506   5.760  0.7165  0.1239  2.1254
  106SAPE  C31510938   0.046   3.366   5.901 -0.5378  0.5040  0.7010
  106SAPE  H15X10939   0.126   3.290   5.888 -0.9827 -0.0302  1.0471
  106SAPE  H15Y10940  -0.051   3.314   5.916  0.3544 -0.9346  1.7823
  106SAPE  C31610941   0.061   3.444   6.030  0.3595 -0.6018 -0.0087
  106SAPE  H16X10942  -0.015   3.524   6.042 -0.2314 -0.8952 -1.5331
  106SAPE  H16Y10943   0.158   3.495   6.020  0.0918 -0.2091 -0.5980
  106SAPE  C31710944   0.051   3.354   6.151 -1.0942  0.8833  0.2733
  106SAPE  H17X10945  -0.047   3.301   6.162  0.2515 -1.7254  0.4067
  106SAPE  H17Y10946   0.057   3.420   6.240  1.1540  0.4762  0.4763
  106SAPE  C31810947   0.162   3.250   6.166  0.1957 -0.7174 -0.2418
  106SAPE  H18X10948   0.167   3.231   6.275 -2.7361  1.9608  0.4916
  106SAPE  H18Y10949   0.259   3.281   6.121  0.2137 -1.7616 -0.9692
  106SAPE  H18Z10950   0.129   3.156   6.116 -1.0684 -0.1441 -0.5119
  107SAPE     N10951   5.041   1.715   3.904 -0.0542 -0.1595 -0.6810
  107SAPE   HN110952   5.084   1.810   3.899  0.2412 -0.2357  0.2435
  107SAPE   HN210953   5.116   1.642   3.907 -1.0130 -1.1883 -1.0740
  107SAPE   HN310954   4.987   1.709   3.815  0.8895 -0.0683 -1.2724
  107SAPE   C1210955   4.946   1.702   4.013  0.5417  0.2447  0.3536
  107SAPE  H12A10956   4.849   1.749   3.988  0.2769 -0.2298  0.4718
  107SAPE  H12B10957   4.996   1.751   4.099 -0.2767 -0.2116  1.0986
  107SAPE   C1110958   4.922   1.554   4.053  0.1514  0.0851 -0.1886
  107SAPE  H11A10959   4.852   1.555   4.140 -0.5137  0.8112 -0.7142
  107SAPE  H11B10960   5.021   1.515   4.084  0.3170 -0.3171 -1.1913
  107SAPE     P10961   4.720   1.450   3.936  0.0615  0.3193 -0.2406
  107SAPE   O1310962   4.648   1.578   3.915 -0.0793 -0.2727 -0.0063
  107SAPE   O1410963   4.704   1.344   3.833 -0.2071  0.6012 -0.7443
  107SAPE   O1210964   4.867   1.486   3.941 -0.1154  0.1509  0.2511
  107SAPE   O1110965   4.699   1.397   4.084 -0.3336 -0.1704  0.3345
  107SAPE    C110966   4.762   1.274   4.134 -0.2196 -0.6673 -0.6117
  107SAPE    HA10967   4.851   1.243   4.076 -0.4718 -1.1917 -0.7255
  107SAPE    HB10968   4.796   1.304   4.236 -0.0266 -2.0500 -0.2541
  107SAPE    C210969   4.658   1.165   4.139  0.0017  0.1573 -0.1312
  107SAPE    HS10970   4.607   1.163   4.041  0.8094 -1.2455 -0.5438
  107SAPE   O2110971   4.566   1.196   4.242  0.0594  0.3430  0.2276
  107SAPE   C2110972   4.461   1.126   4.253  0.2598 -0.4742 -0.1745
  107SAPE   O2210973   4.437   1.028   4.183 -0.2437  0.1064 -0.0281
  107SAPE   C2210974   4.366   1.205   4.337  0.1527 -0.1070 -0.0900
  107SAPE   H2R10975   4.303   1.128   4.387  0.3120  0.6704  1.3483
  107SAPE   H2S10976   4.420   1.258   4.418  0.4840  2.1151 -1.6715
  107SAPE    C310977   4.730   1.025   4.162 -0.3566 -0.0872 -0.7057
  107SAPE    HX10978   4.789   1.008   4.069 -1.0361  1.3452 -1.4218
  107SAPE    HY10979   4.653   0.945   4.156 -1.7928  1.3101 -1.9041
  107SAPE   O3110980   4.815   1.033   4.281  0.3152 -0.5026  0.5263
  107SAPE   C3110981   4.879   0.915   4.295 -0.7344 -0.6009  0.4156
  107SAPE   O3210982   4.860   0.814   4.231 -0.6723  0.3460  0.0338
  107SAPE   C3210983   4.988   0.933   4.408 -0.1178 -0.2408 -0.6688
  107SAPE   H2X10984   5.055   1.020   4.391 -0.4399  1.0121  3.4148
  107SAPE   H2Y10985   5.044   0.839   4.388  0.4490 -0.5498  2.0275
  107SAPE   C2310986   4.280   1.297   4.250  0.3426  0.3457  0.2236
  107SAPE   H3R10987   4.239   1.245   4.160  0.3593 -1.1355  1.0477
  107SAPE   H3S10988   4.330   1.393   4.225 -0.6219  0.2703 -2.3713
  107SAPE   C2410989   4.152   1.343   4.322  0.0912  0.1936  0.5299
  107SAPE   H4R10990   4.106   1.255   4.371  0.4036 -0.1679  0.1823
  107SAPE   H4S10991   4.075   1.361   4.244 -0.1641 -1.9640  0.2257
  107SAPE   C2510992   4.162   1.474   4.396  0.2390 -0.4254 -0.1622
  107SAPE   H5R10993   4.182   1.561   4.332  1.5521 -0.1487  0.5815
  107SAPE   C2610994   4.167   1.496   4.536 -0.1532 -0.0248  0.4355
  107SAPE   H6R10995   4.176   1.600   4.569  0.4372 -0.1932  0.8368
  107SAPE   C2710996   4.161   1.397   4.646 -0.3023  0.1685  0.4564
  107SAPE   H7R10997   4.263   1.393   4.689 -0.3665 -3.2796  0.6118
  107SAPE   H7S10998   4.133   1.298   4.602  0.0777  0.6718 -0.9551
  107SAPE   C2810999   4.057   1.440   4.750  0.3424 -0.2207 -0.0343
  107SAPE   H8R11000   3.953   1.434   4.715  0.2720 -0.5125  0.2181
  107SAPE   C2911001   4.067   1.466   4.882 -0.4396 -0.8091  0.7885
  107SAPE   H9R11002   3.978   1.489   4.943  0.5440 -0.2891  2.0786
  107SAPE  C21011003   4.194   1.476   4.966  0.4268 -0.1397 -0.6340
  107SAPE  H10R11004   4.195   1.570   5.026 -1.2208  1.7144 -3.2909
  107SAPE  H10S11005   4.285   1.487   4.903  1.5715 -0.4002  0.9036
  107SAPE  C21111006   4.218   1.361   5.061  0.9747 -0.4579 -0.2145
  107SAPE  H11R11007   4.212   1.264   5.009 -0.8897 -0.1799 -0.6049
  107SAPE  C21211008   4.211   1.366   5.190 -0.7745 -0.0307 -0.3330
  107SAPE  H12R11009   4.235   1.281   5.256 -0.8043  1.6236  1.9371
  107SAPE  C21311010   4.196   1.489   5.275 -0.3861  0.0340 -0.6700
  107SAPE  H13R11011   4.133   1.563   5.222  0.9401  0.1883 -2.1166
  107SAPE  H13S11012   4.295   1.537   5.287 -0.2915 -0.2762 -0.1894
  107SAPE  C21411013   4.138   1.458   5.412 -0.1142 -0.1963 -0.0425
  107SAPE  H14R11014   4.028   1.465   5.423 -0.0357 -1.2886  1.7519
  107SAPE  C21511015   4.214   1.441   5.521  0.3028  1.0926 -0.2439
  107SAPE  H15R11016   4.159   1.401   5.607 -1.8570  1.0039 -1.5930
  107SAPE  C21611017   4.364   1.437   5.532 -0.8788 -0.1796 -1.2455
  107SAPE  H16R11018   4.402   1.503   5.451 -1.5759 -0.8317 -2.1194
  107SAPE  H16S11019   4.397   1.336   5.503 -0.1773 -0.8653  1.6101
  107SAPE  C21711020   4.416   1.488   5.666  0.5551 -0.2576  0.5347
  107SAPE  H17R11021   4.527   1.486   5.674  0.7019  1.7155 -0.3455
  107SAPE  H17S11022   4.389   1.409   5.739  0.8116 -0.9737 -0.1260
  107SAPE  C21811023   4.369   1.630   5.701 -0.1033 -0.8271 -0.5215
  107SAPE  H18R11024   4.265   1.629   5.738  0.7208 -1.4884  1.9630
  107SAPE  H18S11025   4.351   1.680   5.603 -1.5166 -1.5951 -0.6850
  107SAPE  C21911026   4.464   1.699   5.811  0.5265  0.2245  0.4829
  107SAPE  H19R11027   4.414   1.793   5.842 -0.1204  0.2821 -0.7036
  107SAPE  H19S11028   4.557   1.726   5.756 -0.7655 -1.3246 -2.7090
  107SAPE  C22011029   4.487   1.611   5.936  0.3663 -0.2421  0.2122
  107SAPE  H20R11030   4.579   1.643   5.990  0.8967 -0.0617 -0.7639
  107SAPE  H20S11031   4.496   1.501   5.924 -2.0893 -0.5227  0.3568
  107SAPE  H20T11032   4.401   1.619   6.006 -0.6537 -2.5655 -0.6660
  107SAPE   C3311033   4.938   0.943   4.552 -0.2422  0.3289  0.0724
  107SAPE   H3X11034   5.013   0.915   4.629 -1.4357  0.1900  1.2167
  107SAPE   H3Y11035   4.845   0.892   4.586  1.0808 -1.2946  1.4422
  107SAPE   C3411036   4.921   1.091   4.584 -0.0109  0.2653  1.0424
  107SAPE   H4X11037   4.838   1.137   4.526  1.1901  1.9199  0.5467
  107SAPE   H4Y11038   5.009   1.154   4.556 -0.0706  0.8123  2.0527
  107SAPE   C3511039   4.897   1.122   4.733 -0.1073  0.4254 -0.6650
  107SAPE   H5X11040   4.803   1.074   4.768 -0.0562  1.0642  0.3908
  107SAPE   H5Y11041   4.876   1.229   4.755 -1.3960  0.4559 -1.9140
  107SAPE   C3611042   5.013   1.072   4.822  0.5208 -0.0906  0.0616
  107SAPE   H6X11043   5.109   1.117   4.788 -0.6268  1.0619 -1.8244
  107SAPE   H6Y11044   5.006   0.961   4.815  0.1878 -0.0946  0.4113
  107SAPE   C3711045   4.998   1.117   4.966 -0.2606 -0.0717 -0.0078
  107SAPE   H7X11046   4.903   1.075   5.006  0.9004 -0.8039  2.1568
  107SAPE   H7Y11047   4.981   1.227   4.967 -0.6693 -0.1221 -0.6658
  107SAPE   C3811048   5.106   1.076   5.071 -0.0569  0.1293 -0.1841
  107SAPE   H8X11049   5.188   1.152   5.067  2.0724 -2.0596 -0.7742
  107SAPE   H8Y11050   5.146   0.978   5.037 -0.6440 -0.7582  1.5558
  107SAPE   C3911051   5.063   1.055   5.219 -0.0955  1.0205 -0.4594
  107SAPE   H9X11052   5.145   1.003   5.273 -0.0306  0.5033 -1.0400
  107SAPE   H9Y11053   4.976   0.986   5.225  0.9410 -0.2527  0.5663
  107SAPE  C31011054   5.030   1.191   5.282  0.3869  0.9838  0.5576
  107SAPE  H10X11055   4.978   1.252   5.205  1.1273  0.5165 -0.3336
  107SAPE  H10Y11056   5.116   1.258   5.297 -0.9406  2.6646  0.9944
  107SAPE  C31111057   4.935   1.178   5.400  0.1565  1.1478  0.3212
  107SAPE  H11X11058   4.985   1.105   5.468  0.9041  0.9712 -0.3935
  107SAPE  H11Y11059   4.839   1.131   5.368  0.1761  0.9048  0.6135
  107SAPE  C31211060   4.907   1.310   5.469 -0.0276 -0.2059  0.4734
  107SAPE  H12X11061   4.849   1.361   5.389  0.8886 -0.8003 -0.6121
  107SAPE  H12Y11062   4.998   1.363   5.504 -0.7545  0.0161  2.1243
  107SAPE  C31311063   4.819   1.298   5.593  0.1953 -0.3005  0.7678
  107SAPE  H13X11064   4.849   1.202   5.641  0.2039 -0.9999 -0.5712
  107SAPE  H13Y11065   4.717   1.284   5.550  0.6946 -1.5191 -0.1036
  107SAPE  C31411066   4.825   1.418   5.691  0.2901  0.0584  0.4460
  107SAPE  H14X11067   4.728   1.420   5.745  0.5473  0.8627  0.8907
  107SAPE  H14Y11068   4.828   1.517   5.640  0.9040 -1.2645 -2.2260
  107SAPE  C31511069   4.923   1.413   5.800 -0.4640 -0.1712  0.5082
  107SAPE  H15X11070   5.028   1.417   5.763 -0.6975 -0.6781 -0.2262
  107SAPE  H15Y11071   4.913   1.317   5.856  0.1803 -0.1676  0.6420
  107SAPE  C31611072   4.902   1.533   5.902 -0.4429  0.2986  0.3935
  107SAPE  H16X11073   4.793   1.538   5.921 -1.3219 -2.5577 -2.8660
  107SAPE  H16Y11074   4.941   1.622   5.848 -1.7292  0.1062 -0.9271
  107SAPE  C31711075   4.983   1.525   6.033 -0.7743  0.3537  0.1864
  107SAPE  H17X11076   4.979   1.623   6.086 -1.9184 -1.1964  3.2120
  107SAPE  H17Y11077   5.088   1.492   6.016 -0.9723  0.0484 -0.4418
  107SAPE  C31811078   4.927   1.430   6.139 -0.1799  0.3413  0.8320
  107SAPE  H18X11079   4.948   1.327   6.103  2.4668  0.7991  0.9220
  107SAPE  H18Y11080   4.818   1.445   6.157  0.0774  0.5156  2.3109
  107SAPE  H18Z11081   4.985   1.446   6.232 -0.6961 -1.0709  1.4446
  108SAPE     N11082   4.496   0.472   4.028  1.0789  0.2454  0.2608
  108SAPE   HN111083   4.474   0.561   3.980  0.0241 -0.9543 -1.5781
  108SAPE   HN211084   4.501   0.477   4.132  0.5509  1.4477  0.2427
  108SAPE   HN311085   4.581   0.427   3.988  0.5316 -0.9509  0.4194
  108SAPE   C1211086   4.387   0.375   4.003  0.3036  0.1543 -0.1161
  108SAPE  H12A11087   4.403   0.274   4.045 -1.2660 -0.9564 -1.9704
  108SAPE  H12B11088   4.374   0.353   3.894 -1.1236  0.9155 -0.1277
  108SAPE   C1111089   4.246   0.430   4.048 -0.2302  0.0510 -0.1996
  108SAPE  H11A11090   4.222   0.415   4.156  1.0348  0.1567  0.1173
  108SAPE  H11B11091   4.176   0.364   3.992  0.8353  0.7596 -2.4887
  108SAPE     P11092   4.104   0.642   4.019 -0.2440 -0.1875  0.1529
  108SAPE   O1311093   4.126   0.786   4.014  0.1315  0.1613  0.0208
  108SAPE   O1411094   4.024   0.586   3.908  0.0041 -0.5679  0.1909
  108SAPE   O1211095   4.249   0.573   4.016  0.0672 -0.1942  0.5254
  108SAPE   O1111096   4.042   0.605   4.162 -0.4320 -0.1747  0.8653
  108SAPE    C111097   4.107   0.644   4.282 -0.2138 -0.4464  0.3018
  108SAPE    HA11098   4.069   0.576   4.361  0.2388  0.8014  1.6554
  108SAPE    HB11099   4.217   0.656   4.288 -0.1721 -0.9358  0.6240
  108SAPE    C211100   4.049   0.778   4.332 -0.3175  0.5507  0.0814
  108SAPE    HS11101   4.103   0.855   4.272 -0.7325 -0.3593 -1.5090
  108SAPE   O2111102   4.104   0.780   4.467  0.4652  0.0499 -0.0218
  108SAPE   C2111103   4.098   0.896   4.519 -0.6261 -0.4435 -0.1290
  108SAPE   O2211104   4.077   1.001   4.458  0.2334 -0.5620  0.3000
  108SAPE   C2211105   4.148   0.892   4.666 -0.2844  0.8265 -1.1602
  108SAPE   H2R11106   4.092   0.818   4.728  0.2796 -0.0836 -1.7078
  108SAPE   H2S11107   4.254   0.861   4.680 -0.1619  1.7091  0.0037
  108SAPE    C311108   3.898   0.798   4.327 -0.0952 -0.5971 -0.2377
  108SAPE    HX11109   3.881   0.823   4.220 -0.7942 -2.3175 -0.5532
  108SAPE    HY11110   3.869   0.886   4.389 -0.6627 -1.4327  0.7219
  108SAPE   O3111111   3.823   0.679   4.359  0.1028 -0.5620 -0.3065
  108SAPE   C3111112   3.777   0.684   4.492 -0.3370  0.5203 -0.0055
  108SAPE   O3211113   3.775   0.784   4.559  0.4340  0.5056 -0.2391
  108SAPE   C3211114   3.749   0.542   4.543 -0.3526  1.1022 -0.5222
  108SAPE   H2X11115   3.717   0.480   4.457 -1.3448  1.9875 -0.8071
  108SAPE   H2Y11116   3.668   0.555   4.618 -1.8635 -0.5099 -1.7997
  108SAPE   C2311117   4.141   1.031   4.734  0.2784  0.0736 -0.2057
  108SAPE   H3R11118   4.200   1.104   4.674 -2.3235  1.6761 -0.9963
  108SAPE   H3S11119   4.183   1.036   4.836 -0.0592  0.8782 -0.0935
  108SAPE   C2411120   3.997   1.085   4.748  0.4909 -0.1013 -0.4075
  108SAPE   H4R11121   3.965   1.116   4.646  1.0249  1.4049 -0.1263
  108SAPE   H4S11122   3.992   1.179   4.807 -0.2084 -0.3362 -0.0725
  108SAPE   C2511123   3.888   0.999   4.812 -0.1718  0.0398  0.5820
  108SAPE   H5R11124   3.799   0.966   4.756  1.0422 -0.5652 -1.0946
  108SAPE   C2611125   3.876   0.957   4.938 -0.4503  0.9525 -0.3190
  108SAPE   H6R11126   3.797   0.881   4.951  0.5920 -0.3177 -1.0920
  108SAPE   C2711127   3.975   0.967   5.054  0.2016  1.0996  0.6280
  108SAPE   H7R11128   4.080   0.974   5.021 -0.6598  0.5029 -2.5732
  108SAPE   H7S11129   3.966   0.872   5.111 -0.3473 -0.7473 -2.3039
  108SAPE   C2811130   3.958   1.079   5.147 -0.1183 -0.2046 -0.0553
  108SAPE   H8R11131   3.915   1.169   5.100 -0.8449 -0.6192 -0.1932
  108SAPE   C2911132   3.996   1.087   5.275 -0.2543 -0.2566  0.3294
  108SAPE   H9R11133   3.997   1.186   5.324  1.7133 -0.9081  1.7023
  108SAPE  C21011134   4.052   0.979   5.371  0.3393 -0.0593  0.0728
  108SAPE  H10R11135   4.126   1.030   5.435 -0.2318 -0.2216  0.8803
  108SAPE  H10S11136   4.108   0.896   5.323  1.7557  0.0329  1.4802
  108SAPE  C21111137   3.936   0.937   5.456 -0.4591 -0.4012 -0.0245
  108SAPE  H11R11138   3.883   0.853   5.409  2.7506 -2.4295 -0.3375
  108SAPE  C21211139   3.887   0.994   5.573 -0.6323 -0.6035 -0.5823
  108SAPE  H12R11140   3.792   0.960   5.617 -0.7591  0.9863  0.4810
  108SAPE  C21311141   3.944   1.110   5.652  0.1201  0.6112 -0.1133
  108SAPE  H13R11142   4.051   1.125   5.630  0.9752 -2.2331  1.5398
  108SAPE  H13S11143   3.931   1.077   5.758 -2.5413 -2.9935 -1.3430
  108SAPE  C21411144   3.876   1.242   5.628  1.0470  0.9103 -0.3172
  108SAPE  H14R11145   3.840   1.258   5.525  0.9822  1.3646 -0.2257
  108SAPE  C21511146   3.881   1.341   5.717  0.0504 -0.0718 -0.2359
  108SAPE  H15R11147   3.820   1.426   5.683 -0.7965 -0.2151  0.8443
  108SAPE  C21611148   3.932   1.341   5.861 -0.4182  0.5919 -0.0584
  108SAPE  H16R11149   3.973   1.242   5.890 -0.9208 -0.2946 -2.1701
  108SAPE  H16S11150   3.841   1.356   5.922 -1.8792 -1.9108 -1.4455
  108SAPE  C21711151   4.024   1.457   5.893  0.6905  0.2690  0.3542
  108SAPE  H17R11152   3.970   1.550   5.867 -2.3364 -1.8490 -1.6318
  108SAPE  H17S11153   4.109   1.456   5.821 -1.5055 -1.5523 -2.4494
  108SAPE  C21811154   4.092   1.451   6.027 -0.4887 -0.3228 -0.9369
  108SAPE  H18R11155   4.176   1.523   6.023 -0.0383 -0.7677 -0.0737
  108SAPE  H18S11156   4.133   1.350   6.053 -3.2307 -0.9507  1.5688
  108SAPE  C21911157   4.003   1.478   6.150 -0.0717 -0.5075  0.2753
  108SAPE  H19R11158   3.949   1.384   6.173  0.2880 -1.4500 -2.3731
  108SAPE  H19S11159   3.927   1.551   6.115 -1.5706 -1.0173  2.3147
  108SAPE  C22011160   4.080   1.528   6.271  0.6321  0.2080 -0.3953
  108SAPE  H20R11161   4.149   1.610   6.243 -0.6489  1.9780  1.3225
  108SAPE  H20S11162   4.118   1.448   6.339 -0.8465  0.3896  0.6830
  108SAPE  H20T11163   3.998   1.577   6.327  0.6340 -1.3802  1.0883
  108SAPE   C3311164   3.877   0.492   4.623 -0.5699  0.3038  0.1669
  108SAPE   H3X11165   3.959   0.492   4.548 -1.1095 -0.7331 -0.4589
  108SAPE   H3Y11166   3.854   0.385   4.645  0.3340 -0.0057 -0.3446
  108SAPE   C3411167   3.900   0.567   4.753  0.8019  0.4117  0.1295
  108SAPE   H4X11168   3.824   0.539   4.829  1.3225 -1.0735  0.1478
  108SAPE   H4Y11169   3.902   0.675   4.727  0.4808  0.1145 -1.2051
  108SAPE   C3511170   4.038   0.535   4.809  0.0082 -0.8225 -0.6543
  108SAPE   H5X11171   4.071   0.429   4.809 -0.0212 -0.8539  0.9358
  108SAPE   H5Y11172   4.113   0.582   4.741  0.3520 -2.0391 -1.1405
  108SAPE   C3611173   4.064   0.585   4.950 -0.1367  0.1962 -0.3373
  108SAPE   H6X11174   4.056   0.695   4.937  0.0331  0.7374  3.1046
  108SAPE   H6Y11175   4.169   0.560   4.975 -0.0031  0.2976 -0.7958
  108SAPE   C3711176   3.964   0.534   5.048 -0.3747 -0.1894 -0.2444
  108SAPE   H7X11177   3.958   0.423   5.047 -0.7413 -0.1783  0.4279
  108SAPE   H7Y11178   3.858   0.566   5.037 -0.5416  0.8826  3.2050
  108SAPE   C3811179   4.014   0.571   5.195  0.3773  0.6787 -0.5736
  108SAPE   H8X11180   4.037   0.679   5.191 -0.6649  0.9124 -0.5642
  108SAPE   H8Y11181   4.110   0.514   5.197 -0.1526 -0.2146  0.4354
  108SAPE   C3911182   3.921   0.517   5.313 -0.1460  0.0937  0.5488
  108SAPE   H9X11183   3.979   0.542   5.405 -3.7628 -2.3116  3.7837
  108SAPE   H9Y11184   3.910   0.407   5.317  1.1291 -0.0679  0.2164
  108SAPE  C31011185   3.788   0.584   5.325  0.8429 -0.1351 -0.1802
  108SAPE  H10X11186   3.720   0.539   5.250 -2.0278 -0.5724  2.4767
  108SAPE  H10Y11187   3.799   0.688   5.287  0.3983 -0.7278 -2.0394
  108SAPE  C31111188   3.726   0.566   5.462 -0.5682  0.4237 -0.4466
  108SAPE  H11X11189   3.799   0.602   5.537 -0.7062  1.2760 -0.7137
  108SAPE  H11Y11190   3.698   0.461   5.482 -0.9172  0.1383 -2.2404
  108SAPE  C31211191   3.610   0.662   5.493  0.4104  0.8083  0.2906
  108SAPE  H12X11192   3.641   0.768   5.486  0.1662  0.7811 -2.2546
  108SAPE  H12Y11193   3.589   0.644   5.601 -1.1476  0.4119 -0.0449
  108SAPE  C31311194   3.482   0.636   5.408  0.2105  0.3166  0.1905
  108SAPE  H13X11195   3.461   0.528   5.397  2.9526 -0.1109 -2.3289
  108SAPE  H13Y11196   3.498   0.677   5.306 -0.4105  1.2741  0.4626
  108SAPE  C31411197   3.361   0.704   5.464  0.4710  0.3737  0.2944
  108SAPE  H14X11198   3.273   0.687   5.399 -0.4630 -0.9291  1.8268
  108SAPE  H14Y11199   3.391   0.811   5.468  2.5130 -0.1135 -0.6009
  108SAPE  C31511200   3.315   0.662   5.606 -0.1020  0.6907  1.1407
  108SAPE  H15X11201   3.390   0.700   5.679  2.8390 -2.0681 -0.1941
  108SAPE  H15Y11202   3.305   0.552   5.617  2.6228  0.0442 -1.5733
  108SAPE  C31611203   3.174   0.713   5.635 -0.5422 -0.2280 -0.3613
  108SAPE  H16X11204   3.108   0.633   5.596  0.2041 -0.3612 -1.3758
  108SAPE  H16Y11205   3.152   0.805   5.577  0.6356 -0.5507 -1.3561
  108SAPE  C31711206   3.143   0.738   5.784 -0.5823 -0.1519  0.5146
  108SAPE  H17X11207   3.197   0.832   5.808 -0.9819  0.5506 -1.1983
  108SAPE  H17Y11208   3.191   0.654   5.838 -1.1721 -0.4749  0.5378
  108SAPE  C31811209   3.002   0.751   5.826  0.2866 -0.0023  0.6348
  108SAPE  H18X11210   2.964   0.833   5.761 -1.5586  0.7161  2.5193
  108SAPE  H18Y11211   2.978   0.784   5.929  3.1406  1.9061  0.8159
  108SAPE  H18Z11212   2.947   0.659   5.800  1.3426 -0.5200  0.1682
  109SAPE     N11213   5.223   4.733   3.909 -0.3798  0.1572  0.1094
  109SAPE   HN111214   5.225   4.818   3.848 -0.0623 -0.0764 -0.2057
  109SAPE   HN211215   5.323   4.714   3.932 -0.8982 -1.1757  1.4127
  109SAPE   HN311216   5.202   4.656   3.843  2.0487 -1.0357  0.6283
  109SAPE   C1211217   5.139   4.747   4.031  0.2136 -0.2551  0.0248
  109SAPE  H12A11218   5.167   4.842   4.082  0.9528 -0.5351  0.1669
  109SAPE  H12B11219   5.149   4.658   4.096  0.3069 -0.3979 -0.1834
  109SAPE   C1111220   4.988   4.747   3.990  0.1001  0.0279  0.4974
  109SAPE  H11A11221   4.928   4.746   4.084  0.6630 -0.1371  0.8611
  109SAPE  H11B11222   4.971   4.655   3.930  0.6041 -0.4575  1.0831
  109SAPE     P11223   4.862   4.978   3.916  0.5211  0.2696 -0.2647
  109SAPE   O1311224   4.941   5.100   3.928 -0.3253 -0.0499  0.2572
  109SAPE   O1411225   4.755   4.964   3.819  1.0200  0.2534 -0.0340
  109SAPE   O1211226   4.962   4.862   3.901  0.2605 -0.7520  0.2397
  109SAPE   O1111227   4.797   4.949   4.056  0.0351  0.4337 -0.7991
  109SAPE    C111228   4.846   5.022   4.171 -0.1359  0.1234  0.0571
  109SAPE    HA11229   4.957   5.023   4.179 -0.0969 -3.1831  1.2461
  109SAPE    HB11230   4.818   5.130   4.175 -0.7971 -0.0528  0.3624
  109SAPE    C211231   4.798   4.959   4.304  0.1549  0.2134 -0.4417
  109SAPE    HS11232   4.807   5.046   4.372 -0.4404 -0.1630  0.1259
  109SAPE   O2111233   4.879   4.841   4.338 -0.2546 -0.6405 -0.6406
  109SAPE   C2111234   4.918   4.843   4.461  0.1705 -0.8216  0.2101
  109SAPE   O2211235   4.912   4.933   4.546  0.8165 -0.3233 -0.2377
  109SAPE   C2211236   4.974   4.708   4.483  0.4220 -0.1037  0.3175
  109SAPE   H2R11237   4.925   4.631   4.421  1.3528 -0.4651  0.0087
  109SAPE   H2S11238   5.082   4.709   4.458  0.1368  1.1474 -0.9380
  109SAPE    C311239   4.648   4.926   4.309 -0.0263 -0.5403 -0.1505
  109SAPE    HX11240   4.623   4.850   4.232 -0.1461 -0.5011 -0.1506
  109SAPE    HY11241   4.583   5.010   4.275 -0.6420  0.0736  2.2893
  109SAPE   O3111242   4.606   4.876   4.439 -0.3802 -0.1901 -0.6691
  109SAPE   C3111243   4.586   4.969   4.526  0.9719  0.0392 -0.0089
  109SAPE   O3211244   4.569   5.090   4.500 -0.0709  0.2681  0.6395
  109SAPE   C3211245   4.583   4.904   4.667  1.0295 -0.5166 -0.5633
  109SAPE   H2X11246   4.684   4.858   4.673  0.1856 -2.7076 -1.8831
  109SAPE   H2Y11247   4.511   4.820   4.677 -1.6441  1.7484  0.8051
  109SAPE   C2311248   4.961   4.666   4.633 -0.6060 -0.1052 -0.5854
  109SAPE   H3R11249   4.854   4.667   4.663 -0.7349 -2.9485 -0.6413
  109SAPE   H3S11250   5.013   4.742   4.694 -2.8136 -0.1326  1.4624
  109SAPE   C2411251   4.990   4.513   4.664 -0.3094 -0.2432  0.4026
  109SAPE   H4R11252   4.944   4.441   4.592  1.6119 -1.5227  0.3670
  109SAPE   H4S11253   4.940   4.497   4.762 -0.6392 -1.0104  0.1212
  109SAPE   C2511254   5.139   4.480   4.679 -0.7453  0.3075  0.2711
  109SAPE   H5R11255   5.196   4.473   4.585  0.1012  0.1108  0.7827
  109SAPE   C2611256   5.204   4.453   4.790  0.9413  0.5519  0.4641
  109SAPE   H6R11257   5.308   4.424   4.772  0.8542  0.3096  0.3445
  109SAPE   C2711258   5.148   4.464   4.927  0.0388 -0.4906 -0.1062
  109SAPE   H7R11259   5.120   4.364   4.967 -2.6320  0.0138 -0.4723
  109SAPE   H7S11260   5.045   4.504   4.938  0.3074  0.3995 -0.7468
  109SAPE   C2811261   5.244   4.545   5.013  0.0899 -0.2349 -0.0583
  109SAPE   H8R11262   5.265   4.647   4.977  0.4803 -0.0801  0.5864
  109SAPE   C2911263   5.334   4.506   5.106 -0.1004  0.2096  0.9095
  109SAPE   H9R11264   5.401   4.581   5.150 -1.3523  2.5433 -0.9478
  109SAPE  C21011265   5.354   4.362   5.157 -0.8207 -0.4031 -0.3325
  109SAPE  H10R11266   5.436   4.315   5.098 -0.6102 -0.2106 -0.1965
  109SAPE  H10S11267   5.262   4.306   5.131 -1.0556  0.8181 -2.3423
  109SAPE  C21111268   5.379   4.356   5.309  0.1646 -0.6050  0.3651
  109SAPE  H11R11269   5.301   4.405   5.369  1.8459  1.0301  1.3327
  109SAPE  C21211270   5.488   4.306   5.365  1.0600 -0.4005 -0.0212
  109SAPE  H12R11271   5.495   4.318   5.474 -2.6509  0.6108  0.2302
  109SAPE  C21311272   5.604   4.230   5.301  0.2383 -0.0612 -0.2850
  109SAPE  H13R11273   5.567   4.177   5.211  0.2157 -2.8402  1.2531
  109SAPE  H13S11274   5.642   4.148   5.366 -0.7515  0.4693  1.0169
  109SAPE  C21411275   5.707   4.330   5.249  0.6051 -0.0638 -0.2771
  109SAPE  H14R11276   5.676   4.381   5.157  0.5573 -1.7166 -1.2239
  109SAPE  C21511277   5.828   4.353   5.303 -0.1088  0.2223 -0.3905
  109SAPE  H15R11278   5.911   4.406   5.253  0.7464  1.1696  1.8869
  109SAPE  C21611279   5.880   4.286   5.430 -0.0880 -0.2423 -0.0284
  109SAPE  H16R11280   5.979   4.241   5.408 -0.4010 -1.8669  1.7006
  109SAPE  H16S11281   5.821   4.194   5.450 -0.7722  0.0805 -0.5252
  109SAPE  C21711282   5.899   4.373   5.561 -0.2426 -0.4290 -0.1346
  109SAPE  H17R11283   5.976   4.450   5.540 -1.2641  0.5713 -0.2827
  109SAPE  H17S11284   5.928   4.304   5.643 -1.4319  0.8571  1.4315
  109SAPE  C21811285   5.772   4.443   5.617 -0.1641 -0.2475 -0.6241
  109SAPE  H18R11286   5.696   4.375   5.663 -1.4512  2.3676  1.3483
  109SAPE  H18S11287   5.715   4.474   5.527 -0.4076 -1.1753 -0.8088
  109SAPE  C21911288   5.787   4.556   5.714 -0.1010  0.0608  0.0535
  109SAPE  H19R11289   5.872   4.525   5.778 -0.7093  1.2618  1.5074
  109SAPE  H19S11290   5.691   4.562   5.770 -0.4738 -0.1401 -0.5512
  109SAPE  C22011291   5.818   4.689   5.643 -0.4230  0.3333  0.3617
  109SAPE  H20R11292   5.732   4.758   5.628  0.8518  2.0616  0.7886
  109SAPE  H20S11293   5.870   4.676   5.546  0.1246  1.5819  0.4660
  109SAPE  H20T11294   5.881   4.748   5.713  1.0173 -0.9179  0.1634
  109SAPE   C3311295   4.560   5.007   4.788  0.9774  0.2687  0.3775
  109SAPE   H3X11296   4.534   4.945   4.876 -2.8066  1.0998  0.0340
  109SAPE   H3Y11297   4.473   5.067   4.755 -0.1253 -2.5088 -2.1328
  109SAPE   C3411298   4.683   5.094   4.794 -0.9051 -0.0364 -0.2008
  109SAPE   H4X11299   4.691   5.167   4.710  1.3646 -0.8590 -0.7825
  109SAPE   H4Y11300   4.770   5.026   4.779 -0.3449  0.8073 -0.8805
  109SAPE   C3511301   4.686   5.175   4.922 -0.3416  0.8845 -0.1737
  109SAPE   H5X11302   4.596   5.240   4.927 -0.6355  0.9066 -3.5402
  109SAPE   H5Y11303   4.777   5.237   4.927 -1.3090  2.3009  0.7506
  109SAPE   C3611304   4.686   5.079   5.047  0.5717 -0.0645 -0.6000
  109SAPE   H6X11305   4.765   5.004   5.025  0.2906  0.0475 -2.0264
  109SAPE   H6Y11306   4.587   5.037   5.073  1.2062  0.3165  3.0622
  109SAPE   C3711307   4.744   5.158   5.172  0.3384 -0.8846  0.0587
  109SAPE   H7X11308   4.689   5.254   5.166  0.5237 -0.7499  0.4636
  109SAPE   H7Y11309   4.854   5.174   5.164  0.5149 -2.3560 -0.8681
  109SAPE   C3811310   4.705   5.090   5.302  0.5309 -0.3460  0.1139
  109SAPE   H8X11311   4.769   5.000   5.316  2.0633  0.7858  0.7408
  109SAPE   H8Y11312   4.599   5.058   5.290  1.4116 -2.7665 -2.4034
  109SAPE   C3911313   4.709   5.195   5.416  0.0108  0.3702  0.4092
  109SAPE   H9X11314   4.630   5.267   5.389 -1.6842 -1.7649 -0.6019
  109SAPE   H9Y11315   4.813   5.235   5.416  0.0801  0.2170  1.4729
  109SAPE  C31011316   4.687   5.142   5.556 -0.0535 -0.1106  0.1654
  109SAPE  H10X11317   4.583   5.114   5.583  0.4952 -0.7531  1.6869
  109SAPE  H10Y11318   4.715   5.229   5.620 -1.0331  2.1277 -2.2306
  109SAPE  C31111319   4.786   5.032   5.598 -1.3632  0.4027  0.0697
  109SAPE  H11X11320   4.885   5.076   5.574 -0.9877  1.5088  3.2507
  109SAPE  H11Y11321   4.764   4.943   5.534  1.6896  0.4118 -1.1955
  109SAPE  C31211322   4.774   4.988   5.741  0.2129  0.2555  0.4314
  109SAPE  H12X11323   4.669   4.959   5.767 -0.4170  1.2191 -0.9053
  109SAPE  H12Y11324   4.796   5.070   5.813 -1.4452  0.1589  1.1137
  109SAPE  C31311325   4.862   4.860   5.775  0.3288  0.2675 -0.7374
  109SAPE  H13X11326   4.968   4.882   5.751  0.5737  0.6007  0.5589
  109SAPE  H13Y11327   4.832   4.773   5.713 -0.2303  0.4978 -0.7881
  109SAPE  C31411328   4.851   4.822   5.925  0.1034  0.2193 -0.8294
  109SAPE  H14X11329   4.745   4.814   5.958 -0.5918 -1.4640 -3.2221
  109SAPE  H14Y11330   4.903   4.904   5.980  0.9069 -0.5177 -0.4694
  109SAPE  C31511331   4.909   4.689   5.975  0.2200  0.2687 -0.0074
  109SAPE  H15X11332   4.838   4.606   5.953  1.8307 -0.8999 -0.9862
  109SAPE  H15Y11333   4.917   4.684   6.086 -0.0408 -0.3734 -0.0092
  109SAPE  C31611334   5.044   4.644   5.911  0.4560  0.6429 -0.7980
  109SAPE  H16X11335   5.110   4.733   5.897 -1.2805  1.8018 -2.0294
  109SAPE  H16Y11336   5.008   4.600   5.816 -3.6084  2.6349 -0.3891
  109SAPE  C31711337   5.122   4.554   6.005  0.5035  0.3314  0.2463
  109SAPE  H17X11338   5.078   4.455   6.028  1.8091  0.0261  1.5986
  109SAPE  H17Y11339   5.122   4.608   6.102 -3.8881  2.2463 -0.5723
  109SAPE  C31811340   5.274   4.539   5.960  0.1078 -0.3311 -0.1665
  109SAPE  H18X11341   5.283   4.495   5.859  3.9214  0.9658 -0.5626
  109SAPE  H18Y11342   5.321   4.469   6.031  0.7017  1.3967  1.2258
  109SAPE  H18Z11343   5.334   4.632   5.950 -1.6735  0.6503 -3.2159
  110SAPE     N11344   3.757   1.302   4.116  0.3807  0.4315 -0.6097
  110SAPE   HN111345   3.834   1.274   4.052 -0.0176  1.2830 -1.4961
  110SAPE   HN211346   3.795   1.341   4.205  0.6348  1.1208 -1.0121
  110SAPE   HN311347   3.704   1.214   4.132 -3.8989  2.3216 -2.7499
  110SAPE   C1211348   3.656   1.388   4.033 -0.3883  0.1363  0.0268
  110SAPE  H12A11349   3.619   1.342   3.939 -1.9970  1.5448 -0.0704
  110SAPE  H12B11350   3.719   1.479   4.024  2.2993 -1.2478  2.8361
  110SAPE   C1111351   3.540   1.418   4.126  0.3579 -0.3950 -0.4532
  110SAPE  H11A11352   3.477   1.499   4.085  2.9435  0.7893 -2.3599
  110SAPE  H11B11353   3.578   1.451   4.225  1.9420  1.4984 -1.6071
  110SAPE     P11354   3.324   1.297   4.221 -0.0821  0.6236 -0.2166
  110SAPE   O1311355   3.244   1.415   4.185  0.5113 -0.0092  0.0890
  110SAPE   O1411356   3.260   1.165   4.202  0.2225  0.4657 -0.4624
  110SAPE   O1211357   3.464   1.293   4.135 -0.2889 -1.5204 -0.2831
  110SAPE   O1111358   3.378   1.317   4.367  0.0969 -0.1646  0.2500
  110SAPE    C111359   3.483   1.248   4.431  0.1103 -0.6774 -0.3907
  110SAPE    HA11360   3.577   1.238   4.372  1.4588 -1.4529  1.7816
  110SAPE    HB11361   3.519   1.314   4.512  0.7445 -0.5071 -0.7947
  110SAPE    C211362   3.454   1.105   4.480 -0.4473 -0.1198  0.1082
  110SAPE    HS11363   3.450   1.055   4.380 -0.1844  1.6731 -0.8486
  110SAPE   O2111364   3.331   1.095   4.549 -0.2422 -0.1276  0.2937
  110SAPE   C2111365   3.276   0.978   4.543  0.5026 -0.0182  0.0756
  110SAPE   O2211366   3.311   0.883   4.478 -0.1416 -0.0575 -0.7491
  110SAPE   C2211367   3.146   0.985   4.619  1.4799  0.1966  0.1282
  110SAPE   H2R11368   3.101   1.086   4.631 -0.2993 -0.2284 -2.1300
  110SAPE   H2S11369   3.080   0.926   4.550  0.1665  0.3837  1.1828
  110SAPE    C311370   3.576   1.049   4.554  0.4237  0.2544 -0.9814
  110SAPE    HX11371   3.568   0.939   4.546  1.9094 -0.0058  0.5496
  110SAPE    HY11372   3.673   1.068   4.503 -0.2993 -0.6277 -2.8059
  110SAPE   O3111373   3.572   1.100   4.695  0.4739 -0.5996 -0.2497
  110SAPE   C3111374   3.656   1.198   4.717 -0.5160  0.4076 -0.3608
  110SAPE   O3211375   3.727   1.255   4.633  0.3793  0.0159  0.0185
  110SAPE   C3211376   3.651   1.226   4.870  0.4819  0.1082 -0.6680
  110SAPE   H2X11377   3.713   1.156   4.930  0.1430 -0.4102 -0.9192
  110SAPE   H2Y11378   3.545   1.226   4.903  1.2587  1.3494  2.1546
  110SAPE   C2311379   3.151   0.911   4.757  0.1058  0.0631  0.4635
  110SAPE   H3R11380   3.204   0.813   4.751  1.7606  1.0026 -1.5912
  110SAPE   H3S11381   3.048   0.880   4.785  0.5064 -2.2806 -0.3743
  110SAPE   C2411382   3.215   0.993   4.863  0.3404 -0.1117  0.0321
  110SAPE   H4R11383   3.150   1.084   4.869 -0.6684 -0.9053  2.1663
  110SAPE   H4S11384   3.311   1.025   4.818 -0.3613  0.1964 -1.3276
  110SAPE   C2511385   3.230   0.923   4.989  0.1964  0.1067  0.1739
  110SAPE   H5R11386   3.144   0.864   5.023  1.5099 -1.3272  1.1709
  110SAPE   C2611387   3.341   0.923   5.071  0.2857 -0.0395  0.6968
  110SAPE   H6R11388   3.340   0.856   5.158  0.0029  1.3353  1.7860
  110SAPE   C2711389   3.471   0.995   5.042  0.5702 -0.0463  0.7439
  110SAPE   H7R11390   3.450   1.102   5.058  1.2988 -0.0473  1.8646
  110SAPE   H7S11391   3.502   0.975   4.937  0.8941 -0.4692  0.9121
  110SAPE   C2811392   3.583   0.975   5.144 -0.5662 -0.3479 -0.3645
  110SAPE   H8R11393   3.674   0.929   5.103  0.5978  0.4662  1.2139
  110SAPE   C2911394   3.591   1.016   5.272  0.4882 -0.1114 -0.0864
  110SAPE   H9R11395   3.683   0.996   5.327  1.0529  0.5937 -0.7445
  110SAPE  C21011396   3.485   1.099   5.347  0.2978  0.8917  0.2724
  110SAPE  H10R11397   3.391   1.041   5.339 -1.0043  2.7025  1.7913
  110SAPE  H10S11398   3.465   1.194   5.293 -0.3721  0.0951 -0.9314
  110SAPE  C21111399   3.516   1.114   5.497  0.4754  0.2430  0.2087
  110SAPE  H11R11400   3.623   1.089   5.511  0.4358 -0.8925 -1.1994
  110SAPE  C21211401   3.430   1.137   5.600 -0.4465 -0.0859 -0.4118
  110SAPE  H12R11402   3.468   1.157   5.701  1.2750  2.2354 -1.4318
  110SAPE  C21311403   3.284   1.175   5.595 -0.0973 -0.1187 -0.3652
  110SAPE  H13R11404   3.248   1.160   5.491 -0.9042 -1.2493  0.0574
  110SAPE  H13S11405   3.282   1.286   5.607  2.0405 -0.2253  1.8338
  110SAPE  C21411406   3.195   1.101   5.694  0.4382 -0.2073 -0.0525
  110SAPE  H14R11407   3.231   1.005   5.733 -2.2930 -1.1369  0.4273
  110SAPE  C21511408   3.065   1.141   5.735 -0.4127 -0.4969  0.2110
  110SAPE  H15R11409   3.015   1.105   5.826 -0.8123  1.0626  0.6362
  110SAPE  C21611410   3.001   1.261   5.678  0.0281 -0.5035 -0.8268
  110SAPE  H16R11411   2.898   1.225   5.658 -0.2989 -1.2988  1.8884
  110SAPE  H16S11412   3.046   1.286   5.580  1.2669  2.2926  0.3349
  110SAPE  C21711413   2.999   1.388   5.766 -0.4698 -0.0150  0.3013
  110SAPE  H17R11414   2.995   1.471   5.692  0.9240  0.9428  1.2404
  110SAPE  H17S11415   3.089   1.411   5.827  0.2012 -0.9441 -0.3043
  110SAPE  C21811416   2.869   1.406   5.850  0.1568 -0.6046  0.6087
  110SAPE  H18R11417   2.889   1.351   5.944 -0.6037  0.5032  1.4423
  110SAPE  H18S11418   2.778   1.368   5.798  0.2457 -1.3771  1.0069
  110SAPE  C21911419   2.838   1.553   5.899 -0.0229 -0.2336  0.3827
  110SAPE  H19R11420   2.748   1.559   5.964  0.1792  0.8729  0.5835
  110SAPE  H19S11421   2.823   1.615   5.809 -0.9587 -0.1028  0.6218
  110SAPE  C22011422   2.954   1.625   5.968 -0.2254 -0.3397  0.2519
  110SAPE  H20R11423   2.989   1.563   6.053 -1.2263 -2.8195 -1.0354
  110SAPE  H20S11424   2.929   1.731   5.993  2.8784  0.7359 -0.7825
  110SAPE  H20T11425   3.043   1.638   5.902  2.0638 -2.4500  2.7109
  110SAPE   C3311426   3.687   1.384   4.906 -1.1867 -0.1998  0.3647
  110SAPE   H3X11427   3.625   1.440   4.833  0.5412  1.7106  0.2861
  110SAPE   H3Y11428   3.794   1.396   4.877 -1.7210 -0.3116 -1.8424
  110SAPE   C3411429   3.652   1.441   5.041 -0.1917 -0.1586  0.3119
  110SAPE   H4X11430   3.548   1.423   5.073 -0.0392 -0.1711  0.8000
  110SAPE   H4Y11431   3.672   1.550   5.041  1.2211 -0.3288  3.4529
  110SAPE   C3511432   3.756   1.376   5.128  0.0523  0.0057  0.1947
  110SAPE   H5X11433   3.854   1.398   5.081 -0.5819 -4.0789 -3.6139
  110SAPE   H5Y11434   3.739   1.267   5.122 -0.9231  0.2114 -1.0519
  110SAPE   C3611435   3.755   1.410   5.277  0.0733  0.0084 -0.0321
  110SAPE   H6X11436   3.832   1.343   5.322  1.0733  1.0550 -0.1532
  110SAPE   H6Y11437   3.655   1.389   5.323 -0.4860  1.9546 -0.2824
  110SAPE   C3711438   3.796   1.554   5.308  0.1066 -0.1758  0.4747
  110SAPE   H7X11439   3.723   1.630   5.272  1.4816  0.9027 -0.1786
  110SAPE   H7Y11440   3.887   1.570   5.246 -1.6627  0.6514 -2.1155
  110SAPE   C3811441   3.809   1.579   5.453  0.7030  0.1623  0.1541
  110SAPE   H8X11442   3.848   1.486   5.498  0.1817 -0.4520 -0.6463
  110SAPE   H8Y11443   3.708   1.606   5.493 -0.4704 -2.5141 -0.7933
  110SAPE   C3911444   3.895   1.697   5.481 -0.1989  0.4802  0.7981
  110SAPE   H9X11445   3.853   1.797   5.456  1.2516  0.8342 -0.4232
  110SAPE   H9Y11446   3.987   1.695   5.419 -0.9549  0.6368 -0.3596
  110SAPE  C31011447   3.948   1.714   5.627  0.4464  0.0546 -0.6870
  110SAPE  H10X11448   4.018   1.800   5.626 -0.7969  1.1443  1.1788
  110SAPE  H10Y11449   4.011   1.627   5.656 -1.5645 -1.2630 -0.1140
  110SAPE  C31111450   3.838   1.746   5.730  0.8381  0.9326  0.2892
  110SAPE  H11X11451   3.787   1.648   5.746 -0.5727  1.1097 -2.4318
  110SAPE  H11Y11452   3.758   1.811   5.689 -0.0661 -0.8418 -0.8891
  110SAPE  C31211453   3.887   1.820   5.851 -0.5015 -0.9838 -0.3584
  110SAPE  H12X11454   3.901   1.929   5.830 -1.5103 -0.3128  2.1024
  110SAPE  H12Y11455   3.990   1.785   5.871  0.2781  0.5038 -1.4922
  110SAPE  C31311456   3.799   1.800   5.974 -0.0848 -0.2851  0.1858
  110SAPE  H13X11457   3.815   1.707   6.033 -0.7649 -0.9420 -0.6437
  110SAPE  H13Y11458   3.692   1.791   5.945  0.0280  0.8273 -0.6718
  110SAPE  C31411459   3.803   1.925   6.064  0.2940 -0.2185  0.8671
  110SAPE  H14X11460   3.762   2.017   6.017  2.1151  0.8105  1.1862
  110SAPE  H14Y11461   3.911   1.946   6.082  0.4939 -1.0238  0.6613
  110SAPE  C31511462   3.717   1.917   6.190 -0.4421  1.2571 -0.4825
  110SAPE  H15X11463   3.614   1.878   6.174 -0.4054  0.5790  0.7841
  110SAPE  H15Y11464   3.704   2.020   6.231 -1.1847  0.5450  1.2062
  110SAPE  C31611465   3.787   1.831   6.296  0.8484 -0.2602 -0.1406
  110SAPE  H16X11466   3.890   1.866   6.319 -0.2659  1.6919  2.2344
  110SAPE  H16Y11467   3.795   1.728   6.254 -0.6518 -0.9150  1.0798
  110SAPE  C31711468   3.716   1.810   6.432 -0.5518  0.0828 -0.3708
  110SAPE  H17X11469   3.726   1.903   6.492  2.1351 -1.1449  1.2802
  110SAPE  H17Y11470   3.770   1.735   6.493  1.2882  2.6047  1.3226
  110SAPE  C31811471   3.566   1.775   6.434 -0.1809 -0.5651 -0.6337
  110SAPE  H18X11472   3.533   1.766   6.540 -2.8576 -2.5738 -1.5320
  110SAPE  H18Y11473   3.537   1.678   6.387  2.4545 -2.7793  1.9305
  110SAPE  H18Z11474   3.505   1.852   6.382  1.7467  1.5204  0.0302
  111SAPE     N11475   4.580   2.595   3.792 -0.2390 -0.3636  0.0385
  111SAPE   HN111476   4.484   2.565   3.767  0.4219 -0.6817 -2.4903
  111SAPE   HN211477   4.628   2.522   3.847 -1.1574 -0.9081  0.1313
  111SAPE   HN311478   4.575   2.686   3.841 -1.4026  0.7472 -1.9946
  111SAPE   C1211479   4.661   2.625   3.662  0.3315  0.4669 -1.0615
  111SAPE  H12A11480   4.734   2.704   3.691 -0.9446  0.2041  3.7306
  111SAPE  H12B11481   4.591   2.662   3.584  0.8650  0.6332 -1.4681
  111SAPE   C1111482   4.732   2.484   3.622 -0.8774 -0.3366 -0.3205
  111SAPE  H11A11483   4.767   2.499   3.518 -0.3969 -2.1095 -0.4428
  111SAPE  H11B11484   4.663   2.398   3.608 -2.0264  0.9514 -3.3641
  111SAPE     P11485   4.847   2.360   3.829  0.0546 -0.5080  0.3854
  111SAPE   O1311486   4.719   2.401   3.895  0.5077 -0.0589 -0.2269
  111SAPE   O1411487   4.881   2.218   3.808  0.2740 -0.0015  0.4223
  111SAPE   O1211488   4.848   2.462   3.706  0.1638 -0.5080 -0.0113
  111SAPE   O1111489   4.957   2.435   3.908 -0.2676 -0.3928 -0.3692
  111SAPE    C111490   4.956   2.574   3.919 -0.1155 -0.7834 -0.0904
  111SAPE    HA11491   5.037   2.618   3.857 -1.2356  1.6571  0.0764
  111SAPE    HB11492   4.861   2.622   3.887 -0.5125 -0.1081  1.9500
  111SAPE    C211493   4.974   2.624   4.065 -0.8014 -0.2657 -0.3337
  111SAPE    HS11494   5.058   2.567   4.110 -2.2968 -0.6173  2.1999
  111SAPE   O2111495   4.851   2.598   4.142 -0.3585 -0.4150  0.0392
  111SAPE   C2111496   4.863   2.495   4.225  0.4286  0.4869  0.5444
  111SAPE   O2211497   4.963   2.431   4.257  0.6604  0.0224 -0.3453
  111SAPE   C2211498   4.723   2.460   4.281  0.3403  0.3980 -0.0183
  111SAPE   H2R11499   4.694   2.549   4.340 -1.1134  1.6677 -2.4806
  111SAPE   H2S11500   4.658   2.452   4.191  0.8473  1.8942 -0.5498
  111SAPE    C311501   5.014   2.778   4.067  0.1704 -0.3434 -0.5497
  111SAPE    HX11502   4.923   2.836   4.040  0.7608  0.7586 -0.2257
  111SAPE    HY11503   5.081   2.787   3.978  0.2788 -0.5589 -0.4920
  111SAPE   O3111504   5.076   2.808   4.190  0.2873 -0.8335  1.0774
  111SAPE   C3111505   5.064   2.937   4.230 -0.1518  0.5808  0.3012
  111SAPE   O3211506   5.023   3.031   4.166  0.3022 -0.1727 -0.1772
  111SAPE   C3211507   5.095   2.931   4.373 -0.9184  0.4081 -0.3269
  111SAPE   H2X11508   5.205   2.912   4.380 -1.0542 -0.3297 -0.0952
  111SAPE   H2Y11509   5.041   2.842   4.412  0.8044 -1.4707 -1.9826
  111SAPE   C2311510   4.726   2.334   4.372 -0.7990 -0.1795  0.7421
  111SAPE   H3R11511   4.792   2.364   4.456 -2.2863  2.0128  1.2307
  111SAPE   H3S11512   4.773   2.250   4.317 -0.1757 -1.7075  3.4320
  111SAPE   C2411513   4.579   2.287   4.407 -0.5749  0.2263  0.1097
  111SAPE   H4R11514   4.533   2.258   4.310  0.1011  0.6579 -0.3476
  111SAPE   H4S11515   4.527   2.380   4.438 -0.6938 -0.3413  1.6952
  111SAPE   C2511516   4.585   2.179   4.511  0.1707  0.3195 -0.0598
  111SAPE   H5R11517   4.592   2.077   4.470  1.5166 -0.5934  2.2614
  111SAPE   C2611518   4.595   2.202   4.646 -0.3096 -0.1347  0.6843
  111SAPE   H6R11519   4.610   2.110   4.704  1.0426 -0.3520  0.0342
  111SAPE   C2711520   4.568   2.331   4.723  0.3771 -0.2168  0.3289
  111SAPE   H7R11521   4.489   2.306   4.797  0.8170 -0.5664  0.6915
  111SAPE   H7S11522   4.527   2.404   4.650 -0.3516 -1.1000 -0.1705
  111SAPE   C2811523   4.697   2.382   4.794 -0.3364 -0.1016 -0.6625
  111SAPE   H8R11524   4.785   2.370   4.730  0.4549 -1.0457  0.5675
  111SAPE   C2911525   4.707   2.427   4.922 -0.4711 -0.7224  0.0247
  111SAPE   H9R11526   4.808   2.466   4.946 -0.7231  2.3283 -3.0849
  111SAPE  C21011527   4.596   2.446   5.023  0.1127  0.4325  0.2624
  111SAPE  H10R11528   4.510   2.485   4.964  0.8533  1.1899 -0.3408
  111SAPE  H10S11529   4.616   2.527   5.096  1.4143 -1.9728  2.7227
  111SAPE  C21111530   4.562   2.319   5.103 -0.6115  0.2466  0.6228
  111SAPE  H11R11531   4.533   2.232   5.042 -1.4567  0.1277  1.1797
  111SAPE  C21211532   4.554   2.309   5.237 -0.4606  0.5651  0.1602
  111SAPE  H12R11533   4.515   2.217   5.283 -0.3847  1.7328  2.7142
  111SAPE  C21311534   4.583   2.419   5.333 -0.2978 -0.1042 -0.0551
  111SAPE  H13R11535   4.522   2.403   5.424 -0.6491  0.4364 -0.1900
  111SAPE  H13S11536   4.537   2.508   5.284 -0.4331 -0.7735 -1.2034
  111SAPE  C21411537   4.724   2.451   5.381 -0.2199  0.1056 -0.0494
  111SAPE  H14R11538   4.786   2.360   5.371 -0.2540 -0.1654  1.8728
  111SAPE  C21511539   4.774   2.566   5.440  0.1626 -0.2114 -0.4558
  111SAPE  H15R11540   4.879   2.575   5.471  0.1895 -1.0703 -0.2914
  111SAPE  C21611541   4.691   2.689   5.471  0.3778  0.2316  0.3152
  111SAPE  H16R11542   4.592   2.695   5.421  1.0126  1.5934 -0.8634
  111SAPE  H16S11543   4.750   2.781   5.452 -0.5102  0.7061 -0.1841
  111SAPE  C21711544   4.657   2.691   5.622 -0.0883  0.1684  0.2697
  111SAPE  H17R11545   4.604   2.597   5.650 -0.0850  0.0800 -0.0154
  111SAPE  H17S11546   4.579   2.764   5.654  1.2005  0.7768  2.2174
  111SAPE  C21811547   4.778   2.696   5.722 -0.4303  0.2481  0.2083
  111SAPE  H18R11548   4.823   2.797   5.713 -0.9334  0.7701  2.7658
  111SAPE  H18S11549   4.859   2.624   5.695 -1.7386 -1.2075  0.0160
  111SAPE  C21911550   4.737   2.669   5.873 -0.2702  0.6741 -0.0330
  111SAPE  H19R11551   4.700   2.566   5.893 -0.6395  0.6637 -0.7417
  111SAPE  H19S11552   4.650   2.736   5.887 -1.6662 -0.7761 -1.2857
  111SAPE  C22011553   4.859   2.698   5.962 -0.0913  0.7119  0.7769
  111SAPE  H20R11554   4.892   2.804   5.965  2.7709 -0.0881  0.8537
  111SAPE  H20S11555   4.949   2.641   5.927 -0.3591  0.3165  0.7282
  111SAPE  H20T11556   4.836   2.675   6.068  2.3905 -1.6082  0.9296
  111SAPE   C3311557   5.054   3.061   4.453 -0.1538  0.2056 -0.5895
  111SAPE   H3X11558   4.943   3.065   4.451 -0.1950 -0.9197 -1.7496
  111SAPE   H3Y11559   5.100   3.151   4.407  2.2733 -0.4998  0.3232
  111SAPE   C3411560   5.083   3.041   4.608  0.1768  0.2056  0.3825
  111SAPE   H4X11561   5.194   3.037   4.606  0.1405 -2.4476  0.1528
  111SAPE   H4Y11562   5.052   2.938   4.638 -0.2441  0.0597 -0.5082
  111SAPE   C3511563   5.013   3.139   4.708  0.1548  0.0256  0.4485
  111SAPE   H5X11564   4.908   3.102   4.701 -1.1004  2.7555  2.5802
  111SAPE   H5Y11565   5.014   3.238   4.658  1.1615 -0.9013 -1.4538
  111SAPE   C3611566   5.065   3.126   4.853  0.0697  0.5525 -0.1635
  111SAPE   H6X11567   5.174   3.105   4.851 -0.1355 -0.7571  0.9063
  111SAPE   H6Y11568   5.013   3.042   4.904  0.9080 -0.1097 -0.3845
  111SAPE   C3711569   5.049   3.239   4.948 -0.2934 -0.3198  0.0119
  111SAPE   H7X11570   4.946   3.282   4.946  0.3226  1.4142  1.8369
  111SAPE   H7Y11571   5.126   3.312   4.912 -0.6106  0.4875  0.9218
  111SAPE   C3811572   5.060   3.193   5.095 -0.3414 -0.3199 -0.2543
  111SAPE   H8X11573   5.155   3.136   5.105 -0.9012 -1.0323  1.4593
  111SAPE   H8Y11574   4.977   3.124   5.121  1.4215 -2.3529  0.3654
  111SAPE   C3911575   5.058   3.315   5.194 -0.7475 -0.7539  0.5567
  111SAPE   H9X11576   4.956   3.357   5.181  0.2458  1.0639 -2.2642
  111SAPE   H9Y11577   5.120   3.400   5.157 -1.3312 -0.8760 -0.7503
  111SAPE  C31011578   5.073   3.272   5.344 -0.2872  0.5081  0.1977
  111SAPE  H10X11579   5.170   3.219   5.353 -0.8548 -0.9254 -1.4810
  111SAPE  H10Y11580   4.989   3.200   5.355  1.0115 -1.1013 -0.1507
  111SAPE  C31111581   5.063   3.388   5.440 -0.4451  0.1797 -0.1632
  111SAPE  H11X11582   4.958   3.423   5.434 -0.5460  0.0548  0.7974
  111SAPE  H11Y11583   5.133   3.468   5.408 -1.8138  0.5608 -2.4745
  111SAPE  C31211584   5.085   3.348   5.589  0.1454 -0.0770  0.0992
  111SAPE  H12X11585   5.175   3.283   5.595 -0.8492 -1.5202 -0.1970
  111SAPE  H12Y11586   4.994   3.296   5.624  1.7277 -2.1443  1.3789
  111SAPE  C31311587   5.101   3.470   5.682 -0.3120  0.1670  0.2049
  111SAPE  H13X11588   5.033   3.542   5.631 -1.7406 -1.0019  0.4224
  111SAPE  H13Y11589   5.208   3.499   5.678  0.9745 -4.1373 -1.3184
  111SAPE  C31411590   5.073   3.446   5.836  0.7484 -0.5319 -0.4881
  111SAPE  H14X11591   5.128   3.357   5.873  0.3443 -0.3935  0.4899
  111SAPE  H14Y11592   4.966   3.421   5.853  0.8671 -0.6936  0.0527
  111SAPE  C31511593   5.097   3.573   5.927 -0.4056 -0.1448  0.2798
  111SAPE  H15X11594   5.021   3.650   5.901  0.2067 -0.1754 -1.8200
  111SAPE  H15Y11595   5.195   3.621   5.904 -0.1978 -0.2125  1.0067
  111SAPE  C31611596   5.072   3.540   6.071  0.3594  0.5312 -0.3527
  111SAPE  H16X11597   5.109   3.435   6.075  0.4386  0.4964 -1.5435
  111SAPE  H16Y11598   4.965   3.537   6.099  0.3633 -1.0392 -0.3789
  111SAPE  C31711599   5.170   3.598   6.167 -0.3314 -0.4464 -0.0912
  111SAPE  H17X11600   5.147   3.706   6.153 -2.7425 -1.2894 -4.4961
  111SAPE  H17Y11601   5.275   3.592   6.131  0.0637  5.3108 -0.8224
  111SAPE  C31811602   5.147   3.557   6.316  0.5392 -0.0038  0.2979
  111SAPE  H18X11603   5.213   3.624   6.375  0.0998  2.1207 -1.4869
  111SAPE  H18Y11604   5.176   3.454   6.344  1.7757  0.7039  1.8044
  111SAPE  H18Z11605   5.048   3.583   6.360  0.8682  1.4669  0.2402
  112SAPE     N11606   1.121   1.943   3.695  0.3222 -0.1855 -0.0892
  112SAPE   HN111607   1.191   1.998   3.748  0.2448  1.0601 -1.2231
  112SAPE   HN211608   1.152   1.953   3.596 -0.0086 -1.0063 -0.2810
  112SAPE   HN311609   1.031   1.996   3.701  0.3163 -0.2775  0.6443
  112SAPE   C1211610   1.107   1.792   3.741 -0.1907  0.3374  0.7064
  112SAPE  H12A11611   1.115   1.789   3.852 -1.8846 -1.9058  0.8456
  112SAPE  H12B11612   1.195   1.750   3.688 -0.3112  0.6851  0.2272
  112SAPE   C1111613   0.973   1.734   3.707  0.1936 -0.4519  0.0471
  112SAPE  H11A11614   0.967   1.629   3.743 -3.1406 -1.2811 -2.3774
  112SAPE  H11B11615   0.949   1.735   3.598 -2.4644 -0.4478  0.5608
  112SAPE     P11616   0.756   1.779   3.850  0.0655 -0.0489 -0.3178
  112SAPE   O1311617   0.642   1.791   3.765 -0.1085 -0.1923  0.2772
  112SAPE   O1411618   0.785   1.642   3.903  0.4402  0.1217 -0.0254
  112SAPE   O1211619   0.877   1.825   3.767 -0.1168 -0.3143  0.0527
  112SAPE   O1111620   0.741   1.887   3.962  0.5621  0.7185 -0.1547
  112SAPE    C111621   0.790   2.020   3.944 -0.3531 -0.0663  0.4153
  112SAPE    HA11622   0.900   2.009   3.957 -0.5181 -2.4120  0.2987
  112SAPE    HB11623   0.762   2.049   3.840  1.8504  0.4487 -0.0845
  112SAPE    C211624   0.734   2.120   4.048  0.0635 -0.4480  0.1954
  112SAPE    HS11625   0.774   2.222   4.030  0.1105  0.5026  4.5235
  112SAPE   O2111626   0.761   2.072   4.175  0.0839  0.0751  0.0991
  112SAPE   C2111627   0.891   2.079   4.214 -0.1923 -0.7489 -0.1771
  112SAPE   O2211628   0.980   2.133   4.149 -0.2147  0.4675  0.0936
  112SAPE   C2211629   0.908   2.020   4.349  0.3237  0.1956 -0.0668
  112SAPE   H2R11630   0.826   2.061   4.412  1.1874  1.0836  0.5209
  112SAPE   H2S11631   0.908   1.909   4.344  0.0310  0.2449 -1.4491
  112SAPE    C311632   0.576   2.131   4.028  0.2336 -0.0814  0.3607
  112SAPE    HX11633   0.545   2.025   4.012 -1.4129  0.5069 -0.5851
  112SAPE    HY11634   0.564   2.177   3.928  2.5013 -2.4351 -1.1158
  112SAPE   O3111635   0.503   2.206   4.126  0.1020  0.3623  0.2093
  112SAPE   C3111636   0.454   2.131   4.232  1.0853  0.3023 -0.4564
  112SAPE   O3211637   0.483   2.015   4.252  1.0923  0.5484  0.0722
  112SAPE   C3211638   0.356   2.204   4.323  0.6516 -0.1303  0.4141
  112SAPE   H2X11639   0.263   2.204   4.263  1.5672 -0.8056 -1.0821
  112SAPE   H2Y11640   0.399   2.306   4.322  3.7266 -1.3118 -0.6764
  112SAPE   C2311641   1.044   2.060   4.419  0.2187  0.4384  0.4435
  112SAPE   H3R11642   1.055   2.171   4.425 -0.5619  0.5602 -0.1573
  112SAPE   H3S11643   1.125   2.003   4.368  3.3392  3.1079  2.0481
  112SAPE   C2411644   1.061   2.019   4.567 -0.1712 -0.6306  0.5963
  112SAPE   H4R11645   0.994   1.937   4.598  0.8313 -0.6379  2.9011
  112SAPE   H4S11646   1.032   2.107   4.628  0.3923 -0.1618  0.2042
  112SAPE   C2511647   1.201   1.979   4.604  0.5761 -0.4421  0.3660
  112SAPE   H5R11648   1.264   1.957   4.517  1.0684  1.4758  0.1962
  112SAPE   C2611649   1.256   1.997   4.725 -0.4588  0.2447  0.0858
  112SAPE   H6R11650   1.359   1.962   4.736 -0.8855 -1.7953 -1.5876
  112SAPE   C2711651   1.202   2.053   4.850  0.0430  0.1106 -0.2691
  112SAPE   H7R11652   1.133   2.137   4.826 -0.5329 -0.7301 -1.7266
  112SAPE   H7S11653   1.278   2.102   4.914  0.7506 -0.0318 -0.9782
  112SAPE   C2811654   1.130   1.952   4.928  0.6299  0.3039 -0.3322
  112SAPE   H8R11655   1.125   1.855   4.876  0.4283  0.3157 -0.3369
  112SAPE   C2911656   1.064   1.962   5.049 -0.0638 -0.0781  0.1230
  112SAPE   H9R11657   1.010   1.873   5.085 -1.0523 -0.0969 -1.3214
  112SAPE  C21011658   1.051   2.096   5.123  0.6857 -0.6612 -0.6812
  112SAPE  H10R11659   0.971   2.148   5.066  1.3850  0.6570 -0.4929
  112SAPE  H10S11660   1.149   2.148   5.126  0.9382 -1.0703 -1.6503
  112SAPE  C21111661   0.988   2.074   5.260  0.4756  0.0185 -0.8983
  112SAPE  H11R11662   0.946   1.975   5.279  0.1191  0.1405 -1.0415
  112SAPE  C21211663   0.973   2.161   5.358  0.3663 -0.4310  0.0551
  112SAPE  H12R11664   0.926   2.125   5.451 -1.1609 -2.7069 -1.5263
  112SAPE  C21311665   1.003   2.308   5.356  0.5894 -0.0010  0.2788
  112SAPE  H13R11666   0.902   2.350   5.334  1.0570  0.9905 -0.0615
  112SAPE  H13S11667   1.056   2.336   5.262  2.5219 -5.5225 -0.6296
  112SAPE  C21411668   1.039   2.382   5.480  0.4935  0.1543  0.0981
  112SAPE  H14R11669   1.148   2.395   5.488  0.2445  1.9165  1.2269
  112SAPE  C21511670   0.961   2.414   5.587 -0.2337  0.2488  0.3826
  112SAPE  H15R11671   1.003   2.473   5.670  1.3837 -0.6264  0.2160
  112SAPE  C21611672   0.806   2.402   5.595 -0.2604  0.5350 -0.3658
  112SAPE  H16R11673   0.764   2.356   5.687 -1.3699  2.1412 -0.0398
  112SAPE  H16S11674   0.768   2.352   5.504  0.9351 -0.1241 -0.5277
  112SAPE  C21711675   0.741   2.540   5.593 -0.2026  0.5130 -0.5391
  112SAPE  H17R11676   0.746   2.588   5.493 -1.6820 -0.8368 -1.3083
  112SAPE  H17S11677   0.781   2.605   5.674  0.6658 -1.3337  0.5633
  112SAPE  C21811678   0.591   2.525   5.648  0.7299  0.1570 -0.3226
  112SAPE  H18R11679   0.582   2.501   5.756 -0.0748 -3.1730 -1.0197
  112SAPE  H18S11680   0.545   2.446   5.585  1.3837  0.3343 -1.0434
  112SAPE  C21911681   0.517   2.660   5.634 -0.2047 -0.3015 -0.0069
  112SAPE  H19R11682   0.407   2.641   5.642 -0.0337 -0.6790  2.7848
  112SAPE  H19S11683   0.537   2.696   5.531 -0.6753  0.0862  0.0329
  112SAPE  C22011684   0.547   2.767   5.740  0.3609  0.3244  0.9789
  112SAPE  H20R11685   0.652   2.796   5.716  0.3023 -0.6411 -0.6144
  112SAPE  H20S11686   0.528   2.732   5.843  1.4164 -0.6163  0.8739
  112SAPE  H20T11687   0.476   2.847   5.708 -0.8333 -1.0334  0.1052
  112SAPE   C3311688   0.340   2.155   4.472 -0.3629  0.0286  0.3054
  112SAPE   H3X11689   0.304   2.050   4.473  0.0183 -0.1186 -0.7745
  112SAPE   H3Y11690   0.266   2.225   4.517  1.9465  1.8071  1.5751
  112SAPE   C3411691   0.471   2.174   4.551 -0.5671 -0.7409  0.4851
  112SAPE   H4X11692   0.470   2.280   4.584 -3.9942 -0.9265  1.4123
  112SAPE   H4Y11693   0.560   2.165   4.486 -0.8756 -0.0764 -0.0428
  112SAPE   C3511694   0.479   2.093   4.681  0.3447  0.2076 -0.5283
  112SAPE   H5X11695   0.483   1.984   4.658  0.4898  0.0807  0.0897
  112SAPE   H5Y11696   0.385   2.113   4.737  0.8453  0.4175  0.2496
  112SAPE   C3611697   0.604   2.129   4.760 -0.7080 -0.0567 -0.8864
  112SAPE   H6X11698   0.615   2.240   4.756  0.8488 -0.1712 -5.3067
  112SAPE   H6Y11699   0.699   2.089   4.719  0.6178 -0.3951  2.2409
  112SAPE   C3711700   0.598   2.076   4.909 -0.1696  0.1983 -0.5694
  112SAPE   H7X11701   0.697   2.077   4.961 -1.5132 -0.1335  2.1939
  112SAPE   H7Y11702   0.576   1.969   4.892 -0.6945 -0.0120  1.2314
  112SAPE   C3811703   0.490   2.137   4.991  0.6065 -0.3044  0.1960
  112SAPE   H8X11704   0.415   2.058   5.016  1.0820 -0.9826 -0.4516
  112SAPE   H8Y11705   0.446   2.213   4.924  0.1733 -0.1498  0.6445
  112SAPE   C3911706   0.535   2.206   5.117 -0.0986 -0.1384  0.3534
  112SAPE   H9X11707   0.470   2.295   5.128  2.1915  2.0978 -2.5734
  112SAPE   H9Y11708   0.642   2.230   5.101  0.2913 -2.5595 -1.2621
  112SAPE  C31011709   0.508   2.113   5.236 -0.4691 -0.5611  0.1483
  112SAPE  H10X11710   0.573   2.024   5.224 -1.8867 -1.4336 -1.4885
  112SAPE  H10Y11711   0.405   2.073   5.237 -1.8006  2.5943  2.2491
  112SAPE  C31111712   0.540   2.185   5.371  0.1148  0.0665  0.3494
  112SAPE  H11X11713   0.468   2.269   5.380  0.2245  0.5625 -2.3128
  112SAPE  H11Y11714   0.649   2.210   5.376 -0.0224  1.1303 -1.1985
  112SAPE  C31211715   0.502   2.091   5.496 -0.1194 -0.3444  0.0869
  112SAPE  H12X11716   0.545   1.991   5.474  1.8414  0.4635  0.0241
  112SAPE  H12Y11717   0.395   2.062   5.504  0.2431 -1.7701  0.0470
  112SAPE  C31311718   0.552   2.140   5.635  0.6043  0.5616 -0.5007
  112SAPE  H13X11719   0.514   2.244   5.647 -0.3388  0.2856 -1.0159
  112SAPE  H13Y11720   0.663   2.144   5.644  0.6672 -1.2362 -0.1279
  112SAPE  C31411721   0.509   2.057   5.759  0.0527  0.3686 -0.3228
  112SAPE  H14X11722   0.513   1.950   5.730 -2.4320  0.4304 -1.1249
  112SAPE  H14Y11723   0.401   2.065   5.779  0.6204  1.3174  2.9681
  112SAPE  C31511724   0.595   2.071   5.887  0.0901  0.0785  0.3861
  112SAPE  H15X11725   0.572   2.158   5.952 -1.7988  0.8332 -1.1918
  112SAPE  H15Y11726   0.700   2.081   5.854 -0.4367 -0.7242 -1.6658
  112SAPE  C31611727   0.583   1.947   5.978 -0.0474  0.4038 -0.0647
  112SAPE  H16X11728   0.585   1.851   5.921 -0.9372  0.5442 -0.3473
  112SAPE  H16Y11729   0.480   1.947   6.019  0.2379  0.6574  0.6642
  112SAPE  C31711730   0.681   1.937   6.095 -0.5078 -0.1443  0.5719
  112SAPE  H17X11731   0.686   2.029   6.157 -2.0775  0.4469 -0.1195
  112SAPE  H17Y11732   0.784   1.936   6.055 -0.2656  1.6103  1.0593
  112SAPE  C31811733   0.643   1.813   6.168  0.4973 -0.5086 -0.1138
  112SAPE  H18X11734   0.627   1.728   6.098  1.5015  0.3364 -1.4422
  112SAPE  H18Y11735   0.553   1.841   6.227  0.6842  2.6468 -1.0961
  112SAPE  H18Z11736   0.718   1.786   6.245 -1.1882  0.9348  2.1439
  113SAPE     N11737   3.555   6.751   3.957 -0.2812 -0.3118  0.2503
  113SAPE   HN111738   3.574   6.808   3.873  0.5784  0.5136  0.9836
  113SAPE   HN211739   3.488   6.677   3.928  1.7894 -1.9066 -0.7024
  113SAPE   HN311740   3.523   6.805   4.040  2.0741 -0.1700  1.1427
  113SAPE   C1211741   3.676   6.671   4.010  0.6130 -0.3594  0.6226
  113SAPE  H12A11742   3.753   6.737   4.054 -0.2746  1.6006 -0.6188
  113SAPE  H12B11743   3.722   6.617   3.924  0.8453  2.1341 -0.9268
  113SAPE   C1111744   3.615   6.581   4.113  0.3377  0.5857 -0.1721
  113SAPE  H11A11745   3.566   6.627   4.202 -3.0095 -2.7815  0.0280
  113SAPE  H11B11746   3.695   6.521   4.161  0.1578  0.2447 -0.2904
  113SAPE     P11747   3.446   6.379   4.099  0.0645 -0.4692 -0.0140
  113SAPE   O1311748   3.462   6.264   4.005 -0.2342 -0.3510 -0.2570
  113SAPE   O1411749   3.491   6.360   4.242 -0.0956  0.0331 -0.4413
  113SAPE   O1211750   3.516   6.505   4.041  0.1409 -0.7784 -0.4649
  113SAPE   O1111751   3.288   6.411   4.105  0.0999  0.1760  0.2329
  113SAPE    C111752   3.220   6.448   4.224 -0.0405  0.3060 -0.4929
  113SAPE    HA11753   3.110   6.457   4.208 -0.5034  2.1672  2.7835
  113SAPE    HB11754   3.214   6.371   4.303 -2.6754 -1.0445 -1.8610
  113SAPE    C211755   3.256   6.580   4.285 -0.3399  0.0506  0.0951
  113SAPE    HS11756   3.366   6.584   4.302 -0.3894 -2.6005  1.6921
  113SAPE   O2111757   3.182   6.593   4.406  0.1339 -0.4413  0.5715
  113SAPE   C2111758   3.235   6.650   4.511 -0.8131  0.8800 -0.0997
  113SAPE   O2211759   3.355   6.682   4.525  0.2273 -0.0591 -0.8213
  113SAPE   C2211760   3.131   6.675   4.620 -0.2529  0.0419  0.2880
  113SAPE   H2R11761   3.048   6.729   4.569  0.5188  0.1907 -0.8557
  113SAPE   H2S11762   3.096   6.578   4.661 -1.5510 -0.6583 -2.2583
  113SAPE    C311763   3.223   6.694   4.179  0.4928 -0.3119 -0.6373
  113SAPE    HX11764   3.126   6.674   4.127 -0.1051 -1.8592  0.9613
  113SAPE    HY11765   3.302   6.696   4.101  3.2215  0.0415  1.9591
  113SAPE   O3111766   3.213   6.822   4.242  0.7069 -0.5278 -0.0695
  113SAPE   C3111767   3.328   6.875   4.271  0.4483  0.0226 -0.6888
  113SAPE   O3211768   3.431   6.842   4.224 -0.4612  0.8408  0.5180
  113SAPE   C3211769   3.313   6.986   4.374 -0.3016  0.0398  0.1600
  113SAPE   H2X11770   3.285   6.936   4.469 -1.3748 -0.5986 -0.4658
  113SAPE   H2Y11771   3.241   7.068   4.349  0.5615  0.8699  0.3372
  113SAPE   C2311772   3.182   6.775   4.725 -0.3346 -0.3140 -0.8154
  113SAPE   H3R11773   3.220   6.870   4.680 -0.0954  0.0647  0.1687
  113SAPE   H3S11774   3.274   6.736   4.774 -0.2825  0.0278 -0.6379
  113SAPE   C2411775   3.084   6.784   4.839  0.5505 -0.5731  0.1422
  113SAPE   H4R11776   3.076   6.684   4.887 -1.3982 -1.1124 -1.2040
  113SAPE   H4S11777   2.981   6.810   4.808  0.6212  0.7419  0.8998
  113SAPE   C2511778   3.128   6.903   4.918  0.0169 -0.1830 -0.1221
  113SAPE   H5R11779   3.115   7.003   4.874  1.9203 -0.2698 -1.0191
  113SAPE   C2611780   3.212   6.903   5.024 -0.0465  0.4681  0.1677
  113SAPE   H6R11781   3.228   7.001   5.071  0.5551  1.3767 -1.8283
  113SAPE   C2711782   3.278   6.789   5.089  0.5042 -0.2053 -0.4635
  113SAPE   H7R11783   3.389   6.792   5.088  0.4966  0.3544 -0.1889
  113SAPE   H7S11784   3.249   6.695   5.038 -0.5342 -0.3403  0.3463
  113SAPE   C2811785   3.223   6.769   5.226  0.3231 -0.2173  0.0182
  113SAPE   H8R11786   3.118   6.737   5.218 -0.2546  1.6702 -0.6779
  113SAPE   C2911787   3.279   6.789   5.343 -0.3046 -0.4581 -0.1119
  113SAPE   H9R11788   3.210   6.773   5.427 -0.3635 -0.5679 -0.1805
  113SAPE  C21011789   3.415   6.840   5.375 -0.2786 -0.2680 -0.2661
  113SAPE  H10R11790   3.475   6.838   5.282 -1.0919  0.3467 -0.8127
  113SAPE  H10S11791   3.468   6.778   5.450 -0.2248  0.2426  0.1234
  113SAPE  C21111792   3.422   6.982   5.427  0.9393  0.3472  0.2977
  113SAPE  H11R11793   3.382   7.056   5.357  2.1597 -0.9276 -1.8503
  113SAPE  C21211794   3.459   7.023   5.551  0.2974  1.0825 -0.0653
  113SAPE  H12R11795   3.429   7.124   5.582 -3.5453  1.2715 -3.5964
  113SAPE  C21311796   3.518   6.948   5.658 -0.1019  0.1551 -0.4075
  113SAPE  H13R11797   3.521   6.839   5.638 -1.3621  0.2994 -1.5347
  113SAPE  H13S11798   3.437   6.955   5.734 -2.2445 -0.7722 -2.4763
  113SAPE  C21411799   3.644   7.001   5.727 -0.1517 -0.3554  0.1294
  113SAPE  H14R11800   3.740   6.952   5.703  0.2235  1.7592 -3.4466
  113SAPE  C21511801   3.655   7.118   5.790  0.5520  0.1618 -0.4286
  113SAPE  H15R11802   3.751   7.168   5.808  0.0022  0.9802  0.2981
  113SAPE  C21611803   3.541   7.211   5.816 -0.7653 -1.0228  1.0028
  113SAPE  H16R11804   3.438   7.184   5.786 -1.2536 -0.6678  2.2878
  113SAPE  H16S11805   3.560   7.301   5.753  0.2710 -1.2584  0.9591
  113SAPE  C21711806   3.527   7.261   5.961 -0.8495 -0.5886 -0.5068
  113SAPE  H17R11807   3.455   7.343   5.979  1.7903  1.4492  1.8511
  113SAPE  H17S11808   3.622   7.310   5.992 -0.3764 -1.5392 -0.3941
  113SAPE  C21811809   3.509   7.150   6.063  0.3631 -0.2439  0.4372
  113SAPE  H18R11810   3.528   7.186   6.166  0.6638 -1.1242  0.7014
  113SAPE  H18S11811   3.577   7.063   6.052 -0.7775 -1.0941 -0.1936
  113SAPE  C21911812   3.369   7.099   6.060  0.1333  0.6375 -0.2990
  113SAPE  H19R11813   3.369   6.995   6.099 -3.2892 -0.8200 -3.5273
  113SAPE  H19S11814   3.339   7.079   5.955  0.7757 -0.5394 -0.2785
  113SAPE  C22011815   3.262   7.191   6.129 -0.5951 -0.4521  0.1057
  113SAPE  H20R11816   3.253   7.290   6.079 -1.6395 -0.1767  0.7907
  113SAPE  H20S11817   3.293   7.217   6.233  3.0002 -1.8346 -0.4584
  113SAPE  H20T11818   3.166   7.135   6.129 -1.6717  1.2779 -1.9807
  113SAPE   C3311819   3.445   7.050   4.420 -0.0650 -0.6967 -0.0122
  113SAPE   H3X11820   3.484   7.133   4.357  0.3635  0.8510  2.1688
  113SAPE   H3Y11821   3.522   6.971   4.432  0.3839 -0.8211 -2.9297
  113SAPE   C3411822   3.431   7.116   4.557  0.6213  0.2909  0.4998
  113SAPE   H4X11823   3.527   7.150   4.602 -0.3793  1.9949  1.4617
  113SAPE   H4Y11824   3.379   7.052   4.631  0.1617 -0.3956 -0.4019
  113SAPE   C3511825   3.341   7.245   4.557 -0.0064  0.7197  0.1388
  113SAPE   H5X11826   3.234   7.214   4.555  0.3519 -0.6728  0.7663
  113SAPE   H5Y11827   3.360   7.300   4.463 -1.4195 -0.9922 -1.2308
  113SAPE   C3611828   3.352   7.345   4.673  0.5047  0.7535 -0.5575
  113SAPE   H6X11829   3.289   7.436   4.669 -1.1251 -0.1872  1.5099
  113SAPE   H6Y11830   3.458   7.378   4.665  1.2254 -0.9858  0.9339
  113SAPE   C3711831   3.330   7.284   4.813  0.6450 -0.4830 -0.1530
  113SAPE   H7X11832   3.421   7.224   4.839 -0.2369 -1.8320 -0.1137
  113SAPE   H7Y11833   3.237   7.224   4.818  0.8221 -0.6916  1.0155
  113SAPE   C3811834   3.330   7.398   4.921  0.7292  0.7364  0.2516
  113SAPE   H8X11835   3.435   7.433   4.919  1.2080 -0.6341 -1.0654
  113SAPE   H8Y11836   3.253   7.473   4.893  0.4571 -0.3396 -2.1589
  113SAPE   C3911837   3.311   7.346   5.060 -0.3080  0.1361 -0.0266
  113SAPE   H9X11838   3.322   7.437   5.123  1.3140  0.2831 -0.4874
  113SAPE   H9Y11839   3.393   7.277   5.090 -0.1441  0.4292  0.2006
  113SAPE  C31011840   3.169   7.297   5.087  0.3843  0.2316  0.7617
  113SAPE  H10X11841   3.148   7.214   5.017 -0.6348 -0.6289  2.0341
  113SAPE  H10Y11842   3.107   7.383   5.057 -1.5244 -1.0943  0.7517
  113SAPE  C31111843   3.136   7.239   5.225 -0.4389 -0.5939 -0.4113
  113SAPE  H11X11844   3.144   7.311   5.309 -0.9274 -1.6382  0.5552
  113SAPE  H11Y11845   3.204   7.154   5.246  0.5616  0.1580 -0.5312
  113SAPE  C31211846   2.997   7.183   5.236 -0.0788  0.0087 -0.5978
  113SAPE  H12X11847   2.999   7.097   5.166 -1.1636  0.5373 -1.3128
  113SAPE  H12Y11848   2.908   7.247   5.215  0.6855  1.2911  0.0087
  113SAPE  C31311849   2.984   7.106   5.367  0.5838 -0.4655 -0.1580
  113SAPE  H13X11850   3.050   7.018   5.353 -0.0125 -0.9025 -0.2533
  113SAPE  H13Y11851   2.879   7.076   5.389 -0.1591  2.5466  0.8535
  113SAPE  C31411852   3.055   7.172   5.489 -0.1608 -0.4332 -0.0271
  113SAPE  H14X11853   3.015   7.276   5.488 -1.4250 -0.8936 -0.3876
  113SAPE  H14Y11854   3.164   7.166   5.471  0.5481 -0.4681  3.5782
  113SAPE  C31511855   3.016   7.116   5.627  0.0164  0.0195 -0.0766
  113SAPE  H15X11856   2.905   7.109   5.619 -0.0050 -1.1706  0.9459
  113SAPE  H15Y11857   3.039   7.198   5.698 -0.8097  0.5485 -0.3964
  113SAPE  C31611858   3.089   6.979   5.656 -0.1640 -0.0643  0.6009
  113SAPE  H16X11859   3.196   7.004   5.642 -0.5789  1.0397 -0.9214
  113SAPE  H16Y11860   3.084   6.896   5.582  0.4153  1.1734 -0.8889
  113SAPE  C31711861   3.067   6.942   5.799 -0.1372  0.1308  0.1891
  113SAPE  H17X11862   2.959   6.932   5.823 -0.2606  0.4019 -0.2605
  113SAPE  H17Y11863   3.102   7.020   5.870  1.7334 -0.7801  0.3179
  113SAPE  C31811864   3.156   6.820   5.832  0.5173 -0.1466  0.1559
  113SAPE  H18X11865   3.163   6.816   5.943  0.8641  2.8319  0.3446
  113SAPE  H18Y11866   3.259   6.854   5.808 -0.3988  0.8823 -2.6877
  113SAPE  H18Z11867   3.121   6.724   5.788 -1.3931 -1.1402  3.4947
  114SAPE     N11868   3.898   1.575   3.425 -0.2382  0.0130 -0.0894
  114SAPE   HN111869   3.979   1.546   3.483  0.5098  2.3123  0.1446
  114SAPE   HN211870   3.830   1.499   3.406  0.7929 -1.2130  0.9747
  114SAPE   HN311871   3.944   1.605   3.337 -0.8830 -0.1501 -0.4847
  114SAPE   C1211872   3.843   1.697   3.486 -0.1092  0.5187  0.9578
  114SAPE  H12A11873   3.735   1.688   3.508  0.1907 -1.2774  1.9019
  114SAPE  H12B11874   3.851   1.776   3.408 -0.9554  1.1730  1.5239
  114SAPE   C1111875   3.936   1.736   3.601 -0.8408  0.2871 -0.0312
  114SAPE  H11A11876   3.893   1.812   3.670  1.0359  0.4690  0.9889
  114SAPE  H11B11877   4.023   1.787   3.554  0.5107 -1.1639  0.7997
  114SAPE     P11878   3.888   1.565   3.791 -0.1011  0.0849  0.3342
  114SAPE   O1311879   3.752   1.558   3.738 -0.9861  0.4375  0.3075
  114SAPE   O1411880   3.950   1.448   3.851  0.1889  0.4235 -0.0109
  114SAPE   O1211881   3.989   1.622   3.676  0.5523 -0.2591  0.0581
  114SAPE   O1111882   3.884   1.682   3.898 -0.6459 -0.8213  0.3241
  114SAPE    C111883   4.009   1.757   3.923  1.0183  0.6655  0.3532
  114SAPE    HA11884   4.083   1.742   3.841  0.9623  0.0140  0.4138
  114SAPE    HB11885   3.985   1.865   3.913 -2.5276  0.0609  1.0418
  114SAPE    C211886   4.075   1.719   4.062 -0.1609 -0.1810  0.7157
  114SAPE    HS11887   4.090   1.609   4.065 -1.8147 -0.5350 -1.2897
  114SAPE   O2111888   3.982   1.753   4.168 -0.3700 -0.1481  0.5321
  114SAPE   C2111889   3.912   1.643   4.206 -0.9313 -0.0324  0.0635
  114SAPE   O2211890   3.916   1.528   4.170 -0.1800  0.5167  0.0995
  114SAPE   C2211891   3.794   1.690   4.291  0.5833  0.3170 -0.8251
  114SAPE   H2R11892   3.813   1.793   4.329  1.1044  0.0446 -0.3164
  114SAPE   H2S11893   3.704   1.695   4.226 -0.1792 -0.7207  0.1007
  114SAPE    C311894   4.211   1.785   4.075  0.5217 -0.7266 -0.2463
  114SAPE    HX11895   4.177   1.889   4.056  0.7119 -0.6424 -0.1302
  114SAPE    HY11896   4.282   1.742   4.001  0.1091  1.6302 -2.0968
  114SAPE   O3111897   4.278   1.766   4.208 -0.7767 -0.0755  0.0582
  114SAPE   C3111898   4.409   1.773   4.217 -0.3620 -1.1003  0.6262
  114SAPE   O3211899   4.483   1.785   4.122 -0.1260 -0.4838 -0.0837
  114SAPE   C3211900   4.458   1.767   4.364 -0.4699 -0.1578 -0.1946
  114SAPE   H2X11901   4.382   1.805   4.436 -0.1519  1.0962 -0.4836
  114SAPE   H2Y11902   4.538   1.845   4.367 -1.9337  1.4371  3.5366
  114SAPE   C2311903   3.767   1.598   4.420 -0.1159 -0.1452  0.6420
  114SAPE   H3R11904   3.858   1.631   4.474  0.8413  1.9558 -2.0248
  114SAPE   H3S11905   3.760   1.488   4.402  0.0844 -0.7378  3.6716
  114SAPE   C2411906   3.631   1.628   4.486 -0.5327  0.1056  0.1431
  114SAPE   H4R11907   3.614   1.568   4.578 -2.7132  0.5392  0.0887
  114SAPE   H4S11908   3.552   1.583   4.423 -0.6040 -0.9153  0.9427
  114SAPE   C2511909   3.606   1.774   4.505 -0.4218  0.5391  0.2671
  114SAPE   H5R11910   3.570   1.829   4.417 -1.1502  0.6423  0.6241
  114SAPE   C2611911   3.607   1.835   4.619  0.1382 -0.1907  0.0375
  114SAPE   H6R11912   3.612   1.945   4.621 -0.0046 -0.1431 -1.2511
  114SAPE   C2711913   3.625   1.777   4.754  0.1842  0.1935 -0.2059
  114SAPE   H7R11914   3.621   1.666   4.751 -1.7148  0.2439 -1.6507
  114SAPE   H7S11915   3.534   1.807   4.809  0.1230  0.3195 -0.3715
  114SAPE   C2811916   3.755   1.807   4.823 -0.7882  0.3215  0.1621
  114SAPE   H8R11917   3.840   1.750   4.781 -1.4384 -0.8279  0.3801
  114SAPE   C2911918   3.776   1.873   4.939 -0.2444 -0.3646  0.5599
  114SAPE   H9R11919   3.883   1.892   4.957 -0.2199  2.0361 -1.5419
  114SAPE  C21011920   3.670   1.946   5.025  0.4561  0.3236 -0.1212
  114SAPE  H10R11921   3.589   1.997   4.969  1.4936  2.4391  0.2315
  114SAPE  H10S11922   3.711   2.036   5.076 -1.6847  1.9698 -1.1173
  114SAPE  C21111923   3.608   1.838   5.119  0.1560  0.4414 -0.5983
  114SAPE  H11R11924   3.555   1.756   5.069  1.5948 -0.3690 -0.8522
  114SAPE  C21211925   3.591   1.851   5.253 -0.0948 -1.1354  0.1109
  114SAPE  H12R11926   3.550   1.767   5.311 -0.4614  0.1295  1.7681
  114SAPE  C21311927   3.639   1.966   5.338  0.2607  0.8024 -0.1487
  114SAPE  H13R11928   3.726   2.007   5.281  1.2159 -1.1908 -0.2235
  114SAPE  H13S11929   3.689   1.928   5.430  0.7670 -3.1051 -1.8319
  114SAPE  C21411930   3.544   2.075   5.380 -0.8059  0.5921  0.0165
  114SAPE  H14R11931   3.471   2.102   5.303 -0.0569 -0.9052 -1.2784
  114SAPE  C21511932   3.544   2.140   5.497 -0.5760  0.3301  0.0270
  114SAPE  H15R11933   3.483   2.231   5.513  3.0232  2.5327  2.6317
  114SAPE  C21611934   3.628   2.119   5.624  0.5128 -0.5276 -0.1308
  114SAPE  H16R11935   3.706   2.198   5.631  0.8822 -0.9140  0.1972
  114SAPE  H16S11936   3.687   2.024   5.626  1.1542 -0.1317  1.9725
  114SAPE  C21711937   3.546   2.132   5.755 -0.3023  0.6312 -0.3421
  114SAPE  H17R11938   3.608   2.086   5.835 -0.0975  1.0719 -0.2438
  114SAPE  H17S11939   3.456   2.068   5.747  0.1187  0.2104 -2.2693
  114SAPE  C21811940   3.503   2.266   5.791  0.1453  0.5076 -0.4065
  114SAPE  H18R11941   3.406   2.290   5.742 -1.6966 -1.5221  1.9808
  114SAPE  H18S11942   3.574   2.342   5.752  0.2210 -0.3198 -1.9698
  114SAPE  C21911943   3.488   2.289   5.942 -0.0261 -0.0174  0.1801
  114SAPE  H19R11944   3.576   2.246   5.993  0.3566  0.3946 -0.1291
  114SAPE  H19S11945   3.403   2.231   5.985  1.3508 -0.9201  1.7690
  114SAPE  C22011946   3.470   2.440   5.974  0.4489 -0.3543  0.0842
  114SAPE  H20R11947   3.550   2.489   5.916  0.9772  1.0445  1.8858
  114SAPE  H20S11948   3.486   2.459   6.083  2.3528  1.2204 -0.4156
  114SAPE  H20T11949   3.371   2.474   5.937  0.5252 -1.9034 -1.6642
  114SAPE   C3311950   4.502   1.623   4.377  0.9923  0.9525  0.1629
  114SAPE   H3X11951   4.557   1.594   4.285  0.8421 -0.6047  0.5410
  114SAPE   H3Y11952   4.410   1.561   4.388  0.7753  0.9843 -1.3413
  114SAPE   C3411953   4.606   1.606   4.491  0.7599  0.4644 -0.0063
  114SAPE   H4X11954   4.667   1.698   4.493  1.4453  0.0091  1.1647
  114SAPE   H4Y11955   4.666   1.518   4.459  0.3952  0.9773 -2.2657
  114SAPE   C3511956   4.550   1.569   4.630 -0.3784  0.2610  0.7706
  114SAPE   H5X11957   4.494   1.474   4.624 -1.1639  0.7223  0.6004
  114SAPE   H5Y11958   4.487   1.654   4.664 -1.1983 -0.3944  0.9315
  114SAPE   C3611959   4.668   1.558   4.728  0.3092  0.1333 -0.1575
  114SAPE   H6X11960   4.738   1.643   4.716  0.8012 -0.1513  0.6387
  114SAPE   H6Y11961   4.737   1.473   4.705 -1.1182 -0.5757 -2.0511
  114SAPE   C3711962   4.625   1.546   4.877 -0.0250  0.6028 -0.1600
  114SAPE   H7X11963   4.560   1.458   4.897 -0.1655  0.0645 -2.6069
  114SAPE   H7Y11964   4.563   1.637   4.891 -1.1028  0.6619 -4.0451
  114SAPE   C3811965   4.737   1.556   4.975  0.3415  0.2430  0.5696
  114SAPE   H8X11966   4.767   1.662   4.991  0.9064 -0.1233  2.1325
  114SAPE   H8Y11967   4.826   1.506   4.932 -0.1801 -0.9998  0.8975
  114SAPE   C3911968   4.699   1.497   5.107  0.0521  0.6319  0.5272
  114SAPE   H9X11969   4.787   1.493   5.174  0.0497  0.9587  0.5502
  114SAPE   H9Y11970   4.658   1.397   5.079  2.3781 -0.4619  0.8538
  114SAPE  C31011971   4.588   1.580   5.171  0.4238  0.5515 -0.3883
  114SAPE  H10X11972   4.580   1.526   5.268 -2.2305 -0.0360 -0.8594
  114SAPE  H10Y11973   4.490   1.579   5.119 -0.4061 -0.9650  1.1025
  114SAPE  C31111974   4.637   1.717   5.208 -0.4099 -0.2667 -0.0796
  114SAPE  H11X11975   4.629   1.770   5.111  1.5948 -0.7785 -0.5712
  114SAPE  H11Y11976   4.742   1.723   5.244  0.3027 -2.7360 -1.4784
  114SAPE  C31211977   4.557   1.781   5.326 -1.1305  0.1283  0.2288
  114SAPE  H12X11978   4.538   1.703   5.402 -2.5480 -1.5395 -1.7335
  114SAPE  H12Y11979   4.461   1.830   5.300 -0.8082  1.5034  1.4582
  114SAPE  C31311980   4.639   1.895   5.393 -0.6339 -0.2899  0.0715
  114SAPE  H13X11981   4.652   1.981   5.324 -2.6368  1.1778  1.4034
  114SAPE  H13Y11982   4.737   1.871   5.440 -0.2521  0.9705 -0.0360
  114SAPE  C31411983   4.554   1.938   5.511  0.5670 -0.2759 -0.3472
  114SAPE  H14X11984   4.545   1.852   5.581 -1.3647  0.5669  0.5357
  114SAPE  H14Y11985   4.449   1.957   5.480 -0.0567  0.7590  2.1667
  114SAPE  C31511986   4.605   2.063   5.575 -0.7828 -0.2030  0.3972
  114SAPE  H15X11987   4.598   2.142   5.497 -0.4922 -0.8582 -0.3112
  114SAPE  H15Y11988   4.714   2.056   5.592 -0.5580  2.2956  0.3092
  114SAPE  C31611989   4.538   2.108   5.701  0.1684 -0.0700  0.3425
  114SAPE  H16X11990   4.555   2.033   5.781  2.5020 -1.2429 -1.1320
  114SAPE  H16Y11991   4.429   2.118   5.684  0.2444  3.0182  1.0628
  114SAPE  C31711992   4.580   2.248   5.752 -0.0697  0.0002 -0.0529
  114SAPE  H17X11993   4.565   2.326   5.674 -0.0090  1.1297  1.0372
  114SAPE  H17Y11994   4.689   2.242   5.769 -0.1584 -2.4900  0.0460
  114SAPE  C31811995   4.516   2.282   5.882 -0.0314  0.1462 -0.5049
  114SAPE  H18X11996   4.566   2.228   5.966  0.6013 -0.4367 -1.2473
  114SAPE  H18Y11997   4.409   2.254   5.892  0.0375  0.5592  2.2447
  114SAPE  H18Z11998   4.527   2.391   5.902 -0.0189  0.3245 -1.4676
  115SAPE     N11999   1.152   3.758   3.869  0.4003  0.0735  0.7439
  115SAPE   HN112000   1.150   3.670   3.815 -0.3228 -0.0708  0.9927
  115SAPE   HN212001   1.078   3.752   3.942 -0.7312 -0.9783 -0.4390
  115SAPE   HN312002   1.115   3.825   3.799 -0.4278 -2.8164 -1.7930
  115SAPE   C1212003   1.293   3.790   3.907  0.1346 -0.3609 -0.0701
  115SAPE  H12A12004   1.287   3.871   3.983 -0.7825  0.8122 -1.3398
  115SAPE  H12B12005   1.357   3.808   3.818  0.5335 -0.4939  0.1876
  115SAPE   C1112006   1.358   3.667   3.977 -0.0732 -0.3951 -0.2335
  115SAPE  H11A12007   1.274   3.632   4.041  0.5067  2.9852  2.7162
  115SAPE  H11B12008   1.433   3.702   4.051 -0.4906  0.1511 -0.0668
  115SAPE     P12009   1.332   3.447   3.829  0.1868 -0.1959  0.0749
  115SAPE   O1312010   1.187   3.489   3.820 -0.1202 -0.1388  0.5076
  115SAPE   O1412011   1.389   3.397   3.704  0.2275 -0.1196  0.5213
  115SAPE   O1212012   1.416   3.570   3.894  0.1862  0.2018  0.0144
  115SAPE   O1112013   1.331   3.337   3.947 -0.7208  0.0237  0.2568
  115SAPE    C112014   1.465   3.317   4.000 -0.2932  0.2682  0.6721
  115SAPE    HA12015   1.518   3.242   3.938  0.9931  0.9455  0.9095
  115SAPE    HB12016   1.525   3.410   4.000  0.1805 -0.0248 -0.5165
  115SAPE    C212017   1.447   3.275   4.141  0.2159 -0.1256 -0.7394
  115SAPE    HS12018   1.382   3.185   4.129  0.0211 -0.3310  1.3919
  115SAPE   O2112019   1.385   3.389   4.213 -0.2730  0.7201  0.2808
  115SAPE   C2112020   1.307   3.356   4.312 -0.2343 -0.5889  0.2066
  115SAPE   O2212021   1.265   3.249   4.344  0.0672 -0.1494  0.0108
  115SAPE   C2212022   1.284   3.473   4.400  0.1145  0.2417  0.3385
  115SAPE   H2R12023   1.255   3.561   4.339  0.3216 -1.3816 -2.2255
  115SAPE   H2S12024   1.194   3.453   4.461 -0.4327 -2.1875 -1.1345
  115SAPE    C312025   1.587   3.228   4.196  0.0486  0.6884 -0.2926
  115SAPE    HX12026   1.644   3.323   4.193  1.2677 -0.0281 -0.5333
  115SAPE    HY12027   1.629   3.153   4.127 -1.2119 -0.6843  0.3705
  115SAPE   O3112028   1.582   3.184   4.333  0.3094  0.2194  0.6633
  115SAPE   C3112029   1.605   3.048   4.362  0.1573 -0.3788  0.3835
  115SAPE   O3212030   1.622   2.959   4.284  0.1203  0.0858 -0.2000
  115SAPE   C3212031   1.612   3.048   4.515 -1.0306  0.2499 -0.2689
  115SAPE   H2X12032   1.630   3.153   4.548 -2.7150 -0.5689  3.8134
  115SAPE   H2Y12033   1.705   2.994   4.543 -0.4643  1.5539  0.4961
  115SAPE   C2312034   1.409   3.484   4.487  0.3166  0.5061 -0.0876
  115SAPE   H3R12035   1.495   3.533   4.438  1.4098 -0.0834  1.1637
  115SAPE   H3S12036   1.437   3.382   4.522 -2.4458 -1.2399 -2.5097
  115SAPE   C2412037   1.369   3.567   4.610  0.4576  0.6093  0.1579
  115SAPE   H4R12038   1.278   3.527   4.660 -3.1813  2.4438 -4.2448
  115SAPE   H4S12039   1.337   3.669   4.578  0.1699  0.2902 -0.5988
  115SAPE   C2512040   1.479   3.581   4.706  0.3002 -0.2368  0.1695
  115SAPE   H5R12041   1.576   3.559   4.660  0.5997 -0.7727  1.0223
  115SAPE   C2612042   1.487   3.608   4.838  0.0819 -0.6615 -0.4568
  115SAPE   H6R12043   1.586   3.603   4.885 -0.6257  1.1005  1.3669
  115SAPE   C2712044   1.374   3.648   4.932 -0.2481 -0.5465 -0.0176
  115SAPE   H7R12045   1.347   3.550   4.977 -1.8677 -0.6333 -1.0990
  115SAPE   H7S12046   1.286   3.685   4.876  1.1610 -1.4666 -3.0543
  115SAPE   C2812047   1.427   3.749   5.022  0.2632 -0.8716  0.0713
  115SAPE   H8R12048   1.490   3.825   4.973 -0.1815  0.1307  1.0109
  115SAPE   C2912049   1.401   3.760   5.153  0.1374  0.5957 -0.1273
  115SAPE   H9R12050   1.440   3.845   5.211  0.3162  1.3322 -1.3015
  115SAPE  C21012051   1.325   3.651   5.235  0.4251 -0.5488  0.5620
  115SAPE  H10R12052   1.238   3.615   5.175  2.2508 -0.3953 -2.3678
  115SAPE  H10S12053   1.282   3.691   5.330 -0.9029 -0.5322 -0.0146
  115SAPE  C21112054   1.431   3.550   5.263 -0.3523  0.4080  0.0460
  115SAPE  H11R12055   1.497   3.531   5.177 -0.7172  3.8234 -1.1091
  115SAPE  C21212056   1.464   3.493   5.378 -0.0778  0.3906  0.0786
  115SAPE  H12R12057   1.553   3.428   5.382 -0.2724  0.1818  1.7139
  115SAPE  C21312058   1.389   3.507   5.512  0.5055 -0.7556  0.3420
  115SAPE  H13R12059   1.279   3.504   5.495  0.8716 -1.7940 -2.3301
  115SAPE  H13S12060   1.406   3.613   5.540 -0.3844 -0.2731 -0.8407
  115SAPE  C21412061   1.418   3.416   5.628  0.0939  0.4777 -0.5529
  115SAPE  H14R12062   1.368   3.319   5.629  1.5723 -0.3209  0.3371
  115SAPE  C21512063   1.508   3.447   5.723  0.0166 -0.3826 -0.7547
  115SAPE  H15R12064   1.547   3.366   5.786  1.6689 -0.6272 -2.0411
  115SAPE  C21612065   1.602   3.573   5.730  0.4897  0.7060  0.3002
  115SAPE  H16R12066   1.612   3.623   5.631 -0.7987 -1.6085 -1.0879
  115SAPE  H16S12067   1.704   3.542   5.764 -0.5392 -1.1103  1.9457
  115SAPE  C21712068   1.556   3.697   5.816  0.0127  0.0828 -0.0904
  115SAPE  H17R12069   1.460   3.727   5.770  0.2900  1.8204  0.4142
  115SAPE  H17S12070   1.625   3.784   5.808 -0.9604  0.7239 -1.8072
  115SAPE  C21812071   1.525   3.671   5.962  0.4019  0.1018  0.0806
  115SAPE  H18R12072   1.613   3.651   6.027  0.7013  0.9926 -0.0423
  115SAPE  H18S12073   1.460   3.581   5.968 -0.0878  0.3951 -0.7922
  115SAPE  C21912074   1.446   3.785   6.038  0.0619 -0.0971 -0.2034
  115SAPE  H19R12075   1.363   3.818   5.971 -0.1696  1.7759  0.9508
  115SAPE  H19S12076   1.519   3.868   6.050 -0.1032 -0.0637  0.5679
  115SAPE  C22012077   1.397   3.742   6.180  0.5545  0.4660  0.3894
  115SAPE  H20R12078   1.294   3.703   6.168 -0.2824  2.8281 -0.8033
  115SAPE  H20S12079   1.396   3.832   6.245 -0.3190 -0.0525  1.1115
  115SAPE  H20T12080   1.462   3.662   6.220  1.0040 -0.0186 -1.2110
  115SAPE   C3312081   1.477   3.006   4.578  0.0650  0.7802  0.3689
  115SAPE   H3X12082   1.454   2.898   4.564  0.9836  0.6842 -0.5096
  115SAPE   H3Y12083   1.403   3.077   4.536  1.0177  2.2261  1.0548
  115SAPE   C3412084   1.482   3.027   4.734  0.1537  0.1118  0.6432
  115SAPE   H4X12085   1.571   2.966   4.761  2.5515  2.2864 -1.7701
  115SAPE   H4Y12086   1.385   2.986   4.768  0.3609  0.4614  1.6845
  115SAPE   C3512087   1.503   3.171   4.777 -0.5031  0.0639 -0.4534
  115SAPE   H5X12088   1.425   3.228   4.722 -0.6308 -0.1117 -0.4525
  115SAPE   H5Y12089   1.600   3.205   4.734 -0.2115 -0.7529 -0.4528
  115SAPE   C3612090   1.498   3.198   4.928  0.0332 -0.7240  0.3548
  115SAPE   H6X12091   1.390   3.217   4.946  0.1448 -0.6705  0.9919
  115SAPE   H6Y12092   1.547   3.294   4.955 -0.1275 -1.2454  2.7091
  115SAPE   C3712093   1.552   3.096   5.022 -0.6362  1.1274  0.4875
  115SAPE   H7X12094   1.656   3.061   5.006 -1.6587 -2.6011  1.0897
  115SAPE   H7Y12095   1.491   3.005   5.006  0.9833 -0.2719  1.9628
  115SAPE   C3812096   1.527   3.126   5.173  0.4750 -0.7031  0.7308
  115SAPE   H8X12097   1.417   3.135   5.187  0.2160 -1.4395 -0.6194
  115SAPE   H8Y12098   1.561   3.227   5.200 -0.4685 -0.2909  0.4370
  115SAPE   C3912099   1.602   3.039   5.276 -0.6307  0.1486  0.2454
  115SAPE   H9X12100   1.707   3.025   5.242 -1.3163 -0.6570 -1.6069
  115SAPE   H9Y12101   1.548   2.943   5.267 -1.9632  0.9911 -1.2525
  115SAPE  C31012102   1.610   3.102   5.419 -0.4536  0.4801 -0.1490
  115SAPE  H10X12103   1.505   3.103   5.455 -1.7098 -0.1593 -3.5085
  115SAPE  H10Y12104   1.639   3.209   5.418 -2.6553  1.1139 -0.6400
  115SAPE  C31112105   1.701   3.028   5.520 -0.5496  0.4760 -0.9605
  115SAPE  H11X12106   1.808   3.052   5.504  0.1134 -0.5417  1.5301
  115SAPE  H11Y12107   1.690   2.921   5.494  1.8914 -0.1398  0.3153
  115SAPE  C31212108   1.669   3.070   5.672 -1.1072  0.0220  0.4137
  115SAPE  H12X12109   1.566   3.032   5.687 -0.9808  0.1258  1.6681
  115SAPE  H12Y12110   1.669   3.181   5.682  1.0416  0.0139  1.1164
  115SAPE  C31312111   1.766   3.005   5.772 -0.3648 -0.1879  0.7748
  115SAPE  H13X12112   1.869   3.041   5.751  0.2040 -2.0252  0.2342
  115SAPE  H13Y12113   1.755   2.895   5.760 -0.8143 -0.2115  1.4079
  115SAPE  C31412114   1.737   3.050   5.923  0.4924  0.8296  0.8127
  115SAPE  H14X12115   1.627   3.034   5.930  0.4077 -0.2360 -1.7609
  115SAPE  H14Y12116   1.763   3.157   5.938 -5.2003  2.2672  3.1333
  115SAPE  C31512117   1.807   2.962   6.027  0.0917  0.8489 -0.4904
  115SAPE  H15X12118   1.917   2.970   6.009  0.4996 -0.6787  1.0464
  115SAPE  H15Y12119   1.773   2.858   6.008  2.0340  0.4929 -2.5410
  115SAPE  C31612120   1.782   2.998   6.179  0.1377 -0.0271 -0.6329
  115SAPE  H16X12121   1.810   2.921   6.255  0.7822  1.4892  0.7135
  115SAPE  H16Y12122   1.673   3.017   6.188  0.4008  0.4625  3.4227
  115SAPE  C31712123   1.864   3.118   6.221 -0.2659  0.1533  0.1709
  115SAPE  H17X12124   1.825   3.211   6.173 -1.2691  0.5747  1.7020
  115SAPE  H17Y12125   1.970   3.111   6.191 -0.4275  1.3978 -0.7933
  115SAPE  C31812126   1.859   3.151   6.366  1.1035 -0.0520 -0.3519
  115SAPE  H18X12127   1.909   3.071   6.424  0.4876 -1.0457 -1.1534
  115SAPE  H18Y12128   1.751   3.141   6.393  1.6142 -3.0209  0.8919
  115SAPE  H18Z12129   1.903   3.246   6.403  2.6632 -0.7244 -0.4134
  116SAPE     N12130   1.314   5.406   3.290  0.5279 -0.2898  0.4877
  116SAPE   HN112131   1.392   5.393   3.357  0.7403  2.4167  0.8822
  116SAPE   HN212132   1.233   5.340   3.290  0.2435  0.0201 -0.7998
  116SAPE   HN312133   1.365   5.404   3.199  0.6757 -0.6218  0.5745
  116SAPE   C1212134   1.248   5.542   3.317  0.2471  1.1307 -0.0892
  116SAPE  H12A12135   1.163   5.546   3.246 -0.8955  1.1489  1.2369
  116SAPE  H12B12136   1.328   5.615   3.294  0.7559  0.2447 -1.2595
  116SAPE   C1112137   1.215   5.550   3.471  0.0052 -0.4866 -0.0284
  116SAPE  H11A12138   1.179   5.653   3.491  0.5883 -0.4891  1.0942
  116SAPE  H11B12139   1.307   5.535   3.530 -0.3123  1.2592  0.9648
  116SAPE     P12140   1.149   5.356   3.633 -0.0622  0.2956  0.1739
  116SAPE   O1312141   1.026   5.282   3.667 -0.3823 -1.0284  0.6749
  116SAPE   O1412142   1.275   5.286   3.590  0.0663  0.0811 -0.1651
  116SAPE   O1212143   1.111   5.458   3.511  0.2213  0.2741  0.2534
  116SAPE   O1112144   1.180   5.441   3.758 -0.4158  1.1551  0.0038
  116SAPE    C112145   1.097   5.546   3.804 -0.7635 -0.7198  0.3985
  116SAPE    HA12146   1.153   5.636   3.838 -1.0258 -0.8085  1.0819
  116SAPE    HB12147   1.030   5.588   3.726  0.5680 -0.3942 -0.5989
  116SAPE    C212148   1.021   5.500   3.931 -0.0574 -0.3505  0.1559
  116SAPE    HS12149   0.935   5.430   3.919 -0.6925  0.1944  1.3638
  116SAPE   O2112150   0.966   5.621   4.000 -0.4747  0.2817  0.4179
  116SAPE   C2112151   0.853   5.604   4.065 -1.0638  0.2095  0.2065
  116SAPE   O2212152   0.779   5.508   4.057 -0.3799 -0.3951  0.1092
  116SAPE   C2212153   0.826   5.737   4.140 -0.0051  0.2675  0.0446
  116SAPE   H2R12154   0.923   5.779   4.175  0.1775 -1.1847  1.3863
  116SAPE   H2S12155   0.763   5.808   4.083 -1.2604 -1.0747 -0.2902
  116SAPE    C312156   1.129   5.436   4.025  0.5666  0.0545 -0.2067
  116SAPE    HX12157   1.211   5.509   4.041  1.1764 -0.5595 -0.4609
  116SAPE    HY12158   1.178   5.347   3.980  1.3133 -0.1785  1.0019
  116SAPE   O3112159   1.069   5.414   4.151  0.1625 -0.4012  0.1566
  116SAPE   C3112160   1.014   5.293   4.164 -0.0082 -0.3943  0.1773
  116SAPE   O3212161   1.024   5.197   4.094  0.3909  0.3411  0.3238
  116SAPE   C3212162   0.930   5.290   4.295  0.0832 -0.2650 -0.2562
  116SAPE   H2X12163   0.822   5.286   4.269 -0.4883 -0.1785  1.8745
  116SAPE   H2Y12164   0.952   5.384   4.349  2.6398 -1.1896  0.4520
  116SAPE   C2312165   0.737   5.722   4.269  0.0058  0.3100 -0.1465
  116SAPE   H3R12166   0.645   5.665   4.243 -0.1326  0.3000  0.3489
  116SAPE   H3S12167   0.702   5.821   4.305  1.2944  0.3531  1.0799
  116SAPE   C2412168   0.802   5.650   4.392  0.2682 -0.0192  0.0266
  116SAPE   H4R12169   0.871   5.574   4.350  0.0049  0.0787 -0.5928
  116SAPE   H4S12170   0.720   5.605   4.452 -0.9823  0.3613 -1.3455
  116SAPE   C2512171   0.885   5.746   4.478  0.0526 -0.7941 -0.1027
  116SAPE   H5R12172   0.888   5.852   4.447 -0.4179 -0.7680 -0.0703
  116SAPE   C2612173   0.967   5.696   4.565  0.1549 -0.1935 -0.0635
  116SAPE   H6R12174   1.031   5.767   4.620  0.0427 -0.5585  0.5404
  116SAPE   C2712175   0.976   5.552   4.608 -0.1089 -0.1425 -0.0003
  116SAPE   H7R12176   0.984   5.479   4.524  1.8901  1.6737 -1.5016
  116SAPE   H7S12177   0.881   5.514   4.651  0.5911 -2.2672 -0.2270
  116SAPE   C2812178   1.090   5.515   4.694 -0.4673 -0.4064 -0.7311
  116SAPE   H8R12179   1.178   5.481   4.637  0.9219  0.7331  0.6241
  116SAPE   C2912180   1.104   5.511   4.827 -0.4251 -0.1925  0.1023
  116SAPE   H9R12181   1.197   5.476   4.873 -0.9392 -1.1549  0.4256
  116SAPE  C21012182   1.002   5.563   4.919 -0.0131  0.3313  0.5181
  116SAPE  H10R12183   0.961   5.468   4.959 -1.1110 -0.8631 -3.0142
  116SAPE  H10S12184   0.917   5.602   4.859 -0.7021 -0.3764  1.0181
  116SAPE  C21112185   1.050   5.658   5.021 -0.2263 -0.2846 -0.1601
  116SAPE  H11R12186   1.107   5.743   4.979  0.3477 -0.9862 -0.8174
  116SAPE  C21212187   1.033   5.655   5.152  0.3333 -0.7047 -0.1446
  116SAPE  H12R12188   1.076   5.738   5.210  0.0525  0.1470 -1.1318
  116SAPE  C21312189   0.958   5.550   5.238 -0.2347 -0.7007  0.0898
  116SAPE  H13R12190   0.903   5.474   5.179  0.5271 -1.1392 -0.0715
  116SAPE  H13S12191   0.892   5.604   5.308  2.0604  1.6918  0.5700
  116SAPE  C21412192   1.072   5.484   5.325  0.2845  0.2938 -0.5995
  116SAPE  H14R12193   1.161   5.454   5.268  1.6735  0.4742  1.3822
  116SAPE  C21512194   1.076   5.470   5.450 -0.3538 -0.0318 -1.2907
  116SAPE  H15R12195   1.168   5.421   5.486 -1.1827 -0.8381 -0.1727
  116SAPE  C21612196   0.977   5.511   5.560 -0.4522 -0.6539 -0.7990
  116SAPE  H16R12197   0.908   5.428   5.588  2.7374 -2.3805  3.0467
  116SAPE  H16S12198   0.919   5.593   5.514  0.1089 -0.9271 -2.0203
  116SAPE  C21712199   1.042   5.568   5.696  0.5854  0.6482  0.0800
  116SAPE  H17R12200   1.108   5.486   5.730  0.0987  0.9182  1.7393
  116SAPE  H17S12201   0.959   5.573   5.770  0.1576  1.5104 -0.4374
  116SAPE  C21812202   1.110   5.702   5.683  0.3965  0.1392  0.2910
  116SAPE  H18R12203   1.042   5.788   5.664  0.7910 -0.1217 -2.8351
  116SAPE  H18S12204   1.166   5.693   5.588  0.1131 -0.2429  0.1578
  116SAPE  C21912205   1.187   5.736   5.806  0.5419  0.0044 -0.0798
  116SAPE  H19R12206   1.125   5.721   5.897 -0.6813 -3.5772 -1.3378
  116SAPE  H19S12207   1.210   5.845   5.801  1.3090 -0.1946 -2.0536
  116SAPE  C22012208   1.322   5.666   5.809  0.1647 -0.5303 -0.0005
  116SAPE  H20R12209   1.385   5.695   5.723 -0.0915 -2.3877 -0.8533
  116SAPE  H20S12210   1.305   5.558   5.786 -0.6868 -0.1323 -1.3692
  116SAPE  H20T12211   1.375   5.676   5.906  1.3858  0.0218 -0.7105
  116SAPE   C3312212   0.947   5.169   4.390 -0.4982 -0.2270  0.0082
  116SAPE   H3X12213   1.053   5.138   4.387  0.0752  1.5948  0.1829
  116SAPE   H3Y12214   0.900   5.083   4.337  0.0118 -0.6570  0.2476
  116SAPE   C3412215   0.893   5.192   4.528 -0.4248 -1.1269 -0.6144
  116SAPE   H4X12216   0.791   5.234   4.532 -0.4664 -1.2364 -0.4919
  116SAPE   H4Y12217   0.952   5.269   4.583 -2.2409 -0.2272  0.1423
  116SAPE   C3512218   0.896   5.084   4.633  0.2915 -0.3865  0.7011
  116SAPE   H5X12219   0.992   5.030   4.642 -0.6888 -2.4409 -0.4970
  116SAPE   H5Y12220   0.816   5.010   4.609  1.3904 -1.3333 -0.1669
  116SAPE   C3612221   0.871   5.148   4.773  0.2803 -0.7046 -0.2630
  116SAPE   H6X12222   0.774   5.197   4.749  1.0861  1.0503 -0.0840
  116SAPE   H6Y12223   0.944   5.232   4.780 -1.7549  1.4296 -2.6396
  116SAPE   C3712224   0.866   5.059   4.900 -0.7634  0.0494  0.3917
  116SAPE   H7X12225   0.956   4.995   4.897 -1.1034 -0.4118 -0.9802
  116SAPE   H7Y12226   0.776   4.994   4.905  0.4304 -1.6265  1.0043
  116SAPE   C3812227   0.849   5.150   5.012  0.4668 -0.2521  0.6418
  116SAPE   H8X12228   0.774   5.224   4.975 -0.7609 -0.9601  1.6430
  116SAPE   H8Y12229   0.946   5.204   5.020 -1.5224  4.3742 -2.2588
  116SAPE   C3912230   0.803   5.073   5.144 -0.0895 -0.4277 -0.2268
  116SAPE   H9X12231   0.879   4.994   5.159 -1.0334 -1.3907 -0.4432
  116SAPE   H9Y12232   0.708   5.020   5.121 -0.6719  0.6330 -0.3328
  116SAPE  C31012233   0.793   5.155   5.271 -1.1466  0.4152  1.5988
  116SAPE  H10X12234   0.718   5.235   5.254 -0.8776  0.2802 -0.4725
  116SAPE  H10Y12235   0.887   5.205   5.304 -0.2770 -0.5737  0.6729
  116SAPE  C31112236   0.757   5.069   5.396  0.0901  0.2074 -0.0487
  116SAPE  H11X12237   0.833   4.990   5.417 -1.2232 -0.9263  0.6314
  116SAPE  H11Y12238   0.658   5.020   5.383 -0.7763  1.6485  0.9014
  116SAPE  C31212239   0.742   5.153   5.525  0.6960 -1.0136  0.7893
  116SAPE  H12X12240   0.646   5.209   5.512 -0.5305 -3.4818 -2.3996
  116SAPE  H12Y12241   0.824   5.228   5.519  1.1124 -1.5213  0.0951
  116SAPE  C31312242   0.751   5.064   5.647  0.2530 -0.5182 -1.0715
  116SAPE  H13X12243   0.846   5.006   5.643 -0.2868 -1.4315 -0.8984
  116SAPE  H13Y12244   0.661   5.000   5.647 -0.4341  0.4354 -1.3870
  116SAPE  C31412245   0.756   5.159   5.776  0.6156 -0.1512  0.0471
  116SAPE  H14X12246   0.823   5.247   5.766 -1.4948  1.3037 -3.0871
  116SAPE  H14Y12247   0.801   5.119   5.870 -1.4195  0.3332  1.3081
  116SAPE  C31512248   0.614   5.209   5.798  0.1717  0.0511  0.0528
  116SAPE  H15X12249   0.548   5.122   5.815 -1.8741  1.3317 -0.9156
  116SAPE  H15Y12250   0.569   5.271   5.718 -0.0778 -0.2441 -0.0374
  116SAPE  C31612251   0.593   5.301   5.928 -0.1486 -0.0988  0.4567
  116SAPE  H16X12252   0.628   5.247   6.018 -0.3622 -1.8857 -0.4860
  116SAPE  H16Y12253   0.484   5.316   5.945 -1.1826 -2.2112 -3.2513
  116SAPE  C31712254   0.657   5.437   5.914  0.1934  0.2526  0.1025
  116SAPE  H17X12255   0.599   5.494   5.839  0.8876 -0.9123 -1.3929
  116SAPE  H17Y12256   0.765   5.435   5.887  0.2374 -0.4900  0.2978
  116SAPE  C31812257   0.656   5.519   6.044  0.2397 -0.0097 -0.1329
  116SAPE  H18X12258   0.683   5.625   6.023 -0.4016 -0.2384 -2.3998
  116SAPE  H18Y12259   0.716   5.474   6.125 -0.3270  1.5179  1.1872
  116SAPE  H18Z12260   0.550   5.530   6.077  0.0851  0.3460 -0.7326
  117SOPE     N12261   1.169   1.831   8.482 -0.5706 -0.9492 -0.1675
  117SOPE   HN112262   1.087   1.856   8.424 -0.9185 -0.1616  0.6505
  117SOPE   HN212263   1.218   1.922   8.494 -0.3319 -0.6758 -2.7327
  117SOPE   HN312264   1.234   1.772   8.426 -0.7928 -1.4678  0.1089
  117SOPE   C1212265   1.131   1.756   8.605  0.0372  0.0148  0.4571
  117SOPE  H12A12266   1.209   1.778   8.681 -0.9154  0.0620  1.4411
  117SOPE  H12B12267   1.124   1.648   8.580  1.2740 -0.6110  2.5765
  117SOPE   C1112268   0.996   1.807   8.662 -0.1161 -0.0868 -0.2247
  117SOPE  H11A12269   1.011   1.912   8.696  2.4000 -0.8798  1.3950
  117SOPE  H11B12270   0.963   1.750   8.751  1.4354 -0.8158 -0.0818
  117SOPE     P12271   0.839   1.678   8.487  0.2561 -0.0852 -0.0448
  117SOPE   O1312272   0.730   1.711   8.395  0.1009  0.2358  0.0674
  117SOPE   O1412273   0.813   1.572   8.587  0.4830  0.1976 -1.0337
  117SOPE   O1212274   0.895   1.809   8.562  0.5471  0.5108  0.2114
  117SOPE   O1112275   0.959   1.631   8.397  0.2683 -0.1643  0.0694
  117SOPE    C112276   0.983   1.489   8.379 -0.1860  0.3520  0.0135
  117SOPE    HA12277   0.952   1.424   8.464 -3.3827  1.0273 -0.5087
  117SOPE    HB12278   1.090   1.482   8.352 -0.0245  3.5236 -0.5688
  117SOPE    C212279   0.907   1.444   8.251 -0.5797 -0.7665  0.2093
  117SOPE    HS12280   0.797   1.433   8.260 -0.7013 -0.4323 -0.7763
  117SOPE   O2112281   0.975   1.323   8.208 -0.3632 -0.0137 -0.3778
  117SOPE   C2112282   0.894   1.222   8.184  0.2279  0.1714 -0.6720
  117SOPE   O2212283   0.770   1.226   8.203 -0.8878  0.1713 -0.1596
  117SOPE   C2212284   0.978   1.105   8.137  0.4900  0.2185 -0.0455
  117SOPE   H2R12285   1.054   1.083   8.215 -0.7472  2.1690  1.8151
  117SOPE   H2S12286   1.033   1.135   8.046  0.5961  0.0711 -0.0334
  117SOPE    C312287   0.919   1.561   8.148  0.1807  0.0067 -0.0651
  117SOPE    HX12288   1.017   1.612   8.160  0.6661 -0.8406 -0.3168
  117SOPE    HY12289   0.843   1.633   8.181  0.5798 -0.7517  2.7421
  117SOPE   O3112290   0.897   1.517   8.006  0.4851  0.1281 -0.9133
  117SOPE   C3112291   0.821   1.594   7.932 -0.1761  0.0580 -0.6391
  117SOPE   O3212292   0.761   1.697   7.964  0.1008 -0.0120 -0.1184
  117SOPE   C3212293   0.809   1.528   7.798 -0.0186 -0.1207 -0.2344
  117SOPE   H2X12294   0.703   1.495   7.798  0.1134 -0.5505 -0.6812
  117SOPE   H2Y12295   0.873   1.438   7.789 -2.1628 -1.7944  0.3537
  117SOPE   C2312296   0.890   0.983   8.095  0.3231 -0.4835 -0.2051
  117SOPE   H3R12297   0.810   0.970   8.171 -2.0925  1.1915 -2.2692
  117SOPE   H3S12298   0.943   0.886   8.087 -0.8085 -1.0999 -0.4169
  117SOPE   C2412299   0.829   0.996   7.954  0.3733 -0.2796  0.5088
  117SOPE   H4R12300   0.760   0.909   7.944 -4.1674  3.0532 -0.3989
  117SOPE   H4S12301   0.779   1.094   7.968  0.7754 -0.0863  0.5903
  117SOPE   C2512302   0.926   1.000   7.838 -0.1521 -0.5964 -0.9699
  117SOPE   H5R12303   1.008   1.068   7.870 -2.0117  0.7340  1.1986
  117SOPE   H5S12304   0.969   0.902   7.807  1.1720 -0.5202  0.4898
  117SOPE   C2612305   0.862   1.054   7.708 -0.5266  0.1806 -0.0065
  117SOPE   H6R12306   0.755   1.025   7.707 -1.1241  2.0897  1.6242
  117SOPE   H6S12307   0.867   1.165   7.715 -0.5419  0.1617  0.2882
  117SOPE   C2712308   0.937   1.011   7.581 -0.1212  0.1148 -0.2791
  117SOPE   H7R12309   1.041   1.050   7.582  0.1602 -0.6082 -0.4497
  117SOPE   H7S12310   0.937   0.900   7.581  0.3534  0.0336  2.7833
  117SOPE   C2812311   0.883   1.065   7.446  0.4416  0.1848  0.1664
  117SOPE   H8R12312   0.956   1.031   7.369  1.1767  0.8502  0.5442
  117SOPE   H8S12313   0.780   1.029   7.425  0.2289 -0.2984  1.8658
  117SOPE   C2912314   0.882   1.216   7.430  0.4051  0.5498 -0.2978
  117SOPE   H9112315   0.813   1.266   7.501  1.2108  0.2430  0.7297
  117SOPE  C21012316   0.941   1.304   7.342  0.2525  0.2055 -0.8362
  117SOPE  H10112317   0.910   1.409   7.336  1.0698  0.4720 -0.4799
  117SOPE  C21112318   1.036   1.273   7.239 -0.0212 -0.3628 -0.4288
  117SOPE  H11R12319   1.111   1.209   7.291 -1.4506 -1.8336 -0.0921
  117SOPE  H11S12320   1.084   1.363   7.195 -2.2482  0.4759 -1.2874
  117SOPE  C21212321   0.979   1.184   7.120 -0.3231 -0.0371  0.5139
  117SOPE  H12R12322   0.918   1.255   7.060  2.0826  2.4444  0.8632
  117SOPE  H12S12323   0.904   1.119   7.171 -1.0640  1.0593  0.8623
  117SOPE  C21312324   1.082   1.116   7.026  0.5727 -0.0322 -0.8245
  117SOPE  H13R12325   1.163   1.190   7.007  2.0762 -1.9267 -2.0994
  117SOPE  H13S12326   1.034   1.093   6.928  1.0651 -3.0697 -0.4380
  117SOPE  C21412327   1.153   0.987   7.082  0.2276 -0.1357  0.5434
  117SOPE  H14R12328   1.194   1.001   7.184  4.4317 -1.3989 -0.7724
  117SOPE  H14S12329   1.244   0.977   7.019  0.3009 -0.5333  0.7123
  117SOPE  C21512330   1.076   0.861   7.063  0.0921  0.2599  0.0488
  117SOPE  H15R12331   1.086   0.839   6.954  2.0982 -1.1087  0.4576
  117SOPE  H15S12332   0.966   0.875   7.079 -0.5017 -1.3568 -2.1511
  117SOPE  C21612333   1.138   0.755   7.154 -0.1936  0.5252  0.9375
  117SOPE  H16R12334   1.099   0.753   7.258 -1.3411  0.6432  0.5265
  117SOPE  H16S12335   1.244   0.787   7.166 -0.3358  1.6038 -0.3921
  117SOPE  C21712336   1.125   0.616   7.091 -0.3454 -0.7373  0.0629
  117SOPE  H17R12337   1.017   0.587   7.085 -0.2644 -1.7269  2.3849
  117SOPE  H17S12338   1.172   0.544   7.161  0.3580  1.0875  1.5587
  117SOPE  C21812339   1.207   0.601   6.963 -0.1822  0.2851  0.1766
  117SOPE  H18R12340   1.193   0.503   6.914 -2.0814  0.3447  0.5226
  117SOPE  H18S12341   1.316   0.602   6.985 -0.2058  1.5308  0.2983
  117SOPE  H18T12342   1.176   0.680   6.892 -0.5970  0.0563  0.1059
  117SOPE   C3312343   0.846   1.614   7.676  0.8200  0.1087  0.7528
  117SOPE   H3X12344   0.802   1.715   7.689  1.8402  0.5396  0.9902
  117SOPE   H3Y12345   0.799   1.574   7.584 -1.5015 -0.5866  2.1523
  117SOPE   C3412346   0.997   1.625   7.646 -0.4269 -0.1484 -0.0597
  117SOPE   H4X12347   1.044   1.528   7.620 -1.7016 -0.9262  0.4661
  117SOPE   H4Y12348   1.051   1.648   7.740  2.2300 -0.3710 -1.4149
  117SOPE   C3512349   1.037   1.738   7.548  0.7284 -0.3215  0.7808
  117SOPE   H5X12350   1.146   1.757   7.546  0.5550  0.6631  0.0380
  117SOPE   H5Y12351   0.985   1.830   7.582 -1.5111 -0.7406 -1.2495
  117SOPE   C3612352   0.985   1.712   7.406 -0.1000 -0.4799 -0.0347
  117SOPE   H6X12353   0.875   1.694   7.407  0.0576 -1.4772  0.8244
  117SOPE   H6Y12354   1.021   1.610   7.380  1.7088 -0.1929  1.1746
  117SOPE   C3712355   1.013   1.818   7.299 -0.7650  0.1818 -0.4024
  117SOPE   H7X12356   1.118   1.831   7.266 -0.7262 -1.5979 -1.0914
  117SOPE   H7Y12357   0.968   1.917   7.322 -0.3589  0.0180  1.1768
  117SOPE   C3812358   0.935   1.789   7.170 -0.0538 -0.5374  0.2210
  117SOPE   H8X12359   0.964   1.865   7.093  0.4358  0.7784  1.6647
  117SOPE   H8Y12360   0.827   1.796   7.191 -0.8594  0.3146 -3.3847
  117SOPE   C3912361   0.989   1.662   7.103  0.0478 -0.2290  1.5406
  117SOPE   H9X12362   0.963   1.573   7.164  1.9777 -0.6711  1.7905
  117SOPE   H9Y12363   1.100   1.670   7.097  0.2246 -3.0967 -0.9856
  117SOPE  C31012364   0.947   1.649   6.952  1.0031  0.2286 -0.4173
  117SOPE  H10X12365   0.970   1.741   6.894  1.7781  0.6896  0.5776
  117SOPE  H10Y12366   0.836   1.638   6.952  0.9659 -0.6309  2.9520
  117SOPE  C31112367   1.007   1.519   6.897 -0.8328 -0.0815  0.6714
  117SOPE  H11X12368   0.960   1.435   6.952  0.9835 -0.9688  0.9399
  117SOPE  H11Y12369   1.112   1.527   6.933 -1.0976  0.0124  1.4386
  117SOPE  C31212370   1.006   1.497   6.742  0.5892 -1.0285  0.2183
  117SOPE  H12X12371   1.051   1.587   6.696  0.7904 -0.3581  1.6698
  117SOPE  H12Y12372   0.899   1.512   6.717  0.7447 -1.0839 -0.5021
  117SOPE  C31312373   1.044   1.361   6.691 -0.5438  0.6420 -0.4660
  117SOPE  H13X12374   1.008   1.347   6.587 -1.3477 -0.5237 -0.0428
  117SOPE  H13Y12375   0.984   1.288   6.748 -0.9908  2.0557  0.9273
  117SOPE  C31412376   1.194   1.327   6.702 -0.2663 -0.8467 -0.1307
  117SOPE  H14X12377   1.230   1.333   6.807  1.3673  1.1572 -0.7347
  117SOPE  H14Y12378   1.259   1.406   6.658 -2.2945  1.0895  0.1490
  117SOPE  C31512379   1.238   1.195   6.637 -0.8599  0.1045 -0.0926
  117SOPE  H15X12380   1.149   1.138   6.603 -1.8278  0.4516  1.6916
  117SOPE  H15Y12381   1.281   1.134   6.720 -1.8436 -1.0187 -0.3867
  117SOPE  C31612382   1.345   1.200   6.530  0.3075 -0.8352 -0.4989
  117SOPE  H16X12383   1.390   1.100   6.512  1.2773 -0.5195  0.0781
  117SOPE  H16Y12384   1.421   1.277   6.556 -0.5965 -0.0218 -0.2093
  117SOPE  C31712385   1.281   1.247   6.404  0.7790  0.2895 -0.4639
  117SOPE  H17X12386   1.364   1.305   6.357  1.5833 -0.1339  0.3864
  117SOPE  H17Y12387   1.194   1.315   6.414  0.2374 -0.4341 -0.2477
  117SOPE  C31812388   1.244   1.139   6.296 -0.1794 -0.1513  0.5027
  117SOPE  H18X12389   1.340   1.098   6.259 -0.6458 -0.7651 -0.0368
  117SOPE  H18Y12390   1.185   1.198   6.223 -0.5728 -1.4786 -0.2625
  117SOPE  H18Z12391   1.171   1.063   6.332 -0.4587  0.1929  0.6747
  118SOPE     N12392   0.380   1.725   8.734  0.3843  0.4902  0.4016
  118SOPE   HN112393   0.360   1.760   8.830  1.4286 -1.8019  1.5295
  118SOPE   HN212394   0.457   1.656   8.743  0.5164  0.4099 -1.1497
  118SOPE   HN312395   0.414   1.804   8.676  1.4710  0.0163  0.3726
  118SOPE   C1212396   0.246   1.675   8.675 -0.5527 -0.2672 -0.6930
  118SOPE  H12A12397   0.170   1.729   8.735 -0.0992 -1.6484  1.2277
  118SOPE  H12B12398   0.231   1.571   8.713  1.2360  0.0167  0.9602
  118SOPE   C1112399   0.229   1.692   8.521  0.8418 -0.2446 -0.0111
  118SOPE  H11A12400   0.301   1.619   8.479  1.0021  0.2035 -0.5165
  118SOPE  H11B12401   0.260   1.796   8.497  0.0359  0.6273  2.3931
  118SOPE     P12402  -0.009   1.779   8.450  0.3405  0.3692 -0.0759
  118SOPE   O1312403   0.005   1.898   8.540 -0.8911 -0.1960 -0.8425
  118SOPE   O1412404  -0.148   1.730   8.463 -0.1191 -0.5207 -0.6282
  118SOPE   O1212405   0.097   1.661   8.486 -0.1898 -0.6456  0.2604
  118SOPE   O1112406   0.007   1.808   8.297  0.3560 -0.0108 -0.0760
  118SOPE    C112407   0.021   1.696   8.204  0.4402  0.1261  1.0792
  118SOPE    HA12408  -0.051   1.706   8.120  0.4708 -2.5885  0.6337
  118SOPE    HB12409  -0.001   1.597   8.249  1.2714 -1.6599 -2.1376
  118SOPE    C212410   0.162   1.683   8.141  0.1541 -1.0306  0.1382
  118SOPE    HS12411   0.225   1.650   8.226 -1.0396  1.5639  2.1754
  118SOPE   O2112412   0.205   1.806   8.083  0.0287 -0.1757 -0.8865
  118SOPE   C2112413   0.323   1.850   8.131 -0.6677 -0.3273  0.6011
  118SOPE   O2212414   0.390   1.799   8.218  0.0488 -0.0862 -0.3482
  118SOPE   C2212415   0.370   1.982   8.052  0.0346  0.2588 -0.0811
  118SOPE   H2R12416   0.433   2.033   8.127  1.8875 -3.4272  1.1454
  118SOPE   H2S12417   0.281   2.040   8.019  0.5835  2.1067  1.5581
  118SOPE    C312418   0.160   1.576   8.027 -0.2273  0.4844  1.6349
  118SOPE    HX12419   0.091   1.612   7.947  1.1082  1.6067  0.9451
  118SOPE    HY12420   0.116   1.481   8.065  2.7171 -1.5462  0.3514
  118SOPE   O3112421   0.291   1.544   7.967  0.1756 -0.2487  0.2396
  118SOPE   C3112422   0.366   1.452   8.032  0.9250  0.6672 -0.0719
  118SOPE   O3212423   0.340   1.401   8.135 -0.2555  0.1526  0.6894
  118SOPE   C3212424   0.490   1.415   7.953 -0.2804 -0.0519  0.4628
  118SOPE   H2X12425   0.578   1.443   8.014  0.2480  1.1953 -0.8203
  118SOPE   H2Y12426   0.493   1.478   7.862 -2.9570 -1.0043 -0.4045
  118SOPE   C2312427   0.465   1.953   7.936 -0.4498 -0.1099  0.7554
  118SOPE   H3R12428   0.557   1.904   7.974  2.1287  1.7096 -2.5895
  118SOPE   H3S12429   0.510   2.046   7.896 -2.9677  0.7029 -0.4319
  118SOPE   C2412430   0.405   1.864   7.823  0.4644  0.3338 -0.4215
  118SOPE   H4R12431   0.386   1.759   7.854 -0.3102  0.0261 -1.8140
  118SOPE   H4S12432   0.307   1.912   7.801  1.2907  2.6540  0.7001
  118SOPE   C2512433   0.498   1.862   7.697 -0.7620 -0.5142 -0.2994
  118SOPE   H5R12434   0.502   1.961   7.648 -1.3512  0.0534  0.7720
  118SOPE   H5S12435   0.603   1.844   7.729 -0.5430  3.3741  1.7479
  118SOPE   C2612436   0.452   1.751   7.600 -0.4393 -0.5233 -0.5604
  118SOPE   H6R12437   0.545   1.717   7.549  0.5668 -0.7154  1.3293
  118SOPE   H6S12438   0.415   1.673   7.670 -1.7768  1.2154  0.7584
  118SOPE   C2712439   0.337   1.777   7.504  0.6757 -0.0026 -0.2725
  118SOPE   H7R12440   0.303   1.678   7.465 -1.1512  0.4596  0.0533
  118SOPE   H7S12441   0.253   1.822   7.560  1.1706  0.8952 -0.2432
  118SOPE   C2812442   0.362   1.876   7.392 -0.2022  0.9598 -0.6539
  118SOPE   H8R12443   0.273   1.890   7.327  1.0129  3.2460 -1.9620
  118SOPE   H8S12444   0.382   1.972   7.444  1.9050 -0.1989  0.8240
  118SOPE   C2912445   0.487   1.846   7.308 -0.1819  0.0422  1.0725
  118SOPE   H9112446   0.581   1.878   7.355 -0.5885  2.3093  0.4834
  118SOPE  C21012447   0.482   1.776   7.190 -0.1414 -0.9086  0.1017
  118SOPE  H10112448   0.570   1.770   7.124 -0.6894  0.6327 -0.8364
  118SOPE  C21112449   0.354   1.730   7.115  0.4480 -0.4035 -0.3342
  118SOPE  H11R12450   0.262   1.780   7.151  1.8955  1.0556  1.5781
  118SOPE  H11S12451   0.344   1.619   7.121  0.8993 -0.3615  2.2976
  118SOPE  C21212452   0.373   1.760   6.963 -0.6410  0.6885  0.3654
  118SOPE  H12R12453   0.379   1.864   6.925  0.6294 -0.0007 -1.4831
  118SOPE  H12S12454   0.283   1.724   6.909 -0.2440  0.0486  0.1120
  118SOPE  C21312455   0.488   1.680   6.888 -0.1864  0.1742 -0.2879
  118SOPE  H13R12456   0.458   1.574   6.871  1.3441 -0.3138 -0.1368
  118SOPE  H13S12457   0.569   1.666   6.963 -1.1266  0.6773  0.8584
  118SOPE  C21412458   0.515   1.763   6.763  0.7499  0.5571  0.4607
  118SOPE  H14R12459   0.537   1.865   6.801  0.5411  0.6887  0.2261
  118SOPE  H14S12460   0.418   1.771   6.710  0.8014  1.4151  0.4844
  118SOPE  C21512461   0.624   1.710   6.674 -0.4999  0.0035  0.1295
  118SOPE  H15R12462   0.718   1.681   6.727 -0.2741  0.2920 -0.1083
  118SOPE  H15S12463   0.654   1.797   6.612 -0.7099 -0.7915 -1.1277
  118SOPE  C21612464   0.574   1.598   6.573 -0.0077  0.7320 -0.3555
  118SOPE  H16R12465   0.539   1.515   6.638 -1.2064  0.3666 -1.4295
  118SOPE  H16S12466   0.659   1.569   6.508  1.1884  2.0180  0.5710
  118SOPE  C21712467   0.455   1.646   6.482 -0.1404 -0.5072 -0.1981
  118SOPE  H17R12468   0.484   1.744   6.439 -0.4535 -0.0051  0.7116
  118SOPE  H17S12469   0.363   1.671   6.539  1.3787 -0.3029  2.3365
  118SOPE  C21812470   0.425   1.548   6.371  0.2612 -0.4825  0.2577
  118SOPE  H18R12471   0.349   1.584   6.299  0.1459  0.3348  0.7657
  118SOPE  H18S12472   0.390   1.452   6.414 -0.2101 -0.6878 -0.5809
  118SOPE  H18T12473   0.521   1.510   6.330  0.4877 -1.2254  1.4127
  118SOPE   C3312474   0.494   1.265   7.920 -0.8050 -0.2425 -0.4722
  118SOPE   H3X12475   0.528   1.220   8.015  0.8501  0.6952 -0.5830
  118SOPE   H3Y12476   0.577   1.243   7.849 -1.0181 -1.7161 -0.2957
  118SOPE   C3412477   0.380   1.206   7.846 -0.1492  0.2500  0.8611
  118SOPE   H4X12478   0.276   1.217   7.884 -1.1560 -4.2716 -0.0214
  118SOPE   H4Y12479   0.387   1.096   7.853  1.5762  0.1801 -1.1148
  118SOPE   C3512480   0.373   1.239   7.703 -0.0593  0.7520  0.9379
  118SOPE   H5X12481   0.368   1.349   7.684  0.5014  0.4557 -1.1886
  118SOPE   H5Y12482   0.280   1.195   7.661 -0.4231  2.1423  0.2270
  118SOPE   C3612483   0.490   1.174   7.621 -0.5281 -0.8568  0.0061
  118SOPE   H6X12484   0.478   1.064   7.619  3.9502 -1.5523  0.7013
  118SOPE   H6Y12485   0.592   1.205   7.652 -1.9518  0.9927  3.4535
  118SOPE   C3712486   0.472   1.208   7.471  0.1360  0.0467  0.0473
  118SOPE   H7X12487   0.378   1.168   7.428  0.1741 -1.3120  1.1382
  118SOPE   H7Y12488   0.545   1.154   7.408  1.7498 -0.7772  2.4690
  118SOPE   C3812489   0.505   1.358   7.421  0.3332  0.1027  0.9351
  118SOPE   H8X12490   0.597   1.407   7.460  1.6734 -0.6297 -1.0916
  118SOPE   H8Y12491   0.426   1.418   7.471 -0.3665 -1.2840  1.5181
  118SOPE   C3912492   0.491   1.388   7.266 -0.2687  0.3817 -0.4271
  118SOPE   H9X12493   0.504   1.496   7.247  0.4757  0.6567  1.4168
  118SOPE   H9Y12494   0.391   1.358   7.229  0.0654  0.5138 -1.4715
  118SOPE  C31012495   0.596   1.302   7.174  0.1433 -0.6242 -0.9784
  118SOPE  H10X12496   0.597   1.199   7.214  3.6900 -0.1402  0.5700
  118SOPE  H10Y12497   0.701   1.335   7.192 -0.2736 -0.5321  1.5723
  118SOPE  C31112498   0.557   1.309   7.026  0.2830 -0.4642  0.0342
  118SOPE  H11X12499   0.578   1.411   6.988 -0.7928 -0.3531 -0.3121
  118SOPE  H11Y12500   0.447   1.299   7.012  0.2473  0.0112 -0.0498
  118SOPE  C31212501   0.635   1.211   6.938 -0.5313  0.6404  0.4657
  118SOPE  H12X12502   0.595   1.109   6.958  1.3556 -0.6010 -1.5571
  118SOPE  H12Y12503   0.743   1.193   6.957 -0.2433 -0.4655 -1.8397
  118SOPE  C31312504   0.637   1.249   6.789 -0.0035  0.8893  0.4681
  118SOPE  H13X12505   0.697   1.341   6.768  3.0591 -0.7171  1.5802
  118SOPE  H13Y12506   0.532   1.267   6.759 -0.6442 -0.1519  1.9887
  118SOPE  C31412507   0.693   1.135   6.691 -0.4416  0.0962 -0.4205
  118SOPE  H14X12508   0.723   1.170   6.590 -1.0414 -1.5463 -1.2141
  118SOPE  H14Y12509   0.605   1.069   6.672 -0.6322  0.1709  0.1749
  118SOPE  C31512510   0.808   1.055   6.745 -0.0916  0.6433 -0.2874
  118SOPE  H15X12511   0.768   0.981   6.818  2.0786 -2.3655 -1.9174
  118SOPE  H15Y12512   0.893   1.113   6.786  0.5092 -0.0146 -0.5675
  118SOPE  C31612513   0.866   0.973   6.622 -0.8512  0.4216 -0.5563
  118SOPE  H16X12514   0.904   1.036   6.539  0.7501  1.5164  0.9123
  118SOPE  H16Y12515   0.789   0.898   6.596 -0.7858 -0.3628  1.3559
  118SOPE  C31712516   0.972   0.873   6.671  0.0702  0.1209  0.1730
  118SOPE  H17X12517   0.934   0.820   6.760 -0.2474  0.5405  0.2895
  118SOPE  H17Y12518   1.056   0.939   6.702  0.4017 -0.1361 -0.1572
  118SOPE  C31812519   1.010   0.774   6.562  0.5769 -0.3929  1.0786
  118SOPE  H18X12520   0.930   0.750   6.489  0.6668 -0.6784  1.0708
  118SOPE  H18Y12521   1.044   0.675   6.601  0.2343 -1.3040 -0.8143
  118SOPE  H18Z12522   1.086   0.820   6.494 -1.9992  1.7290 -0.5460
  119SOPE     N12523   6.319   4.436   8.730 -0.2996  0.7522 -0.4217
  119SOPE   HN112524   6.243   4.477   8.672  1.3020  1.9115 -1.7960
  119SOPE   HN212525   6.285   4.364   8.797  0.1775 -0.2203 -1.1902
  119SOPE   HN312526   6.367   4.515   8.777 -0.9198  1.0788 -0.3219
  119SOPE   C1212527   6.421   4.374   8.633  0.0786  0.3803 -0.6147
  119SOPE  H12A12528   6.390   4.273   8.599 -0.8054  0.7560 -0.9598
  119SOPE  H12B12529   6.510   4.347   8.694 -1.0227 -0.7001  0.5698
  119SOPE   C1112530   6.470   4.456   8.518  0.5114 -0.9103  0.0915
  119SOPE  H11A12531   6.388   4.463   8.444  2.3152 -2.0805 -2.1564
  119SOPE  H11B12532   6.550   4.401   8.463  0.8404  0.8024 -1.1989
  119SOPE     P12533   6.621   4.667   8.495 -0.0001  0.0389  0.5061
  119SOPE   O1312534   6.752   4.618   8.544  0.1372  0.3247 -0.3334
  119SOPE   O1412535   6.598   4.810   8.529 -0.2123 -0.4375 -0.6082
  119SOPE   O1212536   6.504   4.585   8.563 -0.3448 -0.1808 -0.0977
  119SOPE   O1112537   6.611   4.641   8.340  0.4906 -0.0325 -0.0505
  119SOPE    C112538   6.602   4.754   8.247 -0.2500  0.0956 -0.5954
  119SOPE    HA12539   6.650   4.724   8.151  1.1428  2.6182 -0.7737
  119SOPE    HB12540   6.651   4.844   8.288 -0.8336 -0.5087  1.5386
  119SOPE    C212541   6.459   4.791   8.204  0.1239 -0.5833  0.7182
  119SOPE    HS12542   6.420   4.844   8.293  1.0758  2.6426 -0.6718
  119SOPE   O2112543   6.379   4.670   8.184  0.2153  0.3187 -0.0544
  119SOPE   C2112544   6.250   4.675   8.205 -0.2969  0.1047  0.1447
  119SOPE   O2212545   6.188   4.777   8.204  0.3704 -0.2367 -0.2850
  119SOPE   C2212546   6.193   4.541   8.211  0.0651 -0.2151  0.4323
  119SOPE   H2R12547   6.092   4.548   8.257 -0.6267 -0.0136 -1.0516
  119SOPE   H2S12548   6.260   4.478   8.274 -0.0468  0.6576  1.4581
  119SOPE    C312549   6.444   4.887   8.084  0.0788  0.3257  0.3077
  119SOPE    HX12550   6.499   4.978   8.114  2.5210 -1.3454  1.1830
  119SOPE    HY12551   6.341   4.924   8.064  0.0974  1.0869  1.5008
  119SOPE   O3112552   6.502   4.829   7.970  0.0501 -0.3465  0.3680
  119SOPE   C3112553   6.418   4.761   7.893  0.4774 -0.0063 -0.0199
  119SOPE   O3212554   6.300   4.754   7.913  0.3588  0.2540  0.4010
  119SOPE   C3212555   6.491   4.683   7.784  0.1459 -0.4223  0.0228
  119SOPE   H2X12556   6.533   4.592   7.833  0.2942 -1.0321 -1.2132
  119SOPE   H2Y12557   6.581   4.734   7.744 -1.0164 -0.6449 -3.1232
  119SOPE   C2312558   6.187   4.464   8.070  0.1437 -0.4855  0.0189
  119SOPE   H3R12559   6.285   4.426   8.034  0.3518 -0.4754  0.5771
  119SOPE   H3S12560   6.152   4.534   7.990 -0.7213 -1.2527 -0.2934
  119SOPE   C2412561   6.080   4.345   8.069 -0.8204  0.0994  0.3691
  119SOPE   H4R12562   6.098   4.264   8.142  0.1885  0.6284  0.7288
  119SOPE   H4S12563   5.982   4.384   8.104  0.0507 -0.6766  4.1503
  119SOPE   C2512564   6.045   4.275   7.937 -0.2639  0.4673  0.4543
  119SOPE   H5R12565   5.942   4.235   7.937 -0.2433  0.3104 -1.4643
  119SOPE   H5S12566   6.057   4.347   7.853  1.3001 -2.2315 -1.8067
  119SOPE   C2612567   6.148   4.162   7.901 -0.2313 -0.1863 -0.2153
  119SOPE   H6R12568   6.243   4.217   7.887  1.1300 -2.7006 -1.4670
  119SOPE   H6S12569   6.155   4.088   7.984  2.6692 -0.7059 -0.8293
  119SOPE   C2712570   6.132   4.097   7.761  0.0249 -0.5931 -0.0477
  119SOPE   H7R12571   6.176   3.997   7.778 -2.7379 -1.4501  2.9613
  119SOPE   H7S12572   6.023   4.084   7.743 -0.0911 -1.2137  1.0387
  119SOPE   C2812573   6.209   4.167   7.644  0.4135 -0.2293  0.9659
  119SOPE   H8R12574   6.313   4.163   7.684  1.1061 -2.4135 -0.8167
  119SOPE   H8S12575   6.213   4.090   7.563  0.8426  1.0038 -0.2147
  119SOPE   C2912576   6.151   4.304   7.601 -0.6791  0.1612 -0.0154
  119SOPE   H9112577   6.144   4.380   7.681 -0.8552  1.8347 -1.5625
  119SOPE  C21012578   6.095   4.342   7.481  0.0425  0.2205 -0.6997
  119SOPE  H10112579   6.051   4.443   7.470 -0.3175  0.2838  1.0244
  119SOPE  C21112580   6.100   4.246   7.364  0.3148 -1.0416 -0.5616
  119SOPE  H11R12581   6.008   4.184   7.360 -1.1801  1.1296 -2.3140
  119SOPE  H11S12582   6.191   4.183   7.375 -0.5750 -1.9332  2.7625
  119SOPE  C21212583   6.118   4.334   7.241 -0.1683 -0.4933  0.5029
  119SOPE  H12R12584   6.226   4.356   7.225  0.0917 -0.0205  2.6324
  119SOPE  H12S12585   6.060   4.428   7.239  1.0329  0.2576 -0.2767
  119SOPE  C21312586   6.067   4.248   7.121 -0.7311  0.2112 -0.6332
  119SOPE  H13R12587   5.959   4.224   7.130 -0.5264  0.0802  3.0947
  119SOPE  H13S12588   6.122   4.152   7.128  0.3167  0.9118  2.5941
  119SOPE  C21412589   6.085   4.309   6.988  0.4201 -0.3434  0.2583
  119SOPE  H14R12590   6.192   4.334   6.978 -0.2903  3.9298  1.5464
  119SOPE  H14S12591   6.025   4.402   6.980 -0.3836 -0.8254  0.5450
  119SOPE  C21512592   6.039   4.212   6.864 -0.0935  0.6496 -0.5115
  119SOPE  H15R12593   5.934   4.184   6.884  0.7637 -1.3401  1.8200
  119SOPE  H15S12594   6.109   4.125   6.866  0.1276  0.8176 -0.9657
  119SOPE  C21612595   6.065   4.283   6.733  0.1849 -0.8313 -0.4540
  119SOPE  H16R12596   6.025   4.387   6.735  0.6672 -0.6481  1.1077
  119SOPE  H16S12597   6.000   4.235   6.657 -1.9286  1.9474 -0.5465
  119SOPE  C21712598   6.209   4.273   6.692 -0.2068  0.1004 -0.6296
  119SOPE  H17R12599   6.224   4.166   6.664 -0.6046  0.3602 -1.9368
  119SOPE  H17S12600   6.276   4.303   6.775 -0.2619 -0.8055 -0.2511
  119SOPE  C21812601   6.245   4.358   6.570  0.4872  0.5120  0.3011
  119SOPE  H18R12602   6.350   4.335   6.544  0.8566  0.0035  2.1001
  119SOPE  H18S12603   6.228   4.464   6.599  1.9382  0.6943  0.5500
  119SOPE  H18T12604   6.165   4.357   6.493 -0.3536  3.2901  1.0107
  119SOPE   C3312605   6.405   4.635   7.668  0.0035 -0.5257 -0.0525
  119SOPE   H3X12606   6.324   4.709   7.655 -0.9722 -1.0802  2.4086
  119SOPE   H3Y12607   6.342   4.544   7.677 -0.4436 -0.5769 -2.6669
  119SOPE   C3412608   6.482   4.625   7.528  0.6181  0.2388  0.3027
  119SOPE   H4X12609   6.564   4.550   7.530  0.2106 -0.2194  0.2042
  119SOPE   H4Y12610   6.530   4.725   7.521 -1.7500  1.4259 -0.3068
  119SOPE   C3512611   6.380   4.606   7.414 -0.1038  0.3780  0.6507
  119SOPE   H5X12612   6.304   4.685   7.430  0.0802  0.7794 -0.4018
  119SOPE   H5Y12613   6.343   4.502   7.427  0.0867  0.3656  1.1320
  119SOPE   C3612614   6.449   4.619   7.274 -0.4657 -0.5139 -0.2808
  119SOPE   H6X12615   6.498   4.520   7.266 -2.9624 -1.8537  0.0182
  119SOPE   H6Y12616   6.521   4.703   7.284 -1.6515  0.4729  0.3889
  119SOPE   C3712617   6.362   4.651   7.150  0.8007 -0.6576  0.5269
  119SOPE   H7X12618   6.326   4.756   7.142 -1.7803 -1.1404  3.7090
  119SOPE   H7Y12619   6.271   4.589   7.164  2.4284 -2.9875  1.4870
  119SOPE   C3812620   6.420   4.608   7.015  0.2963  0.0185 -0.1774
  119SOPE   H8X12621   6.349   4.628   6.932 -0.3616  2.4290  0.8824
  119SOPE   H8Y12622   6.440   4.499   7.022 -1.1613 -0.2155  0.8563
  119SOPE   C3912623   6.549   4.673   6.972 -0.0733 -0.5258  0.1617
  119SOPE   H9X12624   6.616   4.659   7.060  0.7188 -1.1542 -0.5175
  119SOPE   H9Y12625   6.540   4.782   6.952  2.9975 -0.4863 -1.7354
  119SOPE  C31012626   6.621   4.615   6.847 -0.1885 -0.7230 -0.5267
  119SOPE  H10X12627   6.644   4.509   6.872  0.2307 -0.1790  1.5828
  119SOPE  H10Y12628   6.716   4.670   6.836 -0.9400  0.5179 -0.9715
  119SOPE  C31112629   6.557   4.622   6.706  0.4118 -0.4102  0.1565
  119SOPE  H11X12630   6.523   4.728   6.694  1.5589  0.2795  2.4550
  119SOPE  H11Y12631   6.467   4.557   6.714 -0.0112  0.0138 -0.9737
  119SOPE  C31212632   6.649   4.576   6.587  0.2276 -0.3091  0.2969
  119SOPE  H12X12633   6.703   4.483   6.616  0.2203 -0.4393 -0.1129
  119SOPE  H12Y12634   6.729   4.653   6.592 -0.7790  0.8023 -0.3013
  119SOPE  C31312635   6.581   4.554   6.456 -0.0044 -0.1779  0.2966
  119SOPE  H13X12636   6.473   4.530   6.469 -0.7384  0.3145 -3.5572
  119SOPE  H13Y12637   6.612   4.455   6.416 -2.0988 -1.1381  0.8936
  119SOPE  C31412638   6.576   4.660   6.351 -0.7380 -0.1263  1.3420
  119SOPE  H14X12639   6.684   4.687   6.343 -1.1819  2.0468  1.9609
  119SOPE  H14Y12640   6.523   4.750   6.388  0.2484  1.4136 -0.7594
  119SOPE  C31512641   6.526   4.607   6.209  0.2165  0.5325 -0.5266
  119SOPE  H15X12642   6.504   4.699   6.151 -2.3969  0.8881  0.9100
  119SOPE  H15Y12643   6.424   4.566   6.225  0.8674 -1.0151 -0.1425
  119SOPE  C31612644   6.621   4.513   6.136 -0.1349 -0.0092  0.4617
  119SOPE  H16X12645   6.559   4.468   6.055  1.0913  1.8618 -1.6346
  119SOPE  H16Y12646   6.665   4.433   6.199 -1.2918 -1.3269 -0.3451
  119SOPE  C31712647   6.733   4.587   6.063 -0.1091 -0.6653 -0.4679
  119SOPE  H17X12648   6.774   4.653   6.142  0.5974 -1.4322 -0.1927
  119SOPE  H17Y12649   6.695   4.647   5.977 -2.2082  1.7051  1.9066
  119SOPE  C31812650   6.840   4.505   5.998  0.4351  0.2947  0.1241
  119SOPE  H18X12651   6.906   4.457   6.072 -0.2856 -0.3793  0.3396
  119SOPE  H18Y12652   6.910   4.568   5.938  1.0184  0.2270  0.7255
  119SOPE  H18Z12653   6.797   4.431   5.928 -0.0457  1.0109 -0.3533
  120SOPE     N12654   2.734   6.610   8.210 -0.3006 -0.2938 -0.3773
  120SOPE   HN112655   2.680   6.523   8.192  0.6496 -1.3344  1.5476
  120SOPE   HN212656   2.665   6.673   8.253 -1.4935 -0.9762 -1.2242
  120SOPE   HN312657   2.763   6.642   8.115 -0.3607  0.1316 -0.2565
  120SOPE   C1212658   2.853   6.574   8.295 -0.2743  0.2405 -0.1551
  120SOPE  H12A12659   2.925   6.503   8.249 -0.5883 -0.7855  0.8841
  120SOPE  H12B12660   2.812   6.530   8.388  2.9243 -2.5517  0.1127
  120SOPE   C1112661   2.924   6.704   8.345  0.5856  0.2881 -0.5570
  120SOPE  H11A12662   2.994   6.671   8.424 -0.5815  0.1482  0.4562
  120SOPE  H11B12663   2.853   6.774   8.394  0.7937 -1.0925  1.8961
  120SOPE     P12664   3.097   6.888   8.286 -0.3410  0.0446 -0.3740
  120SOPE   O1312665   3.201   6.823   8.366  0.0685  0.4662 -0.2165
  120SOPE   O1412666   3.021   7.005   8.339  0.0002 -0.2387  0.0986
  120SOPE   O1212667   2.993   6.773   8.242  0.0046 -0.4315  0.4510
  120SOPE   O1112668   3.170   6.937   8.158  0.1307 -0.8110 -0.2994
  120SOPE    C112669   3.138   6.906   8.024  0.2698  0.2702  0.2338
  120SOPE    HA12670   3.036   6.864   8.013 -0.5288  2.7994 -3.9064
  120SOPE    HB12671   3.200   6.821   7.988 -1.8863  0.0136 -3.2477
  120SOPE    C212672   3.150   7.021   7.924  0.8258 -0.0343  0.1917
  120SOPE    HS12673   3.079   7.100   7.960  2.3752  2.4217 -1.8152
  120SOPE   O2112674   3.116   6.973   7.794  0.3267  0.6568  0.2531
  120SOPE   C2112675   3.039   7.054   7.731 -0.4745 -0.3470  0.1782
  120SOPE   O2212676   3.016   7.170   7.764  0.1174  0.5772  0.1100
  120SOPE   C2212677   2.958   6.980   7.619 -0.0942  0.2660 -0.1971
  120SOPE   H2R12678   2.906   6.891   7.660  0.9572 -0.9222 -1.3230
  120SOPE   H2S12679   3.039   6.947   7.550 -0.0119  0.8344 -0.3746
  120SOPE    C312680   3.286   7.082   7.947 -0.4973  0.4263  0.2723
  120SOPE    HX12681   3.362   7.001   7.947 -2.6137 -1.7659 -2.5656
  120SOPE    HY12682   3.292   7.135   8.045  1.2449 -0.0998  0.4901
  120SOPE   O3112683   3.328   7.169   7.843 -0.7163  0.0123 -0.2810
  120SOPE   C3112684   3.269   7.296   7.844 -0.1843 -0.8819 -0.3747
  120SOPE   O3212685   3.219   7.348   7.942  0.0273  0.3482 -0.5050
  120SOPE   C3212686   3.307   7.368   7.717 -0.4769  0.3025 -0.7284
  120SOPE   H2X12687   3.417   7.374   7.708 -0.2185  0.8031  1.9105
  120SOPE   H2Y12688   3.262   7.469   7.717 -3.1294 -0.7628  1.0758
  120SOPE   C2312689   2.869   7.072   7.529 -0.0721 -0.4750 -0.8275
  120SOPE   H3R12690   2.917   7.172   7.529 -0.6127 -0.1328  1.9238
  120SOPE   H3S12691   2.772   7.080   7.584 -1.5745  1.0054 -3.4826
  120SOPE   C2412692   2.843   7.020   7.388 -0.3493 -0.1446 -0.2422
  120SOPE   H4R12693   2.813   6.913   7.397  2.6022 -0.9607  1.0807
  120SOPE   H4S12694   2.756   7.077   7.348  0.1851 -0.9439 -2.7045
  120SOPE   C2512695   2.959   7.011   7.283  0.1001 -0.5374 -0.0625
  120SOPE   H5R12696   3.009   7.110   7.278  0.7131 -0.8768 -0.9847
  120SOPE   H5S12697   3.030   6.937   7.326  1.4167  1.3171  1.0872
  120SOPE   C2612698   2.900   6.966   7.152 -0.2252 -0.0200 -0.1519
  120SOPE   H6R12699   2.856   6.864   7.160 -1.2738  0.4749  0.6577
  120SOPE   H6S12700   2.801   7.015   7.142 -0.8776 -1.1611  0.4397
  120SOPE   C2712701   2.994   6.997   7.041 -0.4423 -0.0886 -0.3133
  120SOPE   H7R12702   3.051   7.088   7.066  1.1824 -1.3388  0.7641
  120SOPE   H7S12703   3.063   6.910   7.048 -1.7724 -1.1447  0.2108
  120SOPE   C2812704   2.932   7.001   6.902  0.4401  0.3991 -0.3142
  120SOPE   H8R12705   2.850   6.927   6.909  1.1756 -0.3002  1.3058
  120SOPE   H8S12706   2.878   7.097   6.882 -1.0053 -0.6218 -1.5211
  120SOPE   C2912707   3.027   6.969   6.790  0.3904 -0.2050  0.0754
  120SOPE   H9112708   3.045   6.860   6.791 -2.6785 -0.9539 -3.0313
  120SOPE  C21012709   3.107   7.046   6.714 -0.1525  0.1150  0.5974
  120SOPE  H10112710   3.170   6.984   6.648  0.5092 -1.4219  2.5736
  120SOPE  C21112711   3.105   7.192   6.708 -0.1737 -0.0634 -0.4830
  120SOPE  H11R12712   3.205   7.236   6.729  1.2541 -3.1088 -0.3545
  120SOPE  H11S12713   3.035   7.232   6.785  0.9782  0.4066  0.3472
  120SOPE  C21212714   3.045   7.240   6.576  0.0075  0.5207  0.6876
  120SOPE  H12R12715   2.943   7.200   6.556  0.3972 -0.4924  0.6500
  120SOPE  H12S12716   3.111   7.216   6.489 -1.2440 -0.4713 -0.0209
  120SOPE  C21312717   3.004   7.390   6.576 -0.2251  0.0302  0.5235
  120SOPE  H13R12718   3.090   7.444   6.621 -0.0155  0.0993  0.0426
  120SOPE  H13S12719   2.920   7.408   6.647 -0.1709  3.0305 -0.0378
  120SOPE  C21412720   2.964   7.451   6.437 -0.0299  0.2971  0.1230
  120SOPE  H14R12721   3.063   7.451   6.387 -0.0104 -0.6293  0.1381
  120SOPE  H14S12722   2.917   7.551   6.446 -0.0465  0.3238 -0.2330
  120SOPE  C21512723   2.855   7.368   6.372  0.0699  0.1132  1.3896
  120SOPE  H15R12724   2.778   7.337   6.445  0.7427  0.3790  2.2216
  120SOPE  H15S12725   2.902   7.271   6.345 -1.2382 -0.1781 -0.0027
  120SOPE  C21612726   2.795   7.432   6.246 -0.0789  1.0862  0.3638
  120SOPE  H16R12727   2.733   7.345   6.218  0.8913 -0.2261  2.0913
  120SOPE  H16S12728   2.868   7.431   6.163 -1.3919 -0.3617 -0.8286
  120SOPE  C21712729   2.722   7.571   6.258 -0.0481  0.9566 -0.4004
  120SOPE  H17R12730   2.670   7.579   6.356 -0.5522  1.5961 -0.7211
  120SOPE  H17S12731   2.638   7.592   6.189  0.1529  0.2932 -0.8585
  120SOPE  C21812732   2.812   7.690   6.234 -0.2794  0.1974  0.2314
  120SOPE  H18R12733   2.812   7.720   6.128 -2.6798  1.7259  0.5887
  120SOPE  H18S12734   2.916   7.674   6.270 -0.2554 -3.1470 -0.9824
  120SOPE  H18T12735   2.770   7.773   6.295  2.0026  1.0307  0.7521
  120SOPE   C3312736   3.261   7.291   7.585 -0.0251  0.4135 -0.7603
  120SOPE   H3X12737   3.151   7.289   7.574  0.0405 -2.2617 -1.6333
  120SOPE   H3Y12738   3.300   7.189   7.605 -1.9058 -0.5213 -1.6327
  120SOPE   C3412739   3.328   7.344   7.459  0.2584 -0.5482  0.6466
  120SOPE   H4X12740   3.438   7.335   7.472  0.3998  1.7348  1.5795
  120SOPE   H4Y12741   3.295   7.450   7.447 -2.7542 -1.2129  2.0399
  120SOPE   C3512742   3.290   7.268   7.332 -0.0299  0.3973  0.7140
  120SOPE   H5X12743   3.198   7.312   7.288  0.9759  0.5966 -1.2924
  120SOPE   H5Y12744   3.279   7.162   7.362  1.6489  0.5735  2.1663
  120SOPE   C3612745   3.400   7.282   7.219  0.7365  0.4980  0.3365
  120SOPE   H6X12746   3.487   7.238   7.272 -0.0945  2.2193  3.3487
  120SOPE   H6Y12747   3.422   7.390   7.206  1.1263  0.6448  2.0265
  120SOPE   C3712748   3.365   7.212   7.084 -0.7301  0.4346  0.0951
  120SOPE   H7X12749   3.296   7.274   7.022  0.4125 -0.7444 -2.5057
  120SOPE   H7Y12750   3.322   7.111   7.097 -2.4162  0.9543 -1.0169
  120SOPE   C3812751   3.490   7.191   6.998  0.6596 -0.0460 -1.2003
  120SOPE   H8X12752   3.540   7.095   7.021 -2.2749 -0.8924  2.8180
  120SOPE   H8Y12753   3.559   7.277   7.012  1.4351 -0.8702  0.3066
  120SOPE   C3912754   3.450   7.192   6.847  0.4892  0.0746 -0.2724
  120SOPE   H9X12755   3.408   7.291   6.823  1.3765  0.5365  0.0346
  120SOPE   H9Y12756   3.380   7.108   6.827  0.5500 -0.0946  0.2129
  120SOPE  C31012757   3.575   7.167   6.762  0.1836 -0.0799 -0.1760
  120SOPE  H10X12758   3.613   7.065   6.782 -0.8426 -0.3049  0.7207
  120SOPE  H10Y12759   3.652   7.238   6.798 -0.3974  2.2643 -3.1422
  120SOPE  C31112760   3.559   7.192   6.612  0.2244 -0.0949 -0.8324
  120SOPE  H11X12761   3.459   7.149   6.587 -0.2046 -0.1340  0.8245
  120SOPE  H11Y12762   3.637   7.128   6.566 -0.5287 -1.3769 -0.3903
  120SOPE  C31212763   3.555   7.337   6.564  0.4659 -0.5845 -0.0508
  120SOPE  H12X12764   3.658   7.377   6.571  0.2286 -0.0783  0.8350
  120SOPE  H12Y12765   3.481   7.391   6.628  2.0281  0.9710  0.5236
  120SOPE  C31312766   3.513   7.355   6.414  0.8069 -0.2129  0.6104
  120SOPE  H13X12767   3.413   7.313   6.389  0.2541  0.9412  0.7769
  120SOPE  H13Y12768   3.590   7.296   6.361  0.4708 -0.8426  0.8156
  120SOPE  C31412769   3.527   7.497   6.365 -0.0513 -0.4057 -0.1473
  120SOPE  H14X12770   3.635   7.517   6.353 -0.1051  0.0927  0.1432
  120SOPE  H14Y12771   3.480   7.555   6.447  1.9349  1.8261 -0.4969
  120SOPE  C31512772   3.460   7.521   6.233  0.6134  0.8791  0.5277
  120SOPE  H15X12773   3.362   7.468   6.242  2.2526 -2.2910  1.1577
  120SOPE  H15Y12774   3.535   7.468   6.171  0.1973 -0.6982  1.3351
  120SOPE  C31612775   3.434   7.669   6.197 -0.4745 -0.1158 -0.3267
  120SOPE  H16X12776   3.532   7.719   6.181 -1.2511  1.6886  0.3124
  120SOPE  H16Y12777   3.378   7.716   6.281 -0.8302  1.3966 -1.3645
  120SOPE  C31712778   3.339   7.680   6.071 -0.1170  0.3407 -0.3119
  120SOPE  H17X12779   3.268   7.594   6.072 -0.6479  0.7770 -0.0749
  120SOPE  H17Y12780   3.398   7.651   5.981  0.5614 -3.9315  1.2813
  120SOPE  C31812781   3.262   7.805   6.055  0.9740 -0.3498  0.1650
  120SOPE  H18X12782   3.332   7.890   6.044  0.6263 -0.2144 -1.3089
  120SOPE  H18Y12783   3.192   7.817   6.140 -0.0495  0.8081 -0.8034
  120SOPE  H18Z12784   3.204   7.799   5.960  2.7958  0.3221 -1.0485
  121SOPE     N12785   4.253   5.764   8.239 -0.0489  0.3870  0.3514
  121SOPE   HN112786   4.216   5.858   8.214 -2.5969 -0.5829  0.1754
  121SOPE   HN212787   4.321   5.742   8.163  0.7776  3.4246  0.0613
  121SOPE   HN312788   4.188   5.686   8.259  1.9871 -1.3581  0.4977
  121SOPE   C1212789   4.355   5.787   8.356 -0.3142  0.3916 -1.2836
  121SOPE  H12A12790   4.420   5.697   8.356  0.7522  1.1026  0.7768
  121SOPE  H12B12791   4.302   5.782   8.454 -0.6505  0.2821 -1.4715
  121SOPE   C1112792   4.443   5.914   8.346 -0.6172  0.4214 -0.1130
  121SOPE  H11A12793   4.524   5.898   8.271 -0.5767 -0.7014  0.1502
  121SOPE  H11B12794   4.495   5.908   8.444 -1.6386  2.2399  0.5761
  121SOPE     P12795   4.347   6.095   8.187 -0.0049 -0.4509  0.3170
  121SOPE   O1312796   4.275   6.228   8.200 -0.2495 -0.2758 -0.5252
  121SOPE   O1412797   4.284   6.002   8.092  0.0722  0.0339  0.2405
  121SOPE   O1212798   4.363   6.029   8.333  0.1089  0.3724  0.3765
  121SOPE   O1112799   4.497   6.128   8.150 -0.3825 -0.3355  0.2820
  121SOPE    C112800   4.566   6.050   8.050  0.0273  0.3359  0.2566
  121SOPE    HA12801   4.513   5.954   8.034 -1.3760  1.0402  0.4345
  121SOPE    HB12802   4.668   6.034   8.089  0.5346  3.2124  0.3471
  121SOPE    C212803   4.578   6.130   7.916  0.1863 -0.0111 -0.4646
  121SOPE    HS12804   4.478   6.133   7.867  0.9190 -1.0096 -2.0826
  121SOPE   O2112805   4.676   6.070   7.832  0.2817  0.3004  0.1234
  121SOPE   C2112806   4.620   5.968   7.767  0.2390  0.4675 -0.5898
  121SOPE   O2212807   4.502   5.947   7.765  0.2476 -0.1970 -0.8747
  121SOPE   C2212808   4.737   5.889   7.696  0.5958  0.3273 -0.4109
  121SOPE   H2R12809   4.801   5.856   7.780  0.1100  0.5191  0.0441
  121SOPE   H2S12810   4.785   5.960   7.626  3.4302 -0.7485  0.3294
  121SOPE    C312811   4.630   6.270   7.946  0.8055 -0.3978  0.1473
  121SOPE    HX12812   4.724   6.253   8.002  0.5584 -1.7892  0.1952
  121SOPE    HY12813   4.565   6.324   8.018  0.2234 -2.8429  1.5791
  121SOPE   O3112814   4.638   6.346   7.825  0.3283 -0.6062  0.3477
  121SOPE   C3112815   4.761   6.363   7.777  0.4327 -0.1389 -0.0082
  121SOPE   O3212816   4.862   6.303   7.820  0.2264  0.1954 -0.0661
  121SOPE   C3212817   4.761   6.442   7.650  0.3932  0.4554 -0.7382
  121SOPE   H2X12818   4.787   6.546   7.681  0.7433  0.6462 -1.6662
  121SOPE   H2Y12819   4.661   6.450   7.601  0.3639  1.5057 -0.5216
  121SOPE   C2312820   4.684   5.760   7.627 -0.0017  0.0618 -0.2255
  121SOPE   H3R12821   4.613   5.715   7.699  2.9124 -0.6205  2.4680
  121SOPE   H3S12822   4.773   5.693   7.629 -0.7611 -0.9678 -0.1075
  121SOPE   C2412823   4.618   5.782   7.490  0.1941 -0.1558  0.8496
  121SOPE   H4R12824   4.530   5.850   7.496  0.2354 -0.1082  0.9153
  121SOPE   H4S12825   4.694   5.829   7.424  0.5022 -0.4687  0.9757
  121SOPE   C2512826   4.578   5.648   7.430 -0.4037  0.1813 -0.4560
  121SOPE   H5R12827   4.654   5.569   7.414  1.2472  1.9866 -1.9942
  121SOPE   H5S12828   4.516   5.598   7.508 -1.6729  0.3638 -1.3276
  121SOPE   C2612829   4.496   5.651   7.299 -0.1456 -0.2485 -0.0911
  121SOPE   H6R12830   4.415   5.725   7.320  1.6767  1.3620  1.6876
  121SOPE   H6S12831   4.564   5.700   7.227  1.0782  0.6688  1.6180
  121SOPE   C2712832   4.446   5.514   7.251 -0.3073 -0.1570  0.3174
  121SOPE   H7R12833   4.524   5.439   7.229 -1.6378 -1.2384 -0.9051
  121SOPE   H7S12834   4.390   5.477   7.339  0.2629 -1.7139  0.0440
  121SOPE   C2812835   4.344   5.539   7.134  0.3338 -0.0567 -0.1370
  121SOPE   H8R12836   4.295   5.443   7.110  0.2030  0.4761 -2.2082
  121SOPE   H8S12837   4.269   5.611   7.173 -2.3673 -0.7735 -3.5261
  121SOPE   C2912838   4.400   5.605   7.006  0.5323  0.4619 -0.4005
  121SOPE   H9112839   4.452   5.700   7.028  0.1722  1.0180 -1.8557
  121SOPE  C21012840   4.375   5.555   6.884 -0.5329  0.7761 -0.0578
  121SOPE  H10112841   4.431   5.603   6.803  0.4327 -0.0343  0.1038
  121SOPE  C21112842   4.305   5.428   6.832  0.4359  0.2626 -1.1162
  121SOPE  H11R12843   4.213   5.398   6.886  0.0943  0.6065 -1.5018
  121SOPE  H11S12844   4.376   5.346   6.857 -0.9160 -0.8178 -0.7405
  121SOPE  C21212845   4.273   5.433   6.684  0.0615  0.0334  0.1548
  121SOPE  H12R12846   4.230   5.337   6.648 -0.7554  0.5490 -0.2808
  121SOPE  H12S12847   4.370   5.454   6.635  0.2450 -0.6330  0.2300
  121SOPE  C21312848   4.173   5.544   6.646 -0.0109  0.5482 -1.1537
  121SOPE  H13R12849   4.199   5.645   6.685  0.7428 -0.1939  0.3389
  121SOPE  H13S12850   4.069   5.519   6.679 -0.0277  3.3047  1.3540
  121SOPE  C21412851   4.172   5.556   6.491  0.0940 -0.4979  0.2755
  121SOPE  H14R12852   4.271   5.572   6.444 -0.4434 -2.4548 -1.7227
  121SOPE  H14S12853   4.106   5.643   6.474  2.2756  1.0505 -0.6690
  121SOPE  C21512854   4.102   5.438   6.425 -0.4344  0.9214  0.5904
  121SOPE  H15R12855   3.995   5.441   6.453 -0.9965  2.4755 -1.4792
  121SOPE  H15S12856   4.162   5.347   6.445 -0.2552  0.7376 -0.7231
  121SOPE  C21612857   4.090   5.460   6.269  0.6071 -0.3062 -0.2397
  121SOPE  H16R12858   4.195   5.451   6.234  1.1793 -0.9145  1.5234
  121SOPE  H16S12859   4.047   5.562   6.254 -0.7224 -0.5454  1.5721
  121SOPE  C21712860   4.007   5.357   6.184 -0.1838  0.4739 -0.1822
  121SOPE  H17R12861   3.980   5.409   6.089  0.3790  0.8850 -0.1232
  121SOPE  H17S12862   3.914   5.320   6.231  1.1181 -4.0792 -0.7631
  121SOPE  C21812863   4.088   5.232   6.161 -0.3227 -0.5304  0.3543
  121SOPE  H18R12864   4.119   5.182   6.255  1.1942 -0.1943  0.0514
  121SOPE  H18S12865   4.180   5.243   6.099 -0.2713 -2.2896  0.0410
  121SOPE  H18T12866   4.021   5.165   6.102 -1.9254 -0.6362  2.1982
  121SOPE   C3312867   4.861   6.398   7.540 -0.1247  0.6832 -0.3015
  121SOPE   H3X12868   4.862   6.288   7.524 -1.8131  0.6012  0.0038
  121SOPE   H3Y12869   4.967   6.424   7.559  0.3231 -1.0565 -0.2555
  121SOPE   C3412870   4.811   6.454   7.401 -0.4533  0.1889  0.3819
  121SOPE   H4X12871   4.785   6.561   7.415 -1.2531 -0.2391  2.5323
  121SOPE   H4Y12872   4.722   6.399   7.365 -0.9641  1.2038  0.0664
  121SOPE   C3512873   4.915   6.416   7.284  0.1430 -0.4427  0.0587
  121SOPE   H5X12874   4.941   6.308   7.292  0.1431 -0.7180 -2.6815
  121SOPE   H5Y12875   5.009   6.470   7.308 -0.2253  0.0659  0.3687
  121SOPE   C3612876   4.869   6.457   7.148 -0.4663  0.4032  0.4301
  121SOPE   H6X12877   4.843   6.565   7.149  0.0758  0.5500 -0.1634
  121SOPE   H6Y12878   4.771   6.411   7.125  0.1019 -1.7390  2.0242
  121SOPE   C3712879   4.967   6.446   7.030 -0.6093  0.4153 -0.0434
  121SOPE   H7X12880   5.029   6.354   7.026  0.0416  0.7566  1.3506
  121SOPE   H7Y12881   5.038   6.531   7.027 -1.1503  0.8497 -3.2001
  121SOPE   C3812882   4.897   6.456   6.890  0.5003 -0.9786  0.0375
  121SOPE   H8X12883   4.833   6.547   6.895  0.1510 -1.0912 -1.8301
  121SOPE   H8Y12884   4.828   6.369   6.882  0.5510 -1.0677  0.5035
  121SOPE   C3912885   4.980   6.475   6.771  0.0529  0.0078  0.2899
  121SOPE   H9X12886   5.032   6.381   6.741 -2.2376 -0.4704 -2.6344
  121SOPE   H9Y12887   5.061   6.550   6.782  1.6117 -1.1942 -1.9002
  121SOPE  C31012888   4.897   6.513   6.648 -0.1569  0.2795 -1.3193
  121SOPE  H10X12889   4.804   6.571   6.664 -0.6663 -0.9710  0.5808
  121SOPE  H10Y12890   4.869   6.416   6.600  0.9684  0.4787 -2.4229
  121SOPE  C31112891   4.972   6.601   6.547 -1.0707 -0.1240 -0.6521
  121SOPE  H11X12892   5.061   6.547   6.508 -1.5059 -0.8310 -0.6912
  121SOPE  H11Y12893   5.011   6.690   6.601  0.8756 -0.9912 -0.5232
  121SOPE  C31212894   4.888   6.642   6.434 -0.0507  0.1818  0.0837
  121SOPE  H12X12895   4.781   6.624   6.458 -0.6186  2.2869 -0.6839
  121SOPE  H12Y12896   4.908   6.589   6.338  0.6888  1.4397 -0.4749
  121SOPE  C31312897   4.888   6.800   6.411 -0.2026  0.5485  0.3127
  121SOPE  H13X12898   4.989   6.830   6.376 -0.5344  0.7811 -0.4897
  121SOPE  H13Y12899   4.860   6.859   6.501 -0.6677 -0.0233  0.5476
  121SOPE  C31412900   4.799   6.834   6.290  0.2111 -0.1958  0.3465
  121SOPE  H14X12901   4.702   6.782   6.289 -0.4063  0.9220 -0.1282
  121SOPE  H14Y12902   4.850   6.791   6.201  0.6651 -1.5596  1.2326
  121SOPE  C31512903   4.769   6.987   6.276  0.4815  0.5762  0.4627
  121SOPE  H15X12904   4.861   7.049   6.277  0.0797  1.2830 -1.5859
  121SOPE  H15Y12905   4.699   7.011   6.359 -0.2842 -0.0081 -0.0028
  121SOPE  C31612906   4.688   7.018   6.148  0.3350  0.4493 -0.7301
  121SOPE  H16X12907   4.683   7.129   6.143 -0.8600  0.3762 -1.6996
  121SOPE  H16Y12908   4.584   6.984   6.163  0.2114  1.2485  0.3568
  121SOPE  C31712909   4.755   6.975   6.019  0.4750  0.0680  0.2284
  121SOPE  H17X12910   4.724   6.869   6.004 -1.3226  0.6877 -0.7754
  121SOPE  H17Y12911   4.866   6.977   6.021  0.4958 -1.2096  1.5921
  121SOPE  C31812912   4.712   7.064   5.895 -0.2021  0.8266 -0.2985
  121SOPE  H18X12913   4.791   7.044   5.820  0.2174 -1.6279  0.7065
  121SOPE  H18Y12914   4.717   7.174   5.910  1.3247  1.3550 -3.7435
  121SOPE  H18Z12915   4.609   7.033   5.868 -0.3803  2.0024 -1.0382
  122SOPE     N12916   6.748   6.088   8.392 -0.4425  0.3737 -0.1149
  122SOPE   HN112917   6.695   6.082   8.303 -0.9879  3.4978 -0.1137
  122SOPE   HN212918   6.822   6.160   8.378 -1.6741  1.2586 -2.8997
  122SOPE   HN312919   6.791   5.996   8.415  0.9581  1.1164  0.3332
  122SOPE   C1212920   6.666   6.155   8.492 -0.1542  0.3007 -0.2041
  122SOPE  H12A12921   6.716   6.153   8.591 -2.0557  0.5112  0.8069
  122SOPE  H12B12922   6.572   6.096   8.502  0.1961 -0.0215  1.3862
  122SOPE   C1112923   6.627   6.304   8.447 -0.3914  0.1400  0.2982
  122SOPE  H11A12924   6.716   6.370   8.456  2.1387 -2.7288 -1.5118
  122SOPE  H11B12925   6.539   6.335   8.508 -0.8616 -1.4639  0.4896
  122SOPE     P12926   6.572   6.446   8.224 -0.3602 -0.2523 -0.0825
  122SOPE   O1312927   6.701   6.513   8.200  0.2528  0.6695  0.2958
  122SOPE   O1412928   6.472   6.521   8.297 -0.3236 -0.4770 -0.3502
  122SOPE   O1212929   6.597   6.312   8.306 -0.0228 -0.3010  0.2410
  122SOPE   O1112930   6.517   6.398   8.087  0.1751 -0.5381  0.3775
  122SOPE    C112931   6.482   6.487   7.979  0.5228 -0.2300 -0.1034
  122SOPE    HA12932   6.490   6.595   8.005  0.3811 -0.2567  0.0502
  122SOPE    HB12933   6.378   6.454   7.959  0.6952 -0.3302 -0.8722
  122SOPE    C212934   6.576   6.449   7.867  0.1744 -0.2021  0.0697
  122SOPE    HS12935   6.670   6.507   7.875 -0.2492  0.5081  0.0141
  122SOPE   O2112936   6.515   6.470   7.739  0.2654  0.2696  0.6518
  122SOPE   C2112937   6.521   6.594   7.693 -0.4199  0.6811 -1.1195
  122SOPE   O2212938   6.559   6.690   7.759 -0.1517  0.2614 -0.5650
  122SOPE   C2212939   6.460   6.599   7.553 -0.6448 -0.0463 -0.2608
  122SOPE   H2R12940   6.463   6.707   7.526  1.4809 -0.5967 -2.5989
  122SOPE   H2S12941   6.353   6.568   7.561 -1.1894  2.2221  3.1521
  122SOPE    C312942   6.623   6.300   7.876 -0.1612  0.0929  0.2869
  122SOPE    HX12943   6.521   6.254   7.876 -0.2152  0.2045 -0.7212
  122SOPE    HY12944   6.681   6.282   7.969  0.8163 -2.4567 -0.7321
  122SOPE   O3112945   6.699   6.245   7.770  0.1364  0.3242  0.1468
  122SOPE   C3112946   6.721   6.120   7.785  0.4026 -0.7637 -0.0340
  122SOPE   O3212947   6.675   6.045   7.877 -0.8414  0.0192  0.3038
  122SOPE   C3212948   6.807   6.070   7.671  0.2820 -0.7957 -0.5831
  122SOPE   H2X12949   6.827   5.963   7.689 -3.3148 -1.4515  0.2529
  122SOPE   H2Y12950   6.908   6.117   7.673  0.2669 -0.5276 -3.1411
  122SOPE   C2312951   6.553   6.530   7.453 -0.4945  1.1086 -0.1812
  122SOPE   H3R12952   6.557   6.422   7.481 -0.5337  0.7003 -1.6447
  122SOPE   H3S12953   6.654   6.574   7.451  0.0996 -0.2187 -0.9176
  122SOPE   C2412954   6.515   6.545   7.303  0.0888 -0.5307 -0.0823
  122SOPE   H4R12955   6.435   6.473   7.277 -1.3644  0.8408  0.4612
  122SOPE   H4S12956   6.469   6.646   7.299 -3.1062 -1.9067 -1.1165
  122SOPE   C2512957   6.640   6.533   7.212 -0.3565  0.1398  0.7384
  122SOPE   H5R12958   6.697   6.628   7.205 -0.7982  0.2937 -1.0932
  122SOPE   H5S12959   6.713   6.458   7.250  1.3171  2.6110  2.8057
  122SOPE   C2612960   6.596   6.508   7.069 -0.1239 -0.9049 -0.3522
  122SOPE   H6R12961   6.529   6.420   7.064 -1.3975  0.0313 -0.3744
  122SOPE   H6S12962   6.535   6.590   7.025  0.8707 -0.0255 -0.1482
  122SOPE   C2712963   6.709   6.481   6.969  1.0898  0.0232  0.5266
  122SOPE   H7R12964   6.742   6.584   6.942  1.1406  0.2580  1.4378
  122SOPE   H7S12965   6.782   6.415   7.021 -0.6977 -1.8784  0.7161
  122SOPE   C2812966   6.656   6.410   6.840 -0.3111  0.4863 -0.6009
  122SOPE   H8R12967   6.739   6.348   6.799  2.0841  3.0754  0.0542
  122SOPE   H8S12968   6.587   6.325   6.862 -0.1137  0.0474 -1.5957
  122SOPE   C2912969   6.595   6.491   6.730  0.9107 -0.0739 -0.2299
  122SOPE   H9112970   6.605   6.600   6.740  0.5463  0.0838 -1.4359
  122SOPE  C21012971   6.500   6.444   6.651 -0.0848 -1.1264  0.3095
  122SOPE  H10112972   6.466   6.515   6.574 -0.0959  1.3456  2.4871
  122SOPE  C21112973   6.450   6.302   6.624  0.3523  0.3443 -0.8355
  122SOPE  H11R12974   6.340   6.291   6.616  0.6133 -2.4382 -1.7807
  122SOPE  H11S12975   6.470   6.237   6.711 -0.1818  0.4742 -0.6128
  122SOPE  C21212976   6.521   6.245   6.499  0.6635  0.3917 -0.2757
  122SOPE  H12R12977   6.632   6.237   6.506  0.7655 -3.7334 -3.1609
  122SOPE  H12S12978   6.519   6.317   6.415 -1.5039  0.2645 -0.3837
  122SOPE  C21312979   6.467   6.108   6.456  0.2785  0.2019 -0.2265
  122SOPE  H13R12980   6.357   6.097   6.456  0.3056 -0.8096  2.5388
  122SOPE  H13S12981   6.500   6.024   6.520  1.3811 -0.1457 -1.2121
  122SOPE  C21412982   6.516   6.069   6.315  0.1749  0.0036  0.1298
  122SOPE  H14R12983   6.469   6.140   6.243  2.5620  2.0692  0.4649
  122SOPE  H14S12984   6.482   5.965   6.299  1.9852 -0.7725  1.0428
  122SOPE  C21512985   6.669   6.051   6.301 -0.1833  0.0953  0.7203
  122SOPE  H15R12986   6.695   5.979   6.382 -3.3432 -4.6093 -1.9362
  122SOPE  H15S12987   6.717   6.150   6.314 -1.4842  1.1746 -1.9582
  122SOPE  C21612988   6.712   5.973   6.174  0.0444 -0.1277 -0.0705
  122SOPE  H16R12989   6.699   6.044   6.089  3.2782  0.7995  0.0868
  122SOPE  H16S12990   6.634   5.893   6.174 -2.6568  2.1740  3.4461
  122SOPE  C21712991   6.858   5.928   6.185 -0.9749  0.3922  0.5047
  122SOPE  H17R12992   6.887   5.878   6.280 -2.3194 -2.8955 -0.6616
  122SOPE  H17S12993   6.918   6.020   6.168 -2.1845  1.4203  1.5455
  122SOPE  C21812994   6.894   5.815   6.087 -0.0043 -0.3382  0.0334
  122SOPE  H18R12995   6.927   5.857   5.990 -0.9016 -0.7228 -0.4490
  122SOPE  H18S12996   6.806   5.751   6.067 -0.2894 -0.4312  1.4382
  122SOPE  H18T12997   6.986   5.759   6.113  0.9215  1.8522  1.8290
  122SOPE   C3312998   6.742   6.104   7.532 -0.6254  0.1076 -0.3991
  122SOPE   H3X12999   6.721   6.212   7.516 -0.9249 -0.0416 -1.0581
  122SOPE   H3Y13000   6.640   6.060   7.533  0.1182 -1.9667  3.9150
  122SOPE   C3413001   6.820   6.057   7.413 -0.5648  0.1191  0.7796
  122SOPE   H4X13002   6.859   5.953   7.425  0.5124  0.3353 -0.5876
  122SOPE   H4Y13003   6.909   6.123   7.411 -0.5416  0.0732  0.1288
  122SOPE   C3513004   6.730   6.064   7.291 -0.3387 -0.4346 -0.3743
  122SOPE   H5X13005   6.712   6.172   7.274 -1.8134 -0.6543 -0.4277
  122SOPE   H5Y13006   6.632   6.011   7.293 -1.5232  1.6489  1.4186
  122SOPE   C3613007   6.802   6.008   7.174 -0.1011  0.2905 -1.0458
  122SOPE   H6X13008   6.837   5.908   7.209 -0.2265  0.5401 -0.1834
  122SOPE   H6Y13009   6.892   6.074   7.168  1.7562 -2.0202 -0.3287
  122SOPE   C3713010   6.719   6.025   7.044 -0.1936  0.0081 -0.4631
  122SOPE   H7X13011   6.676   6.127   7.054  0.7564  0.4280 -0.5693
  122SOPE   H7Y13012   6.638   5.951   7.065 -0.2168 -1.1235 -3.8684
  122SOPE   C3813013   6.801   5.988   6.923 -0.4206 -0.3319 -0.5564
  122SOPE   H8X13014   6.821   5.879   6.926  1.9816  0.0539  1.0154
  122SOPE   H8Y13015   6.903   6.033   6.919 -0.2915 -0.5995 -0.3330
  122SOPE   C3913016   6.732   6.014   6.787 -0.2879  0.0774  0.4556
  122SOPE   H9X13017   6.689   6.116   6.785 -2.2290 -0.6774 -2.0098
  122SOPE   H9Y13018   6.643   5.947   6.777  0.3946 -0.8210  0.2513
  122SOPE  C31013019   6.819   6.001   6.662 -0.1659 -0.0046  0.4057
  122SOPE  H10X13020   6.918   6.046   6.684  0.5864 -1.5262  0.2905
  122SOPE  H10Y13021   6.778   6.063   6.580 -1.0825  0.4570  1.1938
  122SOPE  C31113022   6.843   5.862   6.607  0.6426 -0.0683  0.6261
  122SOPE  H11X13023   6.907   5.807   6.679  2.3609 -2.0186 -2.1976
  122SOPE  H11Y13024   6.903   5.877   6.515 -0.5697  0.3565 -0.1225
  122SOPE  C31213025   6.715   5.782   6.586  0.0389  0.3431  0.0529
  122SOPE  H12X13026   6.639   5.857   6.557  1.0866  0.8151 -1.6228
  122SOPE  H12Y13027   6.686   5.733   6.681 -2.5722  0.5475 -0.5851
  122SOPE  C31313028   6.722   5.675   6.473 -0.0931  0.4842  0.2176
  122SOPE  H13X13029   6.789   5.594   6.511  0.6695  1.9788  2.2785
  122SOPE  H13Y13030   6.765   5.729   6.386 -0.2980  3.7747  2.0054
  122SOPE  C31413031   6.582   5.622   6.444  0.1449 -0.6084  0.7444
  122SOPE  H14X13032   6.524   5.714   6.422 -1.6908 -1.3386  2.2768
  122SOPE  H14Y13033   6.534   5.586   6.538 -0.6653  0.6639  0.8377
  122SOPE  C31513034   6.573   5.523   6.331 -0.4252  0.7949 -0.0502
  122SOPE  H15X13035   6.464   5.504   6.317 -0.6629  1.6873  0.5456
  122SOPE  H15Y13036   6.625   5.432   6.369  3.0210  1.6040 -2.4447
  122SOPE  C31613037   6.648   5.553   6.198  0.9399  0.5931 -0.1265
  122SOPE  H16X13038   6.757   5.552   6.217  1.1006  2.3387 -0.7883
  122SOPE  H16Y13039   6.623   5.658   6.173 -0.0131  0.2662 -0.6279
  122SOPE  C31713040   6.598   5.472   6.088 -0.1608 -0.1861  0.5223
  122SOPE  H17X13041   6.488   5.482   6.078  0.1261  2.7060 -0.8283
  122SOPE  H17Y13042   6.619   5.363   6.086 -0.0979 -0.1876  1.0226
  122SOPE  C31813043   6.647   5.526   5.951 -0.4602  0.0691 -0.3746
  122SOPE  H18X13044   6.751   5.492   5.931  0.0230  1.9120 -1.1509
  122SOPE  H18Y13045   6.645   5.637   5.961  2.3761  0.0711  1.3100
  122SOPE  H18Z13046   6.585   5.497   5.864 -1.3248  1.6246 -0.3087
  123SOPE     N13047   2.309   4.675   3.872  0.4773 -0.3150  0.0577
  123SOPE   HN113048   2.366   4.755   3.904 -2.1700  1.2846  1.0746
  123SOPE   HN213049   2.210   4.703   3.886 -0.3941 -2.6728 -0.8013
  123SOPE   HN313050   2.334   4.600   3.939  0.5165  0.6861  1.1800
  123SOPE   C1213051   2.330   4.645   3.727 -0.5393 -0.5051  0.1070
  123SOPE  H12A13052   2.426   4.693   3.699 -1.3233 -0.0500 -1.9562
  123SOPE  H12B13053   2.243   4.691   3.676 -2.0297 -2.4848  0.7386
  123SOPE   C1113054   2.316   4.499   3.693  0.6608  0.9046 -0.4412
  123SOPE  H11A13055   2.303   4.484   3.584  0.7993 -1.7404 -0.1608
  123SOPE  H11B13056   2.222   4.458   3.736  0.1583  1.6365 -0.8200
  123SOPE     P13057   2.560   4.403   3.671  0.4837  0.3215  0.1552
  123SOPE   O1313058   2.575   4.508   3.572 -0.3266  0.6211  0.0588
  123SOPE   O1413059   2.577   4.263   3.617 -0.3161 -0.2816 -0.5151
  123SOPE   O1213060   2.418   4.414   3.746 -0.3297 -0.0075 -0.0979
  123SOPE   O1113061   2.653   4.433   3.794 -0.4325 -0.0414  0.3757
  123SOPE    C113062   2.644   4.361   3.909  0.6450  0.4309 -0.2756
  123SOPE    HA13063   2.672   4.257   3.882  0.1833  0.3265 -0.3596
  123SOPE    HB13064   2.541   4.350   3.949  0.2969  0.4736 -1.1376
  123SOPE    C213065   2.729   4.405   4.028  0.4100 -0.4140 -0.1327
  123SOPE    HS13066   2.741   4.310   4.085  1.1236 -1.3689 -1.8001
  123SOPE   O2113067   2.682   4.519   4.105  0.1831 -0.2735  0.0824
  123SOPE   C2113068   2.585   4.489   4.190 -0.4790 -0.3780 -0.7269
  123SOPE   O2213069   2.527   4.384   4.199  0.2268  0.0882  0.0845
  123SOPE   C2213070   2.546   4.608   4.280 -0.2017  0.3286  0.4060
  123SOPE   H2R13071   2.488   4.683   4.222 -0.1394  0.2905  0.2934
  123SOPE   H2S13072   2.639   4.652   4.321 -1.2916  0.4821  2.8502
  123SOPE    C313073   2.869   4.428   3.977  0.9411 -0.4270  0.4217
  123SOPE    HX13074   2.851   4.510   3.904 -0.4345  1.0698  2.3252
  123SOPE    HY13075   2.923   4.339   3.940  0.0337 -0.4397 -0.9693
  123SOPE   O3113076   2.953   4.498   4.067  0.1497  0.1881  0.5003
  123SOPE   C3113077   2.996   4.417   4.169 -0.6662 -0.0270 -0.4951
  123SOPE   O3213078   2.995   4.297   4.170 -0.4619  0.0121 -0.1008
  123SOPE   C3213079   3.046   4.503   4.286 -0.0240  0.1060 -0.4890
  123SOPE   H2X13080   2.981   4.474   4.371 -0.5923  1.1950 -0.5331
  123SOPE   H2Y13081   3.008   4.607   4.284 -0.6371 -0.1129 -0.6383
  123SOPE   C2313082   2.458   4.557   4.405 -0.1632  0.6672  0.5109
  123SOPE   H3R13083   2.384   4.479   4.378  1.0198 -0.7137  1.1235
  123SOPE   H3S13084   2.401   4.646   4.441 -0.3796 -0.2354  2.5169
  123SOPE   C2413085   2.553   4.511   4.522  0.1985  0.6161  0.6850
  123SOPE   H4R13086   2.615   4.602   4.540  1.3862 -0.5300  2.6751
  123SOPE   H4S13087   2.492   4.492   4.613 -0.8178 -1.0125 -0.2741
  123SOPE   C2513088   2.642   4.386   4.495 -0.2377 -0.3932 -1.1910
  123SOPE   H5R13089   2.600   4.285   4.476  1.4163 -1.8532  2.0942
  123SOPE   H5S13090   2.710   4.401   4.409  1.2249  0.3657  0.0546
  123SOPE   C2613091   2.738   4.366   4.618  0.1252 -0.1403  0.4095
  123SOPE   H6R13092   2.800   4.455   4.641 -1.1568  0.7930  0.3416
  123SOPE   H6S13093   2.673   4.345   4.706 -2.7489  0.6744 -1.3806
  123SOPE   C2713094   2.818   4.227   4.591  0.4470  0.1942  0.0082
  123SOPE   H7R13095   2.738   4.153   4.575  1.3230 -0.8054  0.1503
  123SOPE   H7S13096   2.871   4.236   4.493 -0.5759 -1.9733 -0.7982
  123SOPE   C2813097   2.924   4.197   4.702 -0.3314  0.2422  0.8091
  123SOPE   H8R13098   2.984   4.112   4.664 -0.9592  0.4648 -0.7753
  123SOPE   H8S13099   2.992   4.284   4.713 -0.4179  0.1966  1.7999
  123SOPE   C2913100   2.853   4.168   4.835  0.2389 -0.4324  0.5419
  123SOPE   H9113101   2.779   4.087   4.821 -0.5981  0.5495 -1.0664
  123SOPE  C21013102   2.883   4.202   4.965 -0.3399 -0.1523  0.4079
  123SOPE  H10113103   2.807   4.175   5.040 -0.8341 -0.3491 -0.1516
  123SOPE  C21113104   3.001   4.295   4.992  1.2833 -0.2040  0.2021
  123SOPE  H11R13105   2.980   4.396   4.950 -0.8709  0.0712  1.7745
  123SOPE  H11S13106   3.091   4.260   4.938  0.7778 -0.6532 -0.3639
  123SOPE  C21213107   3.048   4.295   5.143 -0.0753  0.2714  0.5032
  123SOPE  H12R13108   3.149   4.340   5.137 -0.7075  1.8235  1.0015
  123SOPE  H12S13109   3.068   4.190   5.175  1.9317  0.7496  0.9297
  123SOPE  C21313110   2.968   4.369   5.256  0.4238  0.8208  0.4414
  123SOPE  H13R13111   2.862   4.337   5.265  0.3534  1.6190  3.4514
  123SOPE  H13S13112   2.962   4.470   5.210 -2.1549  1.3812  1.8608
  123SOPE  C21413113   3.039   4.361   5.389  0.1354 -0.8317 -0.2261
  123SOPE  H14R13114   3.005   4.430   5.469  0.1150 -2.4074  1.1847
  123SOPE  H14S13115   3.142   4.386   5.358 -0.2045  0.6123 -0.2534
  123SOPE  C21513116   3.023   4.220   5.462  0.5401 -0.1834 -0.1892
  123SOPE  H15R13117   3.047   4.130   5.401 -1.5090 -1.7495  1.1859
  123SOPE  H15S13118   2.913   4.207   5.467 -0.2848  4.8799 -0.2130
  123SOPE  C21613119   3.087   4.223   5.603 -0.8221 -0.1240 -0.0089
  123SOPE  H16R13120   3.062   4.137   5.669  0.6479  0.1579  0.9564
  123SOPE  H16S13121   3.040   4.308   5.657 -0.7981 -0.7673  1.0464
  123SOPE  C21713122   3.236   4.251   5.610 -0.2846 -0.0560  0.2171
  123SOPE  H17R13123   3.266   4.347   5.561  1.9158 -0.8701 -0.1546
  123SOPE  H17S13124   3.284   4.170   5.550 -0.4961 -2.7920  3.4649
  123SOPE  C21813125   3.285   4.244   5.750 -0.1535 -0.6379  0.9443
  123SOPE  H18R13126   3.391   4.278   5.752 -0.3554 -0.0172  2.5922
  123SOPE  H18S13127   3.266   4.144   5.793 -1.6083 -0.0746  1.6635
  123SOPE  H18T13128   3.230   4.313   5.817  1.9702  1.0109  1.1003
  123SOPE   C3313129   3.191   4.475   4.308  0.3922  0.0270 -0.0280
  123SOPE   H3X13130   3.243   4.513   4.218  1.9668 -1.9857 -0.0436
  123SOPE   H3Y13131   3.214   4.366   4.309  1.0333  0.1052 -2.0063
  123SOPE   C3413132   3.239   4.548   4.430 -0.3621 -0.5071 -0.1033
  123SOPE   H4X13133   3.227   4.657   4.413  1.7700  0.1473  1.9781
  123SOPE   H4Y13134   3.343   4.520   4.456 -0.9586 -3.0156 -0.1978
  123SOPE   C3513135   3.155   4.531   4.554 -0.4986  0.0172  0.2799
  123SOPE   H5X13136   3.121   4.425   4.564 -0.1369 -0.0578  0.7186
  123SOPE   H5Y13137   3.059   4.585   4.540 -2.1917 -2.4012  1.7372
  123SOPE   C3613138   3.230   4.576   4.674 -0.1928  0.3881 -0.4357
  123SOPE   H6X13139   3.228   4.686   4.665  0.2705  0.2589 -2.9185
  123SOPE   H6Y13140   3.333   4.533   4.670 -0.4533 -0.2127 -1.0588
  123SOPE   C3713141   3.155   4.526   4.795  0.1787  0.1332 -0.2794
  123SOPE   H7X13142   3.135   4.417   4.796 -0.7751  0.2627  2.8748
  123SOPE   H7Y13143   3.052   4.567   4.812 -0.7352 -2.2419  0.2241
  123SOPE   C3813144   3.227   4.576   4.922 -0.8449  0.3270 -0.3915
  123SOPE   H8X13145   3.154   4.564   5.005 -0.8688  2.3560 -0.0887
  123SOPE   H8Y13146   3.266   4.680   4.917  1.2755 -0.4063 -0.2106
  123SOPE   C3913147   3.353   4.499   4.949 -0.2174  0.7364 -0.4427
  123SOPE   H9X13148   3.435   4.520   4.878  0.6060 -1.6829 -0.2907
  123SOPE   H9Y13149   3.331   4.391   4.939 -0.2667  0.8723 -1.9907
  123SOPE  C31013150   3.430   4.533   5.085 -0.3980 -0.2089 -0.0610
  123SOPE  H10X13151   3.443   4.641   5.067 -0.4582 -0.1983 -0.0411
  123SOPE  H10Y13152   3.535   4.497   5.077  0.7174  2.8223 -0.2673
  123SOPE  C31113153   3.363   4.490   5.221  0.3958 -0.0350  0.1631
  123SOPE  H11X13154   3.327   4.386   5.208 -2.6161  0.9077  0.0440
  123SOPE  H11Y13155   3.270   4.551   5.231  1.0170  0.7382  1.4123
  123SOPE  C31213156   3.455   4.494   5.339 -0.7572  0.1037  0.5258
  123SOPE  H12X13157   3.396   4.494   5.433 -1.9801  0.7773 -0.2263
  123SOPE  H12Y13158   3.501   4.595   5.347  1.4405 -0.8403  0.7029
  123SOPE  C31313159   3.554   4.379   5.333  0.3085 -0.4083 -0.4545
  123SOPE  H13X13160   3.602   4.376   5.232  0.2576  1.2411 -0.5496
  123SOPE  H13Y13161   3.503   4.281   5.344  0.6063 -0.3791  1.4423
  123SOPE  C31413162   3.671   4.393   5.439 -0.0487 -0.0417  0.1228
  123SOPE  H14X13163   3.713   4.496   5.445 -0.6327  0.2519 -0.7110
  123SOPE  H14Y13164   3.758   4.330   5.411  0.8646  2.1857 -2.5198
  123SOPE  C31513165   3.639   4.342   5.580 -0.5551 -0.5655  0.5280
  123SOPE  H15X13166   3.577   4.252   5.562 -0.9692 -0.0387 -0.8433
  123SOPE  H15Y13167   3.578   4.419   5.633  1.3257  1.3596  0.0424
  123SOPE  C31613168   3.756   4.311   5.669  0.6051  0.0111  0.4530
  123SOPE  H16X13169   3.816   4.404   5.680 -2.3711  2.3488 -1.4926
  123SOPE  H16Y13170   3.831   4.238   5.633  0.2354 -0.6950  1.0965
  123SOPE  C31713171   3.725   4.270   5.810  0.6086  0.5781 -0.0159
  123SOPE  H17X13172   3.654   4.342   5.856  1.1127  2.4426 -2.0241
  123SOPE  H17Y13173   3.821   4.270   5.867 -0.9532  1.6350  2.8157
  123SOPE  C31813174   3.664   4.130   5.825 -0.6729  0.3138  0.2886
  123SOPE  H18X13175   3.625   4.107   5.927 -1.5302 -0.1212 -0.1212
  123SOPE  H18Y13176   3.737   4.048   5.805 -1.3373 -0.5963  1.4467
  123SOPE  H18Z13177   3.570   4.113   5.767 -0.6050  0.7136  0.0621
  124SOPE     N13178   2.331   1.214   3.688  0.2416 -0.1680 -0.4930
  124SOPE   HN113179   2.297   1.249   3.596  0.4844  1.3194 -0.0409
  124SOPE   HN213180   2.411   1.273   3.719 -0.1264 -0.3481  0.8737
  124SOPE   HN313181   2.354   1.112   3.680  0.1440 -0.1903 -0.4885
  124SOPE   C1213182   2.214   1.231   3.782 -0.5278  0.0262 -0.8210
  124SOPE  H12A13183   2.120   1.208   3.727 -1.7691  2.1198  0.3026
  124SOPE  H12B13184   2.210   1.339   3.811  0.5546 -0.3946  1.0657
  124SOPE   C1113185   2.240   1.137   3.902  0.2912  0.0929 -0.1145
  124SOPE  H11A13186   2.158   1.146   3.976  1.2331 -1.9508  1.2614
  124SOPE  H11B13187   2.332   1.167   3.957  1.0866 -1.4274 -0.5532
  124SOPE     P13188   2.136   0.901   3.868  0.0514 -0.0392 -0.0909
  124SOPE   O1313189   2.167   0.779   3.795 -0.2073  0.0561 -0.3343
  124SOPE   O1413190   2.012   0.971   3.828  0.3386  0.0242  0.2199
  124SOPE   O1213191   2.255   1.002   3.854  0.4014 -0.2143  1.1133
  124SOPE   O1113192   2.125   0.872   4.020  0.0231  0.0871  0.2309
  124SOPE    C113193   2.227   0.873   4.120 -0.3596  0.6076  0.8318
  124SOPE    HA13194   2.308   0.945   4.096  0.6181 -0.6155  0.3084
  124SOPE    HB13195   2.278   0.776   4.137 -1.6296 -0.0204  1.1888
  124SOPE    C213196   2.164   0.908   4.254  0.1076  0.6798  0.1697
  124SOPE    HS13197   2.235   0.931   4.337 -2.2439  3.3600  1.6056
  124SOPE   O2113198   2.078   0.792   4.294 -0.2598 -0.6455  0.2031
  124SOPE   C2113199   2.150   0.686   4.342  0.1529  0.3886 -0.1616
  124SOPE   O2213200   2.268   0.692   4.374  0.0767  0.5545 -0.2768
  124SOPE   C2213201   2.056   0.576   4.380 -0.9056  0.3632 -0.0651
  124SOPE   H2R13202   2.112   0.483   4.406 -1.4535  0.5929  2.0641
  124SOPE   H2S13203   1.986   0.556   4.296 -0.6159  2.5021 -0.8930
  124SOPE    C313204   2.081   1.032   4.253 -0.0968 -0.5100 -0.3935
  124SOPE    HX13205   2.026   1.040   4.157 -1.1472 -0.5579  0.1898
  124SOPE    HY13206   2.163   1.107   4.248  0.2797 -0.9763 -1.8557
  124SOPE   O3113207   2.001   1.054   4.362  0.3286  0.3915 -0.1665
  124SOPE   C3113208   1.875   1.027   4.345 -0.0784 -0.6491  0.2674
  124SOPE   O3213209   1.823   0.973   4.250  0.0383 -0.1912  0.1401
  124SOPE   C3213210   1.788   1.083   4.456  0.2640  0.3927  0.5364
  124SOPE   H2X13211   1.793   1.006   4.537  0.0434  0.2278  0.3950
  124SOPE   H2Y13212   1.682   1.082   4.424  0.0695 -1.3116  1.1070
  124SOPE   C2313213   1.983   0.621   4.508  0.4180 -0.5194 -0.4457
  124SOPE   H3R13214   1.978   0.732   4.507  1.2197 -0.4810 -0.6084
  124SOPE   H3S13215   2.027   0.586   4.603  0.1980 -1.1289 -0.5639
  124SOPE   C2413216   1.828   0.580   4.498 -0.2861 -0.3382  1.0665
  124SOPE   H4R13217   1.783   0.648   4.423  0.2809 -0.7903  0.3021
  124SOPE   H4S13218   1.818   0.476   4.459  2.6294 -0.4885  0.4939
  124SOPE   C2513219   1.757   0.597   4.634 -1.0418  0.2171 -0.5568
  124SOPE   H5R13220   1.651   0.585   4.602 -1.2267  0.4213 -0.0226
  124SOPE   H5S13221   1.792   0.515   4.700 -2.7542 -0.2400 -0.1728
  124SOPE   C2613222   1.774   0.727   4.709 -0.4371  0.3339  0.3518
  124SOPE   H6R13223   1.862   0.715   4.776 -0.3936  0.5526  0.3345
  124SOPE   H6S13224   1.796   0.811   4.639 -0.6643 -0.4980 -0.7432
  124SOPE   C2713225   1.651   0.769   4.791 -0.8271  0.0208  0.7137
  124SOPE   H7R13226   1.576   0.819   4.725 -1.4682 -0.9455  0.6873
  124SOPE   H7S13227   1.609   0.673   4.827  1.9062 -1.5030  0.1094
  124SOPE   C2813228   1.693   0.850   4.912  0.2964 -0.0750 -0.7203
  124SOPE   H8R13229   1.751   0.784   4.979  0.4711 -0.1859 -0.9797
  124SOPE   H8S13230   1.767   0.929   4.887  0.4799  0.5401  1.5083
  124SOPE   C2913231   1.575   0.925   4.976  0.2606  0.8138  0.8281
  124SOPE   H9113232   1.532   1.000   4.909  0.6658  0.8129  0.5636
  124SOPE  C21013233   1.514   0.897   5.094  0.0666  0.1371  0.3465
  124SOPE  H10113234   1.427   0.950   5.135  0.3826 -0.7176  2.2772
  124SOPE  C21113235   1.544   0.785   5.192  0.1819  0.3470  0.4294
  124SOPE  H11R13236   1.640   0.806   5.245  1.2919 -1.1617 -0.8749
  124SOPE  H11S13237   1.567   0.689   5.140 -0.1358 -0.6467  2.0625
  124SOPE  C21213238   1.429   0.752   5.284  0.0797 -0.0998  0.1019
  124SOPE  H12R13239   1.457   0.667   5.349  1.9502  0.2723 -0.1566
  124SOPE  H12S13240   1.340   0.721   5.226  0.1596 -2.0791  0.9539
  124SOPE  C21313241   1.388   0.863   5.392  0.4121  0.3342  0.9729
  124SOPE  H13R13242   1.301   0.822   5.447 -2.1603 -0.3212 -3.1342
  124SOPE  H13S13243   1.347   0.950   5.337 -2.8091 -1.7389 -0.1695
  124SOPE  C21413244   1.504   0.898   5.487  0.8586  0.1472  0.0121
  124SOPE  H14R13245   1.578   0.955   5.426 -2.5350  1.0998 -3.6436
  124SOPE  H14S13246   1.546   0.799   5.515 -1.5288 -0.7458  0.6009
  124SOPE  C21513247   1.462   0.975   5.614  0.5438  0.1829  0.3244
  124SOPE  H15R13248   1.384   0.918   5.669 -1.3798  2.4410  0.1047
  124SOPE  H15S13249   1.401   1.064   5.585  1.3357  0.0681 -1.8564
  124SOPE  C21613250   1.566   1.014   5.723  0.8206  0.3094  0.1196
  124SOPE  H16R13251   1.647   1.077   5.680  1.0184 -0.2155 -0.2799
  124SOPE  H16S13252   1.615   0.923   5.764  0.6371 -0.2795 -0.9458
  124SOPE  C21713253   1.493   1.083   5.837 -0.5836  0.2392  0.1350
  124SOPE  H17R13254   1.458   1.183   5.804 -2.7908 -0.8269 -0.9681
  124SOPE  H17S13255   1.574   1.102   5.911  0.5245 -1.0386 -0.7057
  124SOPE  C21813256   1.384   1.002   5.906 -0.0622  0.1252 -0.3967
  124SOPE  H18R13257   1.353   1.062   5.994 -1.4675  0.3235 -1.0088
  124SOPE  H18S13258   1.426   0.902   5.928 -1.6619 -0.2176  1.2872
  124SOPE  H18T13259   1.299   0.990   5.836 -0.3305  2.8610 -0.6403
  124SOPE   C3313260   1.826   1.224   4.511  0.5501  0.0116  0.1276
  124SOPE   H3X13261   1.769   1.305   4.460 -0.9886 -0.4601  1.0388
  124SOPE   H3Y13262   1.933   1.238   4.485  0.0177  1.1350 -1.6215
  124SOPE   C3413263   1.812   1.248   4.665  0.6038  0.8379 -0.2937
  124SOPE   H4X13264   1.831   1.355   4.689  0.3795  0.7690  0.2059
  124SOPE   H4Y13265   1.881   1.184   4.725 -1.2917 -0.3877  0.6731
  124SOPE   C3513266   1.678   1.219   4.721  0.5523  0.1122  0.2189
  124SOPE   H5X13267   1.646   1.113   4.719 -0.1493  0.3057 -2.1259
  124SOPE   H5Y13268   1.614   1.266   4.643  1.1900  0.4946 -0.0852
  124SOPE   C3613269   1.655   1.286   4.854 -0.2427  0.2648 -0.4384
  124SOPE   H6X13270   1.547   1.268   4.870 -0.7692  2.5637 -0.9958
  124SOPE   H6Y13271   1.680   1.395   4.850 -0.3283  0.3329  0.6296
  124SOPE   C3713272   1.738   1.233   4.972 -0.1205 -0.7311 -0.5476
  124SOPE   H7X13273   1.848   1.237   4.952 -0.2746 -2.2226 -1.8678
  124SOPE   H7Y13274   1.716   1.126   4.985  1.2242 -0.8279  1.3824
  124SOPE   C3813275   1.703   1.317   5.102 -0.1560  0.0278 -0.1503
  124SOPE   H8X13276   1.593   1.332   5.098 -0.4830 -2.2139 -1.2565
  124SOPE   H8Y13277   1.756   1.415   5.107 -0.2879  0.0260  1.6501
  124SOPE   C3913278   1.726   1.239   5.233 -0.4279 -0.1044 -0.4020
  124SOPE   H9X13279   1.832   1.209   5.247 -1.0321 -1.6172  1.4332
  124SOPE   H9Y13280   1.683   1.137   5.224  1.3524 -0.9363 -0.0447
  124SOPE  C31013281   1.688   1.309   5.360 -0.0407 -0.1245 -0.0615
  124SOPE  H10X13282   1.753   1.396   5.381 -0.5452  0.0966  0.6265
  124SOPE  H10Y13283   1.701   1.234   5.442 -1.1091  1.6400  1.8196
  124SOPE  C31113284   1.542   1.349   5.364  1.1058  0.4504  0.2623
  124SOPE  H11X13285   1.486   1.258   5.334 -0.1770  1.0410  0.7732
  124SOPE  H11Y13286   1.527   1.421   5.280  2.2646 -1.7463 -1.9483
  124SOPE  C31213287   1.494   1.399   5.500 -0.0753  0.3318 -0.8169
  124SOPE  H12X13288   1.504   1.318   5.576  1.7089  2.3656  1.2543
  124SOPE  H12Y13289   1.388   1.430   5.501 -0.3328 -0.4937  0.7048
  124SOPE  C31313290   1.577   1.518   5.546 -1.2154 -0.0514  0.4524
  124SOPE  H13X13291   1.579   1.587   5.459  1.3559  0.3991  0.8010
  124SOPE  H13Y13292   1.684   1.494   5.563 -0.6638  1.8562 -0.0957
  124SOPE  C31413293   1.526   1.594   5.668 -0.4676 -0.2618  0.8165
  124SOPE  H14X13294   1.456   1.671   5.627  0.4125 -1.4837 -3.5225
  124SOPE  H14Y13295   1.613   1.653   5.704  1.9696 -1.5700 -2.3461
  124SOPE  C31513296   1.468   1.507   5.785  0.0849 -0.5393  0.1273
  124SOPE  H15X13297   1.535   1.424   5.815 -0.9199 -1.4043  0.0089
  124SOPE  H15Y13298   1.370   1.461   5.758 -0.3673  0.1031  0.6421
  124SOPE  C31613299   1.457   1.589   5.911 -0.7090  0.3487  0.5738
  124SOPE  H16X13300   1.436   1.693   5.879 -2.1642  0.0413  0.4627
  124SOPE  H16Y13301   1.556   1.594   5.960 -0.6323  0.6629  0.3867
  124SOPE  C31713302   1.355   1.536   6.014 -0.1437 -0.4282  1.3477
  124SOPE  H17X13303   1.381   1.562   6.119 -0.1298  2.0624  0.7872
  124SOPE  H17Y13304   1.349   1.426   6.001  1.9257 -0.3632 -0.7485
  124SOPE  C31813305   1.219   1.600   5.987 -0.8392 -0.9716 -0.4913
  124SOPE  H18X13306   1.141   1.583   6.065 -1.2245 -0.5480 -0.7772
  124SOPE  H18Y13307   1.172   1.566   5.892 -3.4651 -0.7583  0.6415
  124SOPE  H18Z13308   1.224   1.710   5.971 -0.8459 -0.9252 -0.1914
  125SOPE     N13309   1.308   1.087   4.187 -0.5247  0.5713 -0.1841
  125SOPE   HN113310   1.315   0.988   4.216 -1.3164 -0.1847 -2.3842
  125SOPE   HN213311   1.316   1.082   4.083 -0.1502  2.8534 -0.3127
  125SOPE   HN313312   1.394   1.134   4.223 -0.7204  0.9770 -0.2373
  125SOPE   C1213313   1.185   1.145   4.242 -0.0408 -0.0241  0.2522
  125SOPE  H12A13314   1.191   1.256   4.249 -1.5071 -0.0223  2.8437
  125SOPE  H12B13315   1.169   1.107   4.345  1.3801  0.9213  0.8480
  125SOPE   C1113316   1.060   1.093   4.162  0.1215 -0.7351 -0.3551
  125SOPE  H11A13317   1.068   0.982   4.169  1.4225 -0.8495 -2.7537
  125SOPE  H11B13318   1.081   1.121   4.057 -0.0710  1.8167  0.2304
  125SOPE     P13319   0.888   1.295   4.187  0.2337  0.2693  0.0997
  125SOPE   O1313320   0.744   1.313   4.157  0.1265  0.4866  0.3423
  125SOPE   O1413321   0.979   1.345   4.081  0.4848  0.0274  0.0557
  125SOPE   O1213322   0.929   1.145   4.206  0.4855  0.3767 -0.5139
  125SOPE   O1113323   0.930   1.362   4.329  0.4505 -0.1793 -0.0483
  125SOPE    C113324   1.028   1.471   4.335 -0.0018  0.0661  0.4120
  125SOPE    HA13325   0.987   1.561   4.283  1.8720  1.7066  1.6137
  125SOPE    HB13326   1.120   1.437   4.284 -0.0319  1.6754 -0.7838
  125SOPE    C213327   1.067   1.503   4.479 -0.3400 -0.3588  0.3567
  125SOPE    HS13328   1.104   1.406   4.519  0.5582 -0.9823 -1.8274
  125SOPE   O2113329   0.959   1.568   4.551 -0.1543 -0.3081  0.1946
  125SOPE   C2113330   0.851   1.495   4.583  0.1978 -0.3704  0.2018
  125SOPE   O2213331   0.855   1.376   4.590 -0.0762  0.6751 -0.1888
  125SOPE   C2213332   0.730   1.583   4.619 -0.0876 -0.5667  0.0399
  125SOPE   H2R13333   0.674   1.536   4.702 -1.8458  1.9853  0.4306
  125SOPE   H2S13334   0.690   1.585   4.515  1.0980  1.8362 -0.4453
  125SOPE    C313335   1.193   1.598   4.497 -0.1428  0.3738 -0.0554
  125SOPE    HX13336   1.167   1.697   4.454 -1.5780 -0.1035 -0.3422
  125SOPE    HY13337   1.275   1.564   4.430  0.4685  0.8253  0.4546
  125SOPE   O3113338   1.238   1.614   4.633  0.0619 -0.2418 -0.2529
  125SOPE   C3113339   1.303   1.523   4.688 -0.2285  0.1119  0.1644
  125SOPE   O3213340   1.336   1.417   4.636  0.5241  0.2429  0.3293
  125SOPE   C3213341   1.341   1.564   4.830  0.7820  0.6420  1.1429
  125SOPE   H2X13342   1.375   1.669   4.835  0.7126  0.8047 -1.0310
  125SOPE   H2Y13343   1.419   1.493   4.865 -0.3294 -1.1852  0.0957
  125SOPE   C2313344   0.768   1.732   4.663 -0.0533  0.3172  0.1904
  125SOPE   H3R13345   0.674   1.791   4.655 -0.1556  0.1781  0.3665
  125SOPE   H3S13346   0.836   1.783   4.591 -1.3661  1.1567 -0.4979
  125SOPE   C2413347   0.829   1.743   4.804 -0.3635 -0.1944 -0.1036
  125SOPE   H4R13348   0.923   1.683   4.804 -0.9096 -1.1521  2.4347
  125SOPE   H4S13349   0.854   1.851   4.813 -1.1398  0.2599 -2.4999
  125SOPE   C2513350   0.732   1.704   4.918  0.4683  0.1157 -0.3326
  125SOPE   H5R13351   0.633   1.754   4.911  0.2697 -0.3723 -1.1067
  125SOPE   H5S13352   0.703   1.598   4.904 -3.1115  0.8948  0.2993
  125SOPE   C2613353   0.783   1.734   5.061  0.8560 -0.2228 -0.4231
  125SOPE   H6R13354   0.884   1.690   5.075  0.5360 -0.8246  0.0267
  125SOPE   H6S13355   0.791   1.845   5.066 -1.7625 -0.0043  2.4722
  125SOPE   C2713356   0.679   1.693   5.164  0.3893 -0.2684  1.0468
  125SOPE   H7R13357   0.583   1.742   5.137  0.7209  0.3435  0.9763
  125SOPE   H7S13358   0.677   1.582   5.157  2.1013 -0.2126 -3.3660
  125SOPE   C2813359   0.713   1.734   5.304 -0.3385 -0.6347  0.3905
  125SOPE   H8R13360   0.815   1.697   5.328  0.0925 -1.3369 -2.1973
  125SOPE   H8S13361   0.709   1.845   5.303 -0.3726 -0.6361  0.3600
  125SOPE   C2913362   0.621   1.672   5.401  0.1845  0.3486 -0.2598
  125SOPE   H9113363   0.543   1.617   5.346  0.5678  0.1100 -0.5724
  125SOPE  C21013364   0.620   1.704   5.530  0.1949  1.5158  0.2987
  125SOPE  H10113365   0.551   1.643   5.591 -0.0291  1.3318 -0.1363
  125SOPE  C21113366   0.732   1.781   5.595  0.1270 -0.0904 -0.8198
  125SOPE  H11R13367   0.691   1.798   5.697  0.1361 -0.7253 -0.7029
  125SOPE  H11S13368   0.757   1.878   5.547 -0.9984  0.1390 -0.9747
  125SOPE  C21213369   0.851   1.687   5.620  0.3100 -0.0296  0.0226
  125SOPE  H12R13370   0.901   1.681   5.521 -0.0161 -1.4148 -0.0905
  125SOPE  H12S13371   0.817   1.584   5.647 -2.3052  0.3291 -1.5334
  125SOPE  C21313372   0.953   1.755   5.714  0.0548  0.1616 -0.5046
  125SOPE  H13R13373   1.030   1.678   5.736 -1.6067 -0.9468  1.8455
  125SOPE  H13S13374   0.906   1.771   5.813 -0.7525 -0.3171 -0.8010
  125SOPE  C21413375   1.019   1.885   5.675  0.3118 -0.0207  0.8390
  125SOPE  H14R13376   0.939   1.951   5.636 -0.2254 -1.5012 -0.6831
  125SOPE  H14S13377   1.090   1.851   5.596  1.3117 -0.5746  1.9341
  125SOPE  C21513378   1.090   1.942   5.792  0.4878  0.1354  0.0346
  125SOPE  H15R13379   1.180   1.882   5.818 -0.2203 -0.9746  0.0478
  125SOPE  H15S13380   1.018   1.932   5.876 -0.0178  0.0962 -0.3998
  125SOPE  C21613381   1.115   2.090   5.777  0.2934 -0.2038  1.3722
  125SOPE  H16R13382   1.081   2.124   5.677  1.9728 -1.3790  0.3444
  125SOPE  H16S13383   1.225   2.108   5.777  0.5928 -1.8056  2.6539
  125SOPE  C21713384   1.057   2.170   5.895  0.1738 -0.2258 -0.2640
  125SOPE  H17R13385   1.058   2.111   5.989  0.4018  0.6590  0.3072
  125SOPE  H17S13386   0.952   2.196   5.871  0.2476 -0.6352 -1.0603
  125SOPE  C21813387   1.147   2.285   5.928  0.0562 -0.7103 -0.3761
  125SOPE  H18R13388   1.139   2.362   5.849  1.0451 -0.2732 -0.0567
  125SOPE  H18S13389   1.257   2.270   5.938  0.1580  1.4669  3.1795
  125SOPE  H18T13390   1.111   2.328   6.024  1.2409 -0.2196 -0.1366
  125SOPE   C3313391   1.208   1.555   4.921  0.6903 -0.2880 -0.5529
  125SOPE   H3X13392   1.144   1.468   4.895 -0.2612  0.2750 -0.1554
  125SOPE   H3Y13393   1.146   1.644   4.898  0.8046 -0.6291 -2.3457
  125SOPE   C3413394   1.243   1.574   5.075 -0.5323  0.4182 -0.6250
  125SOPE   H4X13395   1.301   1.485   5.107 -1.3464  0.0656 -0.1174
  125SOPE   H4Y13396   1.148   1.579   5.133  0.1868 -1.3640  0.7935
  125SOPE   C3513397   1.336   1.698   5.094  0.8372  0.1048 -0.3037
  125SOPE   H5X13398   1.305   1.776   5.021  1.0137  1.7968  1.3590
  125SOPE   H5Y13399   1.440   1.667   5.069  0.3383 -1.4725 -0.5202
  125SOPE   C3613400   1.325   1.749   5.237  0.3265 -0.2738  0.9259
  125SOPE   H6X13401   1.371   1.676   5.307 -0.8367 -0.8443  1.1291
  125SOPE   H6Y13402   1.217   1.765   5.258  0.2521  0.0451  0.3338
  125SOPE   C3713403   1.389   1.887   5.244  0.3546  0.3990 -0.5259
  125SOPE   H7X13404   1.338   1.958   5.176  0.9720  1.7530  0.3735
  125SOPE   H7Y13405   1.494   1.887   5.208  2.0709  1.4874  3.7561
  125SOPE   C3813406   1.403   1.940   5.388 -0.2039  0.0174  0.7095
  125SOPE   H8X13407   1.447   1.863   5.455  0.0596 -0.9407 -0.5253
  125SOPE   H8Y13408   1.301   1.965   5.421 -0.2613  1.0870 -0.2242
  125SOPE   C3913409   1.479   2.071   5.391  0.0594 -0.5287 -0.1969
  125SOPE   H9X13410   1.412   2.141   5.338 -0.4297  1.1303  2.4373
  125SOPE   H9Y13411   1.584   2.058   5.357 -0.0941  0.1807 -0.9731
  125SOPE  C31013412   1.480   2.126   5.539  0.4137 -0.4397 -0.2349
  125SOPE  H10X13413   1.385   2.094   5.587  1.2504 -0.5415  1.4280
  125SOPE  H10Y13414   1.499   2.236   5.537  2.9949 -0.7280 -4.3819
  125SOPE  C31113415   1.595   2.052   5.612  0.5137  0.2088 -0.3341
  125SOPE  H11X13416   1.685   2.088   5.559 -0.3822 -1.2283 -3.0212
  125SOPE  H11Y13417   1.593   1.941   5.605  0.4632  0.0885  1.2787
  125SOPE  C31213418   1.608   2.084   5.761 -0.6925  0.0493 -0.1807
  125SOPE  H12X13419   1.583   2.190   5.780 -0.3899 -0.4222  3.5377
  125SOPE  H12Y13420   1.711   2.056   5.792 -0.9900 -1.7290 -0.6484
  125SOPE  C31313421   1.512   1.991   5.842  0.8974 -0.4296 -0.3668
  125SOPE  H13X13422   1.555   1.889   5.855 -2.1014 -1.8666 -0.8021
  125SOPE  H13Y13423   1.412   1.987   5.793 -0.2713 -1.2216  1.9219
  125SOPE  C31413424   1.498   2.041   5.989  0.6007 -0.0929  0.0372
  125SOPE  H14X13425   1.443   2.137   5.979 -1.1526 -1.2877 -4.3485
  125SOPE  H14Y13426   1.602   2.064   6.018  0.9707  0.3451 -1.5578
  125SOPE  C31513427   1.435   1.956   6.106 -0.2373 -0.2001  0.7065
  125SOPE  H15X13428   1.441   1.848   6.080  0.2621  0.2546 -1.2390
  125SOPE  H15Y13429   1.325   1.970   6.105 -0.3827 -0.9026  2.7441
  125SOPE  C31613430   1.481   2.006   6.240  0.4195  0.6895 -0.1036
  125SOPE  H16X13431   1.591   2.015   6.254  0.3840 -1.5614  2.3097
  125SOPE  H16Y13432   1.446   1.938   6.321  0.0769  0.3982 -0.4874
  125SOPE  C31713433   1.419   2.144   6.266  0.5370  0.3756  1.0985
  125SOPE  H17X13434   1.309   2.140   6.248  0.6894  0.1958  0.1753
  125SOPE  H17Y13435   1.468   2.221   6.203  0.8024 -0.1009  0.7191
  125SOPE  C31813436   1.445   2.186   6.409  1.0478  0.6328  0.0613
  125SOPE  H18X13437   1.401   2.288   6.418 -0.4341  0.0126  0.0908
  125SOPE  H18Y13438   1.551   2.189   6.441  1.2295 -1.6639 -0.1875
  125SOPE  H18Z13439   1.387   2.124   6.481  1.9352  0.2399  0.4493
  126SOPE     N13440   5.155   5.472   3.610  0.0535 -0.1893 -0.1270
  126SOPE   HN113441   5.105   5.544   3.554  1.3732 -1.6769 -3.4844
  126SOPE   HN213442   5.084   5.400   3.636  0.3010 -0.0415  1.0099
  126SOPE   HN313443   5.186   5.505   3.703 -1.5738 -0.3980  0.5287
  126SOPE   C1213444   5.273   5.412   3.534  0.7041 -0.5659  0.2257
  126SOPE  H12A13445   5.347   5.494   3.520  0.4275 -0.5742 -1.4037
  126SOPE  H12B13446   5.250   5.383   3.430  3.9700  3.9248 -2.0732
  126SOPE   C1113447   5.347   5.305   3.617  0.0226 -0.3067  0.4415
  126SOPE  H11A13448   5.359   5.332   3.725  1.4623  5.7062 -0.8596
  126SOPE  H11B13449   5.452   5.308   3.582  0.3822 -1.5089  1.3347
  126SOPE     P13450   5.386   5.047   3.650  0.5301 -0.0482  0.5391
  126SOPE   O1313451   5.432   4.962   3.538 -0.4383 -0.2277  0.5225
  126SOPE   O1413452   5.295   4.985   3.747  0.0833 -0.3118  0.4613
  126SOPE   O1213453   5.308   5.171   3.588  0.3990 -0.1763  0.4135
  126SOPE   O1113454   5.507   5.101   3.730  0.2170 -0.0915 -0.6441
  126SOPE    C113455   5.612   5.014   3.782  0.1371 -0.1171 -0.4265
  126SOPE    HA13456   5.699   5.077   3.812 -1.0856  1.9811 -1.0699
  126SOPE    HB13457   5.640   4.936   3.708 -0.0301 -1.0273  0.4496
  126SOPE    C213458   5.562   4.934   3.907  0.5714 -0.1007  0.6265
  126SOPE    HS13459   5.477   4.876   3.865 -0.9057  1.3793  1.4387
  126SOPE   O2113460   5.513   5.029   4.015 -0.3812 -0.0247  0.0218
  126SOPE   C2113461   5.444   4.964   4.106 -0.0672 -0.6355 -0.8581
  126SOPE   O2213462   5.410   4.845   4.088  0.2268 -0.5990 -0.3957
  126SOPE   C2213463   5.401   5.057   4.221  0.1749  0.2210 -0.2476
  126SOPE   H2R13464   5.413   5.165   4.198 -0.6738  0.3632 -0.0179
  126SOPE   H2S13465   5.464   5.044   4.312  0.5894  0.6032 -0.4755
  126SOPE    C313466   5.682   4.852   3.959  0.1551  0.2351 -0.1571
  126SOPE    HX13467   5.735   4.796   3.879  0.0397  0.0227 -0.0861
  126SOPE    HY13468   5.639   4.781   4.033 -0.5115 -0.1058 -0.8520
  126SOPE   O3113469   5.789   4.938   4.009 -0.0239 -0.4910 -0.3234
  126SOPE   C3113470   5.787   4.948   4.143  1.3125 -0.3040 -0.2155
  126SOPE   O3213471   5.705   4.902   4.216  0.3568  0.5081 -0.4849
  126SOPE   C3213472   5.913   5.019   4.177  0.0557 -0.7274  0.0534
  126SOPE   H2X13473   5.881   5.125   4.170 -1.8349 -1.3781 -2.4111
  126SOPE   H2Y13474   5.990   4.996   4.101 -0.6045 -2.3318 -0.1650
  126SOPE   C2313475   5.256   5.025   4.264  0.4990  0.1568 -0.0655
  126SOPE   H3R13476   5.242   4.919   4.295  1.5050  0.1582  0.4316
  126SOPE   H3S13477   5.193   5.036   4.173  0.8041  0.0549 -0.2937
  126SOPE   C2413478   5.212   5.111   4.378  0.0782  0.3265 -0.1284
  126SOPE   H4R13479   5.119   5.066   4.418 -0.6121  1.3797 -0.5252
  126SOPE   H4S13480   5.300   5.113   4.446 -0.2365 -0.9771  0.3506
  126SOPE   C2513481   5.175   5.252   4.330  0.5730 -0.5242 -0.2763
  126SOPE   H5R13482   5.258   5.301   4.275 -0.5517  2.3559  0.4043
  126SOPE   H5S13483   5.081   5.258   4.271 -0.2651 -0.7143  1.0002
  126SOPE   C2613484   5.137   5.347   4.447  0.1221  1.1753 -0.1141
  126SOPE   H6R13485   5.219   5.345   4.523 -1.1801 -2.6702  1.4519
  126SOPE   H6S13486   5.131   5.450   4.405  2.5252  0.7722 -1.6047
  126SOPE   C2713487   5.007   5.311   4.529  0.1857  0.2355 -0.8267
  126SOPE   H7R13488   4.919   5.320   4.463  0.1842 -0.4835 -0.9350
  126SOPE   H7S13489   5.007   5.212   4.581  0.6529 -0.8665 -2.8314
  126SOPE   C2813490   4.971   5.431   4.625  0.0736  0.2420  0.2082
  126SOPE   H8R13491   4.971   5.524   4.565  0.9337 -0.0956 -0.3380
  126SOPE   H8S13492   4.869   5.414   4.666 -0.4680 -0.9013 -1.5110
  126SOPE   C2913493   5.075   5.425   4.738  0.4694 -0.3834 -0.2680
  126SOPE   H9113494   5.160   5.360   4.713  0.6622  0.3241 -1.5739
  126SOPE  C21013495   5.046   5.479   4.861 -0.3893  0.1462  1.0648
  126SOPE  H10113496   5.120   5.475   4.942  1.1866  1.5649 -0.2414
  126SOPE  C21113497   4.925   5.557   4.889 -0.0641 -0.3121 -0.1350
  126SOPE  H11R13498   4.836   5.492   4.876  0.4756 -1.1951  0.4643
  126SOPE  H11S13499   4.910   5.645   4.824 -0.0115 -0.2495 -0.0624
  126SOPE  C21213500   4.927   5.606   5.033 -0.1520 -0.1331 -0.1759
  126SOPE  H12R13501   5.004   5.681   5.060 -1.5265  0.8955  1.0800
  126SOPE  H12S13502   4.946   5.522   5.104 -0.2947  1.7426  2.2305
  126SOPE  C21313503   4.783   5.657   5.076  0.1665 -0.4640 -0.2234
  126SOPE  H13R13504   4.714   5.571   5.069 -0.6056  0.1567 -0.3659
  126SOPE  H13S13505   4.740   5.730   5.004 -1.6522 -1.0228  0.2588
  126SOPE  C21413506   4.777   5.714   5.216 -0.4510  0.5592  0.3188
  126SOPE  H14R13507   4.680   5.764   5.235 -2.1648 -1.9840 -1.1661
  126SOPE  H14S13508   4.858   5.790   5.222 -0.5607  0.6703  0.4032
  126SOPE  C21513509   4.786   5.597   5.330  0.0605 -0.2162 -0.5544
  126SOPE  H15R13510   4.884   5.545   5.319  0.3384  0.0524  0.5083
  126SOPE  H15S13511   4.713   5.524   5.291 -0.8266  0.7782 -0.8043
  126SOPE  C21613512   4.766   5.648   5.477 -0.1080 -0.2900 -0.9673
  126SOPE  H16R13513   4.662   5.684   5.483  0.2453  0.5368  1.6909
  126SOPE  H16S13514   4.821   5.744   5.490  0.8846 -1.1220  1.6144
  126SOPE  C21713515   4.793   5.545   5.585 -0.0235 -0.5610 -0.1887
  126SOPE  H17R13516   4.895   5.500   5.583  0.7934  1.1685  0.5659
  126SOPE  H17S13517   4.728   5.458   5.559  0.4727 -1.3174  0.9914
  126SOPE  C21813518   4.753   5.586   5.720 -0.1354 -0.2695 -0.5425
  126SOPE  H18R13519   4.643   5.576   5.730  0.1693 -2.3909  1.4006
  126SOPE  H18S13520   4.788   5.687   5.751  0.6258 -0.3836 -0.9947
  126SOPE  H18T13521   4.799   5.520   5.796 -2.1486 -0.5888  0.4692
  126SOPE   C3313522   5.950   4.999   4.324 -0.0962  0.3221  0.2131
  126SOPE   H3X13523   5.974   4.891   4.335 -1.4641  0.1118  1.4063
  126SOPE   H3Y13524   5.879   5.032   4.402 -0.0476 -0.1656  0.4659
  126SOPE   C3413525   6.080   5.071   4.349  0.9313 -0.7420 -0.0109
  126SOPE   H4X13526   6.058   5.178   4.331  0.1936 -0.6791  1.1408
  126SOPE   H4Y13527   6.146   5.051   4.262 -0.4539  0.7446 -1.4566
  126SOPE   C3513528   6.144   5.050   4.483 -0.6292 -0.8121  1.2334
  126SOPE   H5X13529   6.243   5.101   4.481 -0.6361 -0.7810  1.6166
  126SOPE   H5Y13530   6.155   4.940   4.496  0.2557 -0.6845  1.6458
  126SOPE   C3613531   6.068   5.099   4.608 -0.4062  0.0457  0.9389
  126SOPE   H6X13532   5.963   5.063   4.612 -0.3099 -0.1860  1.4514
  126SOPE   H6Y13533   6.065   5.210   4.612 -1.3471  0.0064  1.7209
  126SOPE   C3713534   6.123   5.049   4.740 -0.1815  0.1690  0.5427
  126SOPE   H7X13535   6.228   5.076   4.767  0.8087 -3.8451  1.5331
  126SOPE   H7Y13536   6.128   4.938   4.746  3.2613  0.1567 -0.2633
  126SOPE   C3813537   6.035   5.095   4.863 -0.4232  0.5429  0.3084
  126SOPE   H8X13538   5.932   5.055   4.855 -0.7757  1.1659  1.5876
  126SOPE   H8Y13539   6.027   5.205   4.852 -0.0010  0.6028  0.5929
  126SOPE   C3913540   6.085   5.071   5.011  0.3500 -0.4620  0.3085
  126SOPE   H9X13541   6.193   5.092   5.022 -0.2651  2.5010  1.9023
  126SOPE   H9Y13542   6.069   4.964   5.033  0.2047 -0.6944 -0.8909
  126SOPE  C31013543   6.021   5.164   5.118  0.3400 -0.9826  0.2209
  126SOPE  H10X13544   5.911   5.151   5.114  0.1790  0.2164  0.2506
  126SOPE  H10Y13545   6.025   5.272   5.091  1.0234 -0.7688  1.1169
  126SOPE  C31113546   6.078   5.135   5.259 -0.3872  0.4044  0.3199
  126SOPE  H11X13547   6.183   5.171   5.268 -0.0680  1.0462 -3.7447
  126SOPE  H11Y13548   6.084   5.024   5.255  0.4112  0.3851  1.4939
  126SOPE  C31213549   5.989   5.189   5.365 -0.3746 -0.5109 -0.0075
  126SOPE  H12X13550   5.884   5.161   5.344 -1.0835  0.1006  2.3821
  126SOPE  H12Y13551   6.001   5.300   5.360  0.7511 -0.6647 -1.7879
  126SOPE  C31313552   6.043   5.149   5.503  0.0612  0.0007 -1.1356
  126SOPE  H13X13553   6.147   5.182   5.520 -0.3895 -0.1938  3.2934
  126SOPE  H13Y13554   6.041   5.038   5.517 -0.3620  0.2155  0.9191
  126SOPE  C31413555   5.965   5.219   5.609 -0.2006 -0.0173 -0.2263
  126SOPE  H14X13556   5.858   5.199   5.584 -0.0067 -0.3819 -0.7619
  126SOPE  H14Y13557   5.968   5.329   5.615 -1.2912  0.0497 -0.6298
  126SOPE  C31513558   5.989   5.167   5.750  0.0046  0.5448 -0.1576
  126SOPE  H15X13559   5.922   5.229   5.814 -0.8516  0.7945 -1.2655
  126SOPE  H15Y13560   6.091   5.187   5.789  0.0599 -2.0374  1.2558
  126SOPE  C31613561   5.967   5.019   5.782  0.0517 -0.1945 -0.9516
  126SOPE  H16X13562   6.039   4.945   5.739  1.1222 -0.2737  0.8584
  126SOPE  H16Y13563   5.870   4.997   5.734  0.2453 -0.1647 -1.3624
  126SOPE  C31713564   5.950   4.990   5.933 -0.2343  0.2986  0.4812
  126SOPE  H17X13565   5.940   5.084   5.992  1.1544 -0.4948  2.0753
  126SOPE  H17Y13566   6.046   4.949   5.973 -1.1878 -2.4407  0.1698
  126SOPE  C31813567   5.839   4.893   5.971  0.7204 -0.1697  0.2284
  126SOPE  H18X13568   5.741   4.942   5.959 -0.4733 -2.0803  1.6673
  126SOPE  H18Y13569   5.845   4.850   6.073  0.8894 -3.2990 -0.9618
  126SOPE  H18Z13570   5.848   4.808   5.899 -2.6840  1.4437 -2.3902
  127SOPE     N13571   6.400   0.844   3.588  0.5487  0.2933 -0.0494
  127SOPE   HN113572   6.343   0.921   3.629 -0.5815 -0.4599 -0.1447
  127SOPE   HN213573   6.433   0.886   3.498  0.3750 -0.4721 -0.4831
  127SOPE   HN313574   6.331   0.768   3.571 -0.3959  0.9115  0.9362
  127SOPE   C1213575   6.504   0.779   3.669 -0.1671 -0.8024  0.3573
  127SOPE  H12A13576   6.521   0.850   3.753 -1.7052  0.8207 -0.6400
  127SOPE  H12B13577   6.601   0.766   3.616 -0.6366 -1.1962 -0.4103
  127SOPE   C1113578   6.465   0.644   3.716  0.6083  0.4444  0.0991
  127SOPE  H11A13579   6.372   0.649   3.776  1.1907 -3.9287  1.7652
  127SOPE  H11B13580   6.549   0.612   3.782  0.8343  0.7647 -0.0347
  127SOPE     P13581   6.479   0.403   3.609  0.0321 -0.1718 -0.3586
  127SOPE   O1313582   6.601   0.399   3.528 -0.1507 -0.0700  0.1104
  127SOPE   O1413583   6.370   0.316   3.573  0.0696 -0.3905  0.0762
  127SOPE   O1213584   6.434   0.556   3.606 -0.4577 -0.5915 -0.5173
  127SOPE   O1113585   6.522   0.377   3.761  0.3016 -0.2558 -0.6860
  127SOPE    C113586   6.410   0.352   3.852 -0.2826 -0.2952  0.0877
  127SOPE    HA13587   6.319   0.410   3.822  0.8025  1.4598  0.0581
  127SOPE    HB13588   6.439   0.376   3.956 -0.3912 -1.8529  0.4916
  127SOPE    C213589   6.362   0.203   3.857 -0.1322 -0.1882  0.1581
  127SOPE    HS13590   6.338   0.174   3.753 -0.5211  1.7158 -0.3222
  127SOPE   O2113591   6.244   0.202   3.937 -0.0886 -0.2463  0.4594
  127SOPE   C2113592   6.188   0.086   3.967 -1.1315  0.8164  0.3433
  127SOPE   O2213593   6.209  -0.014   3.906 -0.1023  0.8127  0.2513
  127SOPE   C2213594   6.115   0.102   4.099  0.0174  0.2997 -0.3302
  127SOPE   H2R13595   6.041   0.185   4.096  0.8011  0.9770 -1.2541
  127SOPE   H2S13596   6.195   0.124   4.173 -0.4055 -2.9404  1.2944
  127SOPE    C313597   6.479   0.118   3.908 -0.5133 -0.1927  0.5276
  127SOPE    HX13598   6.553   0.124   3.825 -0.3930 -0.2387  0.6321
  127SOPE    HY13599   6.462   0.009   3.907 -1.0952 -0.1061  0.6009
  127SOPE   O3113600   6.543   0.163   4.032  0.8039 -0.7717  0.5354
  127SOPE   C3113601   6.524   0.100   4.148  0.1818 -0.4599  0.1853
  127SOPE   O3213602   6.451   0.005   4.161  0.4734  0.0536 -0.5530
  127SOPE   C3213603   6.595   0.178   4.261 -0.1246 -0.4009  0.2048
  127SOPE   H2X13604   6.609   0.285   4.233 -2.0267  0.0632  0.8733
  127SOPE   H2Y13605   6.696   0.132   4.272  0.9780  0.5241 -4.2020
  127SOPE   C2313606   6.042  -0.031   4.152  0.0543 -0.0803 -0.2006
  127SOPE   H3R13607   6.101  -0.125   4.151  1.6263  0.8837 -0.5722
  127SOPE   H3S13608   5.952  -0.056   4.092  0.0755 -1.1419  0.1842
  127SOPE   C2413609   5.976  -0.019   4.292  0.4814 -0.0775 -0.7999
  127SOPE   H4R13610   5.881   0.038   4.294  0.7821  0.7666 -4.4039
  127SOPE   H4S13611   5.948  -0.126   4.307  2.4667 -0.9961 -2.8937
  127SOPE   C2513612   6.074   0.020   4.410 -0.3771  0.3205 -0.8524
  127SOPE   H5R13613   6.178  -0.015   4.392  0.3314  2.0410 -0.3221
  127SOPE   H5S13614   6.079   0.131   4.409  0.5089  0.3091  0.6658
  127SOPE   C2613615   6.019  -0.023   4.548  0.0624  0.1675  0.3262
  127SOPE   H6R13616   5.927   0.036   4.569 -0.1047  0.0599 -0.0925
  127SOPE   H6S13617   5.992  -0.129   4.528  2.0900 -0.3504  0.0688
  127SOPE   C2713618   6.135  -0.018   4.657 -0.2495  0.9379 -0.5494
  127SOPE   H7R13619   6.222  -0.072   4.613 -1.7553 -1.8658 -0.2498
  127SOPE   H7S13620   6.163   0.087   4.681 -1.1636  0.9729  0.4292
  127SOPE   C2813621   6.096  -0.100   4.784 -0.2677 -0.5962  0.7818
  127SOPE   H8R13622   6.049  -0.191   4.743  1.3495 -0.6833 -1.0389
  127SOPE   H8S13623   6.181  -0.121   4.852 -0.1248 -0.7343  0.5598
  127SOPE   C2913624   5.995  -0.026   4.863  0.4106 -0.6222 -0.3466
  127SOPE   H9113625   5.932   0.049   4.813  0.3376 -0.2601  0.2743
  127SOPE  C21013626   5.960  -0.054   4.986 -0.0706  0.2067 -0.4923
  127SOPE  H10113627   5.883  -0.001   5.043 -1.8305 -0.3023 -2.2614
  127SOPE  C21113628   6.018  -0.155   5.076 -1.4010 -0.1676 -0.5791
  127SOPE  H11R13629   6.128  -0.170   5.066 -1.3321 -0.2920  0.2504
  127SOPE  H11S13630   5.984  -0.260   5.060 -0.3963 -0.4092 -1.2832
  127SOPE  C21213631   6.003  -0.131   5.232  0.3944  0.1329 -0.4856
  127SOPE  H12R13632   6.054  -0.220   5.277  2.7913  1.5447 -0.2075
  127SOPE  H12S13633   5.894  -0.123   5.249  0.4034 -0.2253 -0.2553
  127SOPE  C21313634   6.087  -0.013   5.291  0.0854 -0.6344  0.9679
  127SOPE  H13R13635   6.064   0.071   5.222  2.6225 -1.4224 -0.9985
  127SOPE  H13S13636   6.196  -0.026   5.276 -0.0538  1.1547 -2.5679
  127SOPE  C21413637   6.066   0.008   5.436  0.7226 -0.0413  0.4732
  127SOPE  H14R13638   6.116  -0.077   5.486 -1.2947 -1.1027  0.7610
  127SOPE  H14S13639   5.956   0.005   5.455  0.7257  0.5920  0.6309
  127SOPE  C21513640   6.124   0.124   5.509 -0.2324  0.0741  0.4232
  127SOPE  H15R13641   6.080   0.218   5.471 -0.3618  0.1610  0.7867
  127SOPE  H15S13642   6.229   0.135   5.473  0.4766 -0.4562  2.1985
  127SOPE  C21613643   6.129   0.116   5.665 -0.1656 -0.3495  0.5289
  127SOPE  H16R13644   6.026   0.106   5.705 -0.8067 -0.3908 -1.0620
  127SOPE  H16S13645   6.176   0.205   5.712 -3.8977  1.7436  0.7055
  127SOPE  C21713646   6.210  -0.001   5.724 -0.3373 -0.0597 -1.2316
  127SOPE  H17R13647   6.315   0.001   5.688  0.3293  1.8816  0.6478
  127SOPE  H17S13648   6.158  -0.094   5.690  0.7503 -0.5698 -1.5356
  127SOPE  C21813649   6.203  -0.003   5.871 -0.2422  0.4919 -0.4644
  127SOPE  H18R13650   6.238   0.092   5.916 -0.5607 -0.4671  1.9579
  127SOPE  H18S13651   6.276  -0.077   5.911 -1.8921 -0.3873  1.0601
  127SOPE  H18T13652   6.104  -0.014   5.920  0.3538 -2.8954  0.2378
  127SOPE   C3313653   6.519   0.167   4.388  0.2477 -0.6549 -0.5989
  127SOPE   H3X13654   6.435   0.099   4.411  0.4448 -0.7193 -0.0540
  127SOPE   H3Y13655   6.482   0.269   4.412 -1.3280 -1.8726  2.6757
  127SOPE   C3413656   6.616   0.130   4.507 -0.5257  0.0173  0.0603
  127SOPE   H4X13657   6.697   0.206   4.510  0.4151 -0.9928  0.9214
  127SOPE   H4Y13658   6.672   0.045   4.464 -1.5007  0.2578 -1.7598
  127SOPE   C3513659   6.556   0.109   4.645  0.0501  0.4372  0.8193
  127SOPE   H5X13660   6.529   0.002   4.646  3.0780 -0.4665  3.5763
  127SOPE   H5Y13661   6.466   0.167   4.675  0.7295  0.4170  3.1080
  127SOPE   C3613662   6.658   0.135   4.760 -0.0719 -0.6123 -0.0869
  127SOPE   H6X13663   6.693   0.239   4.740  1.6630 -1.0007  0.7193
  127SOPE   H6Y13664   6.744   0.065   4.753  0.3241 -0.2511  0.8758
  127SOPE   C3713665   6.583   0.127   4.895  0.2801 -0.0940  0.3639
  127SOPE   H7X13666   6.497   0.197   4.887 -0.7733 -1.4950 -1.1697
  127SOPE   H7Y13667   6.660   0.153   4.971 -0.0661 -2.0982  1.4646
  127SOPE   C3813668   6.526  -0.004   4.942  0.3709  0.4642  0.0122
  127SOPE   H8X13669   6.611  -0.075   4.950 -1.0512 -1.5737 -1.6141
  127SOPE   H8Y13670   6.456  -0.041   4.863  1.0546 -0.2771 -0.2660
  127SOPE   C3913671   6.455   0.019   5.070  0.7468 -0.1630 -0.0736
  127SOPE   H9X13672   6.420  -0.080   5.106  1.0216 -0.0883  0.4088
  127SOPE   H9Y13673   6.369   0.080   5.036  0.7871  1.2020  2.0877
  127SOPE  C31013674   6.546   0.088   5.169 -0.6560 -0.8985 -0.7277
  127SOPE  H10X13675   6.551   0.198   5.155  0.4509 -0.5681  1.7366
  127SOPE  H10Y13676   6.651   0.051   5.168 -0.0388  0.2551  3.4573
  127SOPE  C31113677   6.495   0.053   5.308  0.1355  1.0522  1.0651
  127SOPE  H11X13678   6.483  -0.057   5.316 -1.0351  1.1168  0.3880
  127SOPE  H11Y13679   6.393   0.090   5.329 -1.0671 -2.0670  1.1663
  127SOPE  C31213680   6.600   0.109   5.409 -0.0114 -0.4097 -0.9429
  127SOPE  H12X13681   6.606   0.219   5.400 -2.5870  0.0149  1.3296
  127SOPE  H12Y13682   6.701   0.062   5.399  0.5246  0.9138 -2.0244
  127SOPE  C31313683   6.549   0.075   5.546 -1.0004  0.3867 -0.3829
  127SOPE  H13X13684   6.545  -0.034   5.567  1.1323  0.6338  1.7474
  127SOPE  H13Y13685   6.449   0.123   5.551 -1.2427 -0.1638  0.1515
  127SOPE  C31413686   6.636   0.146   5.647  0.6232  0.5241  0.7136
  127SOPE  H14X13687   6.637   0.251   5.611  0.4953 -0.1223 -1.2693
  127SOPE  H14Y13688   6.735   0.097   5.635  0.2995  0.0532 -0.0833
  127SOPE  C31513689   6.581   0.138   5.790  0.2304 -1.4569 -0.6844
  127SOPE  H15X13690   6.573   0.029   5.814 -2.3570 -1.1865 -0.0768
  127SOPE  H15Y13691   6.481   0.184   5.800 -0.0669 -2.0442 -0.8765
  127SOPE  C31613692   6.669   0.199   5.897  0.5707  0.2155 -0.1885
  127SOPE  H16X13693   6.693   0.305   5.874  0.0310  0.4504  0.2961
  127SOPE  H16Y13694   6.759   0.135   5.899  1.8498  1.9187  2.2287
  127SOPE  C31713695   6.612   0.204   6.038 -0.3576  0.4005 -0.5547
  127SOPE  H17X13696   6.705   0.216   6.099  0.5852 -0.8408 -1.6801
  127SOPE  H17Y13697   6.570   0.104   6.064  0.8516  0.5570  2.4571
  127SOPE  C31813698   6.509   0.316   6.049 -0.6936  0.0335 -0.0910
  127SOPE  H18X13699   6.553   0.412   6.015  1.3792 -1.3771 -1.6676
  127SOPE  H18Y13700   6.484   0.340   6.154  0.0550  0.0020  0.0953
  127SOPE  H18Z13701   6.415   0.310   5.990 -1.2756  2.6798  0.4266
  128SOPE     N13702   2.631   4.010   3.649  0.0442  0.3009  0.3711
  128SOPE   HN113703   2.713   4.002   3.586  0.1046  1.2888  0.3066
  128SOPE   HN213704   2.598   4.108   3.639 -0.5830 -0.0816 -1.8732
  128SOPE   HN313705   2.677   3.998   3.741  0.8171 -2.5963 -0.2920
  128SOPE   C1213706   2.541   3.891   3.631  0.7040 -0.2204 -0.0548
  128SOPE  H12A13707   2.534   3.883   3.520  1.4379 -1.9167 -0.0143
  128SOPE  H12B13708   2.442   3.913   3.675  0.1808 -1.5977 -0.4953
  128SOPE   C1113709   2.592   3.761   3.688  0.7349 -0.3792 -0.4012
  128SOPE  H11A13710   2.520   3.678   3.670  1.5756 -1.2021 -0.0909
  128SOPE  H11B13711   2.602   3.766   3.799  0.7785 -0.0972 -0.4159
  128SOPE     P13712   2.755   3.603   3.562  0.1595 -0.0024  0.0418
  128SOPE   O1313713   2.901   3.586   3.581  0.4403  0.0791  0.2326
  128SOPE   O1413714   2.703   3.609   3.426 -0.1690 -0.4277 -0.0242
  128SOPE   O1213715   2.713   3.733   3.626 -0.2132 -0.2914  0.1935
  128SOPE   O1113716   2.661   3.498   3.630 -0.4826  0.4143 -0.4838
  128SOPE    C113717   2.706   3.419   3.740  0.2813  0.7134  0.5714
  128SOPE    HA13718   2.774   3.477   3.806  0.6519 -0.1757  0.9795
  128SOPE    HB13719   2.743   3.321   3.703 -0.6674  0.6658 -0.2998
  128SOPE    C213720   2.583   3.382   3.836  0.2236 -0.8453 -0.3175
  128SOPE    HS13721   2.500   3.370   3.764  0.2159  1.8875 -0.8461
  128SOPE   O2113722   2.561   3.490   3.924  0.2313 -0.4794  0.5517
  128SOPE   C2113723   2.434   3.494   3.972  0.5667 -0.5296 -0.5633
  128SOPE   O2213724   2.347   3.419   3.939  0.5555 -0.3083  0.0893
  128SOPE   C2213725   2.409   3.609   4.072  0.1930 -0.3259  0.4112
  128SOPE   H2R13726   2.331   3.569   4.140 -2.1532 -0.6041 -2.2529
  128SOPE   H2S13727   2.367   3.694   4.015 -0.8619 -1.7801 -1.0625
  128SOPE    C313728   2.612   3.246   3.911 -0.1425  0.1996 -0.2003
  128SOPE    HX13729   2.611   3.171   3.829 -2.3126  0.9195 -0.8850
  128SOPE    HY13730   2.533   3.221   3.985  1.2766 -1.3704  0.8781
  128SOPE   O3113731   2.738   3.261   3.981  0.5174 -0.8680  0.1367
  128SOPE   C3113732   2.791   3.152   4.041  0.3121  0.1047 -0.9687
  128SOPE   O3213733   2.758   3.040   4.005 -0.0601 -0.0105  0.2061
  128SOPE   C3213734   2.905   3.180   4.142 -0.9299  0.2834  0.9832
  128SOPE   H2X13735   2.915   3.291   4.149 -2.0462  0.5345 -0.7369
  128SOPE   H2Y13736   3.001   3.140   4.103 -1.4133 -0.2121  0.2769
  128SOPE   C2313737   2.538   3.643   4.156 -0.2032 -0.0566  0.9455
  128SOPE   H3R13738   2.532   3.751   4.181 -0.5096  0.4140 -0.9904
  128SOPE   H3S13739   2.625   3.624   4.091 -0.4568  0.9817  0.2715
  128SOPE   C2413740   2.565   3.561   4.286  0.6527  0.0569  0.2431
  128SOPE   H4R13741   2.578   3.453   4.263  4.1820 -0.3204  3.1041
  128SOPE   H4S13742   2.653   3.608   4.335  0.3309  1.0796 -0.1556
  128SOPE   C2513743   2.448   3.570   4.379  0.0987  0.0481  0.1913
  128SOPE   H5R13744   2.439   3.676   4.412 -1.1804 -0.0337  0.1724
  128SOPE   H5S13745   2.353   3.526   4.342  0.7562 -0.7907 -0.5441
  128SOPE   C2613746   2.476   3.500   4.514  0.2009 -0.1798 -0.3612
  128SOPE   H6R13747   2.472   3.392   4.487 -0.9922 -0.0340 -0.8251
  128SOPE   H6S13748   2.578   3.527   4.550  0.9499  0.5753 -2.8227
  128SOPE   C2713749   2.362   3.537   4.614 -0.3498 -0.2312 -0.6274
  128SOPE   H7R13750   2.377   3.642   4.647 -1.8781 -0.8172  2.2689
  128SOPE   H7S13751   2.261   3.518   4.573 -0.9601 -0.4414  0.8881
  128SOPE   C2813752   2.370   3.446   4.741 -0.2130  0.3894  0.3865
  128SOPE   H8R13753   2.337   3.340   4.732  2.1952 -0.5041  1.1971
  128SOPE   H8S13754   2.479   3.452   4.765 -0.0139 -1.8476  0.3327
  128SOPE   C2913755   2.292   3.512   4.847  0.2320 -0.0955 -0.1808
  128SOPE   H9113756   2.198   3.561   4.817 -1.5408 -2.7819  0.6260
  128SOPE  C21013757   2.311   3.510   4.980 -0.1733 -0.1818 -0.4252
  128SOPE  H10113758   2.224   3.542   5.039 -1.8413 -2.6389 -1.3895
  128SOPE  C21113759   2.420   3.450   5.060  0.4008  0.7036  0.0733
  128SOPE  H11R13760   2.511   3.443   4.998  0.1833  0.6815 -0.2471
  128SOPE  H11S13761   2.375   3.353   5.089 -0.9861  0.2173 -3.2109
  128SOPE  C21213762   2.437   3.522   5.197  0.4810 -0.2948 -0.4613
  128SOPE  H12R13763   2.409   3.630   5.193  0.6302 -0.1782  1.2251
  128SOPE  H12S13764   2.542   3.511   5.230 -0.0469 -2.3238  0.6718
  128SOPE  C21313765   2.341   3.468   5.310  0.5556  0.2676 -0.2507
  128SOPE  H13R13766   2.357   3.358   5.318 -0.2771  0.1291 -0.3793
  128SOPE  H13S13767   2.239   3.493   5.274  0.4137  2.2928  1.3860
  128SOPE  C21413768   2.371   3.539   5.446  0.5950  0.6223  0.0896
  128SOPE  H14R13769   2.478   3.543   5.473  0.7663  0.8098 -0.5845
  128SOPE  H14S13770   2.317   3.480   5.523 -0.5750 -0.0382 -1.1792
  128SOPE  C21513771   2.320   3.688   5.450  0.5101 -0.7018  0.1870
  128SOPE  H15R13772   2.223   3.685   5.396  1.2541  2.6688 -1.6381
  128SOPE  H15S13773   2.383   3.756   5.388 -0.1866  1.5249  1.7897
  128SOPE  C21613774   2.313   3.753   5.591  0.4249 -0.4036 -0.3134
  128SOPE  H16R13775   2.411   3.769   5.640 -0.0249  1.8997 -0.0221
  128SOPE  H16S13776   2.269   3.676   5.658  1.3524 -0.8126 -0.1652
  128SOPE  C21713777   2.247   3.897   5.598 -0.7405 -0.5346 -0.0147
  128SOPE  H17R13778   2.245   3.941   5.700 -1.6161  1.3294 -0.7872
  128SOPE  H17S13779   2.140   3.886   5.569 -1.2714 -3.1875  2.3950
  128SOPE  C21813780   2.319   4.007   5.510 -0.5539  0.4846  0.4145
  128SOPE  H18R13781   2.269   4.101   5.544  0.2482  0.2550  2.3611
  128SOPE  H18S13782   2.307   3.971   5.406  1.5854 -1.5760  0.8003
  128SOPE  H18T13783   2.428   4.018   5.527 -0.1087 -0.0787 -1.8123
  128SOPE   C3313784   2.869   3.128   4.288 -0.9750 -0.8046 -0.0958
  128SOPE   H3X13785   2.949   3.166   4.355  1.0076  0.1765 -2.8215
  128SOPE   H3Y13786   2.875   3.018   4.295  2.0120 -0.6420  1.1363
  128SOPE   C3413787   2.738   3.201   4.335  0.0644 -0.0248  1.0354
  128SOPE   H4X13788   2.647   3.167   4.280 -0.0705 -1.1963  1.9527
  128SOPE   H4Y13789   2.756   3.310   4.320  0.5986 -0.1139  1.0307
  128SOPE   C3513790   2.712   3.188   4.483  0.4129 -0.4377 -0.6783
  128SOPE   H5X13791   2.730   3.085   4.521 -1.1453 -0.9768 -1.3351
  128SOPE   H5Y13792   2.605   3.207   4.505  0.2139  0.1401 -2.0701
  128SOPE   C3613793   2.810   3.273   4.569 -0.2048  0.0654 -0.5408
  128SOPE   H6X13794   2.838   3.367   4.516  0.0970 -0.4603 -1.3409
  128SOPE   H6Y13795   2.903   3.213   4.577  1.1392  1.7994 -2.1298
  128SOPE   C3713796   2.746   3.308   4.703  0.2628 -0.7479 -0.5289
  128SOPE   H7X13797   2.678   3.228   4.741 -1.0793  0.8461  0.6165
  128SOPE   H7Y13798   2.697   3.408   4.701  2.1999  0.2964  0.9995
  128SOPE   C3813799   2.845   3.312   4.823  0.6529 -0.0099  0.1671
  128SOPE   H8X13800   2.928   3.383   4.803  0.3399 -0.1387 -1.8477
  128SOPE   H8Y13801   2.895   3.213   4.837  2.0268  0.6152 -0.1389
  128SOPE   C3913802   2.773   3.353   4.949 -0.3209  0.2477  0.1027
  128SOPE   H9X13803   2.704   3.272   4.982  1.0843  0.8746  5.6029
  128SOPE   H9Y13804   2.708   3.443   4.938  0.0986  0.3587 -1.8493
  128SOPE  C31013805   2.877   3.381   5.063  0.7187 -0.6785 -0.2134
  128SOPE  H10X13806   2.934   3.473   5.035  1.2030 -0.4102  1.5583
  128SOPE  H10Y13807   2.931   3.286   5.081 -1.8048 -1.7987  2.1826
  128SOPE  C31113808   2.815   3.404   5.200  1.1298 -0.4014 -0.2767
  128SOPE  H11X13809   2.729   3.333   5.205 -0.1632  1.0400 -1.0144
  128SOPE  H11Y13810   2.763   3.502   5.206  2.7451  0.4316  1.0734
  128SOPE  C31213811   2.913   3.379   5.311 -0.0899 -0.1256 -0.4509
  128SOPE  H12X13812   3.006   3.438   5.298 -0.8650  0.9037 -1.7334
  128SOPE  H12Y13813   2.929   3.270   5.313  0.0508 -0.0976  0.6346
  128SOPE  C31313814   2.859   3.420   5.451 -0.6299 -0.4737 -0.7384
  128SOPE  H13X13815   2.777   3.350   5.478  0.5953 -1.6161  0.1592
  128SOPE  H13Y13816   2.816   3.522   5.454  0.5612  0.0217 -0.2298
  128SOPE  C31413817   2.954   3.418   5.572 -0.2970 -0.8715  0.1334
  128SOPE  H14X13818   3.046   3.481   5.566 -0.7738  0.5585  4.3301
  128SOPE  H14Y13819   2.988   3.313   5.572  0.0510 -0.7623  0.9625
  128SOPE  C31513820   2.879   3.430   5.704  0.1897  0.1778  0.0202
  128SOPE  H15X13821   2.780   3.383   5.685 -1.1456  2.4389  0.9981
  128SOPE  H15Y13822   2.848   3.534   5.728  1.7032  0.6597 -0.0124
  128SOPE  C31613823   2.935   3.343   5.820 -0.1056 -0.2030  0.4178
  128SOPE  H16X13824   3.039   3.381   5.831 -1.0792  2.2095  2.2864
  128SOPE  H16Y13825   2.930   3.237   5.787  1.0243  0.0029 -0.4638
  128SOPE  C31713826   2.851   3.372   5.951  0.0351  0.2815  0.1397
  128SOPE  H17X13827   2.746   3.348   5.925  0.1180  1.0091 -0.9503
  128SOPE  H17Y13828   2.854   3.481   5.975  0.7566 -0.1150  1.9762
  128SOPE  C31813829   2.892   3.299   6.082  0.2549  0.1204  1.0117
  128SOPE  H18X13830   2.915   3.194   6.053 -2.6307  0.0281 -1.3702
  128SOPE  H18Y13831   2.804   3.300   6.149 -1.1055  4.3531 -0.5358
  128SOPE  H18Z13832   2.978   3.348   6.132 -0.0165  1.8642 -0.1474
  129OSM      N13833   6.776   0.633   8.706 -0.1873  0.3865  0.4397
  129OSM    C1513834   6.665   0.676   8.789 -0.3177  0.6123  0.3065
  129OSM   H15A13835   6.629   0.776   8.770 -0.6265  0.3327 -0.6533
  129OSM   H15B13836   6.689   0.660   8.893  2.2466  0.0858 -0.2995
  129OSM   H15C13837   6.575   0.616   8.779 -1.6075  2.4096  0.7854
  129OSM    C1413838   6.907   0.684   8.761  0.1209 -0.4197 -0.4275
  129OSM   H14A13839   6.993   0.638   8.713  1.5216 -0.5404  2.0266
  129OSM   H14B13840   6.926   0.660   8.865  0.8429  0.3886 -0.3630
  129OSM   H14C13841   6.923   0.790   8.752  1.1290 -0.4158  1.0739
  129OSM    C1313842   6.790   0.487   8.728  0.7399  0.2893 -0.4359
  129OSM   H13A13843   6.804   0.459   8.832  0.2547  0.1585 -0.4030
  129OSM   H13B13844   6.883   0.458   8.683  1.1883  1.6911 -0.4556
  129OSM   H13C13845   6.701   0.434   8.695  0.6268 -1.0326  1.7760
  129OSM    C1213846   6.754   0.662   8.560 -0.4833 -0.2132  0.5363
  129OSM   H12A13847   6.762   0.770   8.552  2.3389 -0.3029  1.1072
  129OSM   H12B13848   6.656   0.637   8.524  0.5772 -1.2776 -1.8813
  129OSM    C1113849   6.847   0.616   8.449 -0.0444 -0.6401 -0.1255
  129OSM   H11A13850   6.793   0.640   8.355  3.3162 -0.5809 -2.2185
  129OSM   H11B13851   6.869   0.507   8.456 -0.3565 -0.7632 -0.9878
  129OSM      P13852   7.116   0.635   8.460  0.2093 -0.1935  0.1820
  129OSM    O1313853   7.209   0.746   8.431 -0.6238  0.0099 -0.2062
  129OSM    O1413854   7.127   0.555   8.587 -0.1047 -0.3081  0.3726
  129OSM    O1113855   7.113   0.526   8.347  0.1084 -0.0033  0.5323
  129OSM    O1213856   6.970   0.695   8.448 -0.1030 -0.5477  0.2537
  129OSM    C1S13857   7.088   0.568   8.212 -0.8900 -0.3749  0.1601
  129OSM    H1S13858   7.127   0.670   8.196 -1.3074 -0.0588  1.0622
  129OSM    H1T13859   6.979   0.557   8.195 -0.6680  0.1561 -1.9449
  129OSM     NF13860   7.133   0.546   7.966  0.3422 -0.3208 -0.5307
  129OSM    HNF13861   7.060   0.508   7.910 -0.5478  0.4828  0.0608
  129OSM    C2S13862   7.162   0.487   8.096  0.4109 -0.2494 -0.7086
  129OSM    H2S13863   7.272   0.478   8.105  0.3790 -2.2962 -2.0111
  129OSM    C3S13864   7.125   0.336   8.112  0.4215 -0.0272  0.6576
  129OSM    H3S13865   7.015   0.332   8.129  0.3900 -1.7322  0.2370
  129OSM     O313866   7.169   0.280   8.241  0.2014 -0.0139  0.2385
  129OSM    HO313867   7.194   0.349   8.302  1.7399 -1.3907  1.2560
  129OSM    C4S13868   7.177   0.252   7.999 -0.2177 -0.5444 -0.0624
  129OSM    H4S13869   7.107   0.181   7.952  0.6457 -2.4702  1.4217
  129OSM    C5S13870   7.312   0.238   7.958  0.3776 -0.5097  0.3187
  129OSM    H5S13871   7.386   0.296   8.015  0.4038 -0.1135 -0.1171
  129OSM    C6S13872   7.363   0.138   7.850 -0.9204 -0.5887 -0.7895
  129OSM    H6S13873   7.298   0.047   7.847 -1.9750  0.0142  1.6029
  129OSM    H6T13874   7.466   0.098   7.861 -0.0002  1.3318 -1.8900
  129OSM    C7S13875   7.375   0.202   7.715  0.5683  0.8556  0.1880
  129OSM    H7S13876   7.452   0.283   7.708  0.0594  1.3892  0.6876
  129OSM    H7T13877   7.282   0.251   7.681  1.0476  1.8947  0.3057
  129OSM    C8S13878   7.396   0.093   7.605  0.0848 -0.1935 -1.0017
  129OSM    H8S13879   7.328   0.006   7.616  1.4374 -1.0654  0.9908
  129OSM    H8T13880   7.498   0.055   7.629  0.1428  1.3397  1.4655
  129OSM    C9S13881   7.407   0.151   7.468 -1.2331  0.4162 -0.6854
  129OSM    H9S13882   7.511   0.186   7.449 -1.0123  0.9873  1.2982
  129OSM    H9T13883   7.330   0.229   7.448 -1.8230 -0.0681 -0.3392
  129OSM   C10S13884   7.383   0.042   7.369 -0.3761  0.6018  0.0345
  129OSM   H10S13885   7.283  -0.004   7.387  1.2765 -3.2465  0.3894
  129OSM   H10T13886   7.439  -0.050   7.397 -1.6939 -0.2541 -0.0287
  129OSM   C11S13887   7.409   0.075   7.220 -0.2578 -0.7584  0.5791
  129OSM   H11S13888   7.509   0.111   7.189 -1.8304  1.0757 -3.0788
  129OSM   H11T13889   7.333   0.152   7.194  0.1713 -0.8274 -0.9641
  129OSM   C12S13890   7.377  -0.040   7.134  0.3848 -0.6669  0.3623
  129OSM   H12S13891   7.287  -0.093   7.172  0.4849 -0.4769  0.8660
  129OSM   H12T13892   7.460  -0.113   7.139  1.5486  0.6725  1.1137
  129OSM   C13S13893   7.371  -0.003   6.976 -0.2150  0.4709 -0.1123
  129OSM   H13S13894   7.468   0.038   6.941 -1.2841  1.8094 -1.6949
  129OSM   H13T13895   7.291   0.070   6.949 -0.3961  0.0248 -0.8196
  129OSM   C14S13896   7.334  -0.120   6.884  0.5037  0.6338  0.5964
  129OSM   H14S13897   7.241  -0.173   6.911  0.5777  0.6173  0.8166
  129OSM   H14T13898   7.411  -0.200   6.890  0.2439  0.1719 -1.3843
  129OSM   C15S13899   7.321  -0.076   6.739  0.1445  0.2561 -0.5253
  129OSM   H15S13900   7.408  -0.015   6.708  1.7859 -0.5213  2.2041
  129OSM   H15T13901   7.227  -0.019   6.735 -0.3973 -0.1745  3.0032
  129OSM   C16S13902   7.321  -0.199   6.647 -0.2335  0.0616  0.1492
  129OSM   H16S13903   7.254  -0.275   6.692  1.3370 -1.1638  0.5362
  129OSM   H16T13904   7.420  -0.249   6.653 -0.4202 -0.3732 -0.3568
  129OSM   C17S13905   7.279  -0.171   6.502  0.2118  0.4736  1.6614
  129OSM   H17S13906   7.343  -0.099   6.446  0.2251  1.2873  2.7013
  129OSM   H17T13907   7.178  -0.125   6.502  0.0336  0.0860  1.3490
  129OSM   C18S13908   7.275  -0.298   6.415  0.4260  0.2716 -0.5675
  129OSM   H18S13909   7.258  -0.265   6.310 -0.1670  1.4346 -0.1309
  129OSM   H18T13910   7.183  -0.356   6.439 -0.6217  2.2717  0.5318
  129OSM   H18U13911   7.360  -0.367   6.432 -0.0324 -0.7986 -2.3040
  129OSM    C1F13912   7.185   0.669   7.935  0.1178  0.0524  0.4101
  129OSM     OF13913   7.289   0.712   7.986  0.2847  0.1918 -0.0844
  129OSM    C2F13914   7.116   0.748   7.822 -0.0302  0.1461  0.7415
  129OSM    H2F13915   7.116   0.859   7.823  1.4998  0.2074 -0.8448
  129OSM    H2G13916   7.007   0.729   7.807  0.3480  0.1361 -3.3023
  129OSM    C3F13917   7.179   0.711   7.684  1.2554  0.3360  0.6639
  129OSM    H3F13918   7.158   0.603   7.671 -1.5156  0.9932 -1.1508
  129OSM    H3G13919   7.290   0.718   7.682  1.5873 -3.0004 -1.5812
  129OSM    C4F13920   7.104   0.789   7.568  0.0138  0.2237  0.3058
  129OSM    H4F13921   7.095   0.897   7.593 -0.5490 -0.2863  2.4744
  129OSM    H4G13922   7.001   0.750   7.557  0.1182 -0.9752  2.9511
  129OSM    C5F13923   7.181   0.783   7.435 -0.5557 -0.4523 -0.4653
  129OSM    H5F13924   7.215   0.680   7.412 -0.9057 -0.5635 -0.4843
  129OSM    H5G13925   7.266   0.855   7.438 -0.6524 -0.1781 -2.8184
  129OSM    C6F13926   7.092   0.821   7.316 -0.7888  0.1246  0.1542
  129OSM    H6F13927   7.034   0.910   7.350 -2.2348 -0.5205 -0.5258
  129OSM    H6G13928   7.025   0.734   7.298 -0.8253  0.2992 -0.5538
  129OSM    C7F13929   7.184   0.858   7.192 -0.6458 -0.0571 -0.0774
  129OSM    H7F13930   7.226   0.764   7.151 -0.0838 -0.2659  0.9486
  129OSM    H7G13931   7.262   0.922   7.238 -2.0046 -0.6156  3.2788
  129OSM    C8F13932   7.102   0.923   7.078  0.5385  1.1319 -0.2405
  129OSM    H8F13933   7.060   1.015   7.124  0.4500  1.4448 -0.9509
  129OSM    H8G13934   7.024   0.845   7.063  1.1667 -0.0053  1.9015
  129OSM    C9F13935   7.166   0.957   6.951 -0.6588 -0.0834 -0.1332
  129OSM    H9F13936   7.202   1.061   6.943 -0.4447  0.1527  2.9338
  129OSM   C10F13937   7.176   0.881   6.843  0.7217 -0.0762  0.2828
  129OSM   H10F13938   7.228   0.920   6.755  1.9785 -1.4385  0.3749
  129OSM   C11F13939   7.126   0.736   6.842 -0.2735  0.6701 -0.0003
  129OSM   H11F13940   7.027   0.714   6.886  0.2413 -2.0972 -0.0369
  129OSM   H11G13941   7.201   0.674   6.896 -0.6381 -2.2255 -2.5336
  129OSM   C12F13942   7.125   0.655   6.705  0.6043 -0.5954 -0.6782
  129OSM   H12F13943   7.103   0.721   6.618  1.6958 -1.0015 -1.2840
  129OSM   H12G13944   7.044   0.581   6.722  0.6170 -0.4005  0.2841
  129OSM   C13F13945   7.267   0.609   6.669  0.2475  0.5457  0.4770
  129OSM   H13F13946   7.298   0.541   6.751 -0.7066 -1.0057 -0.3992
  129OSM   H13G13947   7.328   0.700   6.649 -1.4302  1.3473 -1.3726
  129OSM   C14F13948   7.288   0.531   6.534 -0.4291  0.2660 -0.1178
  129OSM   H14F13949   7.398   0.516   6.541 -0.2203  1.7494 -0.0045
  129OSM   H14G13950   7.267   0.609   6.457  0.1871  1.6259  1.0543
  129OSM   C15F13951   7.199   0.413   6.507 -0.4136  0.5003  0.2266
  129OSM   H15F13952   7.156   0.361   6.595  0.1741 -0.1547  0.1294
  129OSM   H15G13953   7.251   0.339   6.442  0.5870 -0.4648  2.0464
  129OSM   C16F13954   7.070   0.455   6.422 -0.4766  0.3840  0.8615
  129OSM   H16F13955   7.106   0.496   6.325  1.4766 -1.5295  0.7162
  129OSM   H16G13956   7.032   0.539   6.483  0.9668  1.0411  0.8896
  129OSM   C17F13957   6.967   0.351   6.394 -0.1098 -0.0452 -0.1206
  129OSM   H17F13958   6.941   0.300   6.490 -1.2186  2.5965  1.0918
  129OSM   H17G13959   7.015   0.273   6.332 -0.1606  0.2456 -0.5240
  129OSM   C18F13960   6.838   0.406   6.320  0.1914 -0.1999 -0.0119
  129OSM   H18F13961   6.764   0.454   6.387 -0.0182  1.5912 -1.4335
  129OSM   H18G13962   6.790   0.316   6.276 -1.0726  0.5237 -0.1664
  129OSM   H18H13963   6.863   0.470   6.232 -1.1759  0.3315 -0.0376
  130OSM      N13964   3.041   1.494   8.443  0.6909 -0.2323  0.6125
  130OSM    C1513965   2.982   1.466   8.579 -0.2424 -0.5169 -0.7266
  130OSM   H15A13966   3.044   1.516   8.653  0.7941 -2.2951 -0.3414
  130OSM   H15B13967   2.971   1.360   8.595 -4.5019 -0.0631  0.4514
  130OSM   H15C13968   2.890   1.519   8.597 -0.0431  0.1803 -1.6619
  130OSM    C1413969   3.183   1.444   8.444  0.4311 -0.5049 -0.4597
  130OSM   H14A13970   3.236   1.471   8.534  0.0128  1.9019 -0.8702
  130OSM   H14B13971   3.232   1.494   8.362  0.0489  2.8769  1.2092
  130OSM   H14C13972   3.185   1.336   8.440 -0.1845 -0.8504  3.9594
  130OSM    C1313973   2.959   1.405   8.344 -0.7845  0.0906 -0.0443
  130OSM   H13A13974   2.991   1.424   8.242  0.4161 -0.8767  0.1262
  130OSM   H13B13975   2.854   1.428   8.350 -0.4988  1.5147 -0.1141
  130OSM   H13C13976   2.970   1.301   8.371 -3.2451 -0.7470 -1.8423
  130OSM    C1213977   3.037   1.644   8.419 -0.5879 -0.2322  1.0399
  130OSM   H12A13978   3.094   1.700   8.492 -0.8387 -2.3084  2.9385
  130OSM   H12B13979   2.943   1.689   8.447  0.6358  2.0485  1.7378
  130OSM    C1113980   3.089   1.692   8.286 -0.4713 -0.1605  0.5520
  130OSM   H11A13981   3.074   1.802   8.273  1.8995  0.5205  2.6573
  130OSM   H11B13982   3.038   1.637   8.205  0.7243 -2.3396  1.1811
  130OSM      P13983   3.329   1.770   8.353  0.2226 -0.3009  0.1280
  130OSM    O1313984   3.251   1.841   8.464  0.5492 -0.0240  0.0998
  130OSM    O1413985   3.461   1.707   8.391  0.1518  0.0532  0.7458
  130OSM    O1113986   3.357   1.879   8.246  0.4482 -0.2547 -0.3378
  130OSM    O1213987   3.235   1.670   8.280 -0.1118 -0.1413  0.1333
  130OSM    C1S13988   3.412   1.844   8.124  0.0197  0.3302  0.3271
  130OSM    H1S13989   3.470   1.750   8.132 -0.8273 -0.4164 -1.5011
  130OSM    H1T13990   3.491   1.913   8.086  1.1195 -0.8354  0.4145
  130OSM     NF13991   3.376   1.777   7.893 -0.5673  0.2717  0.6185
  130OSM    HNF13992   3.372   1.845   7.821  0.1593  1.0216  1.2609
  130OSM    C2S13993   3.306   1.815   8.009 -0.1604 -0.1704 -0.3362
  130OSM    H2S13994   3.246   1.731   8.049  0.2018  0.7317  2.2552
  130OSM    C3S13995   3.218   1.939   7.985  0.2281  0.2939  0.3384
  130OSM    H3S13996   3.290   2.023   7.970 -0.8066  1.4010  1.3329
  130OSM     O313997   3.124   1.983   8.094  0.2505  0.3518  0.3908
  130OSM    HO313998   3.158   1.954   8.179 -1.7086 -1.6744  0.5742
  130OSM    C4S13999   3.135   1.922   7.860  0.2004  0.4570  0.6792
  130OSM    H4S14000   3.057   1.847   7.878  0.3967 -0.8913 -3.1596
  130OSM    C5S14001   3.117   2.001   7.753  0.5079  0.0231  0.1000
  130OSM    H5S14002   3.174   2.095   7.750  1.4915 -0.4414  2.1334
  130OSM    C6S14003   3.016   1.976   7.640 -0.4449  0.0859 -0.4421
  130OSM    H6S14004   2.935   1.906   7.669 -1.2494  1.4240  0.6766
  130OSM    H6T14005   3.079   1.932   7.560 -0.5603  0.4321 -0.7268
  130OSM    C7S14006   2.950   2.102   7.578 -0.3703  0.1361 -0.2997
  130OSM    H7S14007   3.041   2.157   7.548 -0.9401  1.0060 -0.4600
  130OSM    H7T14008   2.889   2.162   7.649  0.5898 -1.6479  2.1936
  130OSM    C8S14009   2.869   2.065   7.453 -0.0071  0.3366 -0.4298
  130OSM    H8S14010   2.817   2.156   7.417  0.3988  0.6092 -0.3365
  130OSM    H8T14011   2.799   1.983   7.476  0.7653 -0.2298 -0.0464
  130OSM    C9S14012   2.952   2.018   7.338  0.4917  0.4276 -0.1406
  130OSM    H9S14013   2.989   1.915   7.359 -0.8940  0.1172  0.9087
  130OSM    H9T14014   3.050   2.072   7.339  1.4968 -1.3046  1.1552
  130OSM   C10S14015   2.874   2.026   7.206  0.1078  0.3763 -0.4521
  130OSM   H10S14016   2.855   2.135   7.198 -2.7593  0.5829  4.5310
  130OSM   H10T14017   2.773   1.981   7.220  1.2667 -1.6053  2.4795
  130OSM   C11S14018   2.937   1.970   7.082  0.3317  0.1983 -0.1146
  130OSM   H11S14019   2.978   1.867   7.094  2.2553  0.7985 -1.1522
  130OSM   H11T14020   3.020   2.033   7.047 -1.0992  0.2653 -3.8663
  130OSM   C12S14021   2.833   1.969   6.969 -0.1585 -0.6570  0.7583
  130OSM   H12S14022   2.812   2.077   6.958  4.0478  0.1128 -2.2263
  130OSM   H12T14023   2.739   1.919   7.002 -0.1700 -1.0057  0.2062
  130OSM   C13S14024   2.881   1.892   6.846  0.4290  0.8970 -0.2206
  130OSM   H13S14025   2.913   1.790   6.875 -2.4847  0.2817  1.2268
  130OSM   H13T14026   2.973   1.938   6.804  2.2363  0.5877  3.0486
  130OSM   C14S14027   2.770   1.888   6.744  0.1140  0.4186 -0.4992
  130OSM   H14S14028   2.702   1.975   6.755  1.7344  1.7160 -0.3221
  130OSM   H14T14029   2.696   1.807   6.761 -0.9656  1.5638  0.4249
  130OSM   C15S14030   2.827   1.879   6.607 -0.0506  0.8554  0.0737
  130OSM   H15S14031   2.876   1.781   6.587  0.2227  1.4796 -2.7868
  130OSM   H15T14032   2.905   1.957   6.595 -0.9465  1.3612 -3.8356
  130OSM   C16S14033   2.716   1.905   6.495 -0.9487 -0.1629  0.0190
  130OSM   H16S14034   2.679   2.009   6.489  0.0424  0.3318  1.8412
  130OSM   H16T14035   2.636   1.832   6.520  0.6203 -2.0228 -0.1988
  130OSM   C17S14036   2.781   1.870   6.363 -0.3415  0.0460 -0.3986
  130OSM   H17S14037   2.829   1.770   6.371  1.9249  1.0156 -1.0275
  130OSM   H17T14038   2.865   1.935   6.329  1.6928 -2.9341 -1.5384
  130OSM   C18S14039   2.677   1.865   6.245  0.2284  0.2533 -0.7259
  130OSM   H18S14040   2.730   1.829   6.155  4.3959  0.0261  1.5766
  130OSM   H18T14041   2.629   1.965   6.237  0.2388  0.4978  1.5720
  130OSM   H18U14042   2.599   1.790   6.269  1.3972 -0.9182 -0.4699
  130OSM    C1F14043   3.442   1.666   7.866  0.3541 -0.1033 -0.8008
  130OSM     OF14044   3.457   1.578   7.953  0.4522 -0.0105  0.0420
  130OSM    C2F14045   3.495   1.643   7.725 -0.5533 -0.2641 -0.3387
  130OSM    H2F14046   3.590   1.698   7.708 -1.7562  1.1546 -2.9366
  130OSM    H2G14047   3.422   1.682   7.651 -2.6714  0.1836  1.8390
  130OSM    C3F14048   3.513   1.492   7.701 -0.2453  0.1832 -0.0859
  130OSM    H3F14049   3.423   1.432   7.729  0.3335 -0.5074  0.3214
  130OSM    H3G14050   3.598   1.453   7.761  0.3541  0.9610 -0.4058
  130OSM    C4F14051   3.542   1.462   7.553  0.5575  0.1293  0.1121
  130OSM    H4F14052   3.454   1.471   7.486 -0.2865  0.7160  1.2602
  130OSM    H4G14053   3.553   1.351   7.552  1.0179  0.0583  3.4018
  130OSM    C5F14054   3.667   1.546   7.509 -0.5133 -0.5211 -0.1079
  130OSM    H5F14055   3.738   1.520   7.591 -0.0739 -1.3093 -0.7218
  130OSM    H5G14056   3.651   1.655   7.517 -5.0758 -1.1593  4.5839
  130OSM    C6F14057   3.719   1.507   7.374  0.0267  0.7091  0.1059
  130OSM    H6F14058   3.752   1.402   7.382 -1.7887  0.1789  1.2413
  130OSM    H6G14059   3.812   1.568   7.364  0.2001  0.2122 -1.6119
  130OSM    C7F14060   3.633   1.531   7.250 -0.0271  0.0892  0.6675
  130OSM    H7F14061   3.605   1.637   7.236 -0.4522 -0.0548  0.3989
  130OSM    H7G14062   3.539   1.473   7.259 -0.2678  0.5961  1.5015
  130OSM    C8F14063   3.712   1.489   7.119  0.3352 -0.3846  0.2769
  130OSM    H8F14064   3.813   1.529   7.143 -0.4695  0.4052  2.6735
  130OSM    H8G14065   3.668   1.547   7.035  0.7091 -2.3577 -1.3518
  130OSM    C9F14066   3.727   1.346   7.074 -0.3551 -0.2251 -0.1335
  130OSM    H9F14067   3.778   1.279   7.145  0.7524 -0.1621 -0.8440
  130OSM   C10F14068   3.689   1.294   6.957  0.1897  0.4828  0.4490
  130OSM   H10F14069   3.700   1.186   6.945  3.0184  0.9044 -1.7286
  130OSM   C11F14070   3.622   1.371   6.842 -0.2561 -0.5146 -0.0715
  130OSM   H11F14071   3.635   1.481   6.851 -0.8065 -0.6189  3.1321
  130OSM   H11G14072   3.512   1.362   6.840 -0.2751 -0.3366 -2.2605
  130OSM   C12F14073   3.671   1.325   6.706 -0.3154  0.0890  0.5995
  130OSM   H12F14074   3.634   1.224   6.677  2.2534 -0.5225 -0.7984
  130OSM   H12G14075   3.781   1.309   6.710  0.0179  1.7919 -0.7576
  130OSM   C13F14076   3.657   1.432   6.601  0.5044 -0.5502  1.2230
  130OSM   H13F14077   3.716   1.522   6.631 -0.8531  0.4529  1.0094
  130OSM   H13G14078   3.556   1.479   6.610  0.1787 -0.6606 -1.1023
  130OSM   C14F14079   3.701   1.408   6.454  0.0428  0.8625 -0.1233
  130OSM   H14F14080   3.803   1.365   6.465 -0.1075  0.7088  0.7671
  130OSM   H14G14081   3.708   1.509   6.410  0.8198  1.3645  1.1323
  130OSM   C15F14082   3.599   1.318   6.379 -0.0460 -0.2309 -0.0803
  130OSM   H15F14083   3.499   1.361   6.398  0.7290  1.0651  1.3247
  130OSM   H15G14084   3.605   1.218   6.427 -0.1663  0.6648  1.8961
  130OSM   C16F14085   3.632   1.318   6.226 -0.0551  0.2893 -0.1648
  130OSM   H16F14086   3.736   1.282   6.213 -0.1864  0.1675 -0.9202
  130OSM   H16G14087   3.635   1.426   6.199  0.9886  0.5150  0.7704
  130OSM   C17F14088   3.533   1.252   6.144 -0.4993 -0.3299 -0.5876
  130OSM   H17F14089   3.429   1.290   6.154 -0.5196 -0.1286 -1.4432
  130OSM   H17G14090   3.536   1.145   6.173  0.9500 -0.5904 -1.5906
  130OSM   C18F14091   3.563   1.261   5.993 -0.1898 -0.4030  0.7800
  130OSM   H18F14092   3.662   1.220   5.966 -0.2606  0.5738 -1.1580
  130OSM   H18G14093   3.557   1.368   5.962  1.4830 -0.5491 -0.1155
  130OSM   H18H14094   3.486   1.203   5.937 -1.0613  1.2884  0.1443
  131OSM      N14095   2.446   2.959   8.619 -0.1840  0.0461  0.3644
  131OSM    C1514096   2.385   3.074   8.555 -0.0243  0.3911 -0.5774
  131OSM   H15A14097   2.320   3.123   8.626  0.0407  0.9274 -0.8827
  131OSM   H15B14098   2.342   3.049   8.459  1.0515  0.8839 -1.2149
  131OSM   H15C14099   2.467   3.141   8.534  0.4343  0.5347  1.4363
  131OSM    C1414100   2.521   3.000   8.745  1.1743 -0.3986 -0.3461
  131OSM   H14A14101   2.445   3.040   8.811 -0.6547 -1.1683 -1.9132
  131OSM   H14B14102   2.595   3.078   8.733  0.5340  0.3746  0.5463
  131OSM   H14C14103   2.563   2.919   8.802  0.6028  0.3550  1.2023
  131OSM    C1314104   2.329   2.872   8.657  0.2687 -0.3531 -0.1538
  131OSM   H13A14105   2.287   2.817   8.575  0.2441 -0.8119  0.1594
  131OSM   H13B14106   2.251   2.928   8.707  0.1857 -0.2151 -0.4349
  131OSM   H13C14107   2.367   2.798   8.726 -0.2024 -0.0164  0.4882
  131OSM    C1214108   2.536   2.878   8.524  0.5438  0.2516  0.2104
  131OSM   H12A14109   2.569   2.787   8.571 -1.8257 -0.4289  0.6503
  131OSM   H12B14110   2.629   2.932   8.513  0.9702  0.2180  2.9630
  131OSM    C1114111   2.482   2.846   8.380  0.0175 -0.1171 -0.3710
  131OSM   H11A14112   2.565   2.804   8.319  0.4411 -1.4825  1.0810
  131OSM   H11B14113   2.458   2.942   8.329  1.9555  0.7143  0.2188
  131OSM      P14114   2.376   2.606   8.415 -0.1702 -0.2659 -0.3538
  131OSM    O1314115   2.386   2.587   8.562 -0.2351  0.1749  0.3062
  131OSM    O1414116   2.267   2.547   8.333  0.1315  0.7907  0.4369
  131OSM    O1114117   2.513   2.571   8.346 -0.1898  0.1358 -0.3315
  131OSM    O1214118   2.367   2.764   8.395  0.7201 -0.1339 -0.6504
  131OSM    C1S14119   2.513   2.578   8.203  0.3605  0.9348  0.0620
  131OSM    H1S14120   2.466   2.672   8.165  1.3450 -0.1285 -4.2727
  131OSM    H1T14121   2.456   2.496   8.154  1.5839  1.2604 -2.0451
  131OSM     NF14122   2.652   2.622   7.996 -0.7945  0.0809 -0.5447
  131OSM    HNF14123   2.688   2.556   7.931  1.6988  0.3104  0.4859
  131OSM    C2S14124   2.657   2.571   8.136  0.9047 -0.6881 -0.7746
  131OSM    H2S14125   2.716   2.639   8.201  0.4266 -3.4563  2.8932
  131OSM    C3S14126   2.720   2.422   8.155 -0.4325 -0.6769 -0.0425
  131OSM    H3S14127   2.659   2.366   8.081  1.4751 -0.5467 -1.8363
  131OSM     O314128   2.716   2.372   8.290 -0.1705 -0.2996  0.1179
  131OSM    HO314129   2.650   2.430   8.328  1.2068  1.8909 -0.6355
  131OSM    C4S14130   2.857   2.411   8.101 -0.3124 -1.0787 -0.2995
  131OSM    H4S14131   2.927   2.478   8.153  0.9191 -3.5593  1.4649
  131OSM    C5S14132   2.904   2.318   8.018 -0.3274  0.3228  0.2373
  131OSM    H5S14133   2.831   2.239   7.995 -1.7523  1.0316  2.0559
  131OSM    C6S14134   3.043   2.318   7.954  0.1789  0.8827 -0.0929
  131OSM    H6S14135   3.027   2.246   7.872  0.2204 -1.2394  1.6598
  131OSM    H6T14136   3.121   2.259   8.008 -0.3584 -0.5642 -0.8464
  131OSM    C7S14137   3.111   2.459   7.940  0.4870 -0.0526 -0.0464
  131OSM    H7S14138   3.214   2.427   7.916 -0.2763 -2.4874 -0.3715
  131OSM    H7T14139   3.112   2.530   8.026  0.0457  0.1551 -0.2076
  131OSM    C8S14140   3.062   2.536   7.817 -0.6549 -0.0592 -0.2544
  131OSM    H8S14141   3.122   2.629   7.812  1.0411 -1.0502  0.6380
  131OSM    H8T14142   2.953   2.559   7.817 -0.7340 -0.4025  0.2035
  131OSM    C9S14143   3.112   2.458   7.693  0.2182  0.1440  0.2949
  131OSM    H9S14144   3.085   2.350   7.686 -0.0586  0.2085  0.3245
  131OSM    H9T14145   3.222   2.449   7.694  0.0822 -2.1395  0.7123
  131OSM   C10S14146   3.063   2.521   7.559  0.0694  0.1777  0.0565
  131OSM   H10S14147   3.102   2.624   7.545  2.3561 -0.7116 -0.5323
  131OSM   H10T14148   2.952   2.524   7.547  0.1060 -1.9415 -1.4493
  131OSM   C11S14149   3.107   2.448   7.432 -0.0981 -0.1092  0.6748
  131OSM   H11S14150   3.101   2.337   7.429 -3.1758 -0.0881 -4.2782
  131OSM   H11T14151   3.217   2.466   7.436 -0.4536  3.2407 -1.1899
  131OSM   C12S14152   3.052   2.493   7.299  0.8323  0.0127 -0.2311
  131OSM   H12S14153   3.096   2.595   7.295 -0.5820  0.8486  2.4475
  131OSM   H12T14154   2.943   2.515   7.303  1.1194  1.4576  1.4031
  131OSM   C13S14155   3.103   2.400   7.183  0.0749  0.0374  0.2644
  131OSM   H13S14156   3.083   2.293   7.207 -2.2953 -0.0977 -1.8178
  131OSM   H13T14157   3.214   2.404   7.178  0.1826 -2.5431 -0.7199
  131OSM   C14S14158   3.047   2.449   7.052 -0.2465 -0.1748 -0.2955
  131OSM   H14S14159   3.094   2.547   7.026  0.1886  0.1668  1.6681
  131OSM   H14T14160   2.939   2.472   7.063  0.2752  1.9634  0.8203
  131OSM   C15S14161   3.071   2.357   6.922 -0.1196 -0.0377  0.4044
  131OSM   H15S14162   3.002   2.275   6.951 -0.8420  0.6826  0.7862
  131OSM   H15T14163   3.179   2.335   6.918  1.1957  5.0625 -3.6244
  131OSM   C16S14164   3.047   2.439   6.796 -0.2939  0.1750 -0.3521
  131OSM   H16S14165   3.141   2.469   6.744 -1.1039 -0.4959 -2.3030
  131OSM   H16T14166   3.014   2.544   6.812 -0.8693  0.5743 -3.5230
  131OSM   C17S14167   2.967   2.371   6.685 -0.8416 -0.2311 -0.3333
  131OSM   H17S14168   2.936   2.447   6.610  0.5340  0.7306  0.0342
  131OSM   H17T14169   2.869   2.337   6.725 -0.6614  0.0324  0.3508
  131OSM   C18S14170   3.039   2.256   6.614  0.8842  0.3628 -0.3955
  131OSM   H18S14171   2.976   2.218   6.531  1.1930 -1.3620  0.1196
  131OSM   H18T14172   3.064   2.168   6.677 -2.6251 -1.7852 -1.6999
  131OSM   H18U14173   3.130   2.299   6.567  0.3797  1.5718 -0.3113
  131OSM    C1F14174   2.644   2.761   7.969 -0.1721  0.0849  0.5244
  131OSM     OF14175   2.623   2.840   8.056  0.1037 -0.2750  0.4386
  131OSM    C2F14176   2.689   2.806   7.836  0.5014 -0.0363 -0.2699
  131OSM    H2F14177   2.757   2.734   7.786 -2.1432 -0.4026 -3.6632
  131OSM    H2G14178   2.743   2.902   7.851 -0.1289 -0.0004  2.2288
  131OSM    C3F14179   2.565   2.828   7.740 -0.2391 -1.2080  0.4415
  131OSM    H3F14180   2.503   2.910   7.782  1.7968  1.1796 -0.9849
  131OSM    H3G14181   2.511   2.731   7.744 -1.0681 -0.7261  1.4422
  131OSM    C4F14182   2.601   2.868   7.595  1.1168 -0.7886  0.2973
  131OSM    H4F14183   2.655   2.783   7.548  1.0696 -0.1791 -0.8923
  131OSM    H4G14184   2.663   2.959   7.590 -2.0776  1.4976 -2.6816
  131OSM    C5F14185   2.468   2.884   7.511 -0.0396  0.2290 -0.8420
  131OSM    H5F14186   2.394   2.947   7.564  1.5173  1.9547 -0.6260
  131OSM    H5G14187   2.439   2.777   7.521  0.7719  0.2484  3.1633
  131OSM    C6F14188   2.486   2.922   7.359 -0.4855  0.2360  0.2991
  131OSM    H6F14189   2.584   2.877   7.333  0.1619  1.7993 -0.1088
  131OSM    H6G14190   2.504   3.031   7.353  1.2308  0.1114  2.1407
  131OSM    C7F14191   2.378   2.871   7.264 -0.3267 -0.6727  0.0479
  131OSM    H7F14192   2.351   2.935   7.177  2.2673  0.7425  0.1970
  131OSM    H7G14193   2.284   2.855   7.321 -1.2552  0.9440 -0.9340
  131OSM    C8F14194   2.422   2.731   7.210 -0.2592  0.2839 -0.0038
  131OSM    H8F14195   2.451   2.663   7.293  1.1902  1.0013  0.0980
  131OSM    H8G14196   2.515   2.741   7.150 -0.3818  1.4068 -0.0208
  131OSM    C9F14197   2.303   2.676   7.135 -0.6933 -0.3283  0.0117
  131OSM    H9F14198   2.238   2.605   7.188 -0.3111  0.3360  1.4229
  131OSM   C10F14199   2.264   2.711   7.012  0.4284  0.0059  0.5520
  131OSM   H10F14200   2.176   2.657   6.975 -0.0150 -0.1059  1.7223
  131OSM   C11F14201   2.341   2.792   6.907 -0.4790  0.8863  0.3318
  131OSM   H11F14202   2.369   2.728   6.821 -1.7668  0.3918  0.2548
  131OSM   H11G14203   2.434   2.827   6.956  1.0094 -1.0215 -0.9530
  131OSM   C12F14204   2.262   2.913   6.858  0.0072 -0.3797  0.8702
  131OSM   H12F14205   2.241   2.972   6.950 -1.8602  0.9015 -0.3216
  131OSM   H12G14206   2.162   2.894   6.814  1.1056  1.0680 -2.6294
  131OSM   C13F14207   2.347   2.990   6.756 -0.2254  1.3300 -0.0032
  131OSM   H13F14208   2.382   2.912   6.685  2.6704  2.8062 -0.3399
  131OSM   H13G14209   2.439   3.026   6.806  0.0156  1.0440 -0.2435
  131OSM   C14F14210   2.275   3.093   6.675 -0.1829  0.2349 -0.2930
  131OSM   H14F14211   2.244   3.172   6.747  1.1920  1.0478 -0.5552
  131OSM   H14G14212   2.182   3.040   6.643 -0.5295 -0.2465  1.4044
  131OSM   C15F14213   2.351   3.158   6.551  0.1481  0.1955 -0.3274
  131OSM   H15F14214   2.387   3.065   6.502 -2.5584 -1.3640  0.4391
  131OSM   H15G14215   2.426   3.232   6.587  0.0022 -0.3429  1.1466
  131OSM   C16F14216   2.265   3.232   6.447 -0.4058 -0.3451 -0.5227
  131OSM   H16F14217   2.218   3.320   6.496 -0.5749 -1.4238  1.3902
  131OSM   H16G14218   2.189   3.155   6.421 -2.7410  1.7734 -0.4295
  131OSM   C17F14219   2.350   3.284   6.331 -0.5138 -0.2889  0.0153
  131OSM   H17F14220   2.433   3.351   6.361  1.2879 -2.4944  0.2241
  131OSM   H17G14221   2.278   3.336   6.264 -0.2197  1.1999  0.8082
  131OSM   C18F14222   2.407   3.167   6.251 -0.0591  0.3284  0.3632
  131OSM   H18F14223   2.498   3.134   6.306  1.0927  2.1311 -0.3952
  131OSM   H18G14224   2.454   3.206   6.158  0.2029 -0.2389  0.2533
  131OSM   H18H14225   2.335   3.086   6.226 -0.1616  0.2168  1.0058
  132OSM      N14226   3.193   5.895   8.078 -0.1070  0.2095 -0.0104
  132OSM    C1514227   3.325   5.906   8.156 -0.0639 -0.4293  0.2467
  132OSM   H15A14228   3.408   5.900   8.087  0.0604  0.9298  0.2370
  132OSM   H15B14229   3.343   5.827   8.227 -0.5426 -2.6680 -1.9905
  132OSM   H15C14230   3.335   6.005   8.200  2.6523 -0.4916 -0.0546
  132OSM    C1414231   3.085   5.964   8.162  0.2755 -0.5969 -0.7105
  132OSM   H14A14232   3.089   5.929   8.265 -0.4310  0.7275 -0.2050
  132OSM   H14B14233   2.988   5.948   8.119 -0.7591  0.7845  0.9543
  132OSM   H14C14234   3.096   6.071   8.176  2.6968 -0.8504 -0.2697
  132OSM    C1314235   3.199   5.962   7.941 -0.3401  0.3588  0.4012
  132OSM   H13A14236   3.265   5.907   7.876  0.8958  1.2242  0.8790
  132OSM   H13B14237   3.236   6.063   7.944  1.1566 -0.1493 -0.1754
  132OSM   H13C14238   3.099   5.965   7.902 -0.4854 -0.0353  0.7360
  132OSM    C1214239   3.154   5.750   8.050 -0.2466  0.0299  0.5832
  132OSM   H12A14240   3.165   5.705   8.147  2.8224  1.7460  1.1893
  132OSM   H12B14241   3.243   5.717   7.998  0.0582 -1.1073  1.7731
  132OSM    C1114242   3.020   5.709   7.981  1.0221  0.1018  0.3264
  132OSM   H11A14243   3.020   5.598   7.973 -2.1692  0.1230 -2.1885
  132OSM   H11B14244   3.015   5.739   7.874  0.2072  2.9850  1.1031
  132OSM      P14245   2.753   5.736   8.001 -0.4234 -0.1240 -0.4671
  132OSM    O1314246   2.713   5.593   8.012  0.3682  0.2983  0.0956
  132OSM    O1414247   2.672   5.845   8.062  0.1037  0.6879 -0.1610
  132OSM    O1114248   2.756   5.768   7.852 -0.1655 -0.1745  0.1547
  132OSM    O1214249   2.904   5.756   8.051 -0.7785 -0.1646  0.3312
  132OSM    C1S14250   2.802   5.886   7.795 -0.6334  0.3809 -0.3445
  132OSM    H1S14251   2.904   5.901   7.834 -1.8915  1.9178  2.6588
  132OSM    H1T14252   2.740   5.972   7.828 -1.3112 -0.7423  1.4249
  132OSM     NF14253   2.858   6.009   7.591 -0.1191  0.1375 -0.2271
  132OSM    HNF14254   2.796   6.085   7.570  1.4683  0.8976 -2.6603
  132OSM    C2S14255   2.813   5.882   7.642  0.1244  0.3701  1.0317
  132OSM    H2S14256   2.883   5.804   7.605  0.0815  0.5477  0.5664
  132OSM    C3S14257   2.678   5.852   7.581  0.1946 -1.0698 -0.4387
  132OSM    H3S14258   2.599   5.916   7.624 -0.0282 -2.4443  1.3346
  132OSM     O314259   2.622   5.723   7.615 -0.4715 -0.5265 -0.3365
  132OSM    HO314260   2.656   5.705   7.703 -1.4210 -0.1434  0.1241
  132OSM    C4S14261   2.671   5.852   7.432  0.2957 -0.3361  0.3692
  132OSM    H4S14262   2.712   5.761   7.385  0.8949 -0.3269  0.8630
  132OSM    C5S14263   2.610   5.945   7.357 -0.1182  0.0606  0.2284
  132OSM    H5S14264   2.570   6.037   7.403  3.8511  2.8931 -1.3699
  132OSM    C6S14265   2.587   5.941   7.207  0.5768  0.8567 -0.5469
  132OSM    H6S14266   2.490   5.979   7.169  0.9025 -0.2375 -2.5888
  132OSM    H6T14267   2.605   5.836   7.176 -0.8267  0.5542 -0.4087
  132OSM    C7S14268   2.697   6.024   7.133 -0.1159  0.2603  1.2614
  132OSM    H7S14269   2.797   5.989   7.167 -0.6769 -1.6702  1.0302
  132OSM    H7T14270   2.682   6.131   7.158 -1.1476  0.0341  1.6812
  132OSM    C8S14271   2.681   6.026   6.977  0.3459  0.4005  0.1099
  132OSM    H8S14272   2.592   6.084   6.945 -0.0122  1.1380  2.2219
  132OSM    H8T14273   2.660   5.922   6.945 -0.4438  1.0023 -1.4330
  132OSM    C9S14274   2.807   6.079   6.914 -0.1866 -0.0645  0.1909
  132OSM    H9S14275   2.891   6.020   6.955  0.0529  0.5027  0.5256
  132OSM    H9T14276   2.833   6.183   6.942  1.7407 -0.6554  0.7643
  132OSM   C10S14277   2.814   6.077   6.761  0.8820 -0.0857  0.1874
  132OSM   H10S14278   2.761   6.170   6.732  1.0459 -0.2657 -0.7103
  132OSM   H10T14279   2.748   5.996   6.725 -2.6141  2.7698 -0.3556
  132OSM   C11S14280   2.958   6.091   6.696  0.7694  0.2980  0.1813
  132OSM   H11S14281   3.015   5.998   6.718  2.6770  1.6360  1.2179
  132OSM   H11T14282   3.001   6.172   6.760 -0.9899  0.8289  0.7274
  132OSM   C12S14283   2.958   6.132   6.549 -0.6519  0.5504 -0.2713
  132OSM   H12S14284   3.064   6.140   6.517 -0.7992 -0.0680 -0.9443
  132OSM   H12T14285   2.909   6.229   6.525 -0.7635  0.2488 -1.3325
  132OSM   C13S14286   2.887   6.026   6.461  0.0352 -0.7016 -0.5463
  132OSM   H13S14287   2.778   6.044   6.475  0.4945  1.6628  0.4834
  132OSM   H13T14288   2.913   5.922   6.493  0.0841  0.0986  2.2791
  132OSM   C14S14289   2.916   6.038   6.309 -0.1693 -0.2412 -0.3876
  132OSM   H14S14290   3.010   5.985   6.281  0.9069  1.4559 -0.1110
  132OSM   H14T14291   2.917   6.143   6.273 -4.1464 -0.3291 -1.1445
  132OSM   C15S14292   2.801   5.965   6.236 -0.3238 -0.3206 -0.2127
  132OSM   H15S14293   2.705   6.016   6.259  1.0858  1.4370  2.3113
  132OSM   H15T14294   2.793   5.863   6.278  2.2417  0.1780  1.7095
  132OSM   C16S14295   2.825   5.958   6.083 -0.2954  0.2404  0.1548
  132OSM   H16S14296   2.743   5.898   6.038  1.8499 -1.5507 -1.5609
  132OSM   H16T14297   2.914   5.893   6.070 -0.5890 -0.5666  1.8342
  132OSM   C17S14298   2.834   6.092   6.003 -0.7197  0.9027 -0.3111
  132OSM   H17S14299   2.866   6.058   5.902 -0.3504 -0.5145  0.2624
  132OSM   H17T14300   2.910   6.164   6.041 -0.3287  0.9205 -1.0933
  132OSM   C18S14301   2.707   6.171   5.986  0.2186 -0.6228  0.1648
  132OSM   H18S14302   2.642   6.107   5.923  0.8783 -1.0727 -0.0749
  132OSM   H18T14303   2.725   6.267   5.934  0.6650 -0.9203 -0.2401
  132OSM   H18U14304   2.664   6.185   6.087  0.9492  1.1088  0.2724
  132OSM    C1F14305   2.983   6.035   7.586  0.3919 -0.5363 -0.2271
  132OSM     OF14306   3.069   5.962   7.631  0.0541  0.4335 -0.3415
  132OSM    C2F14307   3.017   6.170   7.523 -0.7933 -0.3558 -0.4887
  132OSM    H2F14308   3.051   6.239   7.603  0.3961 -2.1536  0.6075
  132OSM    H2G14309   2.924   6.217   7.484 -1.5183 -0.6269  0.8549
  132OSM    C3F14310   3.132   6.169   7.416 -0.2860  0.7519 -0.1998
  132OSM    H3F14311   3.227   6.128   7.455 -0.3207 -0.4631 -1.3259
  132OSM    H3G14312   3.160   6.274   7.395 -1.4832  0.7657 -1.9938
  132OSM    C4F14313   3.090   6.112   7.279  0.3594 -0.3084  0.3547
  132OSM    H4F14314   3.013   6.183   7.243  1.0489  0.2078 -0.1368
  132OSM    H4G14315   3.048   6.010   7.286 -0.4845 -0.1289 -1.5789
  132OSM    C5F14316   3.212   6.121   7.185  0.0822  0.0685  0.0970
  132OSM    H5F14317   3.287   6.043   7.210  1.8376  1.0301 -1.9078
  132OSM    H5G14318   3.257   6.222   7.200 -0.7519  0.4932 -0.1891
  132OSM    C6F14319   3.165   6.125   7.032 -0.5110 -0.6386  0.0946
  132OSM    H6F14320   3.074   6.188   7.026  0.5478  1.0426  0.8263
  132OSM    H6G14321   3.129   6.025   6.999 -1.8416  0.1899 -1.1217
  132OSM    C7F14322   3.281   6.165   6.935 -0.8542  0.0944  0.2524
  132OSM    H7F14323   3.309   6.272   6.928  0.5968 -0.3406 -2.1201
  132OSM    H7G14324   3.242   6.136   6.834 -3.7807 -1.2688  1.6486
  132OSM    C8F14325   3.410   6.085   6.957 -0.3403 -0.1310  0.2099
  132OSM    H8F14326   3.435   6.105   7.064  1.3947  3.6614 -0.7317
  132OSM    H8G14327   3.498   6.127   6.904  0.7470  0.2558  2.2250
  132OSM    C9F14328   3.422   5.938   6.944  0.0368 -0.4833  0.1529
  132OSM    H9F14329   3.425   5.883   7.039 -1.1606  1.2020  1.2059
  132OSM   C10F14330   3.431   5.870   6.823 -0.0318  0.2523  0.2741
  132OSM   H10F14331   3.435   5.761   6.830 -1.5846  0.1469 -0.2010
  132OSM   C11F14332   3.447   5.919   6.680 -0.1241  0.0393 -0.4795
  132OSM   H11F14333   3.501   6.016   6.670  0.3130 -0.3225 -1.8633
  132OSM   H11G14334   3.343   5.924   6.640 -0.6572 -0.0904  0.8496
  132OSM   C12F14335   3.522   5.814   6.593 -0.4686  0.4980 -0.4068
  132OSM   H12F14336   3.445   5.745   6.551 -0.9970  1.2152 -0.6271
  132OSM   H12G14337   3.587   5.745   6.651  1.1520 -0.8210 -3.5927
  132OSM   C13F14338   3.596   5.882   6.483 -0.6081 -0.1165  0.0979
  132OSM   H13F14339   3.677   5.944   6.528 -0.8525 -0.0444  0.4451
  132OSM   H13G14340   3.529   5.955   6.432  0.6086  0.3534 -0.8691
  132OSM   C14F14341   3.657   5.774   6.393 -0.3781  0.4147 -0.6671
  132OSM   H14F14342   3.577   5.731   6.329  0.4960  0.2802 -1.6879
  132OSM   H14G14343   3.711   5.696   6.452  2.2836  1.9827 -0.8711
  132OSM   C15F14344   3.755   5.840   6.290 -0.4873 -0.5632 -0.2367
  132OSM   H15F14345   3.847   5.873   6.343 -0.3233 -1.7140  0.2271
  132OSM   H15G14346   3.715   5.927   6.234  2.5848  0.3613 -1.1747
  132OSM   C16F14347   3.800   5.744   6.176 -0.0827  0.4006  0.1839
  132OSM   H16F14348   3.713   5.693   6.131  1.5992 -1.7991 -0.7616
  132OSM   H16G14349   3.868   5.667   6.217 -0.4127  1.6231  3.3032
  132OSM   C17F14350   3.876   5.828   6.067  0.3366 -0.1242 -0.2468
  132OSM   H17F14351   3.960   5.889   6.106  0.2345 -0.6480  0.8471
  132OSM   H17G14352   3.805   5.898   6.018  0.4459  1.2244  1.4428
  132OSM   C18F14353   3.943   5.752   5.960  0.1177  0.3230  0.1123
  132OSM   H18F14354   3.998   5.822   5.894 -0.3947 -1.8017 -2.7094
  132OSM   H18G14355   3.866   5.695   5.905  1.2469 -0.4068 -0.7462
  132OSM   H18H14356   4.000   5.670   6.009 -1.1511 -1.4427 -1.2745
  133OSM      N14357   0.932   0.568   8.604 -0.3701 -0.3628  0.9922
  133OSM    C1514358   0.986   0.512   8.473 -0.6068 -0.1111  0.2470
  133OSM   H15A14359   1.093   0.494   8.483 -0.6949 -0.1122  1.2197
  133OSM   H15B14360   0.976   0.579   8.389 -0.2440  2.5440  2.2037
  133OSM   H15C14361   0.943   0.418   8.443 -1.7685  0.3488  0.4555
  133OSM    C1414362   0.791   0.606   8.582 -0.0401 -0.1706 -0.1607
  133OSM   H14A14363   0.727   0.520   8.567 -0.8385  0.3963 -0.0848
  133OSM   H14B14364   0.771   0.674   8.500  0.5612  0.5507  0.2860
  133OSM   H14C14365   0.755   0.657   8.670 -0.5241 -1.3964  0.3791
  133OSM    C1314366   0.949   0.460   8.710 -0.2672 -0.1739 -0.3704
  133OSM   H13A14367   0.886   0.374   8.692  0.1933 -0.6696  0.3154
  133OSM   H13B14368   0.916   0.497   8.806 -1.8431 -0.4470 -0.7786
  133OSM   H13C14369   1.054   0.442   8.728  0.4358  3.5074 -0.1049
  133OSM    C1214370   1.020   0.688   8.638  0.0924  0.5304 -0.5759
  133OSM   H12A14371   0.972   0.731   8.724 -0.3761  1.4996 -1.2965
  133OSM   H12B14372   1.011   0.757   8.555  0.7407  0.7132 -0.5028
  133OSM    C1114373   1.172   0.671   8.667  0.3888 -0.1203 -0.2636
  133OSM   H11A14374   1.190   0.609   8.757 -1.0179  1.7312  1.3776
  133OSM   H11B14375   1.206   0.773   8.697 -0.7248  0.5737 -1.2789
  133OSM      P14376   1.380   0.547   8.569 -0.0394  0.0076 -0.0959
  133OSM    O1314377   1.487   0.641   8.622 -0.3884  0.3784  0.2818
  133OSM    O1414378   1.356   0.425   8.638  0.6591  0.5688 -0.3857
  133OSM    O1114379   1.421   0.511   8.419  0.3862  0.8945  0.1856
  133OSM    O1214380   1.240   0.626   8.552  0.4006 -0.2346  0.0177
  133OSM    C1S14381   1.311   0.470   8.337 -0.0436  0.1917 -0.1110
  133OSM    H1S14382   1.229   0.546   8.336  1.2506  1.6349 -0.6240
  133OSM    H1T14383   1.273   0.370   8.366 -0.7388  0.0604 -1.4080
  133OSM     NF14384   1.218   0.430   8.118 -0.7534 -0.2783  0.1061
  133OSM    HNF14385   1.223   0.339   8.077  1.7690 -0.3288  0.3719
  133OSM    C2S14386   1.342   0.454   8.188 -1.2077 -0.7086 -0.2294
  133OSM    H2S14387   1.374   0.552   8.148 -2.4539 -0.2844 -0.2028
  133OSM    C3S14388   1.455   0.344   8.159  0.5548  0.8534 -0.0802
  133OSM    H3S14389   1.399   0.248   8.174 -1.6969  1.8905 -1.3650
  133OSM     O314390   1.561   0.341   8.256  0.0730  0.0976 -0.3563
  133OSM    HO314391   1.530   0.402   8.324 -0.7986 -0.2340 -0.4442
  133OSM    C4S14392   1.508   0.341   8.014 -0.1318  0.0441  1.1126
  133OSM    H4S14393   1.452   0.266   7.956 -0.3385  0.7900  0.3415
  133OSM    C5S14394   1.610   0.419   7.964 -1.2789  0.1270  0.7821
  133OSM    H5S14395   1.669   0.486   8.028 -1.0374 -0.4750  1.2062
  133OSM    C6S14396   1.665   0.419   7.822 -0.0417 -0.1969  0.0163
  133OSM    H6S14397   1.768   0.376   7.825 -0.2805 -0.9143 -1.5871
  133OSM    H6T14398   1.660   0.521   7.778 -1.0437 -0.8696 -1.4867
  133OSM    C7S14399   1.603   0.314   7.723  0.5865 -0.9320 -0.1268
  133OSM    H7S14400   1.493   0.327   7.723  0.8510  1.9414 -0.8662
  133OSM    H7T14401   1.618   0.212   7.764  0.4948 -0.2019  1.8052
  133OSM    C8S14402   1.658   0.334   7.581  0.2212 -0.6163 -0.2704
  133OSM    H8S14403   1.761   0.296   7.562 -0.9886 -3.5130 -1.6014
  133OSM    H8T14404   1.665   0.444   7.563 -1.2132 -0.5740 -0.6549
  133OSM    C9S14405   1.571   0.287   7.457 -0.9110 -0.2023  0.1357
  133OSM    H9S14406   1.467   0.326   7.458 -1.1180 -0.7326 -0.0501
  133OSM    H9T14407   1.568   0.176   7.447  0.8151 -0.2192 -0.5083
  133OSM   C10S14408   1.633   0.322   7.322  0.4639  1.0199 -0.3314
  133OSM   H10S14409   1.736   0.279   7.321 -0.0079 -0.2485 -2.6540
  133OSM   H10T14410   1.655   0.431   7.313  2.2261  0.6348 -1.2192
  133OSM   C11S14411   1.556   0.254   7.205  0.4358  0.6365  0.2967
  133OSM   H11S14412   1.457   0.216   7.238  0.1380  0.0274 -1.2241
  133OSM   H11T14413   1.604   0.156   7.184 -2.5961 -0.7286 -0.8445
  133OSM   C12S14414   1.542   0.336   7.075 -0.2114  1.0456 -0.6102
  133OSM   H12S14415   1.649   0.360   7.055  0.6411 -1.5917  0.3446
  133OSM   H12T14416   1.482   0.429   7.082 -0.8106  0.7999 -2.0159
  133OSM   C13S14417   1.490   0.244   6.961 -0.3856 -0.4472  0.4384
  133OSM   H13S14418   1.381   0.222   6.973 -0.3425 -0.6053  0.5317
  133OSM   H13T14419   1.546   0.148   6.959  1.1051  0.4075 -1.4231
  133OSM   C14S14420   1.507   0.319   6.822  0.1285 -0.0654 -0.4038
  133OSM   H14S14421   1.616   0.337   6.809  0.4525 -1.9024 -0.4390
  133OSM   H14T14422   1.468   0.419   6.853  2.0210  0.0821  1.6666
  133OSM   C15S14423   1.435   0.261   6.701 -0.2980 -0.6668 -0.7326
  133OSM   H15S14424   1.325   0.257   6.717 -0.2243 -2.5593 -0.4887
  133OSM   H15T14425   1.465   0.155   6.715  1.8013 -0.1444 -0.9219
  133OSM   C16S14426   1.479   0.323   6.568 -0.6337  0.2950 -0.5021
  133OSM   H16S14427   1.491   0.433   6.580  1.2072 -0.0868  1.8864
  133OSM   H16T14428   1.398   0.305   6.494  0.0244 -2.7046 -0.5934
  133OSM   C17S14429   1.608   0.263   6.505 -0.2858  0.0676  0.1312
  133OSM   H17S14430   1.613   0.153   6.520  0.9975  0.0269 -0.4204
  133OSM   H17T14431   1.700   0.296   6.558  0.3896 -1.7831  0.1828
  133OSM   C18S14432   1.617   0.321   6.360 -0.2510 -0.4404 -0.0954
  133OSM   H18S14433   1.634   0.430   6.372  1.3394 -0.6129 -0.5482
  133OSM   H18T14434   1.525   0.306   6.299  0.3594 -0.5852 -0.9890
  133OSM   H18U14435   1.709   0.284   6.311 -0.3743  2.2510 -2.5879
  133OSM    C1F14436   1.114   0.508   8.104 -0.2342 -0.5532  0.0453
  133OSM     OF14437   1.127   0.627   8.118 -0.1572 -0.3326  0.4052
  133OSM    C2F14438   0.986   0.452   8.048 -0.3288 -0.2647  1.0779
  133OSM    H2F14439   0.906   0.456   8.125 -1.6341 -3.1506  0.0294
  133OSM    H2G14440   1.004   0.342   8.040  0.1385 -0.1525  0.5582
  133OSM    C3F14441   0.949   0.511   7.914 -0.4174 -0.0723  0.1211
  133OSM    H3F14442   1.016   0.468   7.836  0.3062  0.9507  0.1529
  133OSM    H3G14443   0.951   0.622   7.914 -3.7111  0.0856 -0.7135
  133OSM    C4F14444   0.794   0.487   7.888  0.3233 -0.4288 -0.5629
  133OSM    H4F14445   0.731   0.505   7.978  1.9124 -0.9976  0.7034
  133OSM    H4G14446   0.787   0.378   7.866 -1.6897 -0.9671  2.1393
  133OSM    C5F14447   0.731   0.564   7.771 -0.8190  0.3901  0.2420
  133OSM    H5F14448   0.740   0.671   7.802  1.4489 -0.0440  1.2578
  133OSM    H5G14449   0.630   0.522   7.751  0.2789 -1.5908 -1.4830
  133OSM    C6F14450   0.801   0.542   7.635  0.2666 -0.2868  1.1419
  133OSM    H6F14451   0.800   0.436   7.601 -1.1896  0.6214 -2.0255
  133OSM    H6G14452   0.904   0.575   7.659  1.8821 -1.9456 -2.7875
  133OSM    C7F14453   0.749   0.619   7.510  0.0572 -0.2089 -0.4447
  133OSM    H7F14454   0.768   0.722   7.548  0.0367  0.2508 -1.6166
  133OSM    H7G14455   0.638   0.609   7.515  0.0285 -1.1192 -2.3458
  133OSM    C8F14456   0.821   0.585   7.378  0.1398 -1.0631  0.1551
  133OSM    H8F14457   0.925   0.606   7.411 -0.5368 -0.7546  2.2645
  133OSM    H8G14458   0.792   0.666   7.307  0.2420 -2.1319 -1.1382
  133OSM    C9F14459   0.806   0.443   7.321 -0.1986 -0.7853 -0.0315
  133OSM    H9F14460   0.868   0.364   7.365  1.4057 -0.2683 -1.2900
  133OSM   C10F14461   0.739   0.413   7.212  0.3310 -0.2639  0.3583
  133OSM   H10F14462   0.742   0.306   7.184  0.6544 -0.8081  2.3153
  133OSM   C11F14463   0.651   0.501   7.122 -0.2923 -0.3766 -0.0481
  133OSM   H11F14464   0.717   0.590   7.111  2.5680 -2.4571 -1.1444
  133OSM   H11G14465   0.552   0.515   7.170  0.2460 -0.4163  1.0902
  133OSM   C12F14466   0.639   0.455   6.973  0.4625  0.0590  0.7549
  133OSM   H12F14467   0.578   0.537   6.930 -0.6872 -0.5445  1.2014
  133OSM   H12G14468   0.576   0.364   6.975  2.2999 -1.3513 -0.8773
  133OSM   C13F14469   0.777   0.433   6.913 -0.1532 -0.0134 -0.3720
  133OSM   H13F14470   0.835   0.347   6.953  0.8160  1.2103  0.9383
  133OSM   H13G14471   0.834   0.524   6.942  2.4574 -1.3434 -1.0145
  133OSM   C14F14472   0.784   0.425   6.759 -0.7034  0.6103  0.1806
  133OSM   H14F14473   0.739   0.511   6.705 -2.5324 -0.5714 -0.2655
  133OSM   H14G14474   0.734   0.337   6.715 -3.2845  1.0742  1.9538
  133OSM   C15F14475   0.933   0.424   6.713  0.0447  0.3293 -0.1816
  133OSM   H15F14476   0.988   0.330   6.732 -1.5982 -0.9447 -1.5039
  133OSM   H15G14477   0.985   0.514   6.753  0.3134 -0.0231  0.2580
  133OSM   C16F14478   0.935   0.435   6.562 -0.1928  0.1539  0.2450
  133OSM   H16F14479   0.942   0.541   6.528 -0.5019  0.5315  1.2975
  133OSM   H16G14480   0.845   0.394   6.512 -0.4546  2.2183 -1.1128
  133OSM   C17F14481   1.065   0.371   6.504 -0.5220  0.5924 -0.0239
  133OSM   H17F14482   1.041   0.263   6.497 -1.1641  0.5447  1.9949
  133OSM   H17G14483   1.146   0.376   6.580  0.3953  0.1903 -0.9548
  133OSM   C18F14484   1.111   0.435   6.379  0.2713  0.1345 -0.6411
  133OSM   H18F14485   1.027   0.430   6.306 -0.6120  1.2924  0.2608
  133OSM   H18G14486   1.194   0.378   6.332 -1.1223 -3.2398  0.6131
  133OSM   H18H14487   1.141   0.540   6.395 -1.4511  0.8963 -2.0680
  134OSM      N14488   2.656   5.339   8.287  0.0457  0.0802  0.5579
  134OSM    C1514489   2.736   5.454   8.319  0.3397  0.4376 -0.0912
  134OSM   H15A14490   2.779   5.498   8.230  0.8742  1.5916  0.7158
  134OSM   H15B14491   2.820   5.440   8.386  0.1922  2.0280  0.4612
  134OSM   H15C14492   2.685   5.532   8.371 -0.1665  0.1086 -0.0857
  134OSM    C1414493   2.733   5.228   8.221 -0.2782  0.0617  0.0030
  134OSM   H14A14494   2.667   5.160   8.168 -1.2656  0.7934  0.2795
  134OSM   H14B14495   2.798   5.180   8.293 -0.8536  1.0648  1.2290
  134OSM   H14C14496   2.795   5.268   8.142 -2.0303  1.2187 -0.8422
  134OSM    C1314497   2.610   5.288   8.418  0.2710 -0.2133  0.0085
  134OSM   H13A14498   2.693   5.269   8.484  0.6312 -0.2780 -0.4523
  134OSM   H13B14499   2.564   5.191   8.408  1.2349 -0.4487 -2.9499
  134OSM   H13C14500   2.550   5.360   8.471  0.3035 -0.4757  0.4014
  134OSM    C1214501   2.532   5.379   8.196  0.2375 -0.2885  0.8327
  134OSM   H12A14502   2.567   5.425   8.105 -2.8948 -0.7251 -0.7402
  134OSM   H12B14503   2.487   5.467   8.240 -1.4601  0.2263 -1.6817
  134OSM    C1114504   2.420   5.277   8.154 -0.4656  0.1380 -0.2675
  134OSM   H11A14505   2.342   5.328   8.094  1.3149  2.9188 -0.4292
  134OSM   H11B14506   2.382   5.233   8.248  0.0672 -2.0282 -0.9983
  134OSM      P14507   2.507   5.191   7.920  0.3591  0.3163 -0.2724
  134OSM    O1314508   2.654   5.194   7.903  0.1900  0.3736  0.2626
  134OSM    O1414509   2.436   5.083   7.844 -0.0054 -0.2124 -0.5878
  134OSM    O1114510   2.442   5.328   7.880  1.5028  0.2611 -0.1639
  134OSM    O1214511   2.467   5.171   8.070 -0.4150 -0.1763  0.1194
  134OSM    C1S14512   2.478   5.381   7.755  0.7677  0.8570  0.0622
  134OSM    H1S14513   2.465   5.295   7.686 -1.5064 -0.8369  2.4395
  134OSM    H1T14514   2.583   5.417   7.743 -0.0750  3.2712 -0.7403
  134OSM     NF14515   2.402   5.516   7.575  0.0775  0.3867 -0.6473
  134OSM    HNF14516   2.457   5.597   7.561  0.2232  0.6035  1.0319
  134OSM    C2S14517   2.371   5.480   7.708  0.1435  0.1213  0.1343
  134OSM    H2S14518   2.272   5.429   7.718 -0.8939  2.2672  1.7278
  134OSM    C3S14519   2.357   5.594   7.804 -0.3345 -0.0787 -0.2802
  134OSM    H3S14520   2.457   5.634   7.832 -0.4076 -0.4035  0.4536
  134OSM     O314521   2.303   5.548   7.930 -0.2999  0.4009 -0.2056
  134OSM    HO314522   2.304   5.453   7.914 -1.5530  0.3464 -0.0217
  134OSM    C4S14523   2.267   5.694   7.750  0.9120  0.0045  0.1371
  134OSM    H4S14524   2.167   5.665   7.716 -0.4348  3.1977  0.9940
  134OSM    C5S14525   2.300   5.822   7.718  0.0433 -0.1881 -0.4584
  134OSM    H5S14526   2.392   5.866   7.758  0.0813 -3.0507  3.1935
  134OSM    C6S14527   2.206   5.906   7.641 -0.1447  0.1884 -0.0561
  134OSM    H6S14528   2.215   6.015   7.660  0.4038  0.4145 -1.5313
  134OSM    H6T14529   2.100   5.890   7.672 -0.3089 -1.8238 -1.4757
  134OSM    C7S14530   2.214   5.868   7.489  0.3526 -0.1147  0.4024
  134OSM    H7S14531   2.172   5.766   7.474 -0.5880  0.4675 -1.2973
  134OSM    H7T14532   2.320   5.854   7.459  0.4000 -0.0663  0.5442
  134OSM    C8S14533   2.152   5.974   7.401  0.7579 -0.4946  0.1474
  134OSM    H8S14534   2.164   6.078   7.436 -1.5165 -0.4865  1.1003
  134OSM    H8T14535   2.041   5.966   7.397  0.6230  1.3767 -0.9892
  134OSM    C9S14536   2.179   5.955   7.250 -0.6842  0.1848 -0.0304
  134OSM    H9S14537   2.255   5.878   7.225  0.4379  1.8939 -2.1324
  134OSM    H9T14538   2.217   6.049   7.206 -1.7158 -0.1084 -1.6765
  134OSM   C10S14539   2.045   5.923   7.171  0.5233 -0.0736  0.4961
  134OSM   H10S14540   1.988   6.015   7.146 -0.0831 -0.3536  0.8303
  134OSM   H10T14541   1.993   5.852   7.239  2.5697 -1.7734  0.3740
  134OSM   C11S14542   2.077   5.851   7.043  0.4689  1.2799 -0.3675
  134OSM   H11S14543   1.983   5.810   7.000 -0.7557  1.8523  1.6840
  134OSM   H11T14544   2.153   5.770   7.048 -0.9130 -0.2036 -1.9186
  134OSM   C12S14545   2.147   5.935   6.932 -0.3650 -0.3534 -0.4581
  134OSM   H12S14546   2.243   5.960   6.981 -2.1212  0.4037  2.8993
  134OSM   H12T14547   2.106   6.038   6.929  0.0667 -0.1852 -0.6030
  134OSM   C13S14548   2.146   5.873   6.794  0.3809 -0.4892  0.0757
  134OSM   H13S14549   2.201   5.954   6.741  0.2224  0.4448  1.3010
  134OSM   H13T14550   2.043   5.863   6.753 -0.4081  2.8912  0.9103
  134OSM   C14S14551   2.220   5.740   6.771 -0.3125  0.3390  0.3245
  134OSM   H14S14552   2.158   5.673   6.834  0.6373 -0.0746  0.8376
  134OSM   H14T14553   2.317   5.733   6.824 -0.3665 -0.7420  0.3095
  134OSM   C15S14554   2.237   5.684   6.628  0.5768 -0.3384  0.4854
  134OSM   H15S14555   2.143   5.668   6.571  0.0241  1.6499  0.7523
  134OSM   H15T14556   2.289   5.586   6.637  0.6660 -0.5852 -1.9906
  134OSM   C16S14557   2.329   5.764   6.537  0.0165 -0.1180  0.0195
  134OSM   H16S14558   2.282   5.856   6.496  2.0929  0.9420 -0.1005
  134OSM   H16T14559   2.364   5.700   6.452 -0.6914 -0.6603  0.1214
  134OSM   C17S14560   2.463   5.809   6.604 -0.1503  0.4281  0.5286
  134OSM   H17S14561   2.508   5.713   6.635 -1.4358 -1.9474 -4.1436
  134OSM   H17T14562   2.443   5.873   6.693 -1.6660 -0.7771  1.0954
  134OSM   C18S14563   2.547   5.891   6.505  0.6496  0.0963 -0.0191
  134OSM   H18S14564   2.651   5.914   6.538  0.0094  2.1397  0.6933
  134OSM   H18T14565   2.492   5.983   6.478  0.2383  0.1379  0.8949
  134OSM   H18U14566   2.553   5.827   6.415  1.2531  1.1190 -0.7162
  134OSM    C1F14567   2.390   5.433   7.476  0.9166 -0.6365 -0.3548
  134OSM     OF14568   2.341   5.328   7.492  0.5092  0.4050 -0.2582
  134OSM    C2F14569   2.430   5.485   7.337  0.7792  0.0835 -0.4303
  134OSM    H2F14570   2.537   5.514   7.345  1.2337 -1.2367 -1.3890
  134OSM    H2G14571   2.367   5.573   7.312  0.6279 -0.1531 -0.8926
  134OSM    C3F14572   2.413   5.386   7.222  0.3295 -0.2677  0.8114
  134OSM    H3F14573   2.304   5.365   7.221 -0.1844  1.7818 -2.2546
  134OSM    H3G14574   2.467   5.289   7.225 -1.4332 -1.3134  0.1460
  134OSM    C4F14575   2.452   5.450   7.087  0.1920  0.9017  0.3117
  134OSM    H4F14576   2.563   5.442   7.088  0.0553 -1.5575  1.3405
  134OSM    H4G14577   2.413   5.554   7.081  0.3072  0.8742 -1.9213
  134OSM    C5F14578   2.382   5.371   6.972 -0.1842 -0.4766 -0.2027
  134OSM    H5F14579   2.281   5.415   6.964 -1.0293 -1.7495  2.3214
  134OSM    H5G14580   2.373   5.266   7.007 -0.5893  0.1119  1.5509
  134OSM    C6F14581   2.460   5.362   6.844 -0.2898 -0.3694 -0.1816
  134OSM    H6F14582   2.544   5.292   6.856  1.1329  1.2293 -0.3988
  134OSM    H6G14583   2.493   5.465   6.815  2.3772 -0.8872  0.7799
  134OSM    C7F14584   2.371   5.303   6.732 -0.5592  0.2409 -0.4643
  134OSM    H7F14585   2.290   5.375   6.708 -1.6448 -1.0050 -0.6348
  134OSM    H7G14586   2.333   5.205   6.768 -0.8595  0.5298  0.0078
  134OSM    C8F14587   2.456   5.268   6.612 -0.3306  0.0261 -0.0698
  134OSM    H8F14588   2.543   5.206   6.644 -1.8618 -2.0057  0.3320
  134OSM    H8G14589   2.508   5.356   6.569  1.7988 -0.8081  0.6428
  134OSM    C9F14590   2.387   5.190   6.496  0.1316 -0.2013 -0.4533
  134OSM    H9F14591   2.384   5.082   6.516 -1.6453 -0.3303 -1.2923
  134OSM   C10F14592   2.326   5.244   6.390 -0.2751 -0.3146  0.3366
  134OSM   H10F14593   2.283   5.192   6.303 -1.3646 -1.2346  1.3923
  134OSM   C11F14594   2.327   5.390   6.353 -0.1230 -0.6601 -0.6769
  134OSM   H11F14595   2.412   5.439   6.405  0.4108 -0.7624 -1.4372
  134OSM   H11G14596   2.233   5.433   6.395 -1.0546 -1.7442 -1.5777
  134OSM   C12F14597   2.347   5.400   6.196 -0.0186 -0.1593  0.1946
  134OSM   H12F14598   2.254   5.354   6.157 -1.1298  1.3006  1.0092
  134OSM   H12G14599   2.436   5.349   6.153 -1.0190  0.3401 -2.6215
  134OSM   C13F14600   2.351   5.546   6.156  0.3463 -0.3560  0.5347
  134OSM   H13F14601   2.269   5.611   6.193 -0.8872 -0.7195 -1.3978
  134OSM   H13G14602   2.362   5.542   6.046 -2.7689 -0.7600  0.1287
  134OSM   C14F14603   2.479   5.620   6.203 -0.3948 -0.2500 -0.0143
  134OSM   H14F14604   2.560   5.552   6.169 -0.8200 -0.5309 -0.4937
  134OSM   H14G14605   2.495   5.623   6.313  0.7099 -0.4192 -0.1533
  134OSM   C15F14606   2.493   5.762   6.146  0.7138  0.9485 -0.2784
  134OSM   H15F14607   2.500   5.762   6.035 -2.1531 -2.3203 -0.6034
  134OSM   H15G14608   2.585   5.810   6.187 -0.1866  1.7917  0.8107
  134OSM   C16F14609   2.377   5.849   6.182 -0.2527 -0.1061 -0.3230
  134OSM   H16F14610   2.350   5.858   6.290  0.9450 -2.7187  0.2617
  134OSM   H16G14611   2.288   5.804   6.133 -0.5333 -0.4958  0.5307
  134OSM   C17F14612   2.390   5.990   6.121 -0.4190 -0.9265 -0.3722
  134OSM   H17F14613   2.383   5.969   6.012  0.2657 -3.5001  0.0259
  134OSM   H17G14614   2.485   6.037   6.154 -0.2137 -2.2117  0.9848
  134OSM   C18F14615   2.283   6.093   6.169 -0.2562  0.0902 -0.0124
  134OSM   H18F14616   2.312   6.196   6.140  0.6595  0.0054  0.5654
  134OSM   H18G14617   2.271   6.095   6.279 -0.7529  0.2587 -0.0695
  134OSM   H18H14618   2.181   6.068   6.132 -1.0983  2.2442  0.6973
  135OSM      N14619   1.769   5.337   8.733 -0.7348 -0.0142 -0.2769
  135OSM    C1514620   1.913   5.392   8.727 -0.8861 -0.2072 -0.4935
  135OSM   H15A14621   1.945   5.370   8.626  0.3345 -0.5006 -0.0625
  135OSM   H15B14622   1.982   5.336   8.789 -0.9154  1.2981  0.9851
  135OSM   H15C14623   1.938   5.496   8.744  0.2878 -0.5736  0.1726
  135OSM    C1414624   1.732   5.308   8.880 -0.0256  0.4529  0.8645
  135OSM   H14A14625   1.656   5.233   8.889 -0.9648  1.3650  0.8059
  135OSM   H14B14626   1.694   5.398   8.926  1.8346  1.6018  0.2876
  135OSM   H14C14627   1.827   5.280   8.923  0.1722 -0.7188 -0.2962
  135OSM    C1314628   1.677   5.433   8.676  0.4927  0.2721 -0.1095
  135OSM   H13A14629   1.574   5.406   8.696  0.2497  1.4935  0.3628
  135OSM   H13B14630   1.676   5.447   8.569 -0.3492  0.6759 -0.0597
  135OSM   H13C14631   1.679   5.532   8.720 -2.0380  0.2173  0.3302
  135OSM    C1214632   1.764   5.209   8.654 -0.1263 -0.1781 -0.1821
  135OSM   H12A14633   1.667   5.164   8.672  0.5435 -1.5865 -0.0451
  135OSM   H12B14634   1.837   5.140   8.691 -0.6860 -0.8519 -0.3079
  135OSM    C1114635   1.767   5.208   8.497  0.4356 -0.2767 -0.0269
  135OSM   H11A14636   1.681   5.264   8.454  0.9298  0.3662 -0.1869
  135OSM   H11B14637   1.749   5.101   8.472 -2.7265 -0.0674  0.9433
  135OSM      P14638   1.903   5.380   8.340  0.2332  0.6117 -0.3744
  135OSM    O1314639   1.791   5.475   8.368  0.0329  0.1755  0.4918
  135OSM    O1414640   2.042   5.429   8.354 -0.2459  0.2232 -0.0634
  135OSM    O1114641   1.884   5.317   8.196 -0.1866  0.1624 -0.2085
  135OSM    O1214642   1.893   5.255   8.439  0.1149 -0.4295 -0.3820
  135OSM    C1S14643   1.993   5.238   8.147 -0.1815 -0.0844 -0.0370
  135OSM    H1S14644   2.017   5.151   8.212  0.1237  0.3763  0.4647
  135OSM    H1T14645   2.085   5.299   8.145 -0.8824  1.4612  4.3184
  135OSM     NF14646   2.064   5.104   7.934 -0.1200 -0.1163 -0.4158
  135OSM    HNF14647   2.127   5.114   7.857 -0.3494 -1.7013 -0.8517
  135OSM    C2S14648   1.967   5.207   7.990 -0.2422  0.3445  0.6085
  135OSM    H2S14649   1.866   5.164   7.971  0.9477 -1.6925 -1.6827
  135OSM    C3S14650   1.984   5.346   7.914 -0.4457  0.4929 -0.2066
  135OSM    H3S14651   2.088   5.380   7.931 -0.4933  0.7378 -0.3852
  135OSM     O314652   1.923   5.457   7.983 -0.5664  0.1836 -0.5893
  135OSM    HO314653   1.891   5.425   8.067 -0.1030  0.5066 -0.2828
  135OSM    C4S14654   1.954   5.347   7.769  0.3866  0.0499  0.4692
  135OSM    H4S14655   2.028   5.291   7.711  0.8533  0.5768  0.5424
  135OSM    C5S14656   1.842   5.393   7.709  0.3262  0.1586  0.3004
  135OSM    H5S14657   1.755   5.427   7.768  0.4023 -0.7198  0.9519
  135OSM    C6S14658   1.819   5.386   7.554  0.1211  0.1253  0.3533
  135OSM    H6S14659   1.732   5.452   7.535  0.8426  0.8624 -0.4726
  135OSM    H6T14660   1.787   5.293   7.504  0.1409  0.9918 -1.3229
  135OSM    C7S14661   1.937   5.446   7.478  0.4547 -0.1179 -0.3541
  135OSM    H7S14662   2.033   5.395   7.502  0.9193  0.0485 -1.7482
  135OSM    H7T14663   1.960   5.551   7.506 -0.1998  0.2540 -1.1590
  135OSM    C8S14664   1.914   5.442   7.325  0.2488 -0.8283  0.3630
  135OSM    H8S14665   1.854   5.530   7.294 -0.7740 -1.7737 -0.4160
  135OSM    H8T14666   1.860   5.354   7.284 -3.2190  1.5088 -0.5100
  135OSM    C9S14667   2.041   5.443   7.250  0.1650  0.4160  0.3647
  135OSM    H9S14668   2.072   5.337   7.243 -0.6842  0.2673 -3.1477
  135OSM    H9T14669   2.125   5.486   7.308  2.5867 -3.3852 -0.0286
  135OSM   C10S14670   2.048   5.484   7.100 -0.1578 -1.0928 -0.0140
  135OSM   H10S14671   2.146   5.533   7.079 -2.4681  3.5111 -1.4269
  135OSM   H10T14672   1.977   5.568   7.087 -1.1648 -1.4582  2.4532
  135OSM   C11S14673   2.014   5.368   7.007  0.3163  0.0910  0.2626
  135OSM   H11S14674   1.916   5.322   7.029  0.7123 -0.6723  0.4542
  135OSM   H11T14675   2.081   5.280   7.003  0.7119  0.4154 -0.5670
  135OSM   C12S14676   2.006   5.422   6.861 -0.2591 -0.1262 -0.7406
  135OSM   H12S14677   2.105   5.465   6.837 -1.1955  3.0813  0.6111
  135OSM   H12T14678   1.936   5.508   6.847  0.6887  0.6868 -0.5847
  135OSM   C13S14679   1.983   5.324   6.745  0.7368 -0.1041  0.3989
  135OSM   H13S14680   1.912   5.243   6.773 -0.6329  1.0264  0.3484
  135OSM   H13T14681   2.078   5.271   6.721 -0.4806 -1.7087 -1.1681
  135OSM   C14S14682   1.927   5.390   6.614 -0.2285 -0.1732 -0.1491
  135OSM   H14S14683   1.975   5.489   6.597  0.4540 -0.6964 -1.3899
  135OSM   H14T14684   1.817   5.401   6.602 -0.1173 -0.0368 -1.0970
  135OSM   C15S14685   1.964   5.314   6.486 -0.5420  0.4817 -0.5454
  135OSM   H15S14686   1.903   5.221   6.485 -1.1358  0.8692 -0.3631
  135OSM   H15T14687   2.071   5.285   6.479  0.0562  2.7323 -1.5673
  135OSM   C16S14688   1.956   5.402   6.358 -0.3236  1.1117 -1.2161
  135OSM   H16S14689   1.992   5.345   6.269 -1.5925 -1.3449 -0.2487
  135OSM   H16T14690   2.005   5.498   6.385 -0.0640  0.4017  0.9938
  135OSM   C17S14691   1.812   5.442   6.325 -0.4467  0.8336  0.5133
  135OSM   H17S14692   1.817   5.538   6.270 -1.0012  1.1668  1.0215
  135OSM   H17T14693   1.749   5.460   6.415 -2.4467  1.5251 -0.9531
  135OSM   C18S14694   1.739   5.350   6.227  0.4997  0.2577 -0.5997
  135OSM   H18S14695   1.779   5.358   6.123  1.0343  0.0359 -0.4190
  135OSM   H18T14696   1.632   5.373   6.211  0.6575  1.0484 -0.5636
  135OSM   H18U14697   1.748   5.249   6.273 -1.5800  0.0439 -0.5760
  135OSM    C1F14698   2.065   4.978   7.981  0.3104  0.9573 -0.4387
  135OSM     OF14699   1.970   4.945   8.050  0.1694  0.2552  0.4759
  135OSM    C2F14700   2.161   4.881   7.922 -0.6037  0.3563  0.3518
  135OSM    H2F14701   2.223   4.858   8.011 -0.2611 -1.5277 -0.3215
  135OSM    H2G14702   2.218   4.937   7.844 -2.0982  1.9244  0.3226
  135OSM    C3F14703   2.097   4.755   7.854 -0.3942  0.3982  0.3162
  135OSM    H3F14704   2.049   4.786   7.759  1.4455 -0.2530 -0.8770
  135OSM    H3G14705   2.023   4.705   7.920  0.9125 -1.1455  0.6849
  135OSM    C4F14706   2.215   4.654   7.822  0.0586 -0.1880  0.0268
  135OSM    H4F14707   2.273   4.688   7.733  0.4934  0.2470  0.4656
  135OSM    H4G14708   2.273   4.666   7.916 -1.2048  0.3318  0.7642
  135OSM    C5F14709   2.163   4.513   7.803 -0.8034 -0.3481 -0.3407
  135OSM    H5F14710   2.073   4.493   7.864 -0.9058 -0.8961 -0.6699
  135OSM    H5G14711   2.249   4.451   7.836 -1.8185 -1.6093  0.0249
  135OSM    C6F14712   2.119   4.488   7.658  0.2600  0.7170  0.0717
  135OSM    H6F14713   2.188   4.531   7.583  0.3788  0.5539  0.0885
  135OSM    H6G14714   2.024   4.542   7.637  0.1774  0.3171 -0.6339
  135OSM    C7F14715   2.083   4.346   7.609 -0.8720 -0.1931  0.0489
  135OSM    H7F14716   2.018   4.290   7.681  0.6981 -2.0493  0.1073
  135OSM    H7G14717   2.173   4.282   7.606 -1.0806 -0.4540 -0.8954
  135OSM    C8F14718   2.031   4.348   7.467  0.3835  0.1720  0.5593
  135OSM    H8F14719   2.103   4.387   7.392 -2.6627  0.7217 -2.3633
  135OSM    H8G14720   1.943   4.417   7.465 -0.1697 -0.5286 -0.2703
  135OSM    C9F14721   1.995   4.208   7.414 -0.0482 -0.3431 -0.1424
  135OSM    H9F14722   1.933   4.151   7.485  0.5358  1.4282  1.8761
  135OSM   C10F14723   2.045   4.142   7.308  0.3546 -0.1314  0.1666
  135OSM   H10F14724   2.001   4.042   7.292 -1.6283  0.4227  1.6107
  135OSM   C11F14725   2.142   4.193   7.212 -0.1465  0.5102  0.0325
  135OSM   H11F14726   2.195   4.104   7.172 -1.6963  1.1691 -4.0475
  135OSM   H11G14727   2.217   4.273   7.232  1.1762 -0.1114 -2.0294
  135OSM   C12F14728   2.065   4.233   7.081 -0.4167 -0.3575  0.1393
  135OSM   H12F14729   2.039   4.341   7.091  0.8962 -0.2113  2.7768
  135OSM   H12G14730   1.967   4.181   7.074  0.2128 -1.6357  0.4342
  135OSM   C13F14731   2.151   4.200   6.955 -0.3136 -0.3267  0.1490
  135OSM   H13F14732   2.185   4.095   6.967 -0.4887 -0.1485  2.8934
  135OSM   H13G14733   2.250   4.249   6.951  0.1908 -1.3308 -0.1656
  135OSM   C14F14734   2.076   4.237   6.825 -0.0409 -0.1771 -0.2467
  135OSM   H14F14735   2.064   4.347   6.822 -0.8593 -0.2611 -0.2687
  135OSM   H14G14736   1.978   4.186   6.818 -0.5133  0.9323 -3.0039
  135OSM   C15F14737   2.157   4.197   6.705 -0.2726  0.2192  0.0690
  135OSM   H15F14738   2.180   4.089   6.716  0.7580  0.2678 -1.2762
  135OSM   H15G14739   2.253   4.255   6.709 -0.7685  1.0508  0.2075
  135OSM   C16F14740   2.081   4.229   6.573 -0.1227  0.0334  0.1474
  135OSM   H16F14741   2.056   4.337   6.571  1.0584  0.3165 -1.1971
  135OSM   H16G14742   1.986   4.172   6.565  0.2769 -0.7503  0.7940
  135OSM   C17F14743   2.176   4.220   6.451  0.3870  0.0022 -0.4244
  135OSM   H17F14744   2.234   4.127   6.437 -0.7916 -0.5494 -1.8951
  135OSM   H17G14745   2.252   4.301   6.457 -1.1194  1.5752 -1.5994
  135OSM   C18F14746   2.106   4.238   6.313  0.6764 -0.2382 -1.3238
  135OSM   H18F14747   2.030   4.319   6.303 -2.0687 -2.5836 -0.9844
  135OSM   H18G14748   2.047   4.144   6.309  0.0829 -0.0044  0.8176
  135OSM   H18H14749   2.178   4.238   6.229  2.1938 -0.9288 -0.0678
  136OSM      N14750   6.242   5.564   8.545  0.5566 -0.0746 -0.1856
  136OSM    C1514751   6.113   5.583   8.605  0.5738 -0.1644  0.8098
  136OSM   H15A14752   6.051   5.499   8.578  3.1583 -1.2849 -2.0842
  136OSM   H15B14753   6.067   5.673   8.567  0.8296 -1.2053 -2.1725
  136OSM   H15C14754   6.127   5.599   8.711 -0.1803  1.1916  0.7349
  136OSM    C1414755   6.329   5.689   8.575  0.1714 -0.1075  0.1466
  136OSM   H14A14756   6.435   5.672   8.560  0.3512  0.6499  0.4839
  136OSM   H14B14757   6.317   5.710   8.680  0.8957 -1.2284  0.4768
  136OSM   H14C14758   6.292   5.772   8.517 -0.2086  0.3879  1.0752
  136OSM    C1314759   6.312   5.452   8.614 -0.2990 -0.3533  0.1670
  136OSM   H13A14760   6.411   5.444   8.574  0.8952  1.0539  2.5830
  136OSM   H13B14761   6.258   5.360   8.599  1.2842 -1.1915 -0.5759
  136OSM   H13C14762   6.319   5.472   8.720 -0.1817 -2.0356  0.5046
  136OSM    C1214763   6.244   5.547   8.402 -0.4987  0.7408  0.5629
  136OSM   H12A14764   6.341   5.571   8.361 -1.9697  2.7038 -2.0702
  136OSM   H12B14765   6.178   5.621   8.361  1.0749  1.9691  0.1452
  136OSM    C1114766   6.194   5.419   8.338  0.5884 -0.3328  0.7778
  136OSM   H11A14767   6.265   5.335   8.355  0.8314 -0.0487  1.1993
  136OSM   H11B14768   6.204   5.435   8.229  0.2414  1.3552  0.9716
  136OSM      P14769   5.987   5.270   8.309  0.0392  0.3407 -0.2500
  136OSM    O1314770   6.030   5.143   8.374  0.2168  0.1608 -0.3609
  136OSM    O1414771   5.841   5.291   8.323  0.2858  0.1286  0.0359
  136OSM    O1114772   6.021   5.270   8.157 -0.7098  0.4616  0.0998
  136OSM    O1214773   6.057   5.395   8.377  0.2802 -0.0688  0.4014
  136OSM    C1S14774   5.947   5.212   8.054 -0.3598  1.1023 -0.5840
  136OSM    H1S14775   5.852   5.269   8.045 -0.9598  0.6832  2.1481
  136OSM    H1T14776   5.926   5.105   8.076  2.4243  0.6778  0.4568
  136OSM     NF14777   5.954   5.146   7.819 -0.3361  0.6104  0.1271
  136OSM    HNF14778   5.983   5.053   7.796 -0.9966  0.1287  1.1372
  136OSM    C2S14779   6.030   5.217   7.920  0.2087  0.4799  0.4253
  136OSM    H2S14780   6.035   5.322   7.884  1.8822  0.6616  1.0889
  136OSM    C3S14781   6.172   5.164   7.936 -0.1391  0.1438 -0.5908
  136OSM    H3S14782   6.167   5.053   7.942 -0.9106  0.2430  1.6279
  136OSM     O314783   6.246   5.214   8.046 -0.3914 -0.1610  0.4306
  136OSM    HO314784   6.178   5.260   8.097  0.2102  1.1940  0.0542
  136OSM    C4S14785   6.244   5.179   7.803 -0.5356 -0.4268  0.5165
  136OSM    H4S14786   6.212   5.108   7.726 -1.6621 -1.4079  1.8468
  136OSM    C5S14787   6.343   5.259   7.764 -0.3859  0.4095 -0.5605
  136OSM    H5S14788   6.385   5.328   7.838 -0.7789 -1.2576  1.2858
  136OSM    C6S14789   6.405   5.268   7.626  0.3790 -0.1871 -0.3581
  136OSM    H6S14790   6.515   5.253   7.620  0.4434 -0.8108  1.6337
  136OSM    H6T14791   6.378   5.365   7.579 -1.6292 -1.5718 -2.2518
  136OSM    C7S14792   6.344   5.172   7.528  0.4042 -0.5444 -0.3114
  136OSM    H7S14793   6.235   5.185   7.517  0.3286 -0.6087  0.3365
  136OSM    H7T14794   6.356   5.072   7.576  3.7366  0.4181  1.1809
  136OSM    C8S14795   6.402   5.183   7.384  0.1226 -0.3682 -0.1170
  136OSM    H8S14796   6.512   5.188   7.369  0.0395  1.4714 -0.3512
  136OSM    H8T14797   6.362   5.281   7.350 -0.6494  0.8622  3.7873
  136OSM    C9S14798   6.338   5.078   7.291 -0.2267 -0.2319 -0.3908
  136OSM    H9S14799   6.227   5.086   7.293 -0.1046  2.1317  1.5131
  136OSM    H9T14800   6.375   4.976   7.312  0.9488  0.4531  1.0783
  136OSM   C10S14801   6.368   5.109   7.141  0.0338  0.7159 -0.1619
  136OSM   H10S14802   6.479   5.113   7.136 -0.0150  0.0627 -2.8447
  136OSM   H10T14803   6.337   5.215   7.124  1.6943  1.3009  0.2067
  136OSM   C11S14804   6.327   5.016   7.029 -0.1450 -0.8059 -0.3816
  136OSM   H11S14805   6.229   4.971   7.056 -1.5077  2.4650  0.6350
  136OSM   H11T14806   6.402   4.935   7.018  0.2771 -0.8877  2.3038
  136OSM   C12S14807   6.302   5.090   6.898  0.1165 -0.8574 -0.3950
  136OSM   H12S14808   6.397   5.141   6.871 -0.1863  0.2324  0.4890
  136OSM   H12T14809   6.218   5.162   6.899 -0.6134 -1.6598 -1.5746
  136OSM   C13S14810   6.268   5.001   6.778 -0.1782  0.7312 -0.6537
  136OSM   H13S14811   6.348   4.924   6.773  0.4025  1.2395  0.3380
  136OSM   H13T14812   6.253   5.071   6.693 -0.2249  1.0133 -0.4161
  136OSM   C14S14813   6.130   4.928   6.789 -0.0677 -0.0252 -0.8187
  136OSM   H14S14814   6.048   5.004   6.787  1.5202  1.8187  0.2449
  136OSM   H14T14815   6.123   4.887   6.892 -0.1376 -2.4412 -1.7360
  136OSM   C15S14816   6.122   4.817   6.685  0.0177  1.1903 -0.4613
  136OSM   H15S14817   6.021   4.772   6.670  0.3251  0.2144  0.2839
  136OSM   H15T14818   6.194   4.740   6.720 -0.6211  0.2458 -1.1708
  136OSM   C16S14819   6.169   4.865   6.553 -0.0941  0.3394 -0.5039
  136OSM   H16S14820   6.273   4.905   6.547  0.3409 -0.1084  2.3087
  136OSM   H16T14821   6.113   4.956   6.524 -1.1910  0.2552  1.2092
  136OSM   C17S14822   6.157   4.750   6.448  0.1507  0.4017  0.0538
  136OSM   H17S14823   6.053   4.712   6.456  0.8254 -1.4686  0.5625
  136OSM   H17T14824   6.227   4.667   6.471  1.1623  0.0222 -3.7737
  136OSM   C18S14825   6.188   4.796   6.305 -0.5300 -0.1095  0.1495
  136OSM   H18S14826   6.293   4.832   6.306 -0.3067 -0.7389  1.2767
  136OSM   H18T14827   6.114   4.876   6.282 -0.8917 -0.9959 -2.0124
  136OSM   H18U14828   6.184   4.707   6.238 -1.9835  0.1800 -0.1856
  136OSM    C1F14829   5.841   5.193   7.762  0.0787 -0.3781  0.3892
  136OSM     OF14830   5.802   5.304   7.802  0.2411  0.1670  0.5798
  136OSM    C2F14831   5.768   5.108   7.656 -0.1567 -0.1931 -0.7113
  136OSM    H2F14832   5.744   5.011   7.706 -1.3505  0.0167 -0.8414
  136OSM    H2G14833   5.837   5.078   7.574  0.9947 -0.5462  0.3652
  136OSM    C3F14834   5.645   5.172   7.596 -0.1158 -0.3158  0.2904
  136OSM    H3F14835   5.669   5.277   7.569  0.2743 -0.0728  1.5299
  136OSM    H3G14836   5.568   5.175   7.675  0.0034 -1.6007  0.4910
  136OSM    C4F14837   5.591   5.098   7.473 -0.1374 -0.4219  0.0335
  136OSM    H4F14838   5.591   4.990   7.501  1.6300 -0.7874 -1.2039
  136OSM    H4G14839   5.659   5.123   7.389  0.4831  1.6623  1.0946
  136OSM    C5F14840   5.449   5.149   7.433 -0.7811  0.2413 -0.6836
  136OSM    H5F14841   5.458   5.259   7.416 -0.3285  0.7416  2.2419
  136OSM    H5G14842   5.381   5.137   7.519 -0.2896 -1.1042 -0.4625
  136OSM    C6F14843   5.374   5.085   7.313 -0.8991  0.7262 -0.1380
  136OSM    H6F14844   5.354   4.976   7.319 -1.7884  0.9228  0.8127
  136OSM    H6G14845   5.461   5.086   7.244  0.3006 -2.1516  1.1676
  136OSM    C7F14846   5.250   5.158   7.268 -0.5347  0.2854  0.0898
  136OSM    H7F14847   5.276   5.266   7.258  0.0092  0.3029  1.5416
  136OSM    H7G14848   5.180   5.154   7.353 -1.0022  0.9349 -0.2503
  136OSM    C8F14849   5.188   5.101   7.138  0.5027 -0.2673  0.8553
  136OSM    H8F14850   5.181   4.992   7.156 -2.3131 -0.1266  1.0576
  136OSM    H8G14851   5.254   5.122   7.052 -0.8727 -0.9258 -0.4042
  136OSM    C9F14852   5.047   5.157   7.106 -0.1013 -0.9208  1.1458
  136OSM    H9F14853   5.048   5.263   7.076  0.9330 -0.7238  1.8030
  136OSM   C10F14854   4.929   5.096   7.089 -0.5271  0.3391  0.6312
  136OSM   H10F14855   4.844   5.164   7.073  0.0641  0.5327 -2.0962
  136OSM   C11F14856   4.906   4.946   7.114 -0.1183 -0.3359 -0.1790
  136OSM   H11F14857   4.832   4.930   7.195  0.4043  1.0115  0.5999
  136OSM   H11G14858   5.004   4.899   7.138  0.2981  0.9937  0.8659
  136OSM   C12F14859   4.839   4.892   6.982 -0.8349 -0.6423  0.1864
  136OSM   H12F14860   4.729   4.912   6.979 -0.5206  1.8769  2.1970
  136OSM   H12G14861   4.855   4.782   6.990 -0.7250 -0.6692 -0.3634
  136OSM   C13F14862   4.904   4.929   6.851 -0.5324  0.1431 -0.3366
  136OSM   H13F14863   5.014   4.921   6.865 -0.7123 -0.6861  0.7766
  136OSM   H13G14864   4.883   5.036   6.832  0.8304  0.2468 -1.4064
  136OSM   C14F14865   4.834   4.846   6.743 -0.7774  0.4667 -0.2593
  136OSM   H14F14866   4.725   4.868   6.743 -0.6669  1.0181 -0.3748
  136OSM   H14G14867   4.841   4.736   6.760 -0.8771  0.3020 -1.2645
  136OSM   C15F14868   4.865   4.885   6.600  0.3173  0.0600  0.2786
  136OSM   H15F14869   4.972   4.862   6.587  0.0127 -1.2811  0.0730
  136OSM   H15G14870   4.837   4.993   6.590 -0.8160 -0.1554  0.9736
  136OSM   C16F14871   4.798   4.804   6.487 -0.4624 -0.0538  0.6171
  136OSM   H16F14872   4.692   4.836   6.473 -0.1553  0.2027 -1.3105
  136OSM   H16G14873   4.789   4.696   6.513 -1.0836  0.1862  1.4750
  136OSM   C17F14874   4.870   4.833   6.353  0.5066 -0.2227 -0.4464
  136OSM   H17F14875   4.837   4.779   6.262  1.0816 -1.0492 -0.1758
  136OSM   H17G14876   4.975   4.798   6.362  1.0001  0.4584 -2.9710
  136OSM   C18F14877   4.877   4.980   6.316 -0.2383  0.5365  0.5039
  136OSM   H18F14878   4.942   5.034   6.387  2.2644  0.1561 -1.3742
  136OSM   H18G14879   4.782   5.036   6.303 -1.2018 -1.1298  0.0405
  136OSM   H18H14880   4.939   4.994   6.225 -0.2492  0.7731  0.5322
  137OSM      N14881   5.808   1.538   8.277 -0.1509 -0.3696 -0.6898
  137OSM    C1514882   5.960   1.524   8.262  0.1327 -0.2827 -0.8532
  137OSM   H15A14883   6.007   1.604   8.208  1.3926  0.6509  1.4676
  137OSM   H15B14884   5.992   1.434   8.213  0.3431 -0.8179  0.2274
  137OSM   H15C14885   6.001   1.522   8.362  0.1755  1.8550 -0.7789
  137OSM    C1414886   5.760   1.445   8.379 -0.4430 -0.0255  0.0247
  137OSM   H14A14887   5.653   1.461   8.386 -0.8916 -2.5534 -0.2385
  137OSM   H14B14888   5.796   1.474   8.477 -1.1686  3.2920 -0.5649
  137OSM   H14C14889   5.795   1.344   8.364 -0.6321  0.0180 -0.7238
  137OSM    C1314890   5.774   1.674   8.340  0.0824 -0.3017  0.1405
  137OSM   H13A14891   5.846   1.694   8.418  2.1628  0.6400 -1.9049
  137OSM   H13B14892   5.673   1.678   8.378 -0.5774  1.0920 -1.6750
  137OSM   H13C14893   5.785   1.745   8.260 -1.4381 -1.9672 -1.6526
  137OSM    C1214894   5.741   1.521   8.147 -0.7423  0.6755  1.0341
  137OSM   H12A14895   5.732   1.415   8.131 -2.7466  0.8224  0.9777
  137OSM   H12B14896   5.809   1.540   8.065 -0.8266  1.2323  1.0923
  137OSM    C1114897   5.584   1.570   8.124 -0.6888 -0.4872 -0.7361
  137OSM   H11A14898   5.545   1.555   8.021 -0.1090 -2.2036 -0.7407
  137OSM   H11B14899   5.586   1.679   8.145 -2.4250  0.1614 -3.5210
  137OSM      P14900   5.397   1.556   8.308 -0.4140 -0.5602 -0.0877
  137OSM    O1314901   5.349   1.444   8.388 -0.4521  0.0832 -0.4404
  137OSM    O1414902   5.448   1.669   8.385  0.3201  0.2949 -0.3103
  137OSM    O1114903   5.287   1.612   8.211  0.2095 -0.1476  0.2553
  137OSM    O1214904   5.502   1.490   8.212  0.2890 -0.1025 -0.0567
  137OSM    C1S14905   5.295   1.742   8.150 -0.4407 -0.0279 -0.6728
  137OSM    H1S14906   5.402   1.773   8.147 -0.3182 -0.4850 -1.3961
  137OSM    H1T14907   5.241   1.820   8.208 -1.3963 -0.5224 -0.8739
  137OSM     NF14908   5.261   1.853   7.938  0.0818 -0.5957  0.2365
  137OSM    HNF14909   5.197   1.928   7.952 -0.6469 -1.1301 -0.1548
  137OSM    C2S14910   5.233   1.733   8.012  0.7751  0.2674  0.3116
  137OSM    H2S14911   5.278   1.644   7.964  1.0635  0.3442  0.4303
  137OSM    C3S14912   5.071   1.721   8.029 -0.5708  0.1873 -0.5188
  137OSM    H3S14913   5.041   1.815   8.080  0.5975  1.2621 -1.7199
  137OSM     O314914   5.030   1.611   8.107  0.3006  0.6467  0.3194
  137OSM    HO314915   5.116   1.594   8.145  0.7453  2.2877  0.1239
  137OSM    C4S14916   5.007   1.724   7.894 -0.4585  0.0850  0.8549
  137OSM    H4S14917   5.021   1.635   7.830  1.8059  0.9972 -0.0501
  137OSM    C5S14918   4.928   1.820   7.845  0.7622  0.0503 -0.0510
  137OSM    H5S14919   4.894   1.905   7.906 -1.0711 -1.1189  0.6782
  137OSM    C6S14920   4.878   1.811   7.708 -0.4258 -0.3096 -0.0013
  137OSM    H6S14921   4.899   1.712   7.661 -1.1998 -0.8416  0.7367
  137OSM    H6T14922   4.929   1.889   7.647 -0.2846  0.4597  1.0686
  137OSM    C7S14923   4.726   1.838   7.698  0.0185 -0.1384  0.4719
  137OSM    H7S14924   4.696   1.933   7.746 -1.5009 -0.3486 -0.0156
  137OSM    H7T14925   4.674   1.761   7.759 -0.7464  0.5866  0.7495
  137OSM    C8S14926   4.683   1.836   7.549 -0.3085  0.4755  0.5921
  137OSM    H8S14927   4.703   1.736   7.504  1.3798  1.8977 -2.0563
  137OSM    H8T14928   4.749   1.910   7.498  0.3713  1.3921  2.7183
  137OSM    C9S14929   4.545   1.879   7.528  0.4013  0.3700 -0.4336
  137OSM    H9S14930   4.545   1.986   7.559  1.3743 -0.1715  1.5927
  137OSM    H9T14931   4.472   1.834   7.599 -2.0223  0.3095 -2.8114
  137OSM   C10S14932   4.502   1.878   7.382 -0.3333 -0.5790  0.3643
  137OSM   H10S14933   4.392   1.896   7.381 -0.3089 -0.3701  0.9187
  137OSM   H10T14934   4.518   1.772   7.357  2.4062 -0.2096  0.2794
  137OSM   C11S14935   4.579   1.978   7.292  0.0068  0.3503 -0.7650
  137OSM   H11S14936   4.689   1.961   7.292 -0.2047 -1.2798  0.0572
  137OSM   H11T14937   4.560   2.070   7.349 -3.1187 -0.2950 -0.6084
  137OSM   C12S14938   4.525   2.015   7.153 -0.0111 -0.0964  0.8123
  137OSM   H12S14939   4.566   2.113   7.121 -3.0055  0.9164 -0.2682
  137OSM   H12T14940   4.414   2.024   7.159 -0.1264 -1.2769  0.6931
  137OSM   C13S14941   4.557   1.905   7.045  0.4950  0.4108  1.2186
  137OSM   H13S14942   4.516   1.806   7.074  1.3875  0.0421  1.2509
  137OSM   H13T14943   4.663   1.881   7.025  0.2731 -0.4866  1.0792
  137OSM   C14S14944   4.504   1.948   6.901 -0.2003 -1.1102  0.2694
  137OSM   H14S14945   4.395   1.964   6.917 -0.2898 -1.9240  0.5336
  137OSM   H14T14946   4.502   1.868   6.824  0.6458  0.3267 -1.3021
  137OSM   C15S14947   4.571   2.065   6.833  1.0164 -0.6062  0.8128
  137OSM   H15S14948   4.666   2.037   6.784 -0.5149 -0.6530 -2.3924
  137OSM   H15T14949   4.582   2.157   6.895  0.8800 -0.4135  0.5495
  137OSM   C16S14950   4.476   2.105   6.720 -0.0366  0.0070  0.9130
  137OSM   H16S14951   4.375   2.141   6.749 -1.0020 -1.7343 -0.1221
  137OSM   H16T14952   4.448   2.013   6.665  1.9580  1.0361 -2.0655
  137OSM   C17S14953   4.546   2.193   6.616  0.1250 -0.7167  0.4261
  137OSM   H17S14954   4.637   2.143   6.576 -0.0293 -2.0650  1.6707
  137OSM   H17T14955   4.573   2.292   6.657  0.9919 -1.1616  0.9702
  137OSM   C18S14956   4.458   2.215   6.488 -0.3508 -0.0183  0.0904
  137OSM   H18S14957   4.520   2.267   6.412 -0.1002 -1.3686 -0.6683
  137OSM   H18T14958   4.376   2.286   6.512 -0.6711 -0.7498  1.2616
  137OSM   H18U14959   4.393   2.129   6.460  0.0387  0.0775 -1.1320
  137OSM    C1F14960   5.379   1.882   7.878  0.0759  0.4659 -0.3290
  137OSM     OF14961   5.470   1.805   7.888  0.4932 -0.2235 -0.2392
  137OSM    C2F14962   5.398   2.009   7.812  0.9290 -0.6786  0.7223
  137OSM    H2F14963   5.478   2.057   7.873  2.3110 -1.3660 -0.4788
  137OSM    H2G14964   5.299   2.059   7.810  0.0255 -2.2155  3.2839
  137OSM    C3F14965   5.433   1.996   7.658 -0.2326 -0.1918  0.5086
  137OSM    H3F14966   5.362   1.923   7.612  1.2278 -1.4334  0.1313
  137OSM    H3G14967   5.535   1.956   7.640 -1.2015 -1.5540 -2.5152
  137OSM    C4F14968   5.426   2.126   7.577  0.1553  0.1822 -0.3685
  137OSM    H4F14969   5.482   2.204   7.633  3.1144 -0.8033 -1.7687
  137OSM    H4G14970   5.320   2.153   7.556  0.2261  0.3352 -0.5330
  137OSM    C5F14971   5.507   2.117   7.447 -0.0124 -0.2405 -0.3654
  137OSM    H5F14972   5.612   2.085   7.463  0.2805  0.6273 -0.5037
  137OSM    H5G14973   5.498   2.220   7.408  1.5896  0.9838  2.2723
  137OSM    C6F14974   5.448   2.016   7.339  0.2167 -0.2127  0.5517
  137OSM    H6F14975   5.342   1.999   7.367  0.1147  0.9623  0.9179
  137OSM    H6G14976   5.504   1.919   7.336 -0.6208 -0.7046 -2.4650
  137OSM    C7F14977   5.454   2.062   7.190 -0.0961  0.1186 -0.1231
  137OSM    H7F14978   5.562   2.074   7.166 -0.1697 -0.7303 -0.9182
  137OSM    H7G14979   5.400   2.156   7.167 -1.1579 -0.5933 -0.5843
  137OSM    C8F14980   5.403   1.957   7.101  0.0858 -0.5564  0.3262
  137OSM    H8F14981   5.293   1.960   7.117 -0.3454  0.5385 -2.3133
  137OSM    H8G14982   5.448   1.858   7.127 -0.5230 -0.5805  1.3092
  137OSM    C9F14983   5.446   1.971   6.954 -0.5172 -0.1311 -0.5587
  137OSM    H9F14984   5.553   1.948   6.938 -0.7758  0.0483 -3.0689
  137OSM   C10F14985   5.370   1.997   6.844  0.3791 -0.4448  0.2889
  137OSM   H10F14986   5.417   1.997   6.744 -0.4356  0.6612 -0.1152
  137OSM   C11F14987   5.223   2.023   6.840  1.4826  0.4914  0.1991
  137OSM   H11F14988   5.196   2.124   6.876 -1.5723 -0.0042 -0.3876
  137OSM   H11G14989   5.162   1.960   6.908  0.9983 -0.6779 -1.2547
  137OSM   C12F14990   5.173   2.006   6.689 -0.5363 -0.5234 -0.2288
  137OSM   H12F14991   5.066   2.036   6.691 -0.6507 -0.9316 -0.2065
  137OSM   H12G14992   5.187   1.905   6.645  0.5573  0.0875 -1.3306
  137OSM   C13F14993   5.230   2.114   6.588  0.1526  0.0350  0.6171
  137OSM   H13F14994   5.341   2.110   6.589  0.2148  1.2959  0.0677
  137OSM   H13G14995   5.199   2.219   6.609  0.6086  0.3752 -0.3644
  137OSM   C14F14996   5.175   2.086   6.446  0.4665  0.2062  0.6452
  137OSM   H14F14997   5.064   2.087   6.451  0.4439 -0.4295  0.3315
  137OSM   H14G14998   5.203   1.982   6.423 -1.0224 -0.7122  2.6567
  137OSM   C15F14999   5.233   2.186   6.345 -0.5926 -0.1178 -0.3056
  137OSM   H15F15000   5.342   2.204   6.355 -0.7625  0.6216  0.2964
  137OSM   H15G15001   5.184   2.284   6.364 -1.0414  0.0595 -2.2066
  137OSM   C16F15002   5.211   2.149   6.199  0.0948  0.3378  0.8590
  137OSM   H16F15003   5.104   2.122   6.184 -0.0692  0.1731  2.1504
  137OSM   H16G15004   5.279   2.068   6.168 -1.6725 -2.0136  2.6852
  137OSM   C17F15005   5.239   2.265   6.100 -0.3374  0.1508  0.2346
  137OSM   H17F15006   5.256   2.213   6.003  2.2746  0.7846  0.2896
  137OSM   H17G15007   5.337   2.314   6.119 -0.4595  0.6562 -0.4155
  137OSM   C18F15008   5.145   2.385   6.109  0.0284 -0.2539  0.2694
  137OSM   H18F15009   5.046   2.361   6.065  0.4424  0.8477 -1.3662
  137OSM   H18G15010   5.193   2.462   6.044 -1.0148 -0.1372 -0.3857
  137OSM   H18H15011   5.158   2.427   6.211  1.8567  0.2981 -0.1445
  138OSM      N15012   3.405   2.179   8.515  0.4653  0.2254  0.2141
  138OSM    C1515013   3.417   2.060   8.599 -0.7442  0.7950 -0.4221
  138OSM   H15A15014   3.369   2.083   8.694 -0.9886 -1.3487  0.0229
  138OSM   H15B15015   3.518   2.033   8.625 -0.6510  0.4235 -1.1631
  138OSM   H15C15016   3.355   1.977   8.569 -1.7247  1.5170 -0.4494
  138OSM    C1415017   3.262   2.236   8.518  0.4313 -0.2004  0.4697
  138OSM   H14A15018   3.188   2.161   8.494  0.1303  0.6328 -1.3078
  138OSM   H14B15019   3.257   2.297   8.429 -1.4729 -0.0622  0.6262
  138OSM   H14C15020   3.226   2.284   8.608  0.5940  0.3726  0.2325
  138OSM    C1315021   3.497   2.284   8.579 -0.6947 -0.4018 -0.4555
  138OSM   H13A15022   3.501   2.377   8.525 -3.3599 -0.8901 -1.6868
  138OSM   H13B15023   3.596   2.243   8.589 -0.6379 -0.3965 -0.9471
  138OSM   H13C15024   3.462   2.319   8.674 -0.3438  0.4715 -0.6438
  138OSM    C1215025   3.444   2.150   8.373  0.5905  0.0439 -0.4701
  138OSM   H12A15026   3.383   2.066   8.341 -0.5113 -0.0518  1.6670
  138OSM   H12B15027   3.545   2.112   8.364  0.1301 -1.4002  0.1400
  138OSM    C1115028   3.427   2.262   8.269 -0.2214 -0.5065  0.6826
  138OSM   H11A15029   3.318   2.282   8.261  0.0058  0.1070 -1.3315
  138OSM   H11B15030   3.448   2.226   8.166  2.5791  1.1538  0.6043
  138OSM      P15031   3.655   2.380   8.270  0.1094  0.5186  0.8352
  138OSM    O1315032   3.709   2.499   8.334 -0.5659  0.1370  0.0440
  138OSM    O1415033   3.725   2.252   8.291 -0.5805 -0.1279 -0.1030
  138OSM    O1115034   3.659   2.391   8.115 -0.2041 -0.2965  0.4570
  138OSM    O1215035   3.500   2.385   8.297 -0.8688  0.0459 -0.4851
  138OSM    C1S15036   3.684   2.520   8.054 -0.7270  0.5171 -0.4270
  138OSM    H1S15037   3.771   2.568   8.103 -2.1826 -0.2651  3.2829
  138OSM    H1T15038   3.590   2.579   8.062 -0.7722  0.6211 -1.5615
  138OSM     NF15039   3.723   2.660   7.859  0.3609 -0.1287  0.4186
  138OSM    HNF15040   3.648   2.722   7.835 -0.5762 -1.3211  0.1427
  138OSM    C2S15041   3.703   2.518   7.902 -0.0103  0.1529  1.0405
  138OSM    H2S15042   3.786   2.460   7.857 -1.1435  0.9723 -2.4527
  138OSM    C3S15043   3.575   2.456   7.829  0.0284 -0.2647  0.1333
  138OSM    H3S15044   3.489   2.519   7.859  0.1532  0.3633 -0.7747
  138OSM     O315045   3.539   2.325   7.856 -0.0036 -0.0425 -0.1707
  138OSM    HO315046   3.559   2.313   7.949  0.7450 -3.0467 -0.6350
  138OSM    C4S15047   3.590   2.475   7.676 -0.0530 -0.4454 -0.2225
  138OSM    H4S15048   3.682   2.429   7.636  2.1240  1.9264  1.6652
  138OSM    C5S15049   3.500   2.544   7.609  0.9314 -0.7439 -0.7369
  138OSM    H5S15050   3.415   2.589   7.662 -2.6462 -4.1925 -3.0489
  138OSM    C6S15051   3.498   2.581   7.461  0.6285  0.4618  0.1859
  138OSM    H6S15052   3.486   2.692   7.454 -0.1401  0.3094 -1.5278
  138OSM    H6T15053   3.417   2.524   7.410  0.4911  0.2580  0.6263
  138OSM    C7S15054   3.627   2.537   7.390  0.0107  0.0580 -0.4916
  138OSM    H7S15055   3.656   2.433   7.416 -0.4056  0.3541  1.2849
  138OSM    H7T15056   3.705   2.606   7.429  1.0819 -0.7422 -1.1434
  138OSM    C8S15057   3.624   2.564   7.242  0.3086 -0.1613  0.4029
  138OSM    H8S15058   3.724   2.525   7.210  0.7745  1.6373 -0.4858
  138OSM    H8T15059   3.633   2.673   7.220  1.6402 -0.2510  0.4192
  138OSM    C9S15060   3.516   2.500   7.156  0.5505 -0.0220 -0.2080
  138OSM    H9S15061   3.506   2.537   7.051  0.2432  0.7507  0.0849
  138OSM    H9T15062   3.419   2.537   7.195  1.8528  2.1199  1.1701
  138OSM   C10S15063   3.519   2.347   7.178  0.1102 -0.6083 -0.7604
  138OSM   H10S15064   3.488   2.332   7.283 -0.9303  2.3184 -0.5713
  138OSM   H10T15065   3.627   2.321   7.176  0.2650 -0.1101  0.3045
  138OSM   C11S15066   3.446   2.260   7.077 -0.5296 -0.6928 -0.7372
  138OSM   H11S15067   3.338   2.283   7.071 -0.5069 -0.6212 -0.8822
  138OSM   H11T15068   3.459   2.157   7.117  1.1943 -1.5478 -3.2567
  138OSM   C12S15069   3.506   2.256   6.936 -0.2884 -0.9287  0.3447
  138OSM   H12S15070   3.616   2.245   6.932 -0.4438 -2.2805 -1.0404
  138OSM   H12T15071   3.481   2.356   6.895 -2.4725 -2.3722 -2.1028
  138OSM   C13S15072   3.441   2.141   6.859  0.1976  0.1372 -0.4881
  138OSM   H13S15073   3.335   2.174   6.861  0.7018  1.9415 -1.8009
  138OSM   H13T15074   3.478   2.054   6.919  2.1747  2.3411  1.6942
  138OSM   C14S15075   3.483   2.139   6.720  0.2194  0.3862  0.7282
  138OSM   H14S15076   3.435   2.056   6.664 -0.9676  2.6924 -1.9250
  138OSM   H14T15077   3.593   2.146   6.708  0.2200  1.4891  1.2746
  138OSM   C15S15078   3.427   2.248   6.624 -0.0961 -0.3822 -0.1594
  138OSM   H15S15079   3.486   2.341   6.637  0.0856 -0.6808  1.2675
  138OSM   H15T15080   3.329   2.274   6.669  0.8508 -0.2094  1.9271
  138OSM   C16S15081   3.415   2.207   6.473  0.6573  0.2792  1.0078
  138OSM   H16S15082   3.363   2.287   6.415  0.0304 -0.7411  0.1330
  138OSM   H16T15083   3.350   2.118   6.469  0.0131  0.7796 -1.7249
  138OSM   C17S15084   3.555   2.172   6.409  0.6509 -0.1837 -0.2243
  138OSM   H17S15085   3.530   2.125   6.312 -1.6307  4.0045 -1.9289
  138OSM   H17T15086   3.611   2.107   6.480  1.0126 -1.0047 -1.2354
  138OSM   C18S15087   3.653   2.284   6.397 -0.3113  0.1169  0.4625
  138OSM   H18S15088   3.751   2.250   6.357  1.8230 -1.3374  6.0112
  138OSM   H18T15089   3.682   2.330   6.494 -2.6457 -0.0380  1.3007
  138OSM   H18U15090   3.605   2.369   6.346 -0.1115  0.6740  1.1940
  138OSM    C1F15091   3.843   2.712   7.872  0.1634  0.2486 -0.6575
  138OSM     OF15092   3.933   2.651   7.927 -0.1548 -0.1375 -0.3642
  138OSM    C2F15093   3.859   2.860   7.824  0.1388  0.2005  0.3147
  138OSM    H2F15094   3.903   2.920   7.906 -0.8970 -0.1149  1.1250
  138OSM    H2G15095   3.759   2.897   7.791  0.7491 -0.9034 -3.2150
  138OSM    C3F15096   3.951   2.878   7.704 -0.2717 -0.1965 -0.0889
  138OSM    H3F15097   4.056   2.843   7.718  0.4338  1.5052 -0.8404
  138OSM    H3G15098   3.960   2.988   7.696  1.0536 -0.2462  0.3947
  138OSM    C4F15099   3.901   2.809   7.575  0.7131 -0.5417 -0.2576
  138OSM    H4F15100   3.826   2.880   7.533 -0.2188 -0.6504  1.1752
  138OSM    H4G15101   3.849   2.711   7.587  0.4491 -0.7817 -2.7939
  138OSM    C5F15102   4.004   2.812   7.457  0.2843  0.5478 -0.1151
  138OSM    H5F15103   4.096   2.758   7.485 -0.7536 -1.9323 -1.2453
  138OSM    H5G15104   4.036   2.917   7.440 -0.0869  0.8443  0.9100
  138OSM    C6F15105   3.937   2.756   7.335 -0.6415  0.4239  0.0686
  138OSM    H6F15106   3.831   2.789   7.329 -1.7606 -2.1706  2.8895
  138OSM    H6G15107   3.915   2.652   7.368  3.0235 -0.3625  0.5031
  138OSM    C7F15108   4.024   2.762   7.202  0.5982  0.1667  0.0834
  138OSM    H7F15109   4.122   2.718   7.230  1.2698  1.5994  0.0541
  138OSM    H7G15110   4.053   2.867   7.181 -0.3655  0.0735 -1.9790
  138OSM    C8F15111   3.959   2.699   7.080 -0.5122 -0.6910  0.5273
  138OSM    H8F15112   3.933   2.594   7.107  1.4613 -1.2440  0.4757
  138OSM    H8G15113   4.030   2.700   6.995  2.8132  1.5026  3.0713
  138OSM    C9F15114   3.838   2.775   7.030 -0.7432  0.0348 -0.2788
  138OSM    H9F15115   3.842   2.879   7.066  3.1123 -0.7837  2.2762
  138OSM   C10F15116   3.744   2.726   6.952 -0.4853 -0.5676 -0.4581
  138OSM   H10F15117   3.665   2.797   6.922 -0.8768  0.1510  2.0910
  138OSM   C11F15118   3.733   2.586   6.901 -0.3554  0.3335 -0.3970
  138OSM   H11F15119   3.626   2.563   6.885  0.1966 -1.2469 -2.0796
  138OSM   H11G15120   3.772   2.509   6.971 -0.6275  0.6259  0.0889
  138OSM   C12F15121   3.816   2.562   6.778 -0.6703  0.5901 -0.4565
  138OSM   H12F15122   3.784   2.462   6.741 -2.9648  1.3461 -0.6281
  138OSM   H12G15123   3.924   2.576   6.804 -0.3927  2.9092 -2.5782
  138OSM   C13F15124   3.794   2.665   6.670 -0.1511  0.4439  0.6086
  138OSM   H13F15125   3.827   2.767   6.698  1.5024  0.1898 -0.3092
  138OSM   H13G15126   3.687   2.684   6.646 -0.2067  0.3003  0.7384
  138OSM   C14F15127   3.875   2.619   6.549  0.8081  0.0447  0.3069
  138OSM   H14F15128   3.837   2.522   6.511 -0.4511  1.5457 -2.5836
  138OSM   H14G15129   3.984   2.608   6.571  0.8039  1.0999  0.9386
  138OSM   C15F15130   3.889   2.731   6.442 -0.1515  0.4844  0.3724
  138OSM   H15F15131   3.902   2.821   6.506  3.4038 -0.2232  0.8319
  138OSM   H15G15132   3.793   2.749   6.389 -1.3208  0.4921  2.3532
  138OSM   C16F15133   4.001   2.716   6.340  0.2987 -0.4401 -0.0621
  138OSM   H16F15134   4.095   2.670   6.377 -0.9278 -2.5123  0.6264
  138OSM   H16G15135   4.018   2.823   6.312  0.4403  0.3974  2.8708
  138OSM   C17F15136   3.966   2.646   6.209 -0.5607  0.2270 -0.0802
  138OSM   H17F15137   3.858   2.660   6.186 -0.6097  1.0844  0.6088
  138OSM   H17G15138   3.995   2.539   6.220  3.8324  1.3978  2.3241
  138OSM   C18F15139   4.042   2.694   6.082  0.4185 -0.2364  0.4705
  138OSM   H18F15140   4.009   2.636   5.993  1.1862  0.6140 -0.3869
  138OSM   H18G15141   4.151   2.672   6.094  0.8534  0.5097 -1.7954
  138OSM   H18H15142   4.020   2.801   6.064  0.0278 -0.3467  0.2932
  139OSM      N15143   1.073   4.780   8.504  0.3249 -0.1661 -0.9258
  139OSM    C1515144   1.026   4.637   8.537 -0.4353 -0.3446 -0.0614
  139OSM   H15A15145   0.947   4.621   8.466 -1.0909 -1.3500  0.8619
  139OSM   H15B15146   0.985   4.624   8.637 -0.2559  0.4863  0.1302
  139OSM   H15C15147   1.102   4.564   8.516 -0.3055 -0.1311 -0.3385
  139OSM    C1415148   0.964   4.880   8.487 -0.6191 -0.0822  0.2893
  139OSM   H14A15149   0.899   4.867   8.573 -0.9628 -1.6522 -0.1712
  139OSM   H14B15150   0.903   4.850   8.403  0.0242 -2.7899  0.6776
  139OSM   H14C15151   0.994   4.984   8.481  1.3128 -0.6819 -1.7491
  139OSM    C1315152   1.157   4.806   8.622 -0.1170  0.1030  0.9415
  139OSM   H13A15153   1.211   4.898   8.607 -0.4008  0.1022 -0.1898
  139OSM   H13B15154   1.235   4.731   8.628 -0.3484 -0.0651  1.9390
  139OSM   H13C15155   1.100   4.813   8.713 -2.2708 -1.1584 -0.2009
  139OSM    C1215156   1.162   4.774   8.378 -0.0877  0.0505 -0.2356
  139OSM   H12A15157   1.192   4.875   8.354 -1.3412  0.3781 -0.4717
  139OSM   H12B15158   1.102   4.735   8.298 -0.1659  0.1365 -0.2187
  139OSM    C1115159   1.294   4.682   8.386  0.1020  0.3734  0.4585
  139OSM   H11A15160   1.337   4.684   8.284  1.8320  0.6512  1.1659
  139OSM   H11B15161   1.257   4.580   8.411 -0.6086  0.3184 -0.7223
  139OSM      P15162   1.488   4.844   8.467 -0.0678  0.4410  0.3733
  139OSM    O1315163   1.439   4.951   8.552  0.4977  0.1925 -0.3592
  139OSM    O1415164   1.628   4.801   8.490 -0.2987  0.4175  0.1451
  139OSM    O1115165   1.471   4.894   8.316 -0.0621  0.3129 -0.3901
  139OSM    O1215166   1.395   4.725   8.483 -0.2233 -0.5051 -0.6640
  139OSM    C1S15167   1.579   4.891   8.226 -0.3137  0.5663  0.4931
  139OSM    H1S15168   1.610   4.789   8.196  0.3911  0.7614  0.5491
  139OSM    H1T15169   1.668   4.938   8.273  0.1369 -0.3843  0.6006
  139OSM     NF15170   1.621   4.908   7.985 -0.2895  0.5797  0.1676
  139OSM    HNF15171   1.696   4.958   7.944  1.0548 -0.9903  0.6428
  139OSM    C2S15172   1.542   4.966   8.092 -0.7483  0.3464  0.0967
  139OSM    H2S15173   1.437   4.939   8.066  0.3917 -1.7207 -2.9736
  139OSM    C3S15174   1.571   5.112   8.117 -0.2313 -0.8474 -0.7568
  139OSM    H3S15175   1.679   5.140   8.121 -0.3922  0.0154 -1.9414
  139OSM     O315176   1.522   5.158   8.247 -0.1187  0.4690  0.9952
  139OSM    HO315177   1.482   5.079   8.283  0.2801  0.8349  2.3022
  139OSM    C4S15178   1.515   5.195   7.997 -0.2480 -0.0555  0.4971
  139OSM    H4S15179   1.594   5.203   7.920 -1.2987  0.9746 -0.5252
  139OSM    C5S15180   1.397   5.254   7.975  0.0026  0.1300 -0.0894
  139OSM    H5S15181   1.325   5.242   8.058 -1.3407 -0.2512 -1.2809
  139OSM    C6S15182   1.349   5.318   7.851 -0.1424  0.3485 -0.0050
  139OSM    H6S15183   1.351   5.427   7.872  0.3781  0.5084 -0.8641
  139OSM    H6T15184   1.244   5.294   7.826 -0.4065  2.6106 -1.3220
  139OSM    C7S15185   1.434   5.304   7.723 -0.1474  0.9381  0.5747
  139OSM    H7S15186   1.538   5.321   7.757  0.1251 -2.0245  1.4787
  139OSM    H7T15187   1.405   5.394   7.664 -1.7546  0.0751 -0.0095
  139OSM    C8S15188   1.407   5.174   7.646  0.7740 -0.2124  0.6517
  139OSM    H8S15189   1.297   5.166   7.643  0.8527 -1.7182  0.9294
  139OSM    H8T15190   1.455   5.094   7.705  2.7242  1.1014  0.9436
  139OSM    C9S15191   1.464   5.177   7.502  0.0810  0.1359  0.3898
  139OSM    H9S15192   1.426   5.089   7.447  0.0749  0.8300 -0.7600
  139OSM    H9T15193   1.574   5.162   7.508  0.2527 -0.6383 -2.9065
  139OSM   C10S15194   1.434   5.304   7.413  0.0490 -0.1690  0.1023
  139OSM   H10S15195   1.504   5.382   7.452 -2.3288  1.6270  0.9861
  139OSM   H10T15196   1.327   5.326   7.433  0.0731  0.7651 -0.7361
  139OSM   C11S15197   1.453   5.276   7.264  0.4122 -0.4321  0.7224
  139OSM   H11S15198   1.406   5.357   7.205  1.0688  0.5729  1.5373
  139OSM   H11T15199   1.394   5.186   7.234 -2.2810  1.3984  0.2246
  139OSM   C12S15200   1.601   5.253   7.225  0.1229  0.6644 -0.9050
  139OSM   H12S15201   1.662   5.211   7.308  0.1857 -0.9372 -1.7167
  139OSM   H12T15202   1.651   5.351   7.211  1.4753 -0.0052 -0.8601
  139OSM   C13S15203   1.626   5.162   7.104  0.2065 -0.0671 -0.0276
  139OSM   H13S15204   1.574   5.066   7.125 -0.8289  0.5379  0.2917
  139OSM   H13T15205   1.733   5.137   7.095  0.4844  0.7544  0.8046
  139OSM   C14S15206   1.568   5.219   6.979 -0.3957 -0.2422 -0.2209
  139OSM   H14S15207   1.622   5.314   6.958 -0.2330  0.4428  2.8131
  139OSM   H14T15208   1.458   5.237   6.986 -0.4289 -0.2229 -0.7384
  139OSM   C15S15209   1.588   5.128   6.857 -0.7336 -0.2445  0.5168
  139OSM   H15S15210   1.559   5.021   6.865  1.8456 -1.1598 -1.1275
  139OSM   H15T15211   1.693   5.112   6.823 -0.8864 -0.9653  0.3646
  139OSM   C16S15212   1.495   5.186   6.741 -0.1470 -0.1759 -0.3409
  139OSM   H16S15213   1.519   5.293   6.729 -0.5714 -0.1231 -0.7483
  139OSM   H16T15214   1.389   5.172   6.773  0.3192 -1.8775  0.6296
  139OSM   C17S15215   1.524   5.105   6.612  0.1609 -0.4330  0.1875
  139OSM   H17S15216   1.431   5.100   6.551 -0.0387  0.5869  0.3908
  139OSM   H17T15217   1.541   4.999   6.640  0.8788 -0.2403  0.4893
  139OSM   C18S15218   1.646   5.160   6.543  0.1881 -0.6886  0.2832
  139OSM   H18S15219   1.629   5.265   6.511 -1.4660 -0.6199  1.2381
  139OSM   H18T15220   1.660   5.096   6.454  0.0530  0.8443 -0.8874
  139OSM   H18U15221   1.729   5.151   6.616 -1.2910  0.7215  2.2881
  139OSM    C1F15222   1.611   4.786   7.930 -0.6958 -0.3039 -0.0351
  139OSM     OF15223   1.529   4.712   7.983 -0.3519 -0.1950  0.0679
  139OSM    C2F15224   1.699   4.735   7.823 -0.3131 -0.1738  0.2453
  139OSM    H2F15225   1.766   4.655   7.860 -1.6651 -0.1451  3.0128
  139OSM    H2G15226   1.763   4.815   7.779 -0.9077  0.2772  0.1672
  139OSM    C3F15227   1.622   4.692   7.700 -0.1437 -0.1875  0.5237
  139OSM    H3F15228   1.540   4.763   7.674 -0.2704 -1.1975 -2.0914
  139OSM    H3G15229   1.569   4.596   7.715  1.5382 -0.8810  2.4635
  139OSM    C4F15230   1.711   4.691   7.563  0.3757  0.2469 -0.8889
  139OSM    H4F15231   1.799   4.626   7.581  1.4842  1.8161 -0.5194
  139OSM    H4G15232   1.729   4.798   7.543 -1.2149  0.4616 -1.3626
  139OSM    C5F15233   1.625   4.649   7.449  0.5527 -0.2609  0.4198
  139OSM    H5F15234   1.540   4.718   7.433  1.1385  0.8499  1.7817
  139OSM    H5G15235   1.579   4.549   7.465  1.5964 -1.0127 -1.0407
  139OSM    C6F15236   1.706   4.621   7.319  0.5219  0.0063  0.1449
  139OSM    H6F15237   1.796   4.559   7.340 -0.2118 -0.2134  3.0840
  139OSM    H6G15238   1.741   4.718   7.281  0.3859  0.2247  0.5702
  139OSM    C7F15239   1.629   4.544   7.205 -0.4422 -0.1434  0.2355
  139OSM    H7F15240   1.537   4.596   7.171  0.5628  0.5083 -1.6311
  139OSM    H7G15241   1.598   4.443   7.239 -1.1765  0.3879  1.1826
  139OSM    C8F15242   1.708   4.542   7.072  0.9128  0.0334 -0.1682
  139OSM    H8F15243   1.668   4.458   7.011 -0.6063  1.0166 -0.5876
  139OSM    H8G15244   1.808   4.512   7.109  1.2797 -0.0714 -1.2024
  139OSM    C9F15245   1.722   4.672   6.993  0.4082  0.8170 -0.0840
  139OSM    H9F15246   1.770   4.759   7.041  1.4066  1.0028 -1.3754
  139OSM   C10F15247   1.656   4.692   6.876 -0.7365  0.7106 -0.4269
  139OSM   H10F15248   1.683   4.792   6.837  1.0431 -0.1701 -1.5457
  139OSM   C11F15249   1.576   4.600   6.790  0.7209 -0.0980 -0.0776
  139OSM   H11F15250   1.486   4.658   6.760  0.0481 -0.4495  1.1966
  139OSM   H11G15251   1.527   4.522   6.851 -0.7459 -0.3461 -1.4893
  139OSM   C12F15252   1.651   4.552   6.668 -0.3104  0.5713  0.2012
  139OSM   H12F15253   1.594   4.471   6.617  2.0354 -0.3851 -1.0277
  139OSM   H12G15254   1.751   4.511   6.691  0.3512  1.3137 -1.2237
  139OSM   C13F15255   1.688   4.654   6.564 -0.4170  0.0008 -0.0218
  139OSM   H13F15256   1.774   4.716   6.598 -1.7905  2.6863 -1.1528
  139OSM   H13G15257   1.603   4.724   6.546  0.6388  1.4813  0.4937
  139OSM   C14F15258   1.724   4.596   6.426  0.5608  0.5093  0.0867
  139OSM   H14F15259   1.637   4.537   6.391  1.5958  0.2062 -2.1633
  139OSM   H14G15260   1.795   4.510   6.433  0.4442  0.2560 -1.4767
  139OSM   C15F15261   1.769   4.700   6.319 -0.2769 -0.0006  0.6787
  139OSM   H15F15262   1.771   4.638   6.227 -2.0461 -1.0304  1.2983
  139OSM   H15G15263   1.868   4.748   6.335  0.0955 -0.9762  1.3839
  139OSM   C16F15264   1.666   4.810   6.298 -0.5705 -0.0330  0.2654
  139OSM   H16F15265   1.656   4.863   6.395 -0.3352 -0.0937  0.3229
  139OSM   H16G15266   1.574   4.756   6.268 -0.2679 -0.3893 -0.0375
  139OSM   C17F15267   1.709   4.901   6.179 -0.2002  0.0135 -0.0715
  139OSM   H17F15268   1.745   4.839   6.094  0.6807  2.7075 -1.8010
  139OSM   H17G15269   1.797   4.962   6.207 -0.0961  0.9498 -2.2244
  139OSM   C18F15270   1.596   4.989   6.125  0.3371  0.4701 -0.1863
  139OSM   H18F15271   1.541   5.038   6.208  3.1116  2.3187  0.6922
  139OSM   H18G15272   1.521   4.928   6.070  0.0154 -0.4306  1.2086
  139OSM   H18H15273   1.632   5.059   6.047 -0.1328  0.5310 -0.3545
  140OSM      N15274   6.436   1.964   8.665 -0.3364  0.3462  0.0104
  140OSM    C1515275   6.526   2.078   8.624  0.1656 -0.4321  0.0078
  140OSM   H15A15276   6.616   2.052   8.571 -0.9829 -0.7343 -1.8946
  140OSM   H15B15277   6.560   2.132   8.712 -0.2494 -0.9292  0.4810
  140OSM   H15C15278   6.479   2.143   8.552 -0.8892  1.1215  1.9873
  140OSM    C1415279   6.517   1.860   8.735  0.7758  0.6086  0.1129
  140OSM   H14A15280   6.549   1.899   8.830 -0.6272  2.5557 -0.1538
  140OSM   H14B15281   6.602   1.831   8.675  0.0545 -1.4719  0.0351
  140OSM   H14C15282   6.470   1.765   8.755  0.4688  0.3151 -1.8070
  140OSM    C1315283   6.321   2.006   8.750 -0.2028 -0.3976  0.1732
  140OSM   H13A15284   6.359   2.059   8.836 -1.4001 -0.2119  0.6007
  140OSM   H13B15285   6.271   1.916   8.781 -2.3084  0.5701 -0.2459
  140OSM   H13C15286   6.254   2.068   8.692  1.3116  0.8710 -0.2906
  140OSM    C1215287   6.398   1.900   8.529  0.0826  0.7463 -0.2793
  140OSM   H12A15288   6.349   1.803   8.528  1.7491 -0.1371 -0.7003
  140OSM   H12B15289   6.489   1.882   8.473 -0.1992 -2.6315  0.1520
  140OSM    C1115290   6.304   1.991   8.436  0.6240  0.0446 -0.0365
  140OSM   H11A15291   6.308   1.959   8.330 -1.5865 -1.9528  0.3946
  140OSM   H11B15292   6.343   2.095   8.431  1.5643 -0.3512 -1.3599
  140OSM      P15293   6.097   1.851   8.469  0.0878 -0.1247 -0.1895
  140OSM    O1315294   6.170   1.731   8.518 -0.0638 -0.4690  0.0821
  140OSM    O1415295   5.957   1.853   8.513 -0.1760  0.0733  0.0913
  140OSM    O1115296   6.096   1.840   8.319 -0.0773 -0.0314  0.2942
  140OSM    O1215297   6.170   1.983   8.492 -0.5620  0.0862  0.4974
  140OSM    C1S15298   6.015   1.914   8.225 -0.2558 -0.5115 -0.0891
  140OSM    H1S15299   5.999   2.018   8.260  2.7861  0.6066 -1.6239
  140OSM    H1T15300   5.914   1.866   8.228 -0.9306  0.8544 -0.2318
  140OSM     NF15301   5.982   2.017   8.001 -0.4008  0.2823  0.0816
  140OSM    HNF15302   5.891   1.984   7.975 -0.0254 -1.3278  0.6604
  140OSM    C2S15303   6.070   1.922   8.074 -0.1214 -0.0453 -0.3281
  140OSM    H2S15304   6.169   1.973   8.082 -0.2948  0.0627  1.6590
  140OSM    C3S15305   6.104   1.791   8.012  0.1743  0.3174 -0.7683
  140OSM    H3S15306   6.007   1.740   7.994 -0.4596  0.4212  1.8561
  140OSM     O315307   6.172   1.700   8.097 -0.2396 -0.0084 -0.7081
  140OSM    HO315308   6.169   1.742   8.183  1.3709 -1.8671  0.3219
  140OSM    C4S15309   6.156   1.813   7.872 -0.2336 -0.2655 -0.2654
  140OSM    H4S15310   6.076   1.843   7.802 -1.7154  0.0056  1.4563
  140OSM    C5S15311   6.279   1.799   7.820 -0.4671  0.2117  0.4047
  140OSM    H5S15312   6.352   1.754   7.889 -0.6681 -0.1664  0.3735
  140OSM    C6S15313   6.338   1.808   7.681  0.2201  0.1539 -0.0016
  140OSM    H6S15314   6.428   1.751   7.651 -0.2422  0.2893 -1.7939
  140OSM    H6T15315   6.361   1.916   7.668  0.9046  0.0076 -0.0624
  140OSM    C7S15316   6.239   1.776   7.566  0.4700 -0.5160  0.4161
  140OSM    H7S15317   6.155   1.849   7.571  1.2881  0.6236 -1.2633
  140OSM    H7T15318   6.198   1.673   7.575 -0.0428 -0.5931 -2.1155
  140OSM    C8S15319   6.301   1.791   7.425  0.5488 -0.3998  0.0110
  140OSM    H8S15320   6.391   1.726   7.421 -0.0563 -1.5448  2.6843
  140OSM    H8T15321   6.324   1.898   7.409 -1.1480 -0.3475 -2.6032
  140OSM    C9S15322   6.201   1.742   7.318 -0.3670 -0.3050  0.3895
  140OSM    H9S15323   6.105   1.797   7.324  0.1175  0.9938 -2.2027
  140OSM    H9T15324   6.181   1.636   7.344  0.1353 -0.4173  0.3381
  140OSM   C10S15325   6.252   1.751   7.178  0.1838 -0.2712 -0.1344
  140OSM   H10S15326   6.363   1.752   7.175  0.2513 -0.4638  1.5082
  140OSM   H10T15327   6.208   1.836   7.121  0.1360  0.4577  0.9499
  140OSM   C11S15328   6.205   1.630   7.082 -0.4771 -0.2989 -0.4347
  140OSM   H11S15329   6.094   1.627   7.087 -0.4345 -0.1731  1.2474
  140OSM   H11T15330   6.243   1.539   7.132  0.5845  0.2356 -0.2445
  140OSM   C12S15331   6.250   1.649   6.942  0.0206  0.1367  0.4180
  140OSM   H12S15332   6.361   1.646   6.937  0.0131 -1.2249  0.6889
  140OSM   H12T15333   6.210   1.745   6.904  0.6602 -0.1250 -0.9785
  140OSM   C13S15334   6.202   1.539   6.849 -0.4461 -0.0259  0.7229
  140OSM   H13S15335   6.091   1.551   6.845 -0.3846  0.6687  0.9746
  140OSM   H13T15336   6.239   1.443   6.890  2.6575  1.6828  2.2631
  140OSM   C14S15337   6.271   1.563   6.705  0.2329 -0.4589 -0.0850
  140OSM   H14S15338   6.380   1.568   6.724  0.2911 -0.5158 -0.4005
  140OSM   H14T15339   6.243   1.662   6.664  0.4643 -0.3615 -0.0078
  140OSM   C15S15340   6.248   1.439   6.614  0.1538 -0.3219  0.4468
  140OSM   H15S15341   6.138   1.430   6.606 -0.9094  4.9103  4.0549
  140OSM   H15T15342   6.295   1.344   6.650 -0.3626 -0.2443  1.3642
  140OSM   C16S15343   6.317   1.456   6.474  0.0887  0.2822 -0.6898
  140OSM   H16S15344   6.427   1.462   6.487  0.4496 -3.2473 -1.3469
  140OSM   H16T15345   6.294   1.555   6.428  1.0459  0.3737 -0.9944
  140OSM   C17S15346   6.292   1.352   6.366 -0.1096 -0.5508  0.3413
  140OSM   H17S15347   6.181   1.349   6.361 -0.2878 -1.8365  3.1106
  140OSM   H17T15348   6.329   1.255   6.405  0.5399  0.5725  2.7047
  140OSM   C18S15349   6.358   1.377   6.228 -0.1056 -0.1040 -0.4435
  140OSM   H18S15350   6.327   1.473   6.182  1.2443 -0.4901 -2.2874
  140OSM   H18T15351   6.330   1.296   6.158 -2.6066  0.3862 -0.0842
  140OSM   H18U15352   6.469   1.368   6.238 -0.0070 -0.7090 -1.8007
  140OSM    C1F15353   5.993   2.145   8.025  0.5665 -0.7674 -0.1861
  140OSM     OF15354   6.079   2.193   8.096  0.2491 -0.2652  0.2555
  140OSM    C2F15355   5.888   2.232   7.973 -0.0001  0.2633 -0.2046
  140OSM    H2F15356   5.837   2.264   8.067 -1.2682 -1.8522 -0.0910
  140OSM    H2G15357   5.824   2.161   7.916 -0.6165  0.4478  0.2425
  140OSM    C3F15358   5.933   2.343   7.881  0.1361 -0.1098 -0.1630
  140OSM    H3F15359   5.987   2.413   7.947 -1.5569 -0.1270  1.3231
  140OSM    H3G15360   5.838   2.387   7.843 -1.1350 -1.8721  0.7884
  140OSM    C4F15361   6.026   2.288   7.765  0.1902  0.0326 -0.1658
  140OSM    H4F15362   6.124   2.248   7.797  1.3880  1.1931 -2.1442
  140OSM    H4G15363   6.043   2.367   7.689  2.9961  0.5054  0.8511
  140OSM    C5F15364   5.959   2.176   7.680  0.8103  0.7023 -0.3280
  140OSM    H5F15365   5.861   2.227   7.666  0.6648  0.8317  1.0378
  140OSM    H5G15366   5.948   2.074   7.723 -1.8693  0.8633 -0.4252
  140OSM    C6F15367   6.010   2.148   7.537 -0.1551  0.3948 -0.0474
  140OSM    H6F15368   6.087   2.069   7.538 -0.7428 -0.2024 -0.7476
  140OSM    H6G15369   6.072   2.234   7.502  1.3397 -0.1400  1.1943
  140OSM    C7F15370   5.912   2.117   7.428 -0.2155  0.3923  0.3555
  140OSM    H7F15371   5.820   2.177   7.442 -1.7474 -0.9158 -3.0724
  140OSM    H7G15372   5.882   2.011   7.444  0.5795  0.1023 -0.0122
  140OSM    C8F15373   5.982   2.144   7.297  0.1286  0.9867 -0.3666
  140OSM    H8F15374   6.061   2.069   7.277 -0.1606  0.1157  1.5030
  140OSM    H8G15375   6.033   2.243   7.302  0.0629  1.0036  0.0445
  140OSM    C9F15376   5.891   2.161   7.175  0.5016 -0.4834  0.7961
  140OSM    H9F15377   5.849   2.263   7.169  1.4839 -0.1352 -0.8567
  140OSM   C10F15378   5.847   2.070   7.087 -0.4399  1.0352  0.4573
  140OSM   H10F15379   5.791   2.089   6.994 -0.7763 -1.1672  0.1352
  140OSM   C11F15380   5.894   1.923   7.093  0.4713 -0.0071  0.2316
  140OSM   H11F15381   5.797   1.875   7.120 -1.4680  3.1046 -0.6076
  140OSM   H11G15382   5.974   1.913   7.169  0.9918 -1.5769 -0.4855
  140OSM   C12F15383   5.960   1.873   6.969  0.8935  0.4142  0.0621
  140OSM   H12F15384   6.011   1.780   7.000 -0.4996  0.1411  1.6907
  140OSM   H12G15385   6.028   1.951   6.928  0.2165  1.1619  0.3124
  140OSM   C13F15386   5.860   1.846   6.855  0.1160 -0.3457 -0.2816
  140OSM   H13F15387   5.768   1.810   6.908 -0.1703  0.4158 -0.2569
  140OSM   H13G15388   5.889   1.756   6.796 -0.2826 -2.2218  2.1841
  140OSM   C14F15389   5.824   1.962   6.764  0.4429  0.0058 -0.3813
  140OSM   H14F15390   5.922   2.008   6.738  1.1184 -1.7624 -1.1486
  140OSM   H14G15391   5.759   2.034   6.816  0.3942  1.5228 -2.4079
  140OSM   C15F15392   5.752   1.911   6.641  0.5311  0.2661  0.3031
  140OSM   H15F15393   5.677   1.836   6.674  0.7528  0.1174  0.4690
  140OSM   H15G15394   5.823   1.865   6.568 -0.9707  0.5271 -1.3790
  140OSM   C16F15395   5.689   2.035   6.561  0.5705 -0.1016 -0.5046
  140OSM   H16F15396   5.766   2.114   6.564  1.6308 -1.1169 -0.1225
  140OSM   H16G15397   5.591   2.065   6.604  0.3947 -0.5728 -0.5648
  140OSM   C17F15398   5.667   2.010   6.413  0.4935 -0.2190 -0.1043
  140OSM   H17F15399   5.573   1.953   6.399 -1.0682  2.0981  0.3272
  140OSM   H17G15400   5.756   1.958   6.371 -0.3120 -1.7984  0.1078
  140OSM   C18F15401   5.635   2.148   6.348  0.1445  0.1998 -0.2799
  140OSM   H18F15402   5.726   2.211   6.346 -1.3995  2.6434  1.2931
  140OSM   H18G15403   5.556   2.192   6.413  0.7521 -0.6125  1.0502
  140OSM   H18H15404   5.600   2.129   6.244  2.7620 -2.8079 -0.7750
  141OSM      N15405   3.242   0.554   8.346 -0.3993 -0.7274 -0.2827
  141OSM    C1515406   3.103   0.598   8.385 -0.2260 -0.1426  0.3819
  141OSM   H15A15407   3.031   0.581   8.306 -0.7411  0.0843  0.7986
  141OSM   H15B15408   3.092   0.701   8.414 -0.3913 -0.0974  0.1636
  141OSM   H15C15409   3.077   0.551   8.479 -0.4099  0.4901  0.6504
  141OSM    C1415410   3.321   0.606   8.464 -0.2726 -0.2868  0.5872
  141OSM   H14A15411   3.421   0.566   8.460 -0.5456 -0.9278 -1.9378
  141OSM   H14B15412   3.300   0.563   8.560  1.2991 -1.5092  0.4224
  141OSM   H14C15413   3.324   0.714   8.469  1.4728 -0.0597 -2.6073
  141OSM    C1315414   3.253   0.406   8.338 -0.2583 -0.7570 -0.4395
  141OSM   H13A15415   3.244   0.351   8.431  1.2460 -2.1916 -1.0816
  141OSM   H13B15416   3.352   0.374   8.309 -0.9378 -1.1250 -2.5285
  141OSM   H13C15417   3.174   0.366   8.276 -0.9486 -0.1635  0.0396
  141OSM    C1215418   3.284   0.621   8.217  1.1382  0.3801  0.4890
  141OSM   H12A15419   3.296   0.728   8.230  0.2255  0.3862  1.4713
  141OSM   H12B15420   3.212   0.601   8.140 -1.4816  1.8009  2.4183
  141OSM    C1115421   3.417   0.581   8.155  0.1045  0.0130  0.1478
  141OSM   H11A15422   3.427   0.626   8.054 -0.1984  0.4604  0.3102
  141OSM   H11B15423   3.415   0.472   8.136  0.9126  0.1443 -0.7871
  141OSM      P15424   3.565   0.769   8.255 -0.1351 -0.1376 -0.0813
  141OSM    O1315425   3.443   0.850   8.271  0.5765  0.3644  0.2158
  141OSM    O1415426   3.669   0.781   8.363  1.2035 -0.1426  0.0015
  141OSM    O1115427   3.633   0.820   8.121 -0.2477  0.3854 -0.1665
  141OSM    O1215428   3.530   0.621   8.237  0.1840  1.0078 -0.2550
  141OSM    C1S15429   3.720   0.754   8.031  0.5245  0.2537  0.2461
  141OSM    H1S15430   3.668   0.661   8.002 -1.5571  1.2916  0.4591
  141OSM    H1T15431   3.816   0.741   8.086  1.2822 -0.9209 -1.2848
  141OSM     NF15432   3.817   0.748   7.808 -0.1582 -0.2216 -0.6590
  141OSM    HNF15433   3.915   0.756   7.794 -0.2694  3.1932 -0.2606
  141OSM    C2S15434   3.742   0.837   7.901 -0.1825 -0.5508  0.1842
  141OSM    H2S15435   3.640   0.864   7.866  0.3375  3.2837  1.1079
  141OSM    C3S15436   3.801   0.978   7.936 -0.4601  0.8309 -1.1080
  141OSM    H3S15437   3.895   0.962   7.993 -0.3805  2.7098 -0.6353
  141OSM     O315438   3.718   1.044   8.030 -0.3958 -0.4945  0.1820
  141OSM    HO315439   3.666   0.977   8.076  0.4677 -1.6090 -0.4010
  141OSM    C4S15440   3.814   1.063   7.809  0.4614 -0.4799 -0.1297
  141OSM    H4S15441   3.731   1.068   7.737 -1.6778 -1.3709  2.1565
  141OSM    C5S15442   3.919   1.141   7.781  0.2423 -0.2246  0.4010
  141OSM    H5S15443   4.002   1.134   7.852  0.6583  1.4808  0.1104
  141OSM    C6S15444   3.922   1.223   7.656  0.5299 -1.0572  0.3085
  141OSM    H6S15445   4.009   1.292   7.660  0.1058 -0.5832  2.0833
  141OSM    H6T15446   3.827   1.280   7.651  0.6765 -0.7890  0.5195
  141OSM    C7S15447   3.944   1.116   7.544 -0.4654  0.3236  0.0725
  141OSM    H7S15448   3.861   1.042   7.540  0.5607 -1.0274  1.9732
  141OSM    H7T15449   4.043   1.067   7.557 -0.0234  0.8675 -1.0996
  141OSM    C8S15450   3.960   1.170   7.404  0.2702  0.5179  0.3605
  141OSM    H8S15451   4.052   1.232   7.409  0.7119  0.0366 -1.1322
  141OSM    H8T15452   3.865   1.219   7.374  0.2363 -0.5856 -1.5612
  141OSM    C9S15453   3.988   1.058   7.299  0.8106 -0.1939  0.0354
  141OSM    H9S15454   3.917   0.974   7.315  0.4623  0.3195  1.3322
  141OSM    H9T15455   4.089   1.015   7.321  1.6969  2.4764  1.6424
  141OSM   C10S15456   4.002   1.098   7.151  0.4630  0.5403 -0.1860
  141OSM   H10S15457   3.902   1.125   7.110  0.3507 -0.7030 -0.7827
  141OSM   H10T15458   4.028   1.005   7.096  0.7622  1.1702 -1.1381
  141OSM   C11S15459   4.094   1.213   7.120  0.1319  0.3751 -0.0437
  141OSM   H11S15460   4.189   1.186   7.172 -0.8592  0.3978  1.8946
  141OSM   H11T15461   4.062   1.301   7.180 -1.5969 -0.6382  0.5845
  141OSM   C12S15462   4.108   1.260   6.975 -0.4241 -0.0087  0.1279
  141OSM   H12S15463   4.193   1.331   6.964  0.4719 -0.9967  0.5666
  141OSM   H12T15464   4.012   1.316   6.964 -0.2294  0.5563  1.2394
  141OSM   C13S15465   4.140   1.156   6.869 -0.4868  0.1779  0.6107
  141OSM   H13S15466   4.130   1.208   6.771  0.3650  0.2862  0.5757
  141OSM   H13T15467   4.066   1.073   6.868  0.9403 -1.1418  1.5778
  141OSM   C14S15468   4.276   1.092   6.889 -0.0174  0.5088 -0.1617
  141OSM   H14S15469   4.274   1.050   6.991  0.8385  1.6199  0.3306
  141OSM   H14T15470   4.352   1.172   6.877  1.4467 -0.5708  1.5302
  141OSM   C15S15471   4.298   0.976   6.794 -0.1418 -0.1306 -0.3891
  141OSM   H15S15472   4.213   0.905   6.788  0.4739 -0.9429  0.1940
  141OSM   H15T15473   4.386   0.915   6.825 -1.3621 -2.6488 -1.6271
  141OSM   C16S15474   4.340   1.018   6.651 -0.4579  0.2224  0.3926
  141OSM   H16S15475   4.443   1.060   6.657  0.5705 -2.2037  0.9829
  141OSM   H16T15476   4.284   1.111   6.628 -1.0485  0.6883  3.3256
  141OSM   C17S15477   4.334   0.902   6.546  0.5813 -0.0224 -0.3541
  141OSM   H17S15478   4.226   0.876   6.537  0.6592 -1.3742  1.9022
  141OSM   H17T15479   4.394   0.810   6.565  1.8964  1.1554  1.5480
  141OSM   C18S15480   4.388   0.937   6.411 -0.8463 -0.0087  0.8789
  141OSM   H18S15481   4.380   0.848   6.345  0.7486  0.7353 -0.4048
  141OSM   H18T15482   4.494   0.970   6.413 -0.3541 -1.4564  0.2736
  141OSM   H18U15483   4.327   1.015   6.361 -0.4456 -0.7949 -0.9207
  141OSM    C1F15484   3.766   0.643   7.740  0.4476 -0.3468  0.5155
  141OSM     OF15485   3.651   0.609   7.743  0.8564 -0.2434  0.1874
  141OSM    C2F15486   3.875   0.567   7.664  0.4256 -0.3330 -0.4300
  141OSM    H2F15487   3.947   0.519   7.734  0.3643 -0.6414 -0.5748
  141OSM    H2G15488   3.926   0.644   7.603 -0.0816 -0.4680 -1.0399
  141OSM    C3F15489   3.814   0.458   7.574  0.6263 -0.4375  0.2433
  141OSM    H3F15490   3.730   0.501   7.516  0.4587  1.2026  1.6358
  141OSM    H3G15491   3.779   0.374   7.637 -0.7004  0.1646  0.3263
  141OSM    C4F15492   3.923   0.396   7.476  0.5330 -0.6274 -0.6641
  141OSM    H4F15493   3.982   0.326   7.539 -0.6199  0.2513  1.5020
  141OSM    H4G15494   3.981   0.481   7.434  1.4860 -1.3155 -0.7541
  141OSM    C5F15495   3.864   0.330   7.354 -0.5624 -0.7559  0.1086
  141OSM    H5F15496   3.783   0.396   7.317  2.0910  2.6809 -0.0920
  141OSM    H5G15497   3.832   0.227   7.379 -2.2500 -0.5549 -1.0890
  141OSM    C6F15498   3.954   0.304   7.235 -0.3062 -0.2384 -0.4935
  141OSM    H6F15499   4.034   0.232   7.262 -0.0124  0.6797  1.1882
  141OSM    H6G15500   3.997   0.406   7.226 -1.0155  0.1824  0.7123
  141OSM    C7F15501   3.886   0.267   7.100  0.3186 -0.4321 -0.1591
  141OSM    H7F15502   3.933   0.329   7.021 -1.4194  3.6778  1.7683
  141OSM    H7G15503   3.786   0.316   7.105 -0.0627 -1.0874 -1.0928
  141OSM    C8F15504   3.862   0.116   7.083 -0.1645 -0.3655 -0.0469
  141OSM    H8F15505   3.794   0.083   7.164  1.6557 -1.7497  1.0015
  141OSM    H8G15506   3.963   0.070   7.078  0.7314  1.5820 -1.5820
  141OSM    C9F15507   3.790   0.097   6.953 -0.5608  0.6538  0.1327
  141OSM    H9F15508   3.681   0.105   6.965 -1.0827 -4.3018  0.8306
  141OSM   C10F15509   3.831   0.091   6.824 -0.4797  0.0632 -0.7980
  141OSM   H10F15510   3.762   0.086   6.739  0.2482  0.9408 -1.4623
  141OSM   C11F15511   3.975   0.084   6.793  0.8290  0.0677 -0.2186
  141OSM   H11F15512   4.039   0.083   6.883 -0.2375 -0.5733  0.5532
  141OSM   H11G15513   4.000   0.174   6.733 -0.2234  0.9430  0.6127
  141OSM   C12F15514   4.007  -0.040   6.702  0.2845 -0.9672  0.0895
  141OSM   H12F15515   3.984  -0.119   6.777 -1.6787  0.1035  0.6983
  141OSM   H12G15516   4.116  -0.024   6.686  0.4583 -0.6682  1.3913
  141OSM   C13F15517   3.926  -0.050   6.568  0.1934 -0.5819 -0.2918
  141OSM   H13F15518   3.911   0.048   6.519  0.0634  1.0455  2.7830
  141OSM   H13G15519   3.822  -0.075   6.596 -1.0206  3.2230 -0.9027
  141OSM   C14F15520   3.970  -0.162   6.472 -0.5645  0.5087 -0.0577
  141OSM   H14F15521   3.879  -0.215   6.437  0.7417 -0.1304 -2.7520
  141OSM   H14G15522   4.031  -0.220   6.544 -0.5239  0.6339  0.0096
  141OSM   C15F15523   4.029  -0.119   6.338 -0.5434  0.2826  0.1346
  141OSM   H15F15524   3.955  -0.051   6.291 -0.5898 -1.0968 -1.9390
  141OSM   H15G15525   4.043  -0.208   6.273 -0.6823 -0.2468  0.8087
  141OSM   C16F15526   4.169  -0.041   6.332 -0.2638 -0.0256 -0.3877
  141OSM   H16F15527   4.162   0.044   6.403  1.3346  2.3558 -2.8991
  141OSM   H16G15528   4.176  -0.001   6.228 -0.1073  0.0607 -0.3436
  141OSM   C17F15529   4.278  -0.144   6.368  0.2449 -0.6382 -0.4456
  141OSM   H17F15530   4.272  -0.223   6.290 -1.2533  0.4920 -1.4985
  141OSM   H17G15531   4.256  -0.185   6.469 -2.5859  0.8977 -0.3514
  141OSM   C18F15532   4.415  -0.079   6.380 -1.2296  0.2946 -0.4006
  141OSM   H18F15533   4.416   0.011   6.446  0.7816  1.2585 -1.6456
  141OSM   H18G15534   4.445  -0.040   6.280 -0.5545  0.3214 -0.1945
  141OSM   H18H15535   4.494  -0.153   6.405 -2.2928 -1.1235 -1.1534
  142OSM      N15536   4.240   2.796   8.682 -0.2972 -0.3290  0.0845
  142OSM    C1515537   4.293   2.901   8.772 -0.0613 -0.3425  0.7719
  142OSM   H15A15538   4.379   2.853   8.817 -1.3395 -2.9606  0.6401
  142OSM   H15B15539   4.226   2.923   8.853 -3.3505 -1.1642 -1.5297
  142OSM   H15C15540   4.331   2.993   8.730  2.1322 -1.4530  0.1591
  142OSM    C1415541   4.245   2.671   8.763  0.9184 -0.2006  0.0684
  142OSM   H14A15542   4.345   2.650   8.796  1.0577  0.9666  0.4415
  142OSM   H14B15543   4.213   2.587   8.703 -3.5119  1.5295 -0.4144
  142OSM   H14C15544   4.167   2.672   8.838  0.1247 -2.3000 -0.6470
  142OSM    C1315545   4.109   2.836   8.628 -0.4483 -0.0267  0.0053
  142OSM   H13A15546   4.123   2.928   8.574  1.7786 -1.3086 -1.7995
  142OSM   H13B15547   4.036   2.843   8.707 -1.0652  0.5610 -0.6004
  142OSM   H13C15548   4.075   2.777   8.545 -3.6930  2.9534 -1.0246
  142OSM    C1215549   4.331   2.771   8.559  0.2299  0.3530  0.4288
  142OSM   H12A15550   4.431   2.751   8.594  2.4213  3.5841 -3.2177
  142OSM   H12B15551   4.349   2.862   8.505  1.3872  0.5407  1.1132
  142OSM    C1115552   4.287   2.663   8.456 -0.0638  0.4770  0.1512
  142OSM   H11A15553   4.349   2.684   8.366 -0.3941  2.1426  0.2868
  142OSM   H11B15554   4.185   2.676   8.413  0.5264  0.8814 -1.1767
  142OSM      P15555   4.458   2.461   8.504 -0.5369 -0.1567 -0.3866
  142OSM    O1315556   4.540   2.545   8.600 -0.4444  0.1748  0.5121
  142OSM    O1415557   4.448   2.320   8.529 -0.2469 -0.1799  0.1918
  142OSM    O1115558   4.513   2.474   8.354 -0.4606 -0.8816  0.3955
  142OSM    O1215559   4.308   2.529   8.501  0.3493  0.1466  0.0124
  142OSM    C1S15560   4.432   2.421   8.246 -0.8843 -0.2576 -0.2513
  142OSM    H1S15561   4.348   2.486   8.215  0.6945  1.3265 -1.3971
  142OSM    H1T15562   4.395   2.319   8.272 -1.5839  0.0809  0.1114
  142OSM     NF15563   4.445   2.399   8.000 -0.3683 -0.3856 -0.5904
  142OSM    HNF15564   4.438   2.303   7.973 -3.0418 -1.3607  2.7968
  142OSM    C2S15565   4.526   2.421   8.120  0.4533 -0.5238  0.0597
  142OSM    H2S15566   4.568   2.524   8.111  0.5926 -0.6785 -1.2481
  142OSM    C3S15567   4.641   2.323   8.145  0.1982 -0.3939  0.1490
  142OSM    H3S15568   4.601   2.220   8.154 -0.1620 -0.4385 -1.6205
  142OSM     O315569   4.723   2.357   8.254 -0.2949 -0.0026 -0.4256
  142OSM    HO315570   4.671   2.425   8.297 -0.2477 -1.3739  1.9725
  142OSM    C4S15571   4.732   2.331   8.021 -0.4729  0.7458 -0.1305
  142OSM    H4S15572   4.805   2.410   8.043  0.1306  0.6097 -1.5673
  142OSM    C5S15573   4.731   2.247   7.917 -0.0845 -0.0706 -0.0479
  142OSM    H5S15574   4.650   2.173   7.913 -1.2059  1.1736 -2.0597
  142OSM    C6S15575   4.834   2.242   7.807 -0.3252 -0.4560  0.1782
  142OSM    H6S15576   4.891   2.146   7.817 -1.8523 -1.4698 -0.4831
  142OSM    H6T15577   4.917   2.315   7.822 -0.6294 -0.0043 -0.3399
  142OSM    C7S15578   4.788   2.254   7.655  0.1505  0.1101 -0.0614
  142OSM    H7S15579   4.720   2.341   7.651 -0.3546 -0.3281 -2.0925
  142OSM    H7T15580   4.713   2.174   7.636  0.8552 -0.5090 -0.2565
  142OSM    C8S15581   4.904   2.263   7.550  0.2799  0.0279 -0.0156
  142OSM    H8S15582   4.993   2.312   7.595  1.2510  0.4764 -2.3211
  142OSM    H8T15583   4.882   2.331   7.466  1.0939  0.1125 -0.1640
  142OSM    C9S15584   4.947   2.127   7.504 -0.1618  0.4093  0.4033
  142OSM    H9S15585   4.850   2.075   7.488  1.4670 -2.3728 -1.1974
  142OSM    H9T15586   4.996   2.079   7.592 -2.4729 -1.6773  0.6815
  142OSM   C10S15587   5.019   2.140   7.370 -0.0633 -0.2716 -0.4802
  142OSM   H10S15588   5.082   2.053   7.341  2.3196  0.9561  0.6980
  142OSM   H10T15589   5.078   2.233   7.378 -3.1046  1.6411  2.5746
  142OSM   C11S15590   4.914   2.171   7.262  0.0531  1.0883  0.4949
  142OSM   H11S15591   4.854   2.260   7.290 -1.3740  1.0497 -2.0808
  142OSM   H11T15592   4.850   2.082   7.243  1.0357  0.7736 -1.6687
  142OSM   C12S15593   4.980   2.222   7.131 -0.0184 -0.2842  0.4252
  142OSM   H12S15594   5.057   2.145   7.109  1.0655  0.8356  0.1718
  142OSM   H12T15595   5.023   2.324   7.140  1.7775 -0.8834 -0.8960
  142OSM   C13S15596   4.887   2.233   7.009  0.7132 -0.2660  0.6953
  142OSM   H13S15597   4.807   2.304   7.039  0.0362 -1.3036  1.4392
  142OSM   H13T15598   4.841   2.135   6.983  3.1530 -1.4179  0.4440
  142OSM   C14S15599   4.957   2.295   6.889  0.2931  0.2419  0.3676
  142OSM   H14S15600   5.033   2.230   6.841  0.2978  2.1452 -2.4821
  142OSM   H14T15601   5.001   2.393   6.917  1.6933 -0.0425 -0.7249
  142OSM   C15S15602   4.859   2.320   6.770  0.4374  0.3518 -0.4677
  142OSM   H15S15603   4.773   2.378   6.809  1.3062  1.9933 -0.9116
  142OSM   H15T15604   4.823   2.224   6.727  0.5363  1.0383 -2.1546
  142OSM   C16S15605   4.937   2.385   6.663  0.1875 -0.4271  0.4981
  142OSM   H16S15606   5.024   2.320   6.642 -0.3851 -1.0144 -0.1224
  142OSM   H16T15607   4.966   2.485   6.700 -2.9152  0.6030  0.4439
  142OSM   C17S15608   4.850   2.420   6.533  0.5262  0.3662  0.1313
  142OSM   H17S15609   4.772   2.491   6.569  1.3489  1.1134  0.4729
  142OSM   H17T15610   4.789   2.335   6.495  0.7732  0.4352 -0.4236
  142OSM   C18S15611   4.934   2.482   6.429  0.8297 -0.5765  0.1235
  142OSM   H18S15612   4.891   2.501   6.328  2.9202  0.4822 -0.6249
  142OSM   H18T15613   5.020   2.420   6.397  1.0770  0.5454 -1.5280
  142OSM   H18U15614   4.973   2.581   6.461  1.0765 -0.6055 -0.0841
  142OSM    C1F15615   4.354   2.491   7.955 -0.3894  0.4942  0.0693
  142OSM     OF15616   4.344   2.599   8.017  0.6603  0.3571 -0.3063
  142OSM    C2F15617   4.279   2.467   7.832 -0.4444  0.2694  0.2660
  142OSM    H2F15618   4.270   2.559   7.771 -1.8228 -0.4866 -0.7230
  142OSM    H2G15619   4.173   2.443   7.854 -1.1861  0.8080 -2.3555
  142OSM    C3F15620   4.323   2.360   7.741  0.6865 -0.1824  0.0980
  142OSM    H3F15621   4.343   2.258   7.780  0.9685  0.1873  0.9403
  142OSM    H3G15622   4.418   2.377   7.686 -0.6258  0.7353 -2.0603
  142OSM    C4F15623   4.223   2.334   7.627  0.1424 -0.6884  0.1233
  142OSM    H4F15624   4.188   2.432   7.587  1.9130  0.6202  1.5975
  142OSM    H4G15625   4.132   2.286   7.669 -1.0098  0.0281 -1.4423
  142OSM    C5F15626   4.278   2.239   7.509  0.2361 -0.0824 -0.2002
  142OSM    H5F15627   4.307   2.138   7.544 -1.9788 -1.2252 -1.4573
  142OSM    H5G15628   4.370   2.290   7.474 -0.5146  0.8622 -0.8614
  142OSM    C6F15629   4.186   2.236   7.388  0.4513 -0.1131  0.5568
  142OSM    H6F15630   4.245   2.211   7.297  0.2202 -1.7622  0.8198
  142OSM    H6G15631   4.140   2.334   7.365  0.6821 -0.2504 -0.5543
  142OSM    C7F15632   4.083   2.125   7.394  0.2201  0.5062 -0.6298
  142OSM    H7F15633   4.021   2.149   7.483 -0.0927 -2.2675 -0.0037
  142OSM    H7G15634   4.138   2.032   7.421  1.9741  1.8037  0.5135
  142OSM    C8F15635   3.994   2.113   7.272  0.4132  0.7136 -0.0205
  142OSM    H8F15636   3.920   2.032   7.285 -0.0937  1.5953  3.3666
  142OSM    H8G15637   4.064   2.064   7.200 -0.3901  0.0166 -0.3368
  142OSM    C9F15638   3.917   2.222   7.215  0.1937  0.0413  0.2282
  142OSM    H9F15639   3.839   2.257   7.285  0.9730 -0.1760  1.2205
  142OSM   C10F15640   3.908   2.273   7.088  0.0216  0.1584 -0.9709
  142OSM   H10F15641   3.839   2.355   7.067 -1.1110 -0.7609 -0.9144
  142OSM   C11F15642   3.983   2.221   6.964 -0.7477 -0.0231  1.3731
  142OSM   H11F15643   4.034   2.124   6.983  0.0133  0.1883  0.5238
  142OSM   H11G15644   4.061   2.295   6.938  1.2305 -2.0842  1.1941
  142OSM   C12F15645   3.889   2.191   6.845 -0.2721  0.4104  1.2462
  142OSM   H12F15646   3.850   2.282   6.796  1.7907  0.8815  0.3425
  142OSM   H12G15647   3.809   2.116   6.863  0.8795 -1.6206 -1.4348
  142OSM   C13F15648   3.965   2.136   6.719  0.2401  0.0652  0.3535
  142OSM   H13F15649   3.915   2.043   6.686 -3.3805  0.8326  2.9794
  142OSM   H13G15650   4.067   2.117   6.758  1.3362  4.2621  0.0157
  142OSM   C14F15651   3.966   2.238   6.608 -0.5051 -0.0426  0.5261
  142OSM   H14F15652   4.008   2.330   6.653 -2.8543  0.8976  0.9891
  142OSM   H14G15653   3.866   2.263   6.565  1.3138  3.8975 -2.0152
  142OSM   C15F15654   4.038   2.193   6.481 -0.0600 -0.6301 -0.2271
  142OSM   H15F15655   3.963   2.126   6.433 -0.6804 -1.0904  1.3143
  142OSM   H15G15656   4.125   2.131   6.507  2.2594  2.4302 -0.0936
  142OSM   C16F15657   4.071   2.299   6.379  0.6745  0.2890 -0.1160
  142OSM   H16F15658   4.135   2.377   6.426  1.2017 -1.0372  1.4760
  142OSM   H16G15659   3.987   2.365   6.349 -0.5191 -0.6171  1.1115
  142OSM   C17F15660   4.142   2.245   6.254 -0.7423 -0.2651  1.3084
  142OSM   H17F15661   4.080   2.172   6.199  2.1018 -1.3251 -0.7256
  142OSM   H17G15662   4.231   2.187   6.284 -0.8472 -1.0189  0.2061
  142OSM   C18F15663   4.206   2.348   6.157 -0.2492 -0.1312 -0.0384
  142OSM   H18F15664   4.257   2.422   6.222  0.8927 -1.0034  0.1059
  142OSM   H18G15665   4.123   2.393   6.100 -0.9337 -0.5119  0.6286
  142OSM   H18H15666   4.280   2.302   6.088 -0.9395  1.2113 -1.7213
  143OSM      N15667   1.308   3.273   8.438 -0.2031 -0.0791 -0.0445
  143OSM    C1515668   1.272   3.415   8.489  0.1979 -0.1483  0.4656
  143OSM   H15A15669   1.176   3.439   8.447 -0.3195  1.2612  2.3163
  143OSM   H15B15670   1.351   3.488   8.474 -0.3637  0.6593  1.3212
  143OSM   H15C15671   1.254   3.411   8.596  0.2490  2.8827  0.6823
  143OSM    C1415672   1.320   3.291   8.294 -0.9033  0.2957  0.2254
  143OSM   H14A15673   1.359   3.380   8.249  0.9207 -2.7902 -5.1869
  143OSM   H14B15674   1.233   3.252   8.243 -0.2105  0.3766 -1.0398
  143OSM   H14C15675   1.395   3.221   8.260  0.3247  0.7686  1.8112
  143OSM    C1315676   1.435   3.233   8.503  0.7395 -0.5469 -0.1032
  143OSM   H13A15677   1.482   3.147   8.458 -0.8866 -1.7615  0.4138
  143OSM   H13B15678   1.418   3.204   8.606  0.9355 -1.7204 -0.3820
  143OSM   H13C15679   1.500   3.316   8.484  0.6599 -1.2750 -4.9254
  143OSM    C1215680   1.197   3.169   8.465 -0.7299  0.1962 -0.3895
  143OSM   H12A15681   1.184   3.172   8.572  0.9623 -0.2753 -0.1347
  143OSM   H12B15682   1.240   3.071   8.448 -1.9349 -0.7696  1.6868
  143OSM    C1115683   1.054   3.183   8.401 -0.2186 -0.1903 -0.0532
  143OSM   H11A15684   0.994   3.096   8.434 -0.0754 -0.3069 -0.0981
  143OSM   H11B15685   1.061   3.194   8.290  0.3637 -0.8207 -0.0817
  143OSM      P15686   0.837   3.305   8.449 -0.2819  0.0625  0.4102
  143OSM    O1315687   0.786   3.196   8.532  0.4777 -0.9614 -0.1074
  143OSM    O1415688   0.782   3.444   8.468  0.0675 -0.3864 -0.4193
  143OSM    O1115689   0.819   3.257   8.298 -0.2049  0.1912 -0.3390
  143OSM    O1215690   0.995   3.308   8.443 -0.3315 -0.0017 -0.5557
  143OSM    C1S15691   0.826   3.348   8.186 -0.3148  0.4428  0.4527
  143OSM    H1S15692   0.931   3.349   8.150  0.0598  0.6877  1.5359
  143OSM    H1T15693   0.788   3.449   8.215  2.3446  0.7201  3.5253
  143OSM     NF15694   0.789   3.353   7.936  0.0501 -0.2746  0.2737
  143OSM    HNF15695   0.728   3.418   7.892 -0.0625 -2.2077 -2.7497
  143OSM    C2S15696   0.735   3.301   8.063 -0.4505 -0.2115  0.8020
  143OSM    H2S15697   0.742   3.191   8.046 -3.0790 -0.1717 -1.0849
  143OSM    C3S15698   0.591   3.344   8.086 -0.1943 -0.5037  0.1669
  143OSM    H3S15699   0.578   3.453   8.098  2.0023 -0.3851  2.0676
  143OSM     O315700   0.550   3.292   8.215  0.1124  0.5239  0.1967
  143OSM    HO315701   0.633   3.265   8.256  1.2563  3.0231 -0.2834
  143OSM    C4S15702   0.515   3.273   7.979  0.7675  0.1744  0.3638
  143OSM    H4S15703   0.522   3.163   7.981  1.1494  0.1835 -0.2689
  143OSM    C5S15704   0.461   3.346   7.874  0.1265  0.0396 -0.7176
  143OSM    H5S15705   0.466   3.455   7.887  1.7204  0.2071 -2.3318
  143OSM    C6S15706   0.382   3.298   7.757  0.0937  0.5150 -0.0311
  143OSM    H6S15707   0.282   3.346   7.745 -0.7504 -0.7953  1.3852
  143OSM    H6T15708   0.367   3.189   7.776  1.7304  0.7197  3.1689
  143OSM    C7S15709   0.452   3.327   7.624 -0.0355 -0.7775  0.2113
  143OSM    H7S15710   0.550   3.273   7.621 -1.1695 -3.0096  0.9573
  143OSM    H7T15711   0.473   3.435   7.607  1.2540 -1.4093 -3.0298
  143OSM    C8S15712   0.388   3.263   7.502  0.1370  0.1668  0.2729
  143OSM    H8S15713   0.407   3.155   7.513  2.5441  0.5601  0.4504
  143OSM    H8T15714   0.448   3.302   7.417  1.5679  1.8825  1.9771
  143OSM    C9S15715   0.238   3.294   7.467 -0.8408 -1.0402 -0.2942
  143OSM    H9S15716   0.226   3.405   7.461  1.3995 -0.7925 -1.0970
  143OSM    H9T15717   0.169   3.275   7.551  0.4421 -0.4644  0.9381
  143OSM   C10S15718   0.191   3.225   7.345  0.8672  0.2481  0.2622
  143OSM   H10S15719   0.100   3.167   7.372  1.9699 -1.1092  1.1694
  143OSM   H10T15720   0.265   3.150   7.313 -0.4214 -0.8644 -0.2124
  143OSM   C11S15721   0.171   3.309   7.218  0.1612  0.1903  0.3699
  143OSM   H11S15722   0.249   3.386   7.201 -0.2106  0.3418 -0.7219
  143OSM   H11T15723   0.073   3.360   7.213 -0.9131 -1.6642  1.1504
  143OSM   C12S15724   0.173   3.216   7.089  0.9040 -0.0393  0.1653
  143OSM   H12S15725   0.108   3.131   7.120 -0.4338  0.7012 -0.5785
  143OSM   H12T15726   0.272   3.166   7.079 -0.3274 -2.4521 -0.7775
  143OSM   C13S15727   0.125   3.281   6.957 -0.1485 -0.2067 -0.2117
  143OSM   H13S15728   0.208   3.337   6.910 -0.5416  0.8471  0.3081
  143OSM   H13T15729   0.038   3.342   6.991 -1.3744 -0.7191 -2.2531
  143OSM   C14S15730   0.064   3.179   6.863  0.3666  0.0428 -0.6847
  143OSM   H14S15731  -0.025   3.128   6.905 -0.4841  2.3098  0.4635
  143OSM   H14T15732   0.142   3.106   6.835  1.0795  0.4146  0.2949
  143OSM   C15S15733   0.024   3.255   6.739 -0.5357 -0.0558  0.2706
  143OSM   H15S15734   0.119   3.289   6.694  0.7922 -0.2564  2.7373
  143OSM   H15T15735  -0.022   3.350   6.772  2.1606  1.1543  0.8318
  143OSM   C16S15736  -0.051   3.167   6.641 -0.7933 -0.5094 -0.5446
  143OSM   H16S15737  -0.158   3.152   6.667 -0.3491 -0.2340  1.6200
  143OSM   H16T15738   0.005   3.072   6.634  1.6895  0.7040  1.1768
  143OSM   C17S15739  -0.045   3.220   6.494 -0.5362 -0.0483  0.1710
  143OSM   H17S15740   0.056   3.246   6.456 -0.3536  1.4082  1.5795
  143OSM   H17T15741  -0.095   3.319   6.494  0.9553  0.7899 -1.8814
  143OSM   C18S15742  -0.116   3.127   6.404 -0.3308  0.4881  0.1594
  143OSM   H18S15743  -0.048   3.042   6.384 -1.0278 -0.4634  1.6688
  143OSM   H18T15744  -0.129   3.184   6.309  1.2589  2.6411  1.1296
  143OSM   H18U15745  -0.216   3.090   6.435 -0.6085  0.9457 -0.1813
  143OSM    C1F15746   0.907   3.328   7.886  0.4503 -0.0295 -0.6321
  143OSM     OF15747   0.996   3.265   7.944 -0.8366 -1.0081 -0.0325
  143OSM    C2F15748   0.938   3.385   7.750 -0.2991  0.3243 -0.2089
  143OSM    H2F15749   1.036   3.437   7.750 -0.4009  0.5971 -2.0454
  143OSM    H2G15750   0.857   3.457   7.724  0.0749 -0.1158 -2.8989
  143OSM    C3F15751   0.939   3.276   7.636  0.6857  0.1338 -1.2359
  143OSM    H3F15752   0.859   3.200   7.650  0.7705  0.1577 -0.6160
  143OSM    H3G15753   1.029   3.212   7.652 -0.6279 -1.4362  0.2513
  143OSM    C4F15754   0.935   3.334   7.493  0.0441  0.0840  0.6785
  143OSM    H4F15755   0.944   3.245   7.426  0.9465 -0.3647  1.3780
  143OSM    H4G15756   1.021   3.404   7.484  1.0585 -0.9134  2.1799
  143OSM    C5F15757   0.798   3.389   7.462  0.3195 -0.2733  0.3588
  143OSM    H5F15758   0.773   3.471   7.532  2.3234  3.0388 -2.4627
  143OSM    H5G15759   0.721   3.311   7.480 -1.1048  0.4506 -2.0717
  143OSM    C6F15760   0.777   3.439   7.320  0.1562 -0.6043  0.3789
  143OSM    H6F15761   0.841   3.530   7.320 -0.3063 -0.2421 -1.2114
  143OSM    H6G15762   0.672   3.472   7.306  0.5675  1.5275  1.8644
  143OSM    C7F15763   0.818   3.348   7.198 -0.2364  0.1807  0.7532
  143OSM    H7F15764   0.923   3.315   7.214 -0.0576  0.8338  0.9550
  143OSM    H7G15765   0.824   3.404   7.102 -0.2566  1.6595  1.5923
  143OSM    C8F15766   0.720   3.232   7.176  0.0779 -0.3843 -0.1355
  143OSM    H8F15767   0.703   3.183   7.274  0.9174 -2.5243 -0.9961
  143OSM    H8G15768   0.764   3.152   7.113 -0.2823  1.6559 -3.1902
  143OSM    C9F15769   0.589   3.269   7.112  0.3976 -0.4069  0.5336
  143OSM    H9F15770   0.514   3.308   7.183 -0.1691  0.7818 -0.6716
  143OSM   C10F15771   0.543   3.237   6.987  0.5319  0.1047  0.1487
  143OSM   H10F15772   0.434   3.248   6.979  0.5531  2.0651  1.7498
  143OSM   C11F15773   0.618   3.163   6.877  0.3593 -0.0597 -0.4903
  143OSM   H11F15774   0.581   3.059   6.864 -2.8727  1.1522 -2.2002
  143OSM   H11G15775   0.723   3.165   6.911  0.5789  3.2615 -0.9911
  143OSM   C12F15776   0.585   3.233   6.745 -0.1215 -0.3298  0.2995
  143OSM   H12F15777   0.650   3.192   6.664 -0.8746 -1.3779  0.1977
  143OSM   H12G15778   0.616   3.339   6.744  1.9985 -0.8729 -1.6228
  143OSM   C13F15779   0.435   3.216   6.696 -0.2341 -0.0615  0.6621
  143OSM   H13F15780   0.380   3.311   6.717 -1.5310 -0.9116  1.2573
  143OSM   H13G15781   0.397   3.142   6.770  3.9329  0.5249  3.7538
  143OSM   C14F15782   0.401   3.191   6.545 -0.0872  0.1536 -0.9444
  143OSM   H14F15783   0.291   3.183   6.529 -0.4087  1.6655  0.3239
  143OSM   H14G15784   0.442   3.094   6.508 -2.3609 -0.5005 -1.9761
  143OSM   C15F15785   0.459   3.308   6.458  0.4153 -0.4934  0.8123
  143OSM   H15F15786   0.468   3.278   6.352  1.4919  1.3394  0.3408
  143OSM   H15G15787   0.558   3.340   6.499 -0.1879  1.8901  0.6018
  143OSM   C16F15788   0.366   3.434   6.467  0.3419 -0.3503  0.1550
  143OSM   H16F15789   0.339   3.445   6.574 -0.3858 -2.7993  0.2735
  143OSM   H16G15790   0.273   3.417   6.409 -0.3074  1.3838  0.6205
  143OSM   C17F15791   0.423   3.568   6.410  0.8949  0.4786  0.5057
  143OSM   H17F15792   0.523   3.581   6.457  1.5779  1.8733 -1.2369
  143OSM   H17G15793   0.358   3.650   6.447  0.2158 -0.4576  1.4482
  143OSM   C18F15794   0.442   3.567   6.259 -0.4562 -0.0641 -0.1414
  143OSM   H18F15795   0.509   3.481   6.238 -0.8560  0.0513 -2.1077
  143OSM   H18G15796   0.507   3.651   6.227 -0.9729  0.0626 -0.8976
  143OSM   H18H15797   0.358   3.556   6.187  0.6932 -3.0438 -1.1956
  144OSM      N15798   4.762   5.478   8.442  0.0000  0.8262  0.0328
  144OSM    C1515799   4.875   5.496   8.533 -0.9256  0.2418  0.6703
  144OSM   H15A15800   4.845   5.516   8.634  0.8772  0.5794  1.1720
  144OSM   H15B15801   4.944   5.575   8.508  0.6171 -0.4544  2.4954
  144OSM   H15C15802   4.935   5.405   8.533 -0.3422  0.5377 -1.7715
  144OSM    C1415803   4.680   5.355   8.472  0.3079 -0.3008  0.1980
  144OSM   H14A15804   4.590   5.326   8.419 -0.2552 -0.0086  0.9763
  144OSM   H14B15805   4.656   5.344   8.577 -3.9690  0.6836 -0.4744
  144OSM   H14C15806   4.744   5.268   8.466 -2.9847 -2.9567  0.1549
  144OSM    C1315807   4.678   5.603   8.468 -0.2863 -0.1888  0.4862
  144OSM   H13A15808   4.634   5.615   8.566 -2.8618 -0.2143 -0.5951
  144OSM   H13B15809   4.598   5.611   8.396 -0.4735  0.7424  0.7896
  144OSM   H13C15810   4.744   5.686   8.446  0.8644 -1.0729  0.5003
  144OSM    C1215811   4.805   5.459   8.295 -0.2073 -1.0044  0.1730
  144OSM   H12A15812   4.872   5.374   8.293 -1.1088 -1.7100 -1.1260
  144OSM   H12B15813   4.866   5.542   8.261  0.3202 -1.2896  0.4128
  144OSM    C1115814   4.692   5.438   8.187 -0.6769 -0.2417  0.4102
  144OSM   H11A15815   4.640   5.340   8.186 -0.7774 -0.1845 -0.0284
  144OSM   H11B15816   4.738   5.421   8.087 -0.3600  0.8975  0.3440
  144OSM      P15817   4.581   5.637   8.066 -0.0771 -0.3248  0.1577
  144OSM    O1315818   4.452   5.707   8.066 -0.6580 -0.0971  0.5748
  144OSM    O1415819   4.702   5.720   8.055 -0.4705 -0.0299  0.3022
  144OSM    O1115820   4.574   5.543   7.942  0.1365  0.1085  0.1861
  144OSM    O1215821   4.598   5.546   8.192 -0.4892  0.0098 -0.2423
  144OSM    C1S15822   4.452   5.468   7.914  0.2435 -0.9648 -0.2372
  144OSM    H1S15823   4.357   5.523   7.929  1.2156  0.5121  0.7289
  144OSM    H1T15824   4.441   5.377   7.977 -2.9943 -0.9999 -0.7015
  144OSM     NF15825   4.327   5.401   7.710  0.2090  0.2595  0.1255
  144OSM    HNF15826   4.300   5.307   7.726 -2.1179  1.2676  3.1382
  144OSM    C2S15827   4.455   5.421   7.767  0.0115  0.3172 -0.4797
  144OSM    H2S15828   4.488   5.512   7.714  2.5542 -0.5880 -0.5673
  144OSM    C3S15829   4.561   5.315   7.755 -0.2531  0.2748  0.0212
  144OSM    H3S15830   4.531   5.229   7.819  0.9741  1.3335  2.1179
  144OSM     O315831   4.691   5.359   7.804 -0.2460 -0.0299  0.1667
  144OSM    HO315832   4.688   5.434   7.864  2.2362  0.2632  0.0503
  144OSM    C4S15833   4.579   5.286   7.609 -0.0197 -0.0228  0.5146
  144OSM    H4S15834   4.607   5.380   7.559  2.7126 -1.8919 -1.7463
  144OSM    C5S15835   4.552   5.173   7.542 -0.2877 -0.0856  0.1171
  144OSM    H5S15836   4.512   5.086   7.597  1.7761  0.0459  1.9527
  144OSM    C6S15837   4.571   5.157   7.390 -0.2751  0.2381  0.8459
  144OSM    H6S15838   4.620   5.061   7.361 -0.9428  0.1691 -0.1280
  144OSM    H6T15839   4.634   5.240   7.352  0.4141  0.2950  2.0811
  144OSM    C7S15840   4.435   5.162   7.316 -0.5494 -0.1133 -0.2154
  144OSM    H7S15841   4.394   5.262   7.342 -1.1327 -0.8572  1.9327
  144OSM    H7T15842   4.365   5.091   7.365 -1.3611  0.6238 -0.2816
  144OSM    C8S15843   4.440   5.142   7.158 -0.1399  0.2313 -0.3061
  144OSM    H8S15844   4.494   5.224   7.106  1.2071 -0.6457 -0.3567
  144OSM    H8T15845   4.333   5.152   7.131 -0.7217 -0.7650  1.4479
  144OSM    C9S15846   4.501   5.014   7.112 -0.0067  0.0201 -0.4100
  144OSM    H9S15847   4.466   4.936   7.183  1.4368  0.4679  0.8481
  144OSM    H9T15848   4.612   5.021   7.120  0.0846 -2.1500  1.3412
  144OSM   C10S15849   4.455   4.990   6.965 -0.0100 -0.4982 -0.7771
  144OSM   H10S15850   4.344   4.989   6.961 -0.0816  0.8379  0.0689
  144OSM   H10T15851   4.499   4.891   6.943  1.2421 -1.0365  3.4168
  144OSM   C11S15852   4.526   5.091   6.869 -0.1139  0.0451  0.0233
  144OSM   H11S15853   4.636   5.077   6.881  0.1934  2.9461  1.4660
  144OSM   H11T15854   4.508   5.198   6.889  2.3203  0.5722 -0.2762
  144OSM   C12S15855   4.486   5.069   6.719 -0.1058 -0.7325  0.1791
  144OSM   H12S15856   4.376   5.060   6.723 -0.1414 -1.1864 -1.2935
  144OSM   H12T15857   4.531   4.973   6.685  1.2548 -0.1107  0.1320
  144OSM   C13S15858   4.528   5.184   6.621 -0.3606 -0.0743  0.0738
  144OSM   H13S15859   4.639   5.180   6.610 -0.4023 -0.3566 -0.2779
  144OSM   H13T15860   4.523   5.287   6.661  0.3108 -0.6974  1.8491
  144OSM   C14S15861   4.472   5.163   6.488  0.2024  0.9462  0.7919
  144OSM   H14S15862   4.363   5.186   6.481  0.3104  0.8919 -2.3992
  144OSM   H14T15863   4.474   5.054   6.466  0.4981  1.4793 -2.2843
  144OSM   C15S15864   4.539   5.252   6.379  0.0984 -0.1462 -0.0661
  144OSM   H15S15865   4.647   5.235   6.395  0.2561  1.2808  0.4847
  144OSM   H15T15866   4.526   5.361   6.396 -0.4298  0.3008 -2.7486
  144OSM   C16S15867   4.488   5.224   6.233 -0.3924 -0.2082  0.0000
  144OSM   H16S15868   4.380   5.248   6.224 -0.5775 -1.3616 -1.0878
  144OSM   H16T15869   4.499   5.120   6.197 -0.6455 -1.1078  2.3574
  144OSM   C17S15870   4.569   5.312   6.135 -0.2981  0.3747  1.2355
  144OSM   H17S15871   4.676   5.326   6.159  0.9821 -1.6782 -2.3451
  144OSM   H17T15872   4.529   5.415   6.133  1.0919  0.9273 -0.2457
  144OSM   C18S15873   4.557   5.252   5.993  0.3132 -0.0182  0.1550
  144OSM   H18S15874   4.647   5.187   5.982  0.9020  1.0083 -1.4341
  144OSM   H18T15875   4.564   5.331   5.915 -0.4496 -0.2932 -0.1980
  144OSM   H18U15876   4.459   5.206   5.971  0.2589  0.8827 -1.7541
  144OSM    C1F15877   4.240   5.500   7.705 -0.4510  0.0910  0.1294
  144OSM     OF15878   4.276   5.615   7.704 -0.6974  0.2685  0.2714
  144OSM    C2F15879   4.097   5.458   7.706  0.7694 -0.0753  0.2614
  144OSM    H2F15880   4.060   5.468   7.811 -1.8683  0.6374 -0.6617
  144OSM    H2G15881   4.086   5.353   7.674  0.2396 -0.4633  1.6636
  144OSM    C3F15882   4.006   5.546   7.610  0.0426  0.5271  0.3368
  144OSM    H3F15883   4.042   5.651   7.611  2.9435 -0.3136 -2.1756
  144OSM    H3G15884   3.901   5.534   7.645 -0.6072 -0.4744 -1.8090
  144OSM    C4F15885   4.029   5.508   7.462 -0.2365  0.0701 -0.6886
  144OSM    H4F15886   4.026   5.399   7.441 -3.5187  0.3345 -2.2053
  144OSM    H4G15887   4.130   5.545   7.434  0.8779 -1.1185  1.4846
  144OSM    C5F15888   3.922   5.567   7.369  0.0308 -0.1003 -0.3921
  144OSM    H5F15889   3.914   5.674   7.395 -1.7035 -0.1983 -0.4069
  144OSM    H5G15890   3.824   5.526   7.403  0.1783  0.6253  0.9676
  144OSM    C6F15891   3.950   5.559   7.215 -0.4159  0.0247 -0.5561
  144OSM    H6F15892   3.975   5.455   7.184 -1.3583 -0.3997  0.0522
  144OSM    H6G15893   4.048   5.602   7.187  0.5169  0.0462  2.3514
  144OSM    C7F15894   3.836   5.601   7.128  0.7362 -0.4661 -1.0937
  144OSM    H7F15895   3.794   5.702   7.151  1.6338  0.3476 -2.8474
  144OSM    H7G15896   3.751   5.529   7.125  0.2734  0.0742 -1.2866
  144OSM    C8F15897   3.872   5.617   6.976  0.2183  0.0345 -0.1180
  144OSM    H8F15898   3.962   5.681   6.968  1.5172 -1.8009 -1.0047
  144OSM    H8G15899   3.783   5.638   6.913  0.4465 -1.0129 -0.8107
  144OSM    C9F15900   3.917   5.481   6.930 -0.8430  0.5845 -0.2812
  144OSM    H9F15901   4.011   5.441   6.971 -0.8570 -1.5003 -2.1113
  144OSM   C10F15902   3.857   5.384   6.850  0.3461 -0.4627  0.4249
  144OSM   H10F15903   3.927   5.300   6.839  1.9419  0.9930 -1.2294
  144OSM   C11F15904   3.730   5.403   6.777 -0.6075 -0.2744  0.8047
  144OSM   H11F15905   3.679   5.500   6.794  0.5518  0.3989  0.5424
  144OSM   H11G15906   3.654   5.326   6.804  0.9298 -0.8739  3.9283
  144OSM   C12F15907   3.765   5.380   6.631  0.0084 -0.9667 -1.0072
  144OSM   H12F15908   3.814   5.281   6.625  0.4700 -0.7802 -0.4883
  144OSM   H12G15909   3.837   5.457   6.597 -0.7650 -0.0525 -0.6329
  144OSM   C13F15910   3.632   5.392   6.551  0.2548  0.5187 -0.6003
  144OSM   H13F15911   3.566   5.477   6.578 -1.7214 -1.3390  0.7110
  144OSM   H13G15912   3.577   5.305   6.593 -1.4663  2.3365  1.0707
  144OSM   C14F15913   3.650   5.375   6.401  0.5265  0.2723 -0.5984
  144OSM   H14F15914   3.693   5.272   6.396  0.3858  0.1922 -0.1666
  144OSM   H14G15915   3.730   5.439   6.358  2.3695 -1.6429 -0.2137
  144OSM   C15F15916   3.523   5.402   6.325  0.1515 -0.2474 -1.0310
  144OSM   H15F15917   3.490   5.504   6.355 -0.4578 -0.9447  0.8366
  144OSM   H15G15918   3.448   5.326   6.356  0.8138 -0.1291  1.0231
  144OSM   C16F15919   3.552   5.387   6.174  0.2046  0.0725 -0.0183
  144OSM   H16F15920   3.557   5.279   6.147 -1.5653 -0.1409  0.4185
  144OSM   H16G15921   3.646   5.433   6.136  0.6181 -1.8625 -1.5058
  144OSM   C17F15922   3.441   5.439   6.084  0.1486  1.4357 -0.7504
  144OSM   H17F15923   3.345   5.424   6.137  1.4792 -1.7123  0.9986
  144OSM   H17G15924   3.434   5.374   5.994 -2.5184  2.1895 -1.1660
  144OSM   C18F15925   3.460   5.585   6.038  0.1336 -0.4235 -0.0409
  144OSM   H18F15926   3.552   5.607   5.979 -0.7456  1.2824 -0.8548
  144OSM   H18G15927   3.470   5.654   6.125  2.5468 -1.8757  0.9500
  144OSM   H18H15928   3.372   5.618   5.979  0.7209  1.8554  0.2582
  145OSM      N15929   6.166   1.112   8.454 -0.2567  0.6790  0.4374
  145OSM    C1515930   6.046   1.024   8.491 -0.4905 -0.4337  0.7270
  145OSM   H15A15931   5.979   1.068   8.564 -1.6912 -2.5878  1.0092
  145OSM   H15B15932   6.080   0.925   8.516  1.4955  0.2585  0.9573
  145OSM   H15C15933   5.983   1.011   8.404 -0.4332  1.3780  0.3712
  145OSM    C1415934   6.114   1.245   8.413 -0.5119  0.3771  0.4918
  145OSM   H14A15935   6.080   1.237   8.311 -0.0569 -0.1817  0.3795
  145OSM   H14B15936   6.189   1.323   8.411  0.8754 -0.9374 -0.5373
  145OSM   H14C15937   6.032   1.271   8.479  0.1016  0.3943  1.2696
  145OSM    C1315938   6.253   1.131   8.577  0.3000 -0.0214  0.4218
  145OSM   H13A15939   6.325   1.051   8.580  0.6631  0.3254  0.9479
  145OSM   H13B15940   6.198   1.139   8.670  0.1532 -0.3271  0.3606
  145OSM   H13C15941   6.310   1.223   8.576  0.8671 -0.3570  1.3906
  145OSM    C1215942   6.243   1.039   8.340 -0.2915  0.1630 -0.9322
  145OSM   H12A15943   6.283   0.947   8.379 -0.5802  0.0141 -0.9790
  145OSM   H12B15944   6.327   1.103   8.320 -0.3083  0.4646 -0.0604
  145OSM    C1115945   6.160   1.013   8.212 -0.6281 -0.0425 -0.1394
  145OSM   H11A15946   6.080   0.939   8.233  1.5368 -1.8749  2.2361
  145OSM   H11B15947   6.230   0.964   8.141 -1.5050  2.3735 -2.8594
  145OSM      P15948   6.181   1.226   8.065 -0.0442 -0.2282  0.1380
  145OSM    O1315949   6.189   1.361   8.125  0.0936 -0.0857 -0.4707
  145OSM    O1415950   6.308   1.164   8.034 -0.5107  1.1978  0.1148
  145OSM    O1115951   6.090   1.239   7.940 -0.4012  0.5163  0.4575
  145OSM    O1215952   6.098   1.135   8.162 -0.1448  0.2489  0.2561
  145OSM    C1S15953   6.030   1.122   7.880  0.1019 -0.3881 -0.1088
  145OSM    H1S15954   5.927   1.113   7.920 -0.4430 -4.2664 -1.8375
  145OSM    H1T15955   6.094   1.032   7.893  0.7922 -0.2118 -2.0106
  145OSM     NF15956   5.926   1.045   7.665 -0.1548  0.0241  0.3017
  145OSM    HNF15957   5.987   0.973   7.631  0.5131  0.7326 -0.0383
  145OSM    C2S15958   6.010   1.147   7.727 -0.2472  0.5236  0.3143
  145OSM    H2S15959   5.949   1.240   7.719 -1.5066 -0.0854  2.0674
  145OSM    C3S15960   6.147   1.169   7.654  0.3739 -0.3282  0.2337
  145OSM    H3S15961   6.206   1.075   7.656  2.2482  0.6488 -2.7908
  145OSM     O315962   6.218   1.276   7.714 -0.2317  0.6864 -0.3413
  145OSM    HO315963   6.197   1.260   7.806  1.6341 -0.3856 -0.0562
  145OSM    C4S15964   6.123   1.198   7.508 -0.6753 -0.0021  0.5244
  145OSM    H4S15965   6.122   1.110   7.442 -2.6568  0.2139  0.2145
  145OSM    C5S15966   6.118   1.317   7.442  0.1265  0.1992 -0.0941
  145OSM    H5S15967   6.121   1.408   7.503  2.6175 -0.7296  1.3686
  145OSM    C6S15968   6.098   1.324   7.289  0.2946  0.1550 -0.2397
  145OSM    H6S15969   6.201   1.308   7.252  0.5580 -0.8137  0.8346
  145OSM    H6T15970   6.058   1.420   7.249 -2.3670 -1.0602 -0.7579
  145OSM    C7S15971   5.981   1.232   7.218  0.0443 -0.4517 -0.3993
  145OSM    H7S15972   5.881   1.253   7.261 -1.1735 -0.2997 -3.0582
  145OSM    H7T15973   6.013   1.132   7.251  1.9442  0.0337 -0.6699
  145OSM    C8S15974   5.986   1.239   7.063  0.3834 -0.1306 -0.2412
  145OSM    H8S15975   5.938   1.335   7.034 -0.7324 -0.7456 -0.5017
  145OSM    H8T15976   5.922   1.154   7.031 -1.2064 -0.2488  2.8195
  145OSM    C9S15977   6.123   1.215   7.014 -0.0294  0.0281  0.5419
  145OSM    H9S15978   6.159   1.123   7.065 -0.4023  0.1696  1.0648
  145OSM    H9T15979   6.202   1.289   7.036 -1.4413  1.9654 -0.5870
  145OSM   C10S15980   6.129   1.189   6.864  0.0395 -0.1864  0.2009
  145OSM   H10S15981   6.238   1.189   6.846  0.2881 -0.1856  1.5740
  145OSM   H10T15982   6.081   1.267   6.801 -1.5900 -0.4391  1.0508
  145OSM   C11S15983   6.066   1.059   6.825  0.2754 -0.6216 -0.2678
  145OSM   H11S15984   5.958   1.053   6.850  0.6995 -1.6092  1.4703
  145OSM   H11T15985   6.121   0.977   6.876 -0.0614 -0.7521 -0.1134
  145OSM   C12S15986   6.072   1.040   6.676 -1.1141 -0.1524  0.3495
  145OSM   H12S15987   5.993   1.107   6.638 -0.7492 -0.1816 -0.4731
  145OSM   H12T15988   6.040   0.937   6.649 -1.8388  0.3737 -0.8585
  145OSM   C13S15989   6.203   1.077   6.616  0.9372 -0.1144 -0.5707
  145OSM   H13S15990   6.288   1.043   6.679  0.6362 -1.1689 -0.7153
  145OSM   H13T15991   6.198   1.184   6.587  0.4300  0.2594  0.8119
  145OSM   C14S15992   6.231   0.998   6.479  0.3584 -0.1286 -0.4599
  145OSM   H14S15993   6.229   0.889   6.503  0.7767 -0.4688 -1.9200
  145OSM   H14T15994   6.337   1.012   6.448  1.1967 -1.8658  1.3264
  145OSM   C15S15995   6.129   1.020   6.368  0.2816  0.2601 -0.1910
  145OSM   H15S15996   6.160   1.113   6.316  1.5606 -2.1733 -4.2087
  145OSM   H15T15997   6.026   1.015   6.411  0.3197 -1.7751 -0.2381
  145OSM   C16S15998   6.140   0.910   6.259 -0.5778  0.5349  0.4434
  145OSM   H16S15999   6.036   0.874   6.243 -0.6531  0.7250  0.4921
  145OSM   H16T16000   6.200   0.823   6.291 -1.6159  0.4021  2.1226
  145OSM   C17S16001   6.188   0.969   6.130 -0.4107  0.0762 -0.3361
  145OSM   H17S16002   6.293   1.005   6.143 -0.0949 -0.3519 -1.5617
  145OSM   H17T16003   6.126   1.050   6.087  0.0759 -0.7117 -2.7178
  145OSM   C18S16004   6.187   0.860   6.019 -0.5591  0.3354  0.0842
  145OSM   H18S16005   6.234   0.767   6.057 -3.0327 -1.6269 -1.3034
  145OSM   H18T16006   6.229   0.892   5.921 -1.2717  2.4695  0.4245
  145OSM   H18U16007   6.084   0.821   6.000 -0.0241 -2.3815  2.1963
  145OSM    C1F16008   5.792   1.039   7.682  0.8967 -0.5586 -0.0082
  145OSM     OF16009   5.736   1.121   7.748 -0.0996 -0.3906 -0.5251
  145OSM    C2F16010   5.726   0.910   7.647  0.1969 -0.2694  0.1169
  145OSM    H2F16011   5.618   0.911   7.673  0.0786  0.2589 -0.3748
  145OSM    H2G16012   5.754   0.822   7.709  0.3393 -1.7635 -1.9718
  145OSM    C3F16013   5.729   0.882   7.494 -0.0192 -0.5117  0.0481
  145OSM    H3F16014   5.678   0.784   7.491  0.4085 -0.8190  2.0272
  145OSM    H3G16015   5.832   0.853   7.466 -0.0691 -0.7182  0.0803
  145OSM    C4F16016   5.667   0.989   7.405 -0.3745  0.1761 -0.4651
  145OSM    H4F16017   5.750   1.060   7.384  1.3676 -2.3719 -2.8102
  145OSM    H4G16018   5.576   1.040   7.443 -3.2251 -4.1034 -0.9446
  145OSM    C5F16019   5.616   0.938   7.273 -0.3248 -0.0633 -0.2709
  145OSM    H5F16020   5.571   1.024   7.219 -0.3064 -0.4785 -0.9608
  145OSM    H5G16021   5.537   0.862   7.292 -1.0268 -0.7435 -4.7549
  145OSM    C6F16022   5.720   0.879   7.182  0.6014 -0.5862 -0.9306
  145OSM    H6F16023   5.762   0.797   7.243  1.1981  0.3247 -0.0932
  145OSM    H6G16024   5.806   0.946   7.164 -0.1794  0.4776 -0.8371
  145OSM    C7F16025   5.668   0.818   7.052 -0.2845 -0.2654 -0.0714
  145OSM    H7F16026   5.563   0.852   7.035  0.0436  2.1039  2.1670
  145OSM    H7G16027   5.658   0.709   7.070  2.9658 -0.8320 -1.0786
  145OSM    C8F16028   5.751   0.853   6.929 -0.4856  0.5371  0.2762
  145OSM    H8F16029   5.846   0.799   6.952 -0.1780  1.2402  0.6841
  145OSM    H8G16030   5.785   0.959   6.927 -0.0490  0.4412  1.6701
  145OSM    C9F16031   5.679   0.804   6.805 -0.3079 -0.3679 -0.3996
  145OSM    H9F16032   5.681   0.695   6.795 -1.3697 -0.3644 -0.7037
  145OSM   C10F16033   5.611   0.872   6.716  0.2885  0.1400 -0.0245
  145OSM   H10F16034   5.555   0.820   6.636  0.3390  2.3211 -1.5718
  145OSM   C11F16035   5.596   1.021   6.725 -0.5942 -0.5421  0.0132
  145OSM   H11F16036   5.640   1.071   6.814  1.2492  2.2258 -2.2988
  145OSM   H11G16037   5.487   1.043   6.722 -0.9423 -2.2008 -0.6454
  145OSM   C12F16038   5.658   1.090   6.598 -0.0218 -0.2058 -0.1211
  145OSM   H12F16039   5.602   1.059   6.507 -0.1732 -0.0585 -0.0784
  145OSM   H12G16040   5.761   1.049   6.601 -0.4123 -1.1248  1.8006
  145OSM   C13F16041   5.668   1.247   6.602  0.0583  0.9805 -0.3140
  145OSM   H13F16042   5.686   1.271   6.709 -1.9734 -2.4528  0.9741
  145OSM   H13G16043   5.569   1.286   6.570  0.5375 -0.7039 -4.4931
  145OSM   C14F16044   5.780   1.311   6.519  0.2279  0.4497  0.2842
  145OSM   H14F16045   5.780   1.260   6.421 -2.6162  0.5524  0.1426
  145OSM   H14G16046   5.883   1.297   6.559  0.3920 -0.4803 -0.4347
  145OSM   C15F16047   5.755   1.458   6.482  0.4124  0.0826 -0.0401
  145OSM   H15F16048   5.762   1.516   6.576 -0.4043 -0.8710  0.6348
  145OSM   H15G16049   5.652   1.471   6.441 -0.7832  1.2738  3.0044
  145OSM   C16F16050   5.856   1.510   6.381  0.2784  0.0670  0.3821
  145OSM   H16F16051   5.957   1.526   6.424  1.0098  0.5362 -1.4677
  145OSM   H16G16052   5.822   1.614   6.364  2.3269  1.1790  2.4934
  145OSM   C17F16053   5.863   1.436   6.250 -0.5200  0.4432  0.6842
  145OSM   H17F16054   5.847   1.326   6.257 -0.2632  0.3861  0.4182
  145OSM   H17G16055   5.967   1.444   6.212 -0.8077 -1.1141 -0.5205
  145OSM   C18F16056   5.754   1.470   6.155  0.6822 -0.4861  0.7193
  145OSM   H18F16057   5.651   1.446   6.189 -0.3247 -0.0967 -1.8952
  145OSM   H18G16058   5.745   1.411   6.061 -1.7698  0.0007  0.5986
  145OSM   H18H16059   5.753   1.577   6.128 -1.2000  0.1531  3.0111
  146OSM      N16060   6.147   6.314   8.239 -0.7076 -0.5774 -0.4073
  146OSM    C1516061   6.270   6.235   8.205 -0.5884 -0.4911 -0.0016
  146OSM   H15A16062   6.304   6.193   8.299  0.2344  0.4675  0.1451
  146OSM   H15B16063   6.347   6.301   8.169 -1.2642 -0.0716 -0.7126
  146OSM   H15C16064   6.259   6.155   8.133 -1.0180  1.1260 -1.8143
  146OSM    C1416065   6.080   6.358   8.112  0.1967  0.1953  0.0021
  146OSM   H14A16066   6.137   6.434   8.060  0.5850  0.7814  1.2512
  146OSM   H14B16067   5.992   6.415   8.136 -1.0042 -1.5493 -0.0846
  146OSM   H14C16068   6.044   6.277   8.051 -1.1436 -0.0298  1.0337
  146OSM    C1316069   6.059   6.208   8.302 -0.9625 -0.6729  0.9659
  146OSM   H13A16070   6.094   6.171   8.398 -0.7078  1.5210  1.7722
  146OSM   H13B16071   6.035   6.124   8.238 -0.8208 -0.5762  0.7831
  146OSM   H13C16072   5.965   6.259   8.321 -0.6267 -0.0297  0.9353
  146OSM    C1216073   6.187   6.429   8.326 -0.3882  0.0673  0.3698
  146OSM   H12A16074   6.243   6.503   8.271  2.5295 -1.0231  1.6394
  146OSM   H12B16075   6.258   6.394   8.400 -1.2550  0.1431  1.2574
  146OSM    C1116076   6.068   6.501   8.402 -0.5504 -0.3358 -0.0435
  146OSM   H11A16077   6.125   6.586   8.446 -0.3851 -0.2538 -0.4138
  146OSM   H11B16078   6.037   6.446   8.493  0.2608  1.3677  1.3453
  146OSM      P16079   5.814   6.507   8.349 -0.0219  0.3910 -0.2411
  146OSM    O1316080   5.798   6.368   8.395 -0.0256  0.4955  0.2649
  146OSM    O1416081   5.774   6.607   8.452 -0.4539  0.1062  0.1199
  146OSM    O1116082   5.723   6.529   8.221 -0.0221  0.6614 -0.0681
  146OSM    O1216083   5.963   6.542   8.308 -0.1020 -0.2863  1.2390
  146OSM    C1S16084   5.777   6.602   8.107 -0.4969 -0.6709  0.5037
  146OSM    H1S16085   5.878   6.560   8.085  0.0774  1.1419 -0.5824
  146OSM    H1T16086   5.790   6.707   8.141 -0.4379 -0.3588 -0.4516
  146OSM     NF16087   5.731   6.640   7.857 -0.1578 -0.0970  0.7359
  146OSM    HNF16088   5.679   6.714   7.815 -3.1135 -2.0695  0.6630
  146OSM    C2S16089   5.681   6.593   7.984 -0.0898 -0.2010  0.8664
  146OSM    H2S16090   5.666   6.483   7.980 -0.0168 -0.2287  1.3302
  146OSM    C3S16091   5.540   6.648   8.009  1.1602 -0.1899  0.5765
  146OSM    H3S16092   5.554   6.758   8.010  3.1716 -0.4096  1.0909
  146OSM     O316093   5.492   6.622   8.142  0.3894  0.3375  0.4335
  146OSM    HO316094   5.574   6.592   8.183  0.9046 -0.3737 -1.0455
  146OSM    C4S16095   5.449   6.616   7.897  0.4890  0.1174  0.0322
  146OSM    H4S16096   5.450   6.699   7.825  0.8865  1.7614  1.8615
  146OSM    C5S16097   5.370   6.510   7.873  0.5160 -0.3439  0.0942
  146OSM    H5S16098   5.359   6.432   7.949 -2.3413 -1.5219 -1.3863
  146OSM    C6S16099   5.267   6.493   7.765  0.0446  0.4783  0.5862
  146OSM    H6S16100   5.171   6.528   7.807  0.2127 -0.3662  1.7044
  146OSM    H6T16101   5.242   6.385   7.775  1.0685  0.2793  1.1764
  146OSM    C7S16102   5.301   6.549   7.630 -0.0841  0.1472  0.3105
  146OSM    H7S16103   5.294   6.660   7.634 -0.8781  0.1876 -1.2699
  146OSM    H7T16104   5.215   6.524   7.564  0.8117  0.2013 -0.9305
  146OSM    C8S16105   5.435   6.528   7.559  0.3905 -0.2322 -0.0156
  146OSM    H8S16106   5.455   6.419   7.556 -2.4552 -0.8394  0.6345
  146OSM    H8T16107   5.518   6.585   7.605  0.9931  1.0948 -2.5501
  146OSM    C9S16108   5.448   6.583   7.418  0.4824 -0.5563 -0.1375
  146OSM    H9S16109   5.554   6.559   7.393  0.4601 -0.5356 -0.2504
  146OSM    H9T16110   5.439   6.694   7.421 -2.4367 -0.7306  3.0758
  146OSM   C10S16111   5.356   6.520   7.309  0.3027  0.0873 -0.0064
  146OSM   H10S16112   5.280   6.601   7.301  1.7010  1.6741  2.0397
  146OSM   H10T16113   5.295   6.432   7.341 -0.4384  0.5927 -0.0054
  146OSM   C11S16114   5.430   6.505   7.176  0.7610  0.0812 -0.4755
  146OSM   H11S16115   5.500   6.419   7.186  0.0510 -0.3829  0.8324
  146OSM   H11T16116   5.493   6.594   7.160  1.6202 -0.3816  0.2260
  146OSM   C12S16117   5.336   6.482   7.053 -0.5035 -0.7119  0.1325
  146OSM   H12S16118   5.265   6.568   7.059  1.7046  1.2218  0.4397
  146OSM   H12T16119   5.283   6.388   7.080 -0.1870 -0.8925  0.1313
  146OSM   C13S16120   5.416   6.477   6.923  0.4978  0.5647 -0.2145
  146OSM   H13S16121   5.488   6.392   6.933 -1.2447 -0.9822 -0.1581
  146OSM   H13T16122   5.462   6.575   6.900  0.1867  0.0528 -3.4746
  146OSM   C14S16123   5.318   6.446   6.810 -0.6080  0.2304  0.3158
  146OSM   H14S16124   5.261   6.534   6.773  0.9953  1.7311  1.2523
  146OSM   H14T16125   5.255   6.370   6.861  1.3280 -0.7322  1.3887
  146OSM   C15S16126   5.380   6.371   6.685 -0.2684  0.0168 -0.1839
  146OSM   H15S16127   5.455   6.293   6.710  2.0619  1.1543 -2.9730
  146OSM   H15T16128   5.438   6.448   6.629  0.4836 -1.3545 -1.3412
  146OSM   C16S16129   5.274   6.317   6.594 -0.3865  0.0302  0.0040
  146OSM   H16S16130   5.214   6.395   6.543 -0.8198 -0.2401  0.0968
  146OSM   H16T16131   5.200   6.264   6.657  0.2115 -1.0665 -0.1944
  146OSM   C17S16132   5.331   6.211   6.494  0.2569 -0.2349  0.5010
  146OSM   H17S16133   5.236   6.190   6.440 -0.1665  3.2038 -0.3272
  146OSM   H17T16134   5.377   6.121   6.541  3.0291 -0.1111 -1.7356
  146OSM   C18S16135   5.430   6.268   6.392  0.1384  0.6522  0.2301
  146OSM   H18S16136   5.504   6.338   6.435 -0.2572  0.0690  1.9227
  146OSM   H18T16137   5.374   6.324   6.314 -1.2413 -1.9196 -0.7669
  146OSM   H18U16138   5.487   6.187   6.340  1.6516  1.0116  1.2864
  146OSM    C1F16139   5.856   6.619   7.821  0.3905 -0.4406 -0.3386
  146OSM     OF16140   5.923   6.527   7.867 -0.5068 -0.0880  0.0476
  146OSM    C2F16141   5.912   6.719   7.724 -0.0873  0.6150 -0.6439
  146OSM    H2F16142   5.996   6.780   7.763  2.3404 -1.6076 -2.0367
  146OSM    H2G16143   5.826   6.780   7.689 -1.0410 -0.1822  0.2473
  146OSM    C3F16144   5.963   6.638   7.601  0.7986 -1.0358 -0.2631
  146OSM    H3F16145   5.881   6.577   7.558 -2.2594  0.6848  2.6440
  146OSM    H3G16146   6.044   6.568   7.632 -0.5610 -3.2350 -1.3920
  146OSM    C4F16147   6.003   6.729   7.488 -0.1632  0.0554  0.6154
  146OSM    H4F16148   6.052   6.823   7.523 -1.8453  0.5239  1.8702
  146OSM    H4G16149   5.918   6.780   7.437  1.8203  2.7721 -0.2146
  146OSM    C5F16150   6.083   6.657   7.377 -0.1259  0.2625 -0.0256
  146OSM    H5F16151   6.029   6.570   7.332  2.9806 -0.9814 -1.6984
  146OSM    H5G16152   6.175   6.613   7.420 -0.7282 -1.0821 -0.0352
  146OSM    C6F16153   6.115   6.762   7.271 -0.0728  0.5961  0.1090
  146OSM    H6F16154   6.172   6.843   7.322  0.5083  1.0288 -1.1766
  146OSM    H6G16155   6.023   6.809   7.230  0.2988  1.0113 -0.2603
  146OSM    C7F16156   6.190   6.720   7.143 -0.2993  0.4915  0.0648
  146OSM    H7F16157   6.294   6.700   7.178 -0.2525 -1.5548 -1.0701
  146OSM    H7G16158   6.200   6.816   7.088  0.7905 -0.1936 -0.9862
  146OSM    C8F16159   6.126   6.615   7.053  0.0336  0.5645  0.1827
  146OSM    H8F16160   6.025   6.658   7.032  0.7094  1.2890 -1.8747
  146OSM    H8G16161   6.118   6.528   7.121  2.1201 -0.4464 -0.7614
  146OSM    C9F16162   6.188   6.571   6.925 -0.1669 -1.1374 -0.0202
  146OSM    H9F16163   6.258   6.486   6.927 -0.5241 -1.5478 -2.2032
  146OSM   C10F16164   6.154   6.628   6.806 -0.2529 -0.3485 -0.4354
  146OSM   H10F16165   6.210   6.596   6.717  1.6280 -0.3935  0.7067
  146OSM   C11F16166   6.069   6.757   6.794 -0.5548 -0.0213  0.1017
  146OSM   H11F16167   6.123   6.847   6.831 -0.6485  1.1346 -2.4000
  146OSM   H11G16168   5.975   6.748   6.854  0.6413 -1.4780  1.8815
  146OSM   C12F16169   6.025   6.795   6.650 -0.4799 -0.5668  0.1856
  146OSM   H12F16170   6.113   6.806   6.584  0.2595 -1.2551  1.0295
  146OSM   H12G16171   5.978   6.896   6.650 -0.2222 -0.4087  1.9952
  146OSM   C13F16172   5.920   6.693   6.596  0.0322  0.1589 -0.0318
  146OSM   H13F16173   5.834   6.689   6.665  0.5290 -1.2449  0.5414
  146OSM   H13G16174   5.966   6.592   6.587 -0.8461 -0.5560  2.7498
  146OSM   C14F16175   5.880   6.731   6.448  0.3341 -0.1195  0.4206
  146OSM   H14F16176   5.851   6.837   6.435 -0.5397 -0.1208  2.0815
  146OSM   H14G16177   5.970   6.709   6.387  1.1245 -0.2049  1.5951
  146OSM   C15F16178   5.777   6.629   6.382 -0.2982 -0.1726 -0.1717
  146OSM   H15F16179   5.677   6.656   6.422  0.6525  2.5441  0.5454
  146OSM   H15G16180   5.811   6.536   6.434  0.7506 -0.4015 -1.2099
  146OSM   C16F16181   5.798   6.623   6.236  0.3395 -0.1119 -0.6908
  146OSM   H16F16182   5.899   6.581   6.219 -0.6992 -1.5415 -4.1798
  146OSM   H16G16183   5.803   6.728   6.200  2.6485 -0.4478 -1.4740
  146OSM   C17F16184   5.677   6.555   6.159 -0.0015  0.1041 -0.1793
  146OSM   H17F16185   5.678   6.450   6.196 -0.8696  1.6388  5.0508
  146OSM   H17G16186   5.691   6.547   6.049 -2.0267 -4.0927 -0.3337
  146OSM   C18F16187   5.536   6.619   6.186 -0.2448  0.6370  0.1945
  146OSM   H18F16188   5.518   6.720   6.145 -0.5019  2.0094  3.3486
  146OSM   H18G16189   5.512   6.615   6.295 -0.8299 -1.6166  0.0409
  146OSM   H18H16190   5.457   6.551   6.147  0.6438  0.4905 -1.4042
  147OSM      N16191   5.497   1.006   3.569 -0.0207 -0.8980 -0.6106
  147OSM    C1516192   5.421   0.947   3.447 -0.1399 -0.2815  0.3800
  147OSM   H15A16193   5.402   1.032   3.383  3.4371  0.0187 -0.5122
  147OSM   H15B16194   5.332   0.890   3.469 -0.3348  0.1375  0.6791
  147OSM   H15C16195   5.481   0.873   3.396  0.0587  0.8990 -1.1993
  147OSM    C1416196   5.621   1.075   3.521  0.0929 -0.1174 -1.0731
  147OSM   H14A16197   5.670   1.124   3.605 -0.5339 -1.5125  0.1560
  147OSM   H14B16198   5.601   1.143   3.440 -0.8372 -0.0955 -0.8386
  147OSM   H14C16199   5.696   1.008   3.481  0.2600 -1.9822  2.0177
  147OSM    C1316200   5.417   1.111   3.635  0.4251  0.0930  0.1405
  147OSM   H13A16201   5.484   1.187   3.674  0.2357  0.5345 -0.3738
  147OSM   H13B16202   5.360   1.071   3.718  0.0297  2.7804  1.2863
  147OSM   H13C16203   5.355   1.167   3.566  0.9784  0.2383 -0.2392
  147OSM    C1216204   5.520   0.890   3.664 -0.9155  0.5920 -0.3487
  147OSM   H12A16205   5.565   0.808   3.610 -0.2526 -0.3295  1.4919
  147OSM   H12B16206   5.432   0.844   3.706 -0.0700  0.2488  1.1311
  147OSM    C1116207   5.619   0.935   3.776 -0.8465  0.3446 -0.0005
  147OSM   H11A16208   5.618   0.853   3.851  2.6982  1.0748  1.0375
  147OSM   H11B16209   5.573   1.024   3.824 -1.1181  0.2359 -0.0537
  147OSM      P16210   5.837   0.826   3.677 -0.1020 -0.0395 -0.0186
  147OSM    O1316211   5.766   0.728   3.598  0.1702 -0.1574 -1.0498
  147OSM    O1416212   5.967   0.869   3.621  0.3186  0.6916 -0.2196
  147OSM    O1116213   5.872   0.759   3.809 -0.0521  0.7261  0.2303
  147OSM    O1216214   5.746   0.953   3.722 -0.0494 -0.1997 -0.2926
  147OSM    C1S16215   5.918   0.835   3.921  0.1863  0.4342  0.3713
  147OSM    H1S16216   5.841   0.906   3.958 -0.1854  0.6963 -0.8615
  147OSM    H1T16217   6.006   0.896   3.893  0.6328  0.4023  1.6803
  147OSM     NF16218   5.952   0.809   4.166  0.4255  0.1292 -0.1583
  147OSM    HNF16219   6.035   0.836   4.214 -0.0727  1.6391 -0.0858
  147OSM    C2S16220   5.967   0.744   4.037  0.5787  0.0026 -0.7890
  147OSM    H2S16221   5.899   0.656   4.032 -1.0194  1.1587 -0.3578
  147OSM    C3S16222   6.107   0.684   4.013 -0.2553 -0.2857 -0.4387
  147OSM    H3S16223   6.183   0.764   4.032  1.7921 -2.3282  0.4040
  147OSM     O316224   6.129   0.639   3.879 -0.4298 -0.8003  0.5157
  147OSM    HO316225   6.049   0.662   3.832  0.2706  4.7142  1.3908
  147OSM    C4S16226   6.119   0.565   4.110 -0.6613 -0.3160  0.3375
  147OSM    H4S16227   6.033   0.499   4.123 -1.2246  0.6918  2.1196
  147OSM    C5S16228   6.223   0.573   4.199 -0.1762  0.0721 -0.0553
  147OSM    H5S16229   6.310   0.640   4.189 -0.3273  0.1700 -0.7274
  147OSM    C6S16230   6.249   0.466   4.306  0.2512  0.3107  0.1015
  147OSM    H6S16231   6.351   0.427   4.285 -0.8769 -1.3918 -2.7851
  147OSM    H6T16232   6.177   0.384   4.290 -0.2675  0.7701  0.0516
  147OSM    C7S16233   6.244   0.524   4.442 -0.2780  0.0669  0.0550
  147OSM    H7S16234   6.137   0.555   4.437 -0.8195 -1.7933 -0.9631
  147OSM    H7T16235   6.319   0.605   4.455 -0.7750  0.8454 -1.5414
  147OSM    C8S16236   6.242   0.421   4.554  0.4822 -0.6211  0.8187
  147OSM    H8S16237   6.339   0.369   4.561  1.1573  0.7524  2.2798
  147OSM    H8T16238   6.167   0.340   4.542  0.0161 -0.0851 -0.0877
  147OSM    C9S16239   6.200   0.472   4.694 -0.8465  0.3142 -0.5710
  147OSM    H9S16240   6.097   0.442   4.721 -0.7260 -1.7004 -2.1203
  147OSM    H9T16241   6.211   0.583   4.696  0.7770  0.1687  0.5629
  147OSM   C10S16242   6.298   0.426   4.805 -0.0359 -0.2341 -0.5246
  147OSM   H10S16243   6.404   0.454   4.785  0.6842 -3.1758 -1.3894
  147OSM   H10T16244   6.285   0.315   4.798 -0.0819 -0.4659  2.1764
  147OSM   C11S16245   6.253   0.472   4.949  0.5304 -0.4642  0.1181
  147OSM   H11S16246   6.142   0.480   4.947  0.5669 -0.0344 -0.8591
  147OSM   H11T16247   6.290   0.576   4.962  1.2157 -0.4558 -1.5820
  147OSM   C12S16248   6.281   0.386   5.069 -0.0171  0.6278  0.2917
  147OSM   H12S16249   6.391   0.379   5.081  0.0145 -0.3593 -0.3997
  147OSM   H12T16250   6.245   0.281   5.063  0.0792  0.5633  0.7728
  147OSM   C13S16251   6.242   0.446   5.203  1.2524 -0.9453  0.6905
  147OSM   H13S16252   6.149   0.410   5.251  1.5215  1.4447  3.2435
  147OSM   H13T16253   6.222   0.554   5.186  0.6297 -1.2384 -0.6069
  147OSM   C14S16254   6.355   0.438   5.306  0.8071  0.3521 -0.6407
  147OSM   H14S16255   6.447   0.487   5.267  2.4436 -2.5532 -0.7152
  147OSM   H14T16256   6.384   0.332   5.317 -2.5382 -0.7004 -0.9724
  147OSM   C15S16257   6.312   0.493   5.446  0.1601  0.3325 -0.1858
  147OSM   H15S16258   6.238   0.428   5.498  1.0948 -2.2563 -1.8812
  147OSM   H15T16259   6.250   0.582   5.425  0.7052  0.4374 -1.4514
  147OSM   C16S16260   6.438   0.528   5.525  0.2599  0.1240  0.0243
  147OSM   H16S16261   6.501   0.599   5.468 -1.5216  0.9733 -0.9689
  147OSM   H16T16262   6.501   0.438   5.541 -0.7221 -0.2654  2.0742
  147OSM   C17S16263   6.413   0.572   5.670 -0.5071  0.2197  0.3036
  147OSM   H17S16264   6.367   0.488   5.727  3.0368 -0.5015  2.3878
  147OSM   H17T16265   6.339   0.655   5.672 -0.9480 -0.1766  0.6451
  147OSM   C18S16266   6.537   0.617   5.754 -0.3391  0.3310  0.5287
  147OSM   H18S16267   6.517   0.663   5.853 -1.3794  0.1957  0.3947
  147OSM   H18T16268   6.599   0.690   5.697  0.9822  0.0133  1.5026
  147OSM   H18U16269   6.605   0.530   5.767  0.1092  0.5175 -0.4474
  147OSM    C1F16270   5.838   0.853   4.222 -0.3689  0.4935  0.6661
  147OSM     OF16271   5.730   0.831   4.174  0.8077 -0.1053  0.2619
  147OSM    C2F16272   5.863   0.925   4.349  0.1186 -0.0427 -0.1026
  147OSM    H2F16273   5.785   1.004   4.356  0.3538  0.0959  1.1289
  147OSM    H2G16274   5.964   0.972   4.350  0.4486 -0.6442 -1.6113
  147OSM    C3F16275   5.855   0.834   4.470 -0.5112  0.2484  0.0743
  147OSM    H3F16276   5.920   0.745   4.457  0.1819  0.9195 -1.1625
  147OSM    H3G16277   5.751   0.796   4.475  0.2481 -1.9532  0.1860
  147OSM    C4F16278   5.881   0.915   4.603  0.3282 -0.5641  0.2290
  147OSM    H4F16279   5.807   0.996   4.616 -1.5023 -1.9166 -1.2730
  147OSM    H4G16280   5.985   0.956   4.605  1.6670 -3.6949  0.0968
  147OSM    C5F16281   5.868   0.829   4.727  0.4886  0.7982 -0.4792
  147OSM    H5F16282   5.918   0.730   4.723 -0.1783  0.2841  2.0425
  147OSM    H5G16283   5.759   0.806   4.726  1.0407 -2.4841  0.8138
  147OSM    C6F16284   5.914   0.906   4.847  0.0791  0.5375 -0.3330
  147OSM    H6F16285   5.868   1.006   4.857 -1.0682  0.4262 -3.3564
  147OSM    H6G16286   6.025   0.902   4.842  0.1769 -3.0074  1.4732
  147OSM    C7F16287   5.861   0.841   4.975 -0.3606 -0.6086 -0.4842
  147OSM    H7F16288   5.905   0.740   4.965  1.5652  0.0853  0.4089
  147OSM    H7G16289   5.751   0.828   4.984 -0.5900  2.3389  3.5863
  147OSM    C8F16290   5.903   0.911   5.099  0.6539  0.3803 -0.4998
  147OSM    H8F16291   5.850   1.008   5.094  0.0909  0.0970 -0.1369
  147OSM    H8G16292   6.013   0.923   5.108  0.7104  1.6518 -2.4548
  147OSM    C9F16293   5.868   0.840   5.225 -0.7582  0.7974 -0.1355
  147OSM    H9F16294   5.842   0.733   5.223  2.2040 -0.0017 -0.2724
  147OSM   C10F16295   5.869   0.898   5.352  0.1454 -0.2721  1.1983
  147OSM   H10F16296   5.819   0.845   5.434 -0.3400  0.2762  1.2634
  147OSM   C11F16297   5.906   1.041   5.372  0.2406 -0.1190 -0.2448
  147OSM   H11F16298   5.908   1.097   5.276  0.0241  0.9174  0.3510
  147OSM   H11G16299   6.011   1.038   5.408 -0.2101 -2.0771  1.0601
  147OSM   C12F16300   5.819   1.124   5.466 -0.0472  0.0624 -0.0772
  147OSM   H12F16301   5.731   1.132   5.399  0.0502 -0.3376 -0.2583
  147OSM   H12G16302   5.858   1.227   5.478 -0.6684  0.3709 -0.6331
  147OSM   C13F16303   5.799   1.061   5.606  0.0865 -0.1086 -0.3437
  147OSM   H13F16304   5.732   0.973   5.598 -0.7777  0.5585 -0.5902
  147OSM   H13G16305   5.741   1.139   5.660  1.1509  1.1080 -0.9130
  147OSM   C14F16306   5.923   1.017   5.685 -0.9627  0.8651 -0.4086
  147OSM   H14F16307   5.973   1.115   5.699 -1.1075  0.5527  3.1871
  147OSM   H14G16308   5.971   0.944   5.616 -1.3508  1.2103 -1.0546
  147OSM   C15F16309   5.906   0.966   5.822 -0.5341  0.2493 -0.9153
  147OSM   H15F16310   6.010   0.960   5.862 -0.0825  0.7065 -1.9864
  147OSM   H15G16311   5.867   0.862   5.826  0.9791 -0.3527  3.5471
  147OSM   C16F16312   5.832   1.057   5.917 -0.4339  0.3695  0.3923
  147OSM   H16F16313   5.842   1.166   5.899  0.0781  0.0582 -1.4314
  147OSM   H16G16314   5.886   1.043   6.013 -1.6559  0.9797  1.2061
  147OSM   C17F16315   5.680   1.024   5.938 -0.3074  0.0193  0.1840
  147OSM   H17F16316   5.653   0.919   5.967  2.4558 -0.5287  1.0402
  147OSM   H17G16317   5.627   1.044   5.843 -0.1825 -1.2686 -0.1769
  147OSM   C18F16318   5.621   1.132   6.031  0.7089  0.7765  0.2567
  147OSM   H18F16319   5.511   1.112   6.035  0.8876 -1.5390 -2.6189
  147OSM   H18G16320   5.628   1.232   5.982 -0.5246  0.4807 -0.5690
  147OSM   H18H16321   5.672   1.143   6.128 -0.3237  0.5619  0.8440
  148OSM      N16322   4.909   6.789   3.615 -0.7553  0.1584 -0.3980
  148OSM    C1516323   4.829   6.690   3.533  0.0107 -0.7410 -0.3635
  148OSM   H15A16324   4.858   6.587   3.549 -1.0751 -0.9150  0.5862
  148OSM   H15B16325   4.847   6.706   3.427  2.0928 -2.0805 -0.2743
  148OSM   H15C16326   4.722   6.698   3.540  0.0741 -0.5590  0.5140
  148OSM    C1416327   5.052   6.765   3.587 -0.7207  0.8905 -0.7434
  148OSM   H14A16328   5.075   6.822   3.498  2.5335  1.2302  0.2105
  148OSM   H14B16329   5.078   6.661   3.577  2.2778  1.4215  0.5855
  148OSM   H14C16330   5.114   6.803   3.666 -1.8093  1.1676 -0.0076
  148OSM    C1316331   4.867   6.924   3.582  0.6059 -0.4787  0.1606
  148OSM   H13A16332   4.762   6.929   3.607  0.4120  0.3656 -0.7324
  148OSM   H13B16333   4.895   6.946   3.480 -0.8369  2.2002  0.2306
  148OSM   H13C16334   4.921   6.997   3.641  0.5280 -0.5906  0.3713
  148OSM    C1216335   4.880   6.753   3.758 -0.6889  0.2314  0.1134
  148OSM   H12A16336   4.926   6.658   3.778 -1.8706  0.1691  3.1324
  148OSM   H12B16337   4.774   6.739   3.778 -1.1429 -3.2123 -3.6394
  148OSM    C1116338   4.936   6.836   3.876  0.1003  0.0077 -0.2889
  148OSM   H11A16339   5.046   6.842   3.866  0.0917 -1.1936 -1.4212
  148OSM   H11B16340   4.908   6.789   3.973  0.2543  2.0139  0.7920
  148OSM      P16341   4.731   6.993   3.921 -0.3404 -0.0717 -0.1453
  148OSM    O1316342   4.711   7.140   3.917  0.0041 -0.1103  0.2100
  148OSM    O1416343   4.637   6.912   3.842  0.4222 -0.0110  0.1519
  148OSM    O1116344   4.726   6.946   4.075 -0.0849  0.9426 -0.2877
  148OSM    O1216345   4.882   6.965   3.874  0.3109 -0.4041 -0.4232
  148OSM    C1S16346   4.823   7.004   4.157 -0.0060  0.1147  0.1481
  148OSM    H1S16347   4.827   7.115   4.148  1.6216  0.0707 -0.0237
  148OSM    H1T16348   4.922   6.979   4.113  1.2862  0.6867  2.5865
  148OSM     NF16349   4.920   7.033   4.389 -0.1935  0.4774  0.0122
  148OSM    HNF16350   5.014   7.005   4.378 -0.0551  1.6687 -2.6786
  148OSM    C2S16351   4.820   6.958   4.307 -0.6073  0.4345 -0.1922
  148OSM    H2S16352   4.722   6.985   4.351 -0.8713  0.8092 -0.9767
  148OSM    C3S16353   4.847   6.810   4.308 -0.3110  0.5319 -0.1519
  148OSM    H3S16354   4.950   6.789   4.271  0.0803  0.2439  1.0571
  148OSM     O316355   4.755   6.734   4.223 -0.4022  0.1959 -0.0766
  148OSM    HO316356   4.704   6.800   4.175  0.3217  0.2028 -0.8655
  148OSM    C4S16357   4.822   6.750   4.445 -0.6127 -0.4294 -0.5685
  148OSM    H4S16358   4.734   6.788   4.498 -1.0177 -0.5189 -1.1638
  148OSM    C5S16359   4.889   6.650   4.507  0.2589 -0.3900 -1.0343
  148OSM    H5S16360   4.980   6.609   4.461  2.4058  0.9061  1.6998
  148OSM    C6S16361   4.855   6.581   4.634  0.9537 -0.1438 -0.8250
  148OSM    H6S16362   4.935   6.607   4.707  0.3125 -0.5455  0.0476
  148OSM    H6T16363   4.855   6.473   4.610  0.2234 -0.2880 -0.2185
  148OSM    C7S16364   4.719   6.609   4.692  0.2272  0.2683  0.1735
  148OSM    H7S16365   4.647   6.596   4.608  0.4207  0.4167 -0.0185
  148OSM    H7T16366   4.704   6.716   4.719  2.5822  0.2721  1.7625
  148OSM    C8S16367   4.689   6.515   4.802  0.0609  0.3225  0.1145
  148OSM    H8S16368   4.766   6.522   4.883  2.0635 -2.4368 -1.3808
  148OSM    H8T16369   4.657   6.417   4.762 -0.5392  0.5419  0.0495
  148OSM    C9S16370   4.562   6.559   4.871  0.1572 -0.4283 -0.2075
  148OSM    H9S16371   4.477   6.529   4.806 -0.6339  2.2116 -0.4729
  148OSM    H9T16372   4.553   6.667   4.894 -0.3844  0.2206 -3.1280
  148OSM   C10S16373   4.541   6.485   5.005 -0.5311  0.8347  0.1992
  148OSM   H10S16374   4.632   6.491   5.069  0.8525 -0.9440 -1.4938
  148OSM   H10T16375   4.534   6.378   4.978  1.1623  1.0326 -1.1663
  148OSM   C11S16376   4.418   6.528   5.075  0.0210 -0.1055 -0.3578
  148OSM   H11S16377   4.340   6.485   5.008  0.8220 -0.6350 -0.9702
  148OSM   H11T16378   4.397   6.637   5.081 -0.9291 -0.3245  0.5592
  148OSM   C12S16379   4.407   6.468   5.219 -0.2254 -0.1702  0.4571
  148OSM   H12S16380   4.442   6.364   5.232 -1.9616 -1.1432 -1.8242
  148OSM   H12T16381   4.301   6.483   5.247 -0.6108 -1.2774 -0.3377
  148OSM   C13S16382   4.499   6.554   5.313 -0.3956 -0.6898 -0.9002
  148OSM   H13S16383   4.465   6.659   5.294 -1.3617 -0.8853 -0.2928
  148OSM   H13T16384   4.601   6.546   5.269 -0.5975 -0.4090 -1.4427
  148OSM   C14S16385   4.498   6.533   5.462  0.1690  0.6830 -0.1897
  148OSM   H14S16386   4.523   6.426   5.481  2.7521  1.2753  0.1188
  148OSM   H14T16387   4.390   6.549   5.482  0.2841  0.3429  0.7561
  148OSM   C15S16388   4.580   6.629   5.550  0.2661  0.5073 -0.2904
  148OSM   H15S16389   4.580   6.736   5.519  1.1085  0.9760  1.2072
  148OSM   H15T16390   4.684   6.591   5.559 -0.1283 -0.1396  2.3660
  148OSM   C16S16391   4.522   6.623   5.698 -0.4760  0.8517  0.4491
  148OSM   H16S16392   4.513   6.516   5.725  0.5250  1.2767  2.7506
  148OSM   H16T16393   4.418   6.661   5.706 -1.1860 -0.6223 -1.2355
  148OSM   C17S16394   4.600   6.685   5.811  0.1090  0.1136 -0.4449
  148OSM   H17S16395   4.593   6.795   5.798  0.7273  0.1534 -0.5089
  148OSM   H17T16396   4.705   6.649   5.818  0.1032  0.3468  1.0063
  148OSM   C18S16397   4.536   6.645   5.947  0.3252 -0.0616  0.5531
  148OSM   H18S16398   4.435   6.688   5.964  0.7478  0.6016  1.4781
  148OSM   H18T16399   4.597   6.682   6.032  0.7174  0.9532 -0.1336
  148OSM   H18U16400   4.532   6.534   5.951 -0.8577 -0.0259  0.6190
  148OSM    C1F16401   4.910   7.164   4.419 -1.0835  0.0768  0.0574
  148OSM     OF16402   4.794   7.211   4.414  0.1848 -0.4278  0.4857
  148OSM    C2F16403   5.034   7.237   4.464  0.2603 -0.9030 -0.5405
  148OSM    H2F16404   5.045   7.315   4.386 -4.2647  1.4368  0.8026
  148OSM    H2G16405   5.122   7.170   4.463  0.4335 -0.7083  0.5647
  148OSM    C3F16406   5.020   7.298   4.608  0.4726 -0.4052 -0.3909
  148OSM    H3F16407   4.977   7.217   4.671  1.7417 -1.2083 -0.5164
  148OSM    H3G16408   4.952   7.386   4.606 -1.1448 -1.5931 -0.0375
  148OSM    C4F16409   5.143   7.352   4.670 -1.0172 -0.7164 -0.6020
  148OSM    H4F16410   5.172   7.449   4.623 -1.6285  0.8488  2.0171
  148OSM    H4G16411   5.227   7.281   4.655  1.6058  1.6568  1.6453
  148OSM    C5F16412   5.115   7.403   4.807  0.7151  0.3065 -0.2844
  148OSM    H5F16413   5.066   7.323   4.866 -0.7515  1.3458 -0.0379
  148OSM    H5G16414   5.053   7.495   4.816  0.0882 -0.1511  0.1362
  148OSM    C6F16415   5.244   7.433   4.891 -0.9763 -0.2245 -1.1614
  148OSM    H6F16416   5.281   7.521   4.835 -0.2163  0.9640  1.0952
  148OSM    H6G16417   5.314   7.348   4.875  0.1290  0.7673 -1.7962
  148OSM    C7F16418   5.211   7.477   5.036  0.6100  0.2555 -0.2029
  148OSM    H7F16419   5.149   7.391   5.069  0.1471  0.9085  0.6366
  148OSM    H7G16420   5.157   7.574   5.033  1.4091  0.7263  0.2415
  148OSM    C8F16421   5.332   7.489   5.138 -1.1257 -0.0225 -0.5539
  148OSM    H8F16422   5.381   7.390   5.121  2.4902  1.5270 -0.0714
  148OSM    H8G16423   5.306   7.493   5.245  2.7342 -3.6740  0.7940
  148OSM    C9F16424   5.419   7.603   5.097  0.3173  0.0024  0.0829
  148OSM    H9F16425   5.433   7.604   4.988 -0.3213  0.3899  0.0021
  148OSM   C10F16426   5.468   7.705   5.166  0.1013 -0.5105 -0.0569
  148OSM   H10F16427   5.528   7.775   5.106  0.4938 -1.3681 -0.6939
  148OSM   C11F16428   5.457   7.729   5.313 -0.0279 -0.2960  0.0306
  148OSM   H11F16429   5.547   7.688   5.363 -0.1187 -0.2011  0.2726
  148OSM   H11G16430   5.371   7.682   5.365 -1.3539  0.4917 -1.3620
  148OSM   C12F16431   5.435   7.881   5.331 -1.2440 -0.6865  0.4385
  148OSM   H12F16432   5.342   7.923   5.285 -0.3002  0.5822 -0.3966
  148OSM   H12G16433   5.520   7.938   5.287 -2.4724  1.6798  0.9459
  148OSM   C13F16434   5.425   7.916   5.477 -0.3190  0.0250 -0.4719
  148OSM   H13F16435   5.440   8.026   5.487  0.4218 -0.0670 -0.5387
  148OSM   H13G16436   5.501   7.864   5.538 -0.5607 -1.1201 -1.1245
  148OSM   C14F16437   5.294   7.879   5.541 -0.1789 -0.7511  0.2557
  148OSM   H14F16438   5.272   7.771   5.536 -2.5377 -0.3469  0.5375
  148OSM   H14G16439   5.210   7.921   5.481  0.1400 -1.4256 -0.6886
  148OSM   C15F16440   5.288   7.908   5.686 -0.0830  0.8669 -0.3451
  148OSM   H15F16441   5.316   8.011   5.716 -0.3611  0.6929  0.5519
  148OSM   H15G16442   5.351   7.843   5.750 -3.5135 -1.0036  1.4444
  148OSM   C16F16443   5.141   7.882   5.744  0.0194 -0.0427  0.3992
  148OSM   H16F16444   5.127   7.774   5.724  0.4507  0.4012 -2.9745
  148OSM   H16G16445   5.076   7.954   5.688 -0.6108  0.0063  1.1806
  148OSM   C17F16446   5.126   7.919   5.887  0.6415  0.6113 -0.8157
  148OSM   H17F16447   5.015   7.926   5.890  0.5061 -0.4685 -1.9660
  148OSM   H17G16448   5.172   8.018   5.904 -0.9732  1.7402 -2.5755
  148OSM   C18F16449   5.185   7.815   5.979 -0.8826  0.6091  0.2544
  148OSM   H18F16450   5.151   7.711   5.965 -0.1333  0.5602 -1.5270
  148OSM   H18G16451   5.150   7.835   6.083  0.2928  1.6117  0.4907
  148OSM   H18H16452   5.296   7.824   5.984 -0.9415  0.7661  1.6641
  149OSM      N16453   6.644   5.466   3.490 -0.6452  0.1564  0.4692
  149OSM    C1516454   6.585   5.348   3.429  0.7983 -0.8599  0.2048
  149OSM   H15A16455   6.479   5.349   3.410  0.1979 -0.3284  3.1375
  149OSM   H15B16456   6.620   5.261   3.483 -0.1943 -1.2146  0.2980
  149OSM   H15C16457   6.628   5.332   3.331  0.5777 -0.6045  0.0652
  149OSM    C1416458   6.580   5.489   3.620  0.5279 -0.4894 -0.8941
  149OSM   H14A16459   6.606   5.587   3.657 -1.5565 -0.3853  0.4414
  149OSM   H14B16460   6.626   5.431   3.699  2.1692  1.5313 -0.2570
  149OSM   H14C16461   6.474   5.473   3.616  0.3689  0.6314 -1.9407
  149OSM    C1316462   6.791   5.431   3.511  0.1399  0.7394 -0.0769
  149OSM   H13A16463   6.836   5.415   3.414 -2.0956 -0.8677 -0.9357
  149OSM   H13B16464   6.803   5.343   3.573  1.8976  0.6328 -0.5020
  149OSM   H13C16465   6.851   5.511   3.552  2.6487 -0.6752 -0.7470
  149OSM    C1216466   6.614   5.590   3.397  0.2297  0.0499  0.2110
  149OSM   H12A16467   6.634   5.574   3.292  1.0278 -2.2010  0.6539
  149OSM   H12B16468   6.689   5.662   3.425  0.4214 -0.1164  0.1350
  149OSM    C1116469   6.472   5.654   3.394 -0.4429  1.2114 -0.0091
  149OSM   H11A16470   6.402   5.569   3.385  1.0374 -0.0723  0.2432
  149OSM   H11B16471   6.466   5.727   3.311  0.7411  3.4800  1.7633
  149OSM      P16472   6.531   5.863   3.551  0.3713 -0.1303  0.0257
  149OSM    O1316473   6.663   5.861   3.490  0.0662 -0.0038  0.8825
  149OSM    O1416474   6.447   5.987   3.528  0.0604 -0.0013 -0.7390
  149OSM    O1116475   6.539   5.834   3.707  1.0468 -0.0899  0.8987
  149OSM    O1216476   6.449   5.732   3.512  0.1739 -0.8039  0.1137
  149OSM    C1S16477   6.416   5.804   3.785 -0.1685 -0.6348  0.1870
  149OSM    H1S16478   6.388   5.700   3.757 -1.8810  0.3064 -1.8085
  149OSM    H1T16479   6.328   5.863   3.753  0.9065 -0.3653 -2.4778
  149OSM     NF16480   6.290   5.793   3.998 -0.6289 -0.2125  0.0013
  149OSM    HNF16481   6.239   5.862   4.050  1.9023  0.8114  1.3209
  149OSM    C2S16482   6.422   5.825   3.940  0.0117  0.2683 -1.0015
  149OSM    H2S16483   6.497   5.750   3.972 -0.0666  0.4253 -0.4524
  149OSM    C3S16484   6.468   5.967   3.975 -0.1025  0.5382  0.2648
  149OSM    H3S16485   6.373   6.025   3.972 -0.3016  0.5782  3.3899
  149OSM     O316486   6.562   6.035   3.896  0.1030  0.1868  0.5987
  149OSM    HO316487   6.591   5.972   3.829  0.1934  1.4616 -0.6314
  149OSM    C4S16488   6.491   5.979   4.125  0.2241 -0.0937 -0.4608
  149OSM    H4S16489   6.399   5.992   4.184  0.8092 -2.2743  1.0614
  149OSM    C5S16490   6.610   5.979   4.187  0.1031  0.3926  0.3434
  149OSM    H5S16491   6.699   5.958   4.125 -1.3573 -2.7401 -0.8588
  149OSM    C6S16492   6.632   5.982   4.336  0.6138 -0.2751 -0.0730
  149OSM    H6S16493   6.534   5.999   4.385  0.5553  0.4342 -0.4191
  149OSM    H6T16494   6.703   6.064   4.360 -1.3587  0.8789  2.2738
  149OSM    C7S16495   6.694   5.854   4.399 -1.0333 -0.0335 -0.6381
  149OSM    H7S16496   6.786   5.832   4.341 -0.3298  2.0418 -0.4188
  149OSM    H7T16497   6.630   5.768   4.374  1.5846 -1.9898 -1.0607
  149OSM    C8S16498   6.718   5.859   4.558 -0.3059  0.6168 -0.1740
  149OSM    H8S16499   6.791   5.939   4.582  0.2363  0.6364 -1.7400
  149OSM    H8T16500   6.779   5.767   4.571 -0.5069  0.1208 -2.3335
  149OSM    C9S16501   6.593   5.859   4.641 -0.3163  0.4771  0.3068
  149OSM    H9S16502   6.547   5.758   4.631  3.3781 -1.6841  2.6600
  149OSM    H9T16503   6.528   5.942   4.607 -0.0091  1.0319  1.0386
  149OSM   C10S16504   6.604   5.875   4.797  0.2548 -0.0969 -0.5579
  149OSM   H10S16505   6.647   5.974   4.823 -2.0503  1.4661 -2.3081
  149OSM   H10T16506   6.662   5.794   4.846 -1.7430 -0.0089  2.2662
  149OSM   C11S16507   6.465   5.882   4.872 -0.0095 -0.0752  0.0428
  149OSM   H11S16508   6.416   5.791   4.830  2.9852 -0.4037 -3.1578
  149OSM   H11T16509   6.413   5.977   4.846  1.6016  0.3853 -1.7346
  149OSM   C12S16510   6.461   5.878   5.030 -0.3542  0.7102  0.2553
  149OSM   H12S16511   6.513   5.783   5.057 -0.9606 -0.0908 -1.2631
  149OSM   H12T16512   6.355   5.878   5.061 -0.6845 -1.1250 -0.7059
  149OSM   C13S16513   6.539   6.003   5.085 -0.0847 -0.4313  0.1463
  149OSM   H13S16514   6.498   6.087   5.027  0.9559 -1.0527 -1.5605
  149OSM   H13T16515   6.648   5.990   5.064 -0.0271 -2.1210  1.2144
  149OSM   C14S16516   6.527   6.018   5.239 -0.2657 -0.3679  0.1668
  149OSM   H14S16517   6.417   6.008   5.253 -0.4008 -0.6784 -1.0495
  149OSM   H14T16518   6.563   6.113   5.282  0.7345 -0.6254 -0.0703
  149OSM   C15S16519   6.586   5.901   5.325 -0.4266  0.1908  0.4049
  149OSM   H15S16520   6.695   5.916   5.341  0.1591 -1.7591 -1.3517
  149OSM   H15T16521   6.573   5.802   5.276  0.7153 -0.0662  0.6051
  149OSM   C16S16522   6.513   5.899   5.462  0.0011  0.8926 -0.2620
  149OSM   H16S16523   6.414   5.850   5.448 -0.0382  1.1803 -1.0204
  149OSM   H16T16524   6.496   6.005   5.490  0.1567  0.6921  0.6432
  149OSM   C17S16525   6.589   5.824   5.570 -0.0613  0.4561 -0.5228
  149OSM   H17S16526   6.680   5.885   5.587 -0.3378  1.3682 -2.1220
  149OSM   H17T16527   6.629   5.730   5.528  0.0822  0.7309 -1.0123
  149OSM   C18S16528   6.514   5.809   5.702  0.3895  0.5413 -0.4268
  149OSM   H18S16529   6.557   5.737   5.774 -1.8714 -0.2280  0.2392
  149OSM   H18T16530   6.411   5.771   5.688  0.0871  1.0389  0.4063
  149OSM   H18U16531   6.504   5.912   5.741 -2.6379  2.0772 -4.5095
  149OSM    C1F16532   6.240   5.666   3.997 -0.3842 -0.5455 -0.3196
  149OSM     OF16533   6.293   5.575   3.935  0.0762 -0.1324 -0.0650
  149OSM    C2F16534   6.106   5.633   4.066 -0.4429 -0.0141 -0.2623
  149OSM    H2F16535   6.039   5.608   3.981 -0.6070 -2.6067  0.5390
  149OSM    H2G16536   6.078   5.724   4.124 -1.5845  0.2357 -1.1719
  149OSM    C3F16537   6.113   5.523   4.167 -0.1682 -0.2062 -0.6339
  149OSM    H3F16538   6.136   5.426   4.116  2.0726  0.1270 -0.3627
  149OSM    H3G16539   6.010   5.522   4.208  0.6516 -1.2262  1.5074
  149OSM    C4F16540   6.229   5.535   4.277 -0.2233  0.1503 -0.1200
  149OSM    H4F16541   6.249   5.644   4.289 -0.2281  0.0235  1.2159
  149OSM    H4G16542   6.320   5.489   4.233  0.7332  3.6034 -2.1780
  149OSM    C5F16543   6.206   5.468   4.410 -0.1376  0.1607 -0.4450
  149OSM    H5F16544   6.204   5.359   4.390 -0.6554  0.0311  0.2375
  149OSM    H5G16545   6.107   5.496   4.453 -1.2762 -3.7033 -0.1606
  149OSM    C6F16546   6.308   5.481   4.522 -0.6347  0.1304 -0.4783
  149OSM    H6F16547   6.309   5.586   4.560  0.1854  0.4065 -1.2456
  149OSM    H6G16548   6.409   5.446   4.493  0.4359  2.9972 -0.4707
  149OSM    C7F16549   6.268   5.393   4.650 -0.4297 -0.6231 -0.1509
  149OSM    H7F16550   6.290   5.285   4.634  0.7997 -0.3777 -0.2456
  149OSM    H7G16551   6.163   5.409   4.680 -0.5171 -1.0414 -0.2264
  149OSM    C8F16552   6.352   5.443   4.772 -0.0862  0.2052  0.7192
  149OSM    H8F16553   6.310   5.545   4.785 -2.1484 -0.5476  0.2791
  149OSM    H8G16554   6.461   5.450   4.748  0.1975  0.8700  2.1262
  149OSM    C9F16555   6.324   5.361   4.893 -0.1905 -0.4838 -0.0884
  149OSM    H9F16556   6.325   5.252   4.876 -2.4777 -0.2589 -2.1127
  149OSM   C10F16557   6.285   5.409   5.016  0.3475 -0.1265 -0.4938
  149OSM   H10F16558   6.253   5.332   5.087 -1.1689 -0.1522 -1.1551
  149OSM   C11F16559   6.268   5.553   5.055 -0.0857  0.9062 -0.2936
  149OSM   H11F16560   6.164   5.591   5.055  0.1194  1.6155  2.0470
  149OSM   H11G16561   6.317   5.622   4.983 -2.3773  1.4019 -1.4710
  149OSM   C12F16562   6.331   5.573   5.197  0.1886 -0.0076  0.8142
  149OSM   H12F16563   6.332   5.681   5.224  0.1853  0.1629  0.1702
  149OSM   H12G16564   6.436   5.534   5.201  0.6648  1.1672  0.2683
  149OSM   C13F16565   6.250   5.500   5.307 -0.1099  0.2250 -0.2691
  149OSM   H13F16566   6.258   5.390   5.309 -2.4884  0.0058  1.8826
  149OSM   H13G16567   6.148   5.540   5.285 -0.0797  0.7427  0.5002
  149OSM   C14F16568   6.281   5.565   5.442  0.4016 -0.5184 -0.3616
  149OSM   H14F16569   6.241   5.668   5.442  0.1082 -0.6290  0.1834
  149OSM   H14G16570   6.391   5.576   5.446  0.3639  0.1294 -0.9759
  149OSM   C15F16571   6.222   5.490   5.566 -0.2125 -0.1099  0.5922
  149OSM   H15F16572   6.287   5.400   5.575 -1.5036 -1.2623 -0.8882
  149OSM   H15G16573   6.117   5.463   5.540 -0.2460  0.7984 -0.2986
  149OSM   C16F16574   6.221   5.570   5.700 -0.7474 -0.1010 -0.0081
  149OSM   H16F16575   6.191   5.676   5.687  1.7943  0.6668 -0.0743
  149OSM   H16G16576   6.328   5.568   5.731 -0.3871  1.7714 -0.9890
  149OSM   C17F16577   6.120   5.516   5.794  0.6091 -0.2927 -0.1743
  149OSM   H17F16578   6.121   5.407   5.773 -0.1048 -0.0295 -1.6512
  149OSM   H17G16579   6.017   5.546   5.766  0.2542  0.4953  1.7857
  149OSM   C18F16580   6.141   5.549   5.939 -0.0235  0.4230 -0.5611
  149OSM   H18F16581   6.234   5.511   5.985 -1.0220 -1.3592  0.0766
  149OSM   H18G16582   6.059   5.512   6.005  0.7940  3.1948  2.2789
  149OSM   H18H16583   6.146   5.660   5.946  0.0444  0.4424 -0.9083
  150OSM      N16584   2.822   1.808   3.901 -0.3247  0.2730 -0.0549
  150OSM    C1516585   2.914   1.721   3.982 -0.7149 -0.3011 -0.2386
  150OSM   H15A16586   2.935   1.767   4.078  1.2185 -0.2262 -0.6435
  150OSM   H15B16587   3.013   1.700   3.944 -0.8543 -3.0780  0.6965
  150OSM   H15C16588   2.869   1.624   3.998  0.3758 -0.4529  2.3682
  150OSM    C1416589   2.880   1.944   3.899  0.4053  0.0273  0.0148
  150OSM   H14A16590   2.816   2.015   3.849  1.1973  0.9602  0.3031
  150OSM   H14B16591   2.972   1.939   3.842  0.7400 -2.0315  0.6642
  150OSM   H14C16592   2.889   1.987   3.997  0.1870  0.7739 -0.2822
  150OSM    C1316593   2.819   1.753   3.752  0.1717  0.1413 -0.1166
  150OSM   H13A16594   2.798   1.647   3.753  0.4750  0.0637 -0.9021
  150OSM   H13B16595   2.918   1.759   3.709 -0.0122 -0.9818 -0.7196
  150OSM   H13C16596   2.742   1.811   3.702 -0.0782 -0.1233 -0.0407
  150OSM    C1216597   2.683   1.813   3.962 -0.2235 -0.1282  0.9531
  150OSM   H12A16598   2.614   1.839   3.883 -0.4228 -1.5173  0.6564
  150OSM   H12B16599   2.674   1.891   4.036 -0.5896  1.3131 -0.5308
  150OSM    C1116600   2.619   1.677   4.008  0.6330  0.5888 -0.7220
  150OSM   H11A16601   2.513   1.694   4.036 -0.1079 -3.1596 -0.7702
  150OSM   H11B16602   2.676   1.653   4.100  1.5467 -0.9768 -1.6615
  150OSM      P16603   2.502   1.499   3.864  0.0947 -0.0246  0.2235
  150OSM    O1316604   2.407   1.603   3.811  0.2627 -0.5838 -0.2069
  150OSM    O1416605   2.531   1.393   3.767  0.3955 -0.7005 -0.2851
  150OSM    O1116606   2.434   1.446   3.996 -0.1779 -0.2909 -0.4307
  150OSM    O1216607   2.632   1.570   3.914 -0.1302 -0.0795 -0.1608
  150OSM    C1S16608   2.500   1.379   4.101 -0.4233  0.0451  0.2284
  150OSM    H1S16609   2.607   1.407   4.110  0.0180 -0.5230 -2.4316
  150OSM    H1T16610   2.506   1.271   4.077 -2.4912  0.0200 -0.3829
  150OSM     NF16611   2.529   1.343   4.339  0.0751  0.6552 -0.1783
  150OSM    HNF16612   2.502   1.260   4.387  1.4365  0.5580  0.4680
  150OSM    C2S16613   2.441   1.400   4.241 -0.0787 -0.7424 -0.7711
  150OSM    H2S16614   2.438   1.509   4.262 -0.0138 -0.7888 -0.5087
  150OSM    C3S16615   2.289   1.361   4.244 -1.0418  0.1480 -0.7303
  150OSM    H3S16616   2.300   1.251   4.236  0.8778  0.3384 -1.1767
  150OSM     O316617   2.199   1.390   4.136 -0.1558 -0.5677 -0.0858
  150OSM    HO316618   2.245   1.424   4.059 -1.2773 -0.5292 -0.7672
  150OSM    C4S16619   2.233   1.395   4.380  0.5517  0.3708  0.0221
  150OSM    H4S16620   2.249   1.316   4.455 -3.0884 -2.3553 -1.7737
  150OSM    C5S16621   2.158   1.504   4.411 -0.1402  0.2729 -0.3151
  150OSM    H5S16622   2.131   1.574   4.331 -1.1919 -1.4383 -1.5383
  150OSM    C6S16623   2.100   1.532   4.552  0.8289 -0.2482 -0.4978
  150OSM    H6S16624   2.007   1.472   4.554  0.6078  0.0618 -1.0830
  150OSM    H6T16625   2.081   1.640   4.574  1.4378 -0.7780  3.3204
  150OSM    C7S16626   2.188   1.477   4.671 -0.4166  0.8768 -0.2775
  150OSM    H7S16627   2.288   1.524   4.679  0.5125 -1.0661  0.2300
  150OSM    H7T16628   2.213   1.372   4.647 -0.8901  0.6300  0.2868
  150OSM    C8S16629   2.108   1.485   4.794 -0.0961  0.1142 -0.3516
  150OSM    H8S16630   2.015   1.426   4.782 -0.7173  1.4973 -2.9779
  150OSM    H8T16631   2.076   1.591   4.807 -0.6842 -0.3138  2.3902
  150OSM    C9S16632   2.181   1.445   4.918 -0.0102  0.2703 -0.5207
  150OSM    H9S16633   2.274   1.504   4.916 -0.0436  0.3526 -2.9184
  150OSM    H9T16634   2.208   1.337   4.908  1.3434  0.5827 -0.2907
  150OSM   C10S16635   2.090   1.464   5.041 -0.4889  0.0079 -0.4886
  150OSM   H10S16636   1.991   1.421   5.017 -0.3272 -1.1208  0.7500
  150OSM   H10T16637   2.082   1.573   5.063  0.1839 -0.3807  2.0282
  150OSM   C11S16638   2.138   1.384   5.160  0.0889 -0.3052  0.7452
  150OSM   H11S16639   2.243   1.415   5.179  0.6164  0.5105 -2.8414
  150OSM   H11T16640   2.134   1.275   5.141  2.0066 -0.7783  2.6688
  150OSM   C12S16641   2.067   1.440   5.288 -0.3067  0.5175  0.2572
  150OSM   H12S16642   1.962   1.464   5.260 -0.1793  0.4402 -0.2982
  150OSM   H12T16643   2.114   1.540   5.300  1.3187  0.1708 -2.3965
  150OSM   C13S16644   2.083   1.357   5.408 -0.6223  0.3561 -0.6905
  150OSM   H13S16645   2.189   1.327   5.424 -1.1889 -0.9405  0.8448
  150OSM   H13T16646   2.020   1.266   5.401 -0.9879  0.6983 -2.3660
  150OSM   C14S16647   2.050   1.421   5.541  0.3469 -0.2189 -0.0462
  150OSM   H14S16648   1.940   1.420   5.554  0.2534 -0.3335 -0.7887
  150OSM   H14T16649   2.080   1.528   5.537  1.5394 -0.4757  1.2950
  150OSM   C15S16650   2.112   1.358   5.666  0.3981 -0.5618 -0.7432
  150OSM   H15S16651   2.095   1.428   5.751  0.9864  0.1508 -1.2024
  150OSM   H15T16652   2.223   1.353   5.655  0.5518  0.7863 -0.0942
  150OSM   C16S16653   2.052   1.225   5.706  0.4555 -0.1341  0.0098
  150OSM   H16S16654   2.089   1.147   5.636  2.3854  1.6496 -1.0758
  150OSM   H16T16655   1.941   1.231   5.706 -0.0090 -4.4746  2.8913
  150OSM   C17S16656   2.094   1.179   5.846  0.4334 -0.5443 -0.4000
  150OSM   H17S16657   2.032   1.091   5.872  0.5425 -0.1121  1.5064
  150OSM   H17T16658   2.066   1.259   5.918 -0.7553 -2.4704  1.4127
  150OSM   C18S16659   2.237   1.140   5.856 -0.3651  0.4361 -0.8831
  150OSM   H18S16660   2.296   1.233   5.870 -1.9035  1.4438 -0.8715
  150OSM   H18T16661   2.265   1.085   5.764 -0.8315 -0.4992 -0.4836
  150OSM   H18U16662   2.255   1.076   5.945  0.5912  2.0850  0.1618
  150OSM    C1F16663   2.651   1.382   4.379  0.1484 -0.6571  0.1535
  150OSM     OF16664   2.708   1.483   4.331  0.1728  0.3551  0.0426
  150OSM    C2F16665   2.714   1.297   4.481  0.2641  0.0310  0.1325
  150OSM    H2F16666   2.823   1.305   4.462  0.0513 -0.9570 -1.7488
  150OSM    H2G16667   2.684   1.192   4.463  0.2461  0.1241 -0.4162
  150OSM    C3F16668   2.696   1.336   4.633 -0.3425 -0.6697  0.6302
  150OSM    H3F16669   2.591   1.363   4.658 -0.0919 -0.0982  1.0948
  150OSM    H3G16670   2.751   1.432   4.639  0.7892 -1.2099 -0.6018
  150OSM    C4F16671   2.755   1.224   4.722 -0.5291  0.2656  0.0813
  150OSM    H4F16672   2.860   1.230   4.685 -0.8685  0.4061 -0.8971
  150OSM    H4G16673   2.721   1.125   4.685 -0.9889  0.2712  0.4752
  150OSM    C5F16674   2.739   1.245   4.874 -0.5279  0.1285 -0.7174
  150OSM    H5F16675   2.639   1.205   4.901  1.1197 -2.3096  2.5627
  150OSM    H5G16676   2.748   1.351   4.903  1.1532 -0.2309  0.1924
  150OSM    C6F16677   2.855   1.163   4.942  0.3440 -1.2109  0.2665
  150OSM    H6F16678   2.958   1.192   4.913  1.1013  0.0280  3.6904
  150OSM    H6G16679   2.837   1.055   4.922 -2.5833 -0.8192  0.3566
  150OSM    C7F16680   2.848   1.174   5.094 -0.4425 -0.1905 -0.5849
  150OSM    H7F16681   2.745   1.148   5.128 -0.1651  1.0935  1.3689
  150OSM    H7G16682   2.864   1.279   5.125 -1.5964 -0.5062  1.2261
  150OSM    C8F16683   2.947   1.083   5.171 -0.0013  0.4180 -0.1825
  150OSM    H8F16684   3.046   1.117   5.133  0.4104 -0.4193  0.1145
  150OSM    H8G16685   2.942   0.982   5.125  1.5266 -0.7311  1.9886
  150OSM    C9F16686   2.955   1.071   5.317  0.0728 -0.2149  0.0090
  150OSM    H9F16687   2.953   1.164   5.376  0.2835 -0.1801 -0.0391
  150OSM   C10F16688   2.942   0.962   5.385 -0.0012  0.0962 -0.0194
  150OSM   H10F16689   2.947   0.963   5.494  2.0191  1.7517 -0.0818
  150OSM   C11F16690   2.946   0.817   5.333 -0.3634 -0.2368  0.7702
  150OSM   H11F16691   3.019   0.757   5.393  1.0007  2.1119  1.6193
  150OSM   H11G16692   3.001   0.817   5.237  0.8675  0.8916  1.4335
  150OSM   C12F16693   2.809   0.745   5.334  0.3831  0.2087 -0.3311
  150OSM   H12F16694   2.832   0.642   5.299 -1.0349 -0.3404  0.2490
  150OSM   H12G16695   2.739   0.797   5.264  2.0950  1.5132 -1.1581
  150OSM   C13F16696   2.739   0.738   5.475  0.4800  0.4450 -0.2606
  150OSM   H13F16697   2.719   0.844   5.503 -0.6693  0.1743  0.0359
  150OSM   H13G16698   2.802   0.701   5.559  0.6755  2.3611  0.4727
  150OSM   C14F16699   2.597   0.669   5.466 -0.5981 -0.5425  0.0626
  150OSM   H14F16700   2.602   0.585   5.393 -1.8924 -0.9356  0.4117
  150OSM   H14G16701   2.527   0.747   5.428 -0.6371 -0.5607  0.0972
  150OSM   C15F16702   2.549   0.616   5.608  0.0366  0.6918  0.4636
  150OSM   H15F16703   2.463   0.550   5.580 -0.1451  0.6937  1.0026
  150OSM   H15G16704   2.510   0.700   5.670  1.2949 -0.0961  2.4352
  150OSM   C16F16705   2.651   0.534   5.693 -0.7137 -0.2003  0.0741
  150OSM   H16F16706   2.738   0.599   5.715 -1.7900  2.0120 -1.7601
  150OSM   H16G16707   2.694   0.454   5.629 -1.6118 -0.9506  0.3788
  150OSM   C17F16708   2.586   0.470   5.827 -0.2511 -0.4270  0.6487
  150OSM   H17F16709   2.659   0.403   5.878  1.2039 -1.3478 -2.4407
  150OSM   H17G16710   2.507   0.406   5.782 -1.1792  1.2434 -0.1579
  150OSM   C18F16711   2.511   0.574   5.919 -0.3827  0.5026  0.3930
  150OSM   H18F16712   2.586   0.631   5.978 -1.8084  1.7986  1.0455
  150OSM   H18G16713   2.446   0.532   5.999 -0.1628 -1.7440 -0.5417
  150OSM   H18H16714   2.447   0.649   5.868 -0.8843  0.5438  1.0660
  151OSM      N16715   3.494   0.432   3.602  0.4478 -0.6818  0.0628
  151OSM    C1516716   3.621   0.503   3.595  0.1880 -0.4349  0.2124
  151OSM   H15A16717   3.607   0.604   3.560  0.3570 -0.8030 -0.9376
  151OSM   H15B16718   3.692   0.451   3.533  1.4777  1.4342  0.0367
  151OSM   H15C16719   3.676   0.515   3.687  2.9709  0.0493 -1.3914
  151OSM    C1416720   3.446   0.402   3.466 -0.2199 -0.6197  0.6420
  151OSM   H14A16721   3.366   0.330   3.475 -1.7906  0.9831  0.2272
  151OSM   H14B16722   3.521   0.362   3.400 -0.6990 -0.3802 -0.0707
  151OSM   H14C16723   3.403   0.489   3.418 -0.3876 -1.0760 -0.0574
  151OSM    C1316724   3.529   0.299   3.652 -0.5389  1.3945 -1.3194
  151OSM   H13A16725   3.608   0.248   3.598  2.1154  1.5443  2.0600
  151OSM   H13B16726   3.439   0.240   3.654  0.1885  0.2639  0.6355
  151OSM   H13C16727   3.572   0.309   3.750  1.3788  0.6996 -2.0301
  151OSM    C1216728   3.388   0.493   3.686 -0.2505 -0.2861 -0.6112
  151OSM   H12A16729   3.378   0.595   3.653 -0.3617 -0.2805 -0.5618
  151OSM   H12B16730   3.432   0.499   3.784  0.2433 -3.5132 -0.5186
  151OSM    C1116731   3.250   0.441   3.703  0.0282  0.5212 -0.2839
  151OSM   H11A16732   3.200   0.427   3.605 -2.2092  0.7947  0.7566
  151OSM   H11B16733   3.186   0.518   3.752  0.6682  1.7486 -1.3343
  151OSM      P16734   3.299   0.304   3.927  0.1441  0.0690  0.2181
  151OSM    O1316735   3.350   0.171   3.946  0.3451  0.1759 -0.3127
  151OSM    O1416736   3.396   0.411   3.956  0.1421  0.7948  0.0657
  151OSM    O1116737   3.170   0.319   4.010  0.1331  0.3253  0.0149
  151OSM    O1216738   3.242   0.327   3.782  0.6909  0.2205  0.1786
  151OSM    C1S16739   3.030   0.290   3.978 -0.7246  0.5765 -0.1473
  151OSM    H1S16740   3.018   0.228   3.886 -1.8925 -0.9910  1.0018
  151OSM    H1T16741   2.979   0.386   3.952  0.8576  2.5257  3.2460
  151OSM     NF16742   2.840   0.155   4.054 -0.0416 -0.2884  0.2029
  151OSM    HNF16743   2.750   0.191   4.079  0.6321  1.0671  0.7708
  151OSM    C2S16744   2.957   0.226   4.101 -0.2992  0.2426 -0.2899
  151OSM    H2S16745   3.029   0.149   4.136 -2.0547 -0.4436  2.0680
  151OSM    C3S16746   2.925   0.326   4.211 -1.0468 -0.2493 -0.3506
  151OSM    H3S16747   2.837   0.383   4.172 -0.1729 -0.9617 -3.7350
  151OSM     O316748   3.026   0.423   4.235  0.0358 -0.3444  0.1709
  151OSM    HO316749   3.092   0.403   4.169  1.7612 -0.4358  1.8450
  151OSM    C4S16750   2.876   0.251   4.336  0.0790 -0.2262 -0.1235
  151OSM    H4S16751   2.773   0.219   4.315  0.3233  0.1776 -2.2201
  151OSM    C5S16752   2.933   0.217   4.459 -0.0244  0.3832  1.0115
  151OSM    H5S16753   3.042   0.228   4.471 -0.0542  0.8794  0.8473
  151OSM    C6S16754   2.872   0.144   4.571 -0.5180 -0.7094  0.7226
  151OSM    H6S16755   2.927   0.159   4.667  1.0356 -2.2260  0.1095
  151OSM    H6T16756   2.877   0.036   4.549  1.9533 -0.9771  2.2039
  151OSM    C7S16757   2.728   0.193   4.596  0.1113 -0.1750  0.0291
  151OSM    H7S16758   2.667   0.145   4.516 -1.1329  0.5682  0.5035
  151OSM    H7T16759   2.720   0.303   4.578 -0.8965 -0.4853 -1.5769
  151OSM    C8S16760   2.651   0.165   4.730  0.2424 -0.1482 -0.1916
  151OSM    H8S16761   2.542   0.188   4.727 -0.0066 -1.3396 -0.9692
  151OSM    H8T16762   2.711   0.216   4.808  1.8383 -1.9027 -0.1886
  151OSM    C9S16763   2.669   0.023   4.778 -0.1424  0.3711  0.5676
  151OSM    H9S16764   2.774  -0.011   4.774  0.2177  1.4912 -0.0536
  151OSM    H9T16765   2.620  -0.040   4.701  1.9425 -0.4467 -0.1383
  151OSM   C10S16766   2.608  -0.006   4.911 -0.1945  0.2222  1.2223
  151OSM   H10S16767   2.598  -0.116   4.923 -0.3241  0.1391  0.4191
  151OSM   H10T16768   2.508   0.039   4.894 -0.9741 -1.5724  0.8183
  151OSM   C11S16769   2.675   0.041   5.038  0.6497 -0.6479  0.0866
  151OSM   H11S16770   2.719   0.142   5.023  1.5656 -1.1148 -0.4507
  151OSM   H11T16771   2.762  -0.026   5.056  0.0730 -0.6200  3.6506
  151OSM   C12S16772   2.584   0.028   5.157 -0.3431 -0.0866  0.1750
  151OSM   H12S16773   2.554  -0.078   5.165  1.2483 -0.7351 -1.7818
  151OSM   H12T16774   2.495   0.093   5.139  0.3054  0.7979  0.0985
  151OSM   C13S16775   2.647   0.082   5.281 -0.5448 -1.1746 -0.0127
  151OSM   H13S16776   2.658   0.191   5.262 -0.1442 -1.5966 -2.5660
  151OSM   H13T16777   2.751   0.042   5.272  1.7699  4.2762 -1.6320
  151OSM   C14S16778   2.574   0.054   5.413  0.0194  0.4400  0.4028
  151OSM   H14S16779   2.572  -0.055   5.431  2.9230  0.4971  1.6517
  151OSM   H14T16780   2.471   0.093   5.399 -0.2283 -0.7608 -1.3999
  151OSM   C15S16781   2.625   0.131   5.537  0.0958  0.2153  0.2669
  151OSM   H15S16782   2.623   0.241   5.520  0.7722  0.2183  0.1925
  151OSM   H15T16783   2.725   0.091   5.564  1.1437  1.7817 -1.0682
  151OSM   C16S16784   2.538   0.099   5.664  0.5629  0.0591  0.3205
  151OSM   H16S16785   2.428   0.114   5.672  0.4740 -1.0085  1.5003
  151OSM   H16T16786   2.577   0.171   5.740  1.2829  0.4951 -0.4530
  151OSM   C17S16787   2.571  -0.036   5.727  0.0122  0.8025  0.6754
  151OSM   H17S16788   2.680  -0.054   5.732 -0.1488 -0.7332 -0.7737
  151OSM   H17T16789   2.551  -0.116   5.654  0.2719  0.3053  1.1436
  151OSM   C18S16790   2.498  -0.062   5.852  0.1404  0.1187 -0.0695
  151OSM   H18S16791   2.396  -0.016   5.849  1.2068  2.6198 -0.5647
  151OSM   H18T16792   2.546  -0.016   5.941  1.4845 -2.5267  0.6562
  151OSM   H18U16793   2.493  -0.169   5.880 -1.6997 -0.0720 -0.9343
  151OSM    C1F16794   2.846   0.046   3.978 -0.4990  0.1506  0.3729
  151OSM     OF16795   2.957  -0.006   3.969  0.2253 -0.6641 -0.3657
  151OSM    C2F16796   2.722  -0.010   3.919 -0.0839  0.3083 -0.0573
  151OSM    H2F16797   2.709   0.037   3.819  2.2104  3.1935  0.8781
  151OSM    H2G16798   2.633   0.015   3.980  0.2224  1.3599 -0.0257
  151OSM    C3F16799   2.719  -0.166   3.897 -0.4209 -0.3553  0.5345
  151OSM    H3F16800   2.814  -0.194   3.845 -0.2812  0.3836  0.3780
  151OSM    H3G16801   2.639  -0.191   3.824 -0.9643 -1.7773  1.5860
  151OSM    C4F16802   2.702  -0.247   4.028 -0.2635 -0.0881  0.5624
  151OSM    H4F16803   2.674  -0.350   3.994 -1.1294  0.3881 -0.2315
  151OSM    H4G16804   2.619  -0.202   4.087  1.0672  0.5740  1.9799
  151OSM    C5F16805   2.824  -0.270   4.113 -0.0063 -0.0949  0.5395
  151OSM    H5F16806   2.849  -0.172   4.159 -2.0039  0.2856  0.8726
  151OSM    H5G16807   2.910  -0.304   4.051  0.2788 -0.8955  1.3632
  151OSM    C6F16808   2.808  -0.381   4.222 -1.0520  0.2992 -0.5502
  151OSM    H6F16809   2.906  -0.422   4.254 -2.2379 -2.6583 -0.4309
  151OSM    H6G16810   2.746  -0.460   4.176 -1.7105  0.8216 -0.5694
  151OSM    C7F16811   2.740  -0.313   4.346  0.5499 -0.0746  0.3747
  151OSM    H7F16812   2.632  -0.299   4.324  0.6126 -0.7195 -0.3678
  151OSM    H7G16813   2.783  -0.215   4.377 -0.1727 -0.5277  3.0265
  151OSM    C8F16814   2.756  -0.392   4.472 -0.9563 -0.1071  0.3746
  151OSM    H8F16815   2.865  -0.393   4.495  0.1154 -3.5978 -3.6062
  151OSM    H8G16816   2.750  -0.499   4.442 -0.1987 -0.6627  2.0417
  151OSM    C9F16817   2.662  -0.361   4.589  0.0549 -0.4166  0.4367
  151OSM    H9F16818   2.562  -0.337   4.550  0.5216  2.6004  0.8307
  151OSM   C10F16819   2.688  -0.355   4.720  0.7288 -0.1985 -0.2294
  151OSM   H10F16820   2.612  -0.318   4.790  1.0836  0.1631 -0.0240
  151OSM   C11F16821   2.819  -0.377   4.779 -0.3704  0.2507 -0.5270
  151OSM   H11F16822   2.855  -0.275   4.803 -0.7155 -0.1374  1.8180
  151OSM   H11G16823   2.893  -0.422   4.708  1.7608  0.7457  1.2691
  151OSM   C12F16824   2.798  -0.462   4.906 -0.5891  0.0488 -0.1626
  151OSM   H12F16825   2.746  -0.557   4.883  1.1148 -0.7841 -0.7731
  151OSM   H12G16826   2.747  -0.401   4.984 -1.4871 -1.0147  0.1047
  151OSM   C13F16827   2.933  -0.509   4.973  0.1499 -0.0292  0.6416
  151OSM   H13F16828   2.997  -0.423   5.001 -0.0788  0.3435  0.0479
  151OSM   H13G16829   2.991  -0.550   4.888 -1.2310  1.0720 -0.8836
  151OSM   C14F16830   2.911  -0.617   5.079  0.2691 -0.5142  0.2817
  151OSM   H14F16831   3.007  -0.672   5.090 -1.2668 -3.0385  2.3527
  151OSM   H14G16832   2.831  -0.690   5.050  2.0866 -2.6088  0.2300
  151OSM   C15F16833   2.874  -0.556   5.216  0.1516  0.3005 -0.3196
  151OSM   H15F16834   2.786  -0.488   5.210 -0.0068  0.0263 -1.3062
  151OSM   H15G16835   2.959  -0.492   5.246 -2.4849  3.5704  0.8481
  151OSM   C16F16836   2.867  -0.660   5.322  0.5176  0.2286  0.5039
  151OSM   H16F16837   2.971  -0.693   5.344  1.2055  0.5214 -2.0213
  151OSM   H16G16838   2.809  -0.751   5.296 -1.0354  0.8250  1.7186
  151OSM   C17F16839   2.802  -0.610   5.450  0.3961  0.1673 -0.4596
  151OSM   H17F16840   2.692  -0.614   5.443 -0.0435  4.4664  1.3979
  151OSM   H17G16841   2.818  -0.501   5.463  0.0546  0.0803  0.8122
  151OSM   C18F16842   2.847  -0.696   5.572 -0.0760  0.3111  0.4107
  151OSM   H18F16843   2.787  -0.670   5.661  2.3799 -0.5760  2.4432
  151OSM   H18G16844   2.951  -0.668   5.598 -1.2109  4.0672  1.4408
  151OSM   H18H16845   2.839  -0.804   5.546  0.3505  0.7465 -1.7032
  152OSM      N16846   5.697   0.365   3.813  0.2912  0.5374  0.0787
  152OSM    C1516847   5.677   0.512   3.816 -0.0278 -0.2506  0.3738
  152OSM   H15A16848   5.724   0.549   3.906  2.0366  2.4184 -1.6419
  152OSM   H15B16849   5.574   0.543   3.802 -0.4971 -1.4739  0.9329
  152OSM   H15C16850   5.735   0.550   3.733 -1.7209 -0.1141 -0.8024
  152OSM    C1416851   5.659   0.310   3.679  0.1546 -0.5756  0.3448
  152OSM   H14A16852   5.686   0.206   3.667 -2.7973 -1.2936 -1.0182
  152OSM   H14B16853   5.702   0.369   3.599  0.4249 -1.1640  0.0477
  152OSM   H14C16854   5.553   0.307   3.657  0.8822  0.9332 -4.7303
  152OSM    C1316855   5.843   0.333   3.837 -0.0884 -0.3109 -0.0577
  152OSM   H13A16856   5.869   0.241   3.787  0.2364  0.2166 -0.8781
  152OSM   H13B16857   5.857   0.337   3.944  1.2196 -0.9267 -0.1910
  152OSM   H13C16858   5.903   0.402   3.780 -1.0589 -0.2544 -1.0558
  152OSM    C1216859   5.619   0.295   3.924 -0.0134 -0.1153 -0.3826
  152OSM   H12A16860   5.518   0.332   3.922  0.7716  2.3425  0.8848
  152OSM   H12B16861   5.657   0.336   4.017 -0.3032 -2.4348  0.8316
  152OSM    C1116862   5.630   0.142   3.933  0.6131  0.0574  1.0086
  152OSM   H11A16863   5.608   0.104   4.035 -2.8670 -0.5902  0.1302
  152OSM   H11B16864   5.734   0.106   3.914 -0.0799 -1.8182  0.5383
  152OSM      P16865   5.382   0.096   3.854 -0.1460 -0.4686 -0.0880
  152OSM    O1316866   5.333   0.234   3.821  0.2436 -0.0256  0.0056
  152OSM    O1416867   5.312  -0.014   3.783  0.6661 -0.3814  0.4702
  152OSM    O1116868   5.367   0.087   4.013  0.0210 -0.0602  0.1891
  152OSM    O1216869   5.544   0.084   3.834 -0.4830  0.0447  0.1817
  152OSM    C1S16870   5.399  -0.036   4.081 -0.6669 -0.3628  0.4450
  152OSM    H1S16871   5.496  -0.076   4.046 -1.2288 -0.2560 -1.3153
  152OSM    H1T16872   5.320  -0.112   4.067  0.7228 -2.1049  1.6610
  152OSM     NF16873   5.440  -0.134   4.307  0.4437  0.0045  0.3598
  152OSM    HNF16874   5.369  -0.202   4.326  0.1631 -0.1428 -1.0934
  152OSM    C2S16875   5.401  -0.008   4.236  0.4053  0.5734  0.2861
  152OSM    H2S16876   5.476   0.071   4.258  0.2874  1.0738 -0.9963
  152OSM    C3S16877   5.264   0.053   4.276  0.6652  0.0072 -0.2714
  152OSM    H3S16878   5.192  -0.031   4.270 -2.4096  2.4349  0.2578
  152OSM     O316879   5.224   0.175   4.211  0.6099  0.0893 -0.8296
  152OSM    HO316880   5.263   0.171   4.123 -0.8475 -2.5493 -1.4479
  152OSM    C4S16881   5.282   0.097   4.422  0.0534 -0.3247  0.0433
  152OSM    H4S16882   5.343   0.187   4.436  2.2559 -1.8646  1.0772
  152OSM    C5S16883   5.223   0.038   4.529  0.4892 -0.7512  0.4450
  152OSM    H5S16884   5.172  -0.058   4.511  0.0923 -0.5378  0.4346
  152OSM    C6S16885   5.222   0.100   4.670  0.0560  0.0407  0.6714
  152OSM    H6S16886   5.290   0.188   4.674  0.6469 -0.4634  2.8406
  152OSM    H6T16887   5.264   0.016   4.728  0.4380 -2.0733 -2.3990
  152OSM    C7S16888   5.084   0.137   4.711 -0.2701 -0.3617 -0.3017
  152OSM    H7S16889   5.012   0.053   4.707  0.6560 -1.1309 -1.2301
  152OSM    H7T16890   5.052   0.207   4.631 -0.3935 -0.0065  0.0560
  152OSM    C8S16891   5.072   0.217   4.840 -0.1604  0.5743  0.5021
  152OSM    H8S16892   4.972   0.260   4.863 -0.0738 -0.2384  2.6138
  152OSM    H8T16893   5.149   0.296   4.827  0.8180 -0.6433 -1.4726
  152OSM    C9S16894   5.122   0.141   4.966 -0.3274 -0.1183 -0.5444
  152OSM    H9S16895   5.220   0.091   4.950 -0.8383 -1.1666 -0.5491
  152OSM    H9T16896   5.051   0.058   4.987  0.6326 -0.8033  0.0809
  152OSM   C10S16897   5.141   0.227   5.090  0.3958 -0.8680 -0.4569
  152OSM   H10S16898   5.040   0.260   5.123  0.9159 -0.0581  0.3994
  152OSM   H10T16899   5.202   0.317   5.065 -2.4316  1.0750 -0.9154
  152OSM   C11S16900   5.208   0.153   5.203  0.5421  0.2277 -0.4576
  152OSM   H11S16901   5.317   0.138   5.195  0.6427  0.7491 -0.1592
  152OSM   H11T16902   5.146   0.061   5.202 -0.8664  1.1320 -1.6503
  152OSM   C12S16903   5.173   0.214   5.340 -0.1194 -0.5145  0.6614
  152OSM   H12S16904   5.203   0.133   5.410  0.5819 -2.4645 -1.7208
  152OSM   H12T16905   5.062   0.218   5.336 -0.1787 -2.3812 -0.7005
  152OSM   C13S16906   5.243   0.344   5.373 -0.9521 -0.7881  0.2004
  152OSM   H13S16907   5.198   0.421   5.307 -1.1456  0.7120  2.0294
  152OSM   H13T16908   5.354   0.350   5.366 -1.0018  1.5622  0.8090
  152OSM   C14S16909   5.225   0.390   5.521 -0.0003  0.4986  0.0537
  152OSM   H14S16910   5.239   0.299   5.582 -1.2361 -0.7127 -1.4067
  152OSM   H14T16911   5.120   0.421   5.544 -0.3623 -0.4861 -0.2226
  152OSM   C15S16912   5.304   0.517   5.539  0.4264 -0.3563  0.9081
  152OSM   H15S16913   5.257   0.597   5.478 -0.0775 -0.5707  1.0114
  152OSM   H15T16914   5.410   0.506   5.505 -0.4784  1.2396 -2.9897
  152OSM   C16S16915   5.296   0.561   5.687  0.1740 -0.6130  0.0417
  152OSM   H16S16916   5.346   0.480   5.745  0.5696 -0.3618  0.0607
  152OSM   H16T16917   5.187   0.567   5.707 -0.1666  0.8090 -1.8466
  152OSM   C17S16918   5.361   0.692   5.716 -0.4939 -0.3476 -0.5324
  152OSM   H17S16919   5.324   0.737   5.811 -1.8457  1.2976 -1.7753
  152OSM   H17T16920   5.318   0.764   5.642 -2.0933  0.2976  0.9467
  152OSM   C18S16921   5.519   0.702   5.708 -0.2470  0.3571 -0.8506
  152OSM   H18S16922   5.554   0.672   5.607 -2.3144 -0.7156 -1.3129
  152OSM   H18T16923   5.551   0.629   5.785 -1.2913  1.8187  1.0865
  152OSM   H18U16924   5.558   0.801   5.741  1.9394 -0.1513 -1.7640
  152OSM    C1F16925   5.571  -0.168   4.312 -0.0305  0.8963 -0.3568
  152OSM     OF16926   5.654  -0.102   4.258 -0.4345 -0.3423 -0.0925
  152OSM    C2F16927   5.612  -0.288   4.394  0.2722 -0.1347  0.2488
  152OSM    H2F16928   5.690  -0.342   4.337  1.1489 -1.8581  2.9085
  152OSM    H2G16929   5.523  -0.351   4.414  0.0494  0.2537  0.4884
  152OSM    C3F16930   5.675  -0.242   4.533  0.4638 -0.4546 -0.0555
  152OSM    H3F16931   5.594  -0.186   4.584  0.6995  0.3101 -0.5023
  152OSM    H3G16932   5.765  -0.178   4.520  1.9116 -1.9258  2.0362
  152OSM    C4F16933   5.732  -0.363   4.620  0.7251 -0.0631  0.8264
  152OSM    H4F16934   5.813  -0.404   4.556  0.2446 -0.6241  0.5593
  152OSM    H4G16935   5.651  -0.438   4.634 -0.3486  0.8540 -0.2181
  152OSM    C5F16936   5.787  -0.323   4.758 -0.3523  0.2318 -0.1379
  152OSM    H5F16937   5.698  -0.301   4.822  0.2987 -0.7048  1.1340
  152OSM    H5G16938   5.838  -0.226   4.743 -0.0053 -0.0841 -1.0601
  152OSM    C6F16939   5.884  -0.428   4.814  0.4710  0.5991 -0.1317
  152OSM    H6F16940   5.923  -0.387   4.910 -0.4211  0.2715  0.3821
  152OSM    H6G16941   5.956  -0.450   4.732  0.4989  0.2117 -0.0039
  152OSM    C7F16942   5.816  -0.562   4.857  0.0728 -0.2729  0.5730
  152OSM    H7F16943   5.898  -0.623   4.902  0.0677 -1.6951 -1.2262
  152OSM    H7G16944   5.787  -0.607   4.760  0.2282  2.1275 -0.6427
  152OSM    C8F16945   5.694  -0.551   4.944 -0.2224  0.3156 -0.5353
  152OSM    H8F16946   5.612  -0.502   4.888 -0.7748 -0.6585 -0.6021
  152OSM    H8G16947   5.708  -0.485   5.032 -1.6591 -2.0824  1.6078
  152OSM    C9F16948   5.638  -0.686   4.986  0.1712  0.2082 -0.4838
  152OSM    H9F16949   5.647  -0.765   4.909 -0.9563 -1.2144  0.7711
  152OSM   C10F16950   5.581  -0.722   5.104  0.5816  0.0098  0.0467
  152OSM   H10F16951   5.555  -0.828   5.117  1.6842 -0.4970 -1.6421
  152OSM   C11F16952   5.556  -0.621   5.219  0.0280  0.9470 -0.1548
  152OSM   H11F16953   5.476  -0.667   5.281 -0.7032 -2.0232 -3.0063
  152OSM   H11G16954   5.511  -0.525   5.186  0.4850  1.3146  0.2895
  152OSM   C12F16955   5.684  -0.593   5.294  0.0768  0.0911 -0.3115
  152OSM   H12F16956   5.770  -0.566   5.230  0.7353 -0.4542  0.3200
  152OSM   H12G16957   5.716  -0.688   5.341  1.8609  0.8129  0.0131
  152OSM   C13F16958   5.668  -0.486   5.408 -0.2338  0.4253  0.4053
  152OSM   H13F16959   5.592  -0.523   5.481 -0.8321  1.6746  0.4496
  152OSM   H13G16960   5.630  -0.393   5.361 -0.4023  0.3163  0.3274
  152OSM   C14F16961   5.804  -0.462   5.483  0.2369 -0.3824  0.6030
  152OSM   H14F16962   5.877  -0.432   5.405 -0.3319 -0.9213 -0.1541
  152OSM   H14G16963   5.834  -0.561   5.522 -0.4422 -1.2824 -1.0687
  152OSM   C15F16964   5.806  -0.345   5.583  0.2601 -0.5443  0.2523
  152OSM   H15F16965   5.701  -0.321   5.609 -0.0154 -1.5940  0.1480
  152OSM   H15G16966   5.849  -0.253   5.538 -1.0195  0.4322  0.9473
  152OSM   C16F16967   5.899  -0.369   5.710 -0.1128 -0.4830 -0.5235
  152OSM   H16F16968   6.004  -0.391   5.681  0.9212 -0.1724  2.6568
  152OSM   H16G16969   5.860  -0.458   5.763  0.4912 -0.8061 -0.6067
  152OSM   C17F16970   5.906  -0.247   5.795 -0.2307 -0.4077 -0.6689
  152OSM   H17F16971   5.801  -0.215   5.806 -0.3377  0.0654 -2.6383
  152OSM   H17G16972   5.957  -0.163   5.742 -1.6129  1.1578  0.3661
  152OSM   C18F16973   5.973  -0.276   5.932  0.2008 -0.0499 -0.2622
  152OSM   H18F16974   6.065  -0.333   5.904 -0.0004 -1.4105  1.6404
  152OSM   H18G16975   5.909  -0.337   6.000  0.6843  0.4115  0.6280
  152OSM   H18H16976   5.997  -0.182   5.986  0.4421 -0.6409  0.6801
  153OSM      N16977   4.729   3.622   3.770 -0.6154  0.1869  0.4193
  153OSM    C1516978   4.643   3.630   3.650  0.5552 -0.6343  0.1245
  153OSM   H15A16979   4.598   3.538   3.616 -1.1648  0.2962 -0.2089
  153OSM   H15B16980   4.707   3.666   3.571  2.1421 -2.5362  0.4695
  153OSM   H15C16981   4.561   3.699   3.658  1.4633  0.5691 -0.5976
  153OSM    C1416982   4.829   3.509   3.731  0.4589  0.0409  0.2284
  153OSM   H14A16983   4.908   3.517   3.804  1.5604  2.1951 -1.1035
  153OSM   H14B16984   4.867   3.520   3.631 -1.5008 -1.6401 -0.7637
  153OSM   H14C16985   4.769   3.420   3.723  0.3646  0.0405  0.8550
  153OSM    C1316986   4.811   3.742   3.785  0.0466  0.4399  0.6336
  153OSM   H13A16987   4.878   3.749   3.869  2.5392  0.2488 -1.2197
  153OSM   H13B16988   4.756   3.835   3.781 -0.6146  0.1258  1.8534
  153OSM   H13C16989   4.884   3.751   3.706 -0.3120  0.9956  0.3647
  153OSM    C1216990   4.656   3.591   3.899  0.0011 -0.3972  0.2452
  153OSM   H12A16991   4.591   3.673   3.925  1.0408  0.2020  1.0765
  153OSM   H12B16992   4.733   3.595   3.975  1.0989  2.5467 -0.8636
  153OSM    C1116993   4.577   3.459   3.904 -0.5898 -0.3250 -0.1034
  153OSM   H11A16994   4.528   3.460   4.004 -1.0750 -1.2252 -0.3229
  153OSM   H11B16995   4.632   3.363   3.902 -1.3756 -0.7768 -0.7452
  153OSM      P16996   4.333   3.514   3.803  0.4377  0.1931 -0.0155
  153OSM    O1316997   4.297   3.519   3.659  0.2446 -0.4690 -0.1546
  153OSM    O1416998   4.246   3.439   3.898 -0.1115 -0.4166  0.0538
  153OSM    O1116999   4.368   3.658   3.847 -0.3643  0.2518  0.4974
  153OSM    O1217000   4.475   3.450   3.801 -0.1926 -0.2737 -0.1880
  153OSM    C1S17001   4.281   3.771   3.865 -1.0463  0.0856 -0.0518
  153OSM    H1S17002   4.184   3.749   3.815 -0.1412 -1.6906 -1.1252
  153OSM    H1T17003   4.328   3.857   3.812  3.1095 -2.8164 -1.6405
  153OSM     NF17004   4.140   3.892   4.026  0.2958  0.0838 -0.0067
  153OSM    HNF17005   4.150   3.991   4.038  0.1029  0.0683  0.3026
  153OSM    C2S17006   4.260   3.809   4.012 -0.3739  0.1920  0.1646
  153OSM    H2S17007   4.241   3.712   4.063  0.4716 -1.6570 -2.7629
  153OSM    C3S17008   4.391   3.856   4.085  0.8784 -0.4427  0.0222
  153OSM    H3S17009   4.434   3.934   4.018 -0.7267  0.7209  0.2932
  153OSM     O317010   4.493   3.755   4.122 -0.0387  0.2527  0.8351
  153OSM    HO317011   4.470   3.666   4.093  0.2991  0.7074 -0.9243
  153OSM    C4S17012   4.358   3.927   4.207 -0.0909 -0.4671 -0.0803
  153OSM    H4S17013   4.298   3.865   4.276 -1.9033 -1.2102 -2.1924
  153OSM    C5S17014   4.376   4.055   4.242 -0.2476 -0.3714 -0.6538
  153OSM    H5S17015   4.421   4.134   4.181 -1.7458  2.0544  1.1726
  153OSM    C6S17016   4.321   4.118   4.372 -0.1663 -0.1441  0.0728
  153OSM    H6S17017   4.214   4.138   4.352 -0.0210  0.1370 -0.4309
  153OSM    H6T17018   4.376   4.212   4.393 -0.3725 -0.2921  1.3572
  153OSM    C7S17019   4.324   4.034   4.501  0.4106  0.8925  0.5369
  153OSM    H7S17020   4.428   4.001   4.522 -0.0928 -1.4820 -0.3649
  153OSM    H7T17021   4.263   3.942   4.488 -0.4990  1.7739 -2.2912
  153OSM    C8S17022   4.288   4.116   4.624  0.3907 -0.6323  0.7706
  153OSM    H8S17023   4.184   4.148   4.601  0.7634 -0.5953 -0.9916
  153OSM    H8T17024   4.346   4.211   4.631 -0.3022 -0.2515  1.5152
  153OSM    C9S17025   4.316   4.045   4.757 -0.3694  0.0761 -0.3193
  153OSM    H9S17026   4.426   4.025   4.756 -0.3501  0.1115  0.5677
  153OSM    H9T17027   4.262   3.949   4.767 -0.5960  0.2612  0.2853
  153OSM   C10S17028   4.280   4.130   4.879 -0.4159 -0.0756 -0.4287
  153OSM   H10S17029   4.170   4.141   4.866 -0.7519 -2.1514  0.3048
  153OSM   H10T17030   4.325   4.231   4.888 -1.2041  0.2519 -0.1555
  153OSM   C11S17031   4.321   4.059   5.011  0.1521  0.2206  0.3474
  153OSM   H11S17032   4.430   4.036   5.006  0.0594  0.1272 -2.8726
  153OSM   H11T17033   4.260   3.966   5.011 -1.1191  0.9806 -2.1570
  153OSM   C12S17034   4.276   4.129   5.133 -0.4433 -0.9743 -0.1019
  153OSM   H12S17035   4.172   4.167   5.124  0.8793  3.1129 -0.2421
  153OSM   H12T17036   4.329   4.226   5.138  0.9435 -1.7479  0.8529
  153OSM   C13S17037   4.295   4.054   5.260  1.2999  0.7804  0.3153
  153OSM   H13S17038   4.400   4.018   5.263  1.5028  1.4227  1.8655
  153OSM   H13T17039   4.228   3.965   5.256  2.6563 -0.4087  2.3548
  153OSM   C14S17040   4.249   4.128   5.386 -0.4056 -0.3680 -0.4017
  153OSM   H14S17041   4.153   4.179   5.367  0.5841  1.5656 -0.4914
  153OSM   H14T17042   4.317   4.216   5.397 -0.1573 -0.7264  1.2396
  153OSM   C15S17043   4.255   4.048   5.512  0.5781 -0.8398  0.5446
  153OSM   H15S17044   4.357   4.004   5.517  0.7771 -0.5819 -0.7744
  153OSM   H15T17045   4.182   3.964   5.510  1.0382 -1.2641  0.9395
  153OSM   C16S17046   4.220   4.128   5.639 -0.0812  0.2542  0.1706
  153OSM   H16S17047   4.126   4.175   5.604 -0.0846 -0.5664 -0.9922
  153OSM   H16T17048   4.299   4.205   5.653 -0.9229  0.7158  3.1824
  153OSM   C17S17049   4.201   4.042   5.763 -0.3107 -0.3633 -0.0229
  153OSM   H17S17050   4.298   4.032   5.816  0.9843  1.9959 -1.7818
  153OSM   H17T17051   4.169   3.942   5.724 -1.5416  0.6221 -1.7170
  153OSM   C18S17052   4.095   4.096   5.852 -0.4439 -0.0502 -0.5367
  153OSM   H18S17053   4.094   4.033   5.944  0.4683 -1.0759 -1.2027
  153OSM   H18T17054   3.997   4.078   5.803 -1.6690  2.5255  0.7708
  153OSM   H18U17055   4.101   4.206   5.867 -2.2195  0.1707 -1.2554
  153OSM    C1F17056   4.014   3.845   4.007 -0.3306  0.6421  0.3823
  153OSM     OF17057   3.992   3.725   3.979 -0.8818  0.3374  0.1807
  153OSM    C2F17058   3.900   3.944   4.027  0.6001  0.2897 -0.3320
  153OSM    H2F17059   3.817   3.900   3.968 -1.0912  2.5789  0.1781
  153OSM    H2G17060   3.918   4.044   3.980 -1.4079  0.9668  0.2092
  153OSM    C3F17061   3.849   3.955   4.175  0.5328 -0.3101  0.5167
  153OSM    H3F17062   3.826   3.851   4.207  1.4648 -0.7950 -0.3323
  153OSM    H3G17063   3.762   4.024   4.176 -0.7285 -1.5751 -3.1406
  153OSM    C4F17064   3.964   4.004   4.272  0.2973  0.1522 -0.4935
  153OSM    H4F17065   4.002   4.106   4.247  1.0075 -0.3487 -1.5200
  153OSM    H4G17066   4.039   3.923   4.283  1.3133  1.0118 -0.8725
  153OSM    C5F17067   3.926   4.030   4.423  0.6717  0.3337 -0.1089
  153OSM    H5F17068   4.024   4.034   4.475  0.4694  0.9403  0.2291
  153OSM    H5G17069   3.882   3.937   4.466  2.0883  0.1548  1.0439
  153OSM    C6F17070   3.830   4.147   4.455 -0.4441 -0.1724 -0.0938
  153OSM    H6F17071   3.737   4.132   4.395  1.1337 -3.3894 -2.0863
  153OSM    H6G17072   3.872   4.240   4.413  2.1600 -0.0175  2.5594
  153OSM    C7F17073   3.783   4.169   4.602  0.5662 -0.1319 -0.0560
  153OSM    H7F17074   3.728   4.076   4.629  1.5114 -0.1434  2.0522
  153OSM    H7G17075   3.699   4.240   4.599  0.9561  0.3506  0.3048
  153OSM    C8F17076   3.888   4.202   4.702  0.6938 -0.5805  0.1023
  153OSM    H8F17077   3.973   4.130   4.696  0.6379 -0.9177  2.3448
  153OSM    H8G17078   3.861   4.183   4.808  0.3881  2.3114  0.6224
  153OSM    C9F17079   3.942   4.338   4.671  0.0867 -0.4986 -0.6091
  153OSM    H9F17080   3.988   4.344   4.571  0.1490  0.2128 -0.5424
  153OSM   C10F17081   3.958   4.442   4.746  0.4423 -0.0313 -0.2878
  153OSM   H10F17082   4.011   4.529   4.704 -1.8009  0.6294 -1.9122
  153OSM   C11F17083   3.910   4.456   4.891  0.2614  0.7480  0.8033
  153OSM   H11F17084   3.809   4.417   4.914 -0.1008  1.2644  0.1578
  153OSM   H11G17085   3.900   4.567   4.893  1.6983  1.1587 -3.7057
  153OSM   C12F17086   4.012   4.410   4.993 -0.0701 -0.4290 -0.3244
  153OSM   H12F17087   4.111   4.416   4.943 -1.8756  1.7246 -4.0660
  153OSM   H12G17088   4.005   4.308   5.038 -2.3543 -0.1159  0.1452
  153OSM   C13F17089   4.006   4.505   5.119  0.1486 -0.5198 -0.0311
  153OSM   H13F17090   3.906   4.552   5.130 -0.5976 -1.9055 -0.6094
  153OSM   H13G17091   4.075   4.590   5.101 -0.2822  0.0891  1.1011
  153OSM   C14F17092   4.044   4.433   5.248  0.1474  0.0995  1.1600
  153OSM   H14F17093   4.153   4.414   5.251  0.1230  0.0202  1.6214
  153OSM   H14G17094   3.985   4.339   5.248 -0.0739  0.2038 -0.6805
  153OSM   C15F17095   4.010   4.522   5.377 -0.5338 -0.3104 -0.0364
  153OSM   H15F17096   3.902   4.547   5.381 -0.8750 -1.6185 -0.4093
  153OSM   H15G17097   4.072   4.612   5.361  0.5771 -1.0158  0.1733
  153OSM   C16F17098   4.058   4.452   5.508 -0.4969  0.0527  0.0623
  153OSM   H16F17099   4.162   4.415   5.503  0.3238  2.1754  0.2415
  153OSM   H16G17100   3.991   4.365   5.526 -1.3978  0.8552  0.6999
  153OSM   C17F17101   4.051   4.535   5.635 -0.3159 -0.4497  0.0834
  153OSM   H17F17102   3.949   4.573   5.659 -0.0903 -0.3737  0.9429
  153OSM   H17G17103   4.117   4.622   5.612 -0.6352 -0.3885 -0.6429
  153OSM   C18F17104   4.105   4.461   5.755  0.0624 -0.7577  0.5281
  153OSM   H18F17105   4.133   4.537   5.831 -0.7012 -0.8330  0.8969
  153OSM   H18G17106   4.194   4.398   5.731 -1.0824 -3.7747  3.4256
  153OSM   H18H17107   4.030   4.388   5.793 -0.6141 -0.5449 -0.3632
  154OSM      N17108   2.384   6.077   3.900  0.6516 -0.3775  0.3854
  154OSM    C1517109   2.391   5.956   3.812 -0.6010 -0.2151 -0.2006
  154OSM   H15A17110   2.488   5.938   3.770 -0.0893  0.8485  0.4670
  154OSM   H15B17111   2.323   5.958   3.729  1.8256 -1.5148 -2.3477
  154OSM   H15C17112   2.357   5.862   3.854  0.0248  0.4559  1.9256
  154OSM    C1417113   2.478   6.052   4.002 -0.5144 -0.0073 -0.3156
  154OSM   H14A17114   2.519   6.139   4.052 -2.8375  1.2051 -0.3650
  154OSM   H14B17115   2.568   6.009   3.961  0.2466  1.7922 -0.6258
  154OSM   H14C17116   2.448   5.970   4.066 -0.8484 -0.8335 -1.5019
  154OSM    C1317117   2.430   6.193   3.821 -0.6463  0.1719 -0.0401
  154OSM   H13A17118   2.365   6.219   3.739  0.3980  2.7840 -0.1464
  154OSM   H13B17119   2.529   6.176   3.781 -0.8078 -0.3365 -0.2369
  154OSM   H13C17120   2.437   6.284   3.880  2.1312  0.0025  0.0143
  154OSM    C1217121   2.247   6.110   3.961 -0.0959  0.3139  0.3104
  154OSM   H12A17122   2.259   6.198   4.023  1.9015  1.8822 -2.1105
  154OSM   H12B17123   2.224   6.023   4.020  1.9463 -0.6180 -0.1947
  154OSM    C1117124   2.128   6.122   3.865  0.2381 -0.8031  0.4103
  154OSM   H11A17125   2.027   6.105   3.907 -0.6783 -0.6942 -1.6566
  154OSM   H11B17126   2.144   6.040   3.792 -1.5927 -1.4116  0.6400
  154OSM      P17127   2.096   6.378   3.864 -0.1209 -0.0509  0.4292
  154OSM    O1317128   2.154   6.496   3.799  0.2408  0.4408  0.4883
  154OSM    O1417129   1.946   6.377   3.862 -0.0578  0.3338  0.2434
  154OSM    O1117130   2.152   6.371   4.012  0.2031  0.8791 -0.0284
  154OSM    O1217131   2.142   6.242   3.790 -0.2116 -0.4511  0.3732
  154OSM    C1S17132   2.106   6.430   4.129 -0.3339 -0.2353  0.7617
  154OSM    H1S17133   1.997   6.446   4.115 -0.2733 -0.3065  0.1614
  154OSM    H1T17134   2.154   6.530   4.137 -1.6213  0.4585  0.1749
  154OSM     NF17135   2.066   6.398   4.374  0.4472  0.8587  0.1867
  154OSM    HNF17136   2.097   6.462   4.444  1.2160 -0.1921  0.8511
  154OSM    C2S17137   2.145   6.353   4.261 -0.4360  0.3199 -0.4075
  154OSM    H2S17138   2.119   6.249   4.233 -0.0314  0.4678 -1.3731
  154OSM    C3S17139   2.299   6.368   4.284 -0.6018  0.3080  0.6307
  154OSM    H3S17140   2.309   6.478   4.297  1.2008  0.6543 -2.7142
  154OSM     O317141   2.369   6.329   4.165 -0.4836 -0.1867 -0.0773
  154OSM    HO317142   2.324   6.370   4.092 -1.3091 -0.4873  0.2557
  154OSM    C4S17143   2.341   6.300   4.415 -0.6400 -0.0005 -0.3410
  154OSM    H4S17144   2.336   6.362   4.506  2.4013 -0.5105  0.2890
  154OSM    C5S17145   2.398   6.177   4.430 -0.6621  0.6037  0.8603
  154OSM    H5S17146   2.409   6.117   4.339 -1.8478  3.1251 -1.1015
  154OSM    C6S17147   2.446   6.109   4.561 -0.3885 -0.0255 -0.2514
  154OSM    H6S17148   2.552   6.080   4.540 -0.5515 -1.5686  0.8857
  154OSM    H6T17149   2.400   6.009   4.575  1.7204 -0.9163  0.8411
  154OSM    C7S17150   2.434   6.185   4.695 -0.0788 -0.0346  0.1291
  154OSM    H7S17151   2.325   6.204   4.704  0.0293  0.3062  0.7178
  154OSM    H7T17152   2.500   6.273   4.683  1.2252 -0.8800  0.8448
  154OSM    C8S17153   2.479   6.104   4.815  1.1393 -0.7156  0.2572
  154OSM    H8S17154   2.590   6.098   4.802  0.9795  1.2591 -3.2468
  154OSM    H8T17155   2.429   6.005   4.815 -2.4012  0.9121 -0.4362
  154OSM    C9S17156   2.440   6.174   4.948  0.0076  0.7502 -0.0451
  154OSM    H9S17157   2.334   6.204   4.935  0.4461  1.8755 -1.1668
  154OSM    H9T17158   2.492   6.270   4.969  0.7187 -0.2112  3.1905
  154OSM   C10S17159   2.465   6.085   5.070 -0.4849  0.3484  0.4570
  154OSM   H10S17160   2.569   6.048   5.056 -0.9578 -0.2220 -1.8217
  154OSM   H10T17161   2.401   5.996   5.050 -1.2789  1.1655 -0.7118
  154OSM   C11S17162   2.439   6.151   5.201  0.2478  0.6506  0.1349
  154OSM   H11S17163   2.336   6.194   5.200 -0.1647 -0.1660  2.2385
  154OSM   H11T17164   2.513   6.232   5.219 -1.1564  1.9901  0.0925
  154OSM   C12S17165   2.437   6.057   5.320 -0.1416  0.4507  0.1175
  154OSM   H12S17166   2.544   6.035   5.337 -0.1531 -2.2898 -2.3993
  154OSM   H12T17167   2.391   5.959   5.294 -1.7845  1.2938 -0.3077
  154OSM   C13S17168   2.382   6.120   5.447  0.5617  0.7610 -0.1258
  154OSM   H13S17169   2.286   6.164   5.412 -0.6817 -2.7344 -1.5528
  154OSM   H13T17170   2.457   6.201   5.462  1.6000 -0.2192  0.0226
  154OSM   C14S17171   2.359   6.035   5.568  0.1254  0.0272 -0.5744
  154OSM   H14S17172   2.270   5.969   5.559  1.2593 -1.8893  1.3068
  154OSM   H14T17173   2.348   6.102   5.656  0.3821  1.2616 -1.4663
  154OSM   C15S17174   2.474   5.937   5.599 -0.6724 -0.3928  0.8466
  154OSM   H15S17175   2.579   5.974   5.595 -0.7409 -0.2552  0.1824
  154OSM   H15T17176   2.462   5.854   5.526  0.1775 -0.5156  0.8396
  154OSM   C16S17177   2.448   5.874   5.738 -0.4626 -0.2332  0.2148
  154OSM   H16S17178   2.416   5.962   5.798  2.7339  1.1059  0.1410
  154OSM   H16T17179   2.546   5.841   5.778 -0.1894  0.1490 -0.1301
  154OSM   C17S17180   2.349   5.761   5.750 -0.5313  0.6244  0.4455
  154OSM   H17S17181   2.258   5.789   5.694 -0.6701 -1.4177 -0.4420
  154OSM   H17T17182   2.319   5.778   5.856  1.9751  2.6059  0.9377
  154OSM   C18S17183   2.403   5.628   5.700  0.3294  0.5368  0.2691
  154OSM   H18S17184   2.495   5.597   5.754  0.4119 -1.6254 -1.0084
  154OSM   H18T17185   2.412   5.625   5.589 -1.4529 -2.5300  0.0977
  154OSM   H18U17186   2.327   5.550   5.721 -1.0016  2.1853  1.8268
  154OSM    C1F17187   1.937   6.376   4.365  0.7746  0.4186  0.1561
  154OSM     OF17188   1.894   6.292   4.286  0.2308  0.0161 -0.1282
  154OSM    C2F17189   1.847   6.467   4.446 -0.6223  0.3339 -0.5364
  154OSM    H2F17190   1.859   6.572   4.413 -1.2650  1.2315  1.8595
  154OSM    H2G17191   1.887   6.464   4.550  1.3608  2.5910 -1.1494
  154OSM    C3F17192   1.701   6.428   4.441 -0.1913  0.8959  0.1662
  154OSM    H3F17193   1.674   6.341   4.505 -1.4605  0.1200 -1.3394
  154OSM    H3G17194   1.666   6.411   4.336  1.9438  1.3607 -0.6652
  154OSM    C4F17195   1.607   6.540   4.492 -0.2446 -0.8198  0.3214
  154OSM    H4F17196   1.513   6.481   4.487 -0.5380 -0.5469  2.0981
  154OSM    H4G17197   1.610   6.621   4.416  1.6033 -0.1574  1.0501
  154OSM    C5F17198   1.638   6.582   4.633  0.0876  0.5404  0.0032
  154OSM    H5F17199   1.559   6.651   4.670 -0.7073 -0.7814  0.8771
  154OSM    H5G17200   1.734   6.637   4.632  1.3060 -1.4767  0.4908
  154OSM    C6F17201   1.645   6.472   4.737 -0.2165 -0.0062 -0.3863
  154OSM    H6F17202   1.743   6.420   4.733 -0.5508 -0.5920 -1.0490
  154OSM    H6G17203   1.564   6.400   4.715  0.4882 -0.5167 -1.3696
  154OSM    C7F17204   1.619   6.528   4.876  0.7324  0.4760 -0.4012
  154OSM    H7F17205   1.525   6.588   4.875  1.5488  1.8661  0.7954
  154OSM    H7G17206   1.697   6.605   4.898  2.3938 -1.2189 -0.1056
  154OSM    C8F17207   1.630   6.422   4.987 -0.9343 -0.2200  0.1009
  154OSM    H8F17208   1.735   6.434   5.024 -0.1250  0.4068 -2.2051
  154OSM    H8G17209   1.624   6.324   4.937 -1.6961 -0.3618  0.4592
  154OSM    C9F17210   1.522   6.438   5.097  0.2485  0.5067  0.4211
  154OSM    H9F17211   1.421   6.448   5.055  0.7780 -1.8109 -1.6616
  154OSM   C10F17212   1.542   6.455   5.232 -0.9725 -0.2929 -0.3360
  154OSM   H10F17213   1.453   6.479   5.292 -0.8824  1.2634 -0.7906
  154OSM   C11F17214   1.673   6.455   5.303 -0.2213 -0.2069 -0.1865
  154OSM   H11F17215   1.708   6.558   5.326  0.6445 -0.0140 -2.1844
  154OSM   H11G17216   1.748   6.410   5.234 -3.0034 -2.6358 -1.8261
  154OSM   C12F17217   1.681   6.364   5.426 -0.0367  0.1468 -0.5940
  154OSM   H12F17218   1.789   6.340   5.439  0.0246 -0.1837 -1.6291
  154OSM   H12G17219   1.627   6.269   5.409  0.7061 -0.7656  1.7973
  154OSM   C13F17220   1.642   6.443   5.551  0.2228  0.1290 -0.0947
  154OSM   H13F17221   1.539   6.482   5.533  0.3004  0.7188  0.6580
  154OSM   H13G17222   1.715   6.525   5.568 -1.0511  0.8386  2.4413
  154OSM   C14F17223   1.653   6.360   5.680 -0.6088  0.1921  0.1808
  154OSM   H14F17224   1.755   6.326   5.708 -0.7693 -1.2785 -0.9094
  154OSM   H14G17225   1.580   6.277   5.666 -1.8849  1.3719 -0.4519
  154OSM   C15F17226   1.604   6.445   5.803 -0.0775 -0.2166  0.2246
  154OSM   H15F17227   1.496   6.469   5.791  0.1086  0.3512 -0.3907
  154OSM   H15G17228   1.663   6.539   5.806 -1.1768  0.5752 -1.1764
  154OSM   C16F17229   1.622   6.371   5.935  0.4941  0.5703 -0.5540
  154OSM   H16F17230   1.595   6.264   5.924  2.8927 -0.0427 -1.0309
  154OSM   H16G17231   1.552   6.407   6.013 -0.5723 -0.7284 -0.8884
  154OSM   C17F17232   1.769   6.392   5.985  0.6923 -0.0003  0.8034
  154OSM   H17F17233   1.782   6.494   6.028  1.3019 -0.1369  0.9613
  154OSM   H17G17234   1.838   6.381   5.900  1.2154  0.5806  1.1401
  154OSM   C18F17235   1.809   6.298   6.097  0.3518 -0.0017 -0.4125
  154OSM   H18F17236   1.721   6.284   6.163  0.5982 -4.6693 -0.7598
  154OSM   H18G17237   1.891   6.339   6.159 -2.6015  2.8926  1.9441
  154OSM   H18H17238   1.832   6.195   6.060  0.8270  0.0754 -0.3403
  155OSM      N17239   3.906   3.879   3.550  0.4061 -0.1801  1.3733
  155OSM    C1517240   3.862   3.792   3.445  0.0299 -0.3096 -0.3821
  155OSM   H15A17241   3.830   3.837   3.352  3.8193 -0.7968 -2.0945
  155OSM   H15B17242   3.770   3.739   3.464  0.5774 -1.7907 -1.6784
  155OSM   H15C17243   3.940   3.725   3.412 -0.5432  0.4355 -3.5856
  155OSM    C1417244   3.941   3.803   3.669 -0.9240  1.1079 -0.1636
  155OSM   H14A17245   3.993   3.712   3.643 -0.8410  1.3542 -0.8852
  155OSM   H14B17246   3.848   3.768   3.711 -1.0810 -0.4009 -1.6454
  155OSM   H14C17247   3.990   3.862   3.745 -2.1330  0.2606  1.3331
  155OSM    C1317248   4.032   3.940   3.489  0.0062 -0.5778  0.1612
  155OSM   H13A17249   4.014   4.022   3.420  0.4245 -0.4083  0.2475
  155OSM   H13B17250   4.090   3.862   3.442 -2.0402 -0.1418 -3.4339
  155OSM   H13C17251   4.084   3.984   3.573 -0.1849 -1.3518  0.6891
  155OSM    C1217252   3.799   3.985   3.579  0.2200  0.3449  0.6296
  155OSM   H12A17253   3.707   3.939   3.612 -2.1339  4.1982  0.0683
  155OSM   H12B17254   3.756   4.020   3.486 -0.5834  1.2631  1.3208
  155OSM    C1117255   3.838   4.106   3.663  0.4053 -0.8384  0.0498
  155OSM   H11A17256   3.890   4.082   3.759  1.4911 -2.7563 -0.9564
  155OSM   H11B17257   3.740   4.144   3.701  1.1172  0.9128  0.2208
  155OSM      P17258   3.938   4.344   3.622  0.0557 -0.0345  0.0611
  155OSM    O1317259   4.063   4.403   3.559  0.1999  0.1921 -0.3077
  155OSM    O1417260   3.812   4.403   3.581 -0.2186 -0.7256  0.0228
  155OSM    O1117261   3.958   4.332   3.776 -0.4566 -0.2803  0.4109
  155OSM    O1217262   3.914   4.194   3.578  0.1830 -0.2478 -0.1189
  155OSM    C1S17263   4.033   4.437   3.851  0.5840  0.7188  0.4744
  155OSM    H1S17264   4.069   4.517   3.783  2.5218  1.1823  1.9792
  155OSM    H1T17265   4.117   4.387   3.903 -1.6522  0.4941  4.2616
  155OSM     NF17266   4.029   4.604   4.024  0.7298 -0.0027  0.0753
  155OSM    HNF17267   4.081   4.575   4.104 -1.9585  0.7044  2.2699
  155OSM    C2S17268   3.950   4.498   3.965 -0.9058  0.7921  0.8870
  155OSM    H2S17269   3.865   4.550   3.917 -0.2899  1.7102  0.7676
  155OSM    C3S17270   3.884   4.392   4.060 -0.6862  0.1476  0.3393
  155OSM    H3S17271   3.965   4.341   4.116 -0.4841 -0.1202 -0.1944
  155OSM     O317272   3.814   4.305   3.980 -0.1961 -0.0545 -0.4155
  155OSM    HO317273   3.860   4.316   3.897  0.3861 -0.5756 -0.1659
  155OSM    C4S17274   3.801   4.456   4.175 -0.0156  0.0783 -0.0957
  155OSM    H4S17275   3.868   4.481   4.258 -0.2135 -0.6073  0.2803
  155OSM    C5S17276   3.667   4.469   4.181 -0.2974 -0.3289  0.6425
  155OSM    H5S17277   3.598   4.428   4.106  0.8799 -1.0949 -0.0557
  155OSM    C6S17278   3.596   4.525   4.300 -0.3688  0.9232 -0.2624
  155OSM    H6S17279   3.536   4.436   4.330  0.2110  0.5695 -0.1264
  155OSM    H6T17280   3.523   4.604   4.274 -2.8137 -0.7499  1.1582
  155OSM    C7S17281   3.679   4.570   4.424 -0.2481  0.1019 -0.3603
  155OSM    H7S17282   3.731   4.660   4.386 -1.0787  0.0095 -1.7896
  155OSM    H7T17283   3.753   4.496   4.462 -0.6727  0.9115  2.2211
  155OSM    C8S17284   3.590   4.624   4.536 -0.1894 -0.5255 -0.5545
  155OSM    H8S17285   3.528   4.551   4.592  0.5626  0.2001  1.2837
  155OSM    H8T17286   3.524   4.706   4.499  2.3675  1.0864 -1.8727
  155OSM    C9S17287   3.671   4.715   4.639 -0.1279 -0.6428  0.3188
  155OSM    H9S17288   3.667   4.819   4.600 -0.6390 -0.2541  1.3701
  155OSM    H9T17289   3.776   4.681   4.648 -0.6127 -2.1396  0.6234
  155OSM   C10S17290   3.613   4.730   4.773  0.1088  1.2022 -0.5609
  155OSM   H10S17291   3.634   4.637   4.831 -1.0332  0.6774 -0.9458
  155OSM   H10T17292   3.503   4.748   4.773 -0.1047  0.5412  2.7586
  155OSM   C11S17293   3.681   4.852   4.836  0.1364  0.2812 -0.1826
  155OSM   H11S17294   3.629   4.944   4.800 -0.5461 -0.3881 -0.9676
  155OSM   H11T17295   3.790   4.851   4.817 -0.0950 -0.2271 -1.6195
  155OSM   C12S17296   3.676   4.845   4.986  0.5642  0.0704 -0.0604
  155OSM   H12S17297   3.732   4.751   5.006 -1.0333 -1.1143 -0.9015
  155OSM   H12T17298   3.573   4.817   5.017  0.2616  0.7042 -0.4665
  155OSM   C13S17299   3.727   4.974   5.060  0.4780 -0.6419 -0.0880
  155OSM   H13S17300   3.652   5.049   5.026 -1.3971 -2.7604 -0.8294
  155OSM   H13T17301   3.827   5.006   5.022 -0.7929  2.0386 -1.4471
  155OSM   C14S17302   3.722   4.974   5.214  0.1611 -0.4142  0.3597
  155OSM   H14S17303   3.754   5.074   5.251 -1.3572 -0.2917  1.4443
  155OSM   H14T17304   3.801   4.906   5.254 -1.3100 -1.1092  2.2007
  155OSM   C15S17305   3.593   4.912   5.275 -0.2974  0.2416  0.3017
  155OSM   H15S17306   3.573   4.810   5.236  3.4897 -0.8540  0.8578
  155OSM   H15T17307   3.507   4.977   5.246  0.6136  1.5370  0.3939
  155OSM   C16S17308   3.609   4.897   5.421 -0.3014  0.8109  0.3454
  155OSM   H16S17309   3.507   4.884   5.464  0.1319  0.7073  1.3637
  155OSM   H16T17310   3.648   4.997   5.450  0.7143  0.9171 -1.2397
  155OSM   C17S17311   3.703   4.780   5.468  0.1562  0.7799 -0.0755
  155OSM   H17S17312   3.797   4.790   5.409  0.9117 -1.4573  0.6582
  155OSM   H17T17313   3.657   4.679   5.459  0.3612  0.4648  1.9654
  155OSM   C18S17314   3.738   4.808   5.622  0.8563  0.6263  0.1994
  155OSM   H18S17315   3.648   4.776   5.678  1.5465 -2.3909 -0.1850
  155OSM   H18T17316   3.768   4.912   5.643  1.3359  0.3745  0.7745
  155OSM   H18U17317   3.816   4.739   5.663 -0.5862 -0.4139  1.3016
  155OSM    C1F17318   4.050   4.720   3.960 -0.7118  0.1161  0.0449
  155OSM     OF17319   4.007   4.743   3.850 -0.4048  0.3726 -0.0986
  155OSM    C2F17320   4.158   4.812   4.012  0.2616  0.2093  0.2910
  155OSM    H2F17321   4.117   4.914   4.025 -2.3200 -0.1428 -3.4560
  155OSM    H2G17322   4.228   4.808   3.926 -0.1724  0.7201 -0.0874
  155OSM    C3F17323   4.221   4.768   4.148  0.1501 -0.3395  0.7767
  155OSM    H3F17324   4.315   4.828   4.150 -1.5916  2.7514 -1.3697
  155OSM    H3G17325   4.256   4.663   4.137  0.4929  0.0413 -3.5985
  155OSM    C4F17326   4.132   4.799   4.275  0.2901  0.5449 -0.4909
  155OSM    H4F17327   4.027   4.765   4.263  0.2998  0.7053 -1.0255
  155OSM    H4G17328   4.121   4.909   4.267  3.4191  1.0151  0.2619
  155OSM    C5F17329   4.191   4.767   4.414 -0.3186  0.5997 -0.6324
  155OSM    H5F17330   4.289   4.816   4.431 -1.3256  1.6502  2.8911
  155OSM    H5G17331   4.209   4.657   4.414 -2.4992  0.1665  0.3340
  155OSM    C6F17332   4.104   4.797   4.543 -0.5650 -0.4551 -0.0351
  155OSM    H6F17333   4.007   4.743   4.543 -1.4436  1.0789  0.4014
  155OSM    H6G17334   4.086   4.906   4.542  0.1502 -0.3391 -0.2882
  155OSM    C7F17335   4.191   4.772   4.668  0.2890  0.1653  0.4583
  155OSM    H7F17336   4.285   4.831   4.660 -0.6932  2.0770  2.1743
  155OSM    H7G17337   4.210   4.663   4.675 -0.5547 -0.2541 -2.4209
  155OSM    C8F17338   4.115   4.821   4.797 -0.1400  0.3611 -0.1983
  155OSM    H8F17339   4.022   4.761   4.798 -0.7798  1.0274 -3.9344
  155OSM    H8G17340   4.089   4.928   4.779  1.3644  0.8976  0.6217
  155OSM    C9F17341   4.204   4.811   4.921  0.7673  0.6753  0.0578
  155OSM    H9F17342   4.232   4.711   4.957 -0.7810 -0.0331 -0.6179
  155OSM   C10F17343   4.250   4.923   4.984 -0.1407  0.7294 -0.2139
  155OSM   H10F17344   4.310   4.908   5.075 -0.1961 -0.1770 -0.3203
  155OSM   C11F17345   4.218   5.062   4.945  0.1209 -0.3986  0.1335
  155OSM   H11F17346   4.109   5.082   4.946  0.1323 -0.2524 -0.6450
  155OSM   H11G17347   4.260   5.076   4.843 -1.8045  4.9794 -0.2704
  155OSM   C12F17348   4.287   5.168   5.038 -0.2086 -0.0141  0.2905
  155OSM   H12F17349   4.272   5.274   5.007  1.6563  0.2602  0.1968
  155OSM   H12G17350   4.397   5.152   5.030  0.2761  3.2946 -1.4651
  155OSM   C13F17351   4.254   5.158   5.187 -0.5502  0.7045 -0.4505
  155OSM   H13F17352   4.260   5.056   5.230 -0.0880  1.3424  1.0980
  155OSM   H13G17353   4.151   5.194   5.208 -0.8177 -0.8276  1.1010
  155OSM   C14F17354   4.339   5.248   5.275 -0.8002  0.2232  0.5021
  155OSM   H14F17355   4.364   5.335   5.210 -2.8778 -0.7713 -1.8040
  155OSM   H14G17356   4.438   5.206   5.305 -0.5385  0.7466  0.3962
  155OSM   C15F17357   4.254   5.281   5.395  1.1999 -0.6353 -0.1645
  155OSM   H15F17358   4.219   5.188   5.445  2.4868 -1.5464 -0.9418
  155OSM   H15G17359   4.166   5.343   5.366  1.1624 -1.0429 -0.9125
  155OSM   C16F17360   4.325   5.359   5.505 -0.9310  0.0093  0.9870
  155OSM   H16F17361   4.339   5.458   5.456 -1.7053 -0.2526  0.2150
  155OSM   H16G17362   4.426   5.317   5.526 -0.6129  0.4919  0.4786
  155OSM   C17F17363   4.235   5.381   5.632  0.1769 -0.0335 -0.0221
  155OSM   H17F17364   4.231   5.291   5.697 -0.9897  0.5215  0.7084
  155OSM   H17G17365   4.128   5.400   5.608  0.3967 -0.5385 -1.5674
  155OSM   C18F17366   4.284   5.488   5.731  0.4241 -0.2252  0.3754
  155OSM   H18F17367   4.286   5.585   5.676 -0.2109  0.9091  2.2791
  155OSM   H18G17368   4.387   5.469   5.769  1.2306  3.0506  0.1131
  155OSM   H18H17369   4.213   5.499   5.815 -1.2923 -0.5707 -0.9562
  156OSM      N17370   6.321   2.052   3.610  0.3195 -0.1937 -0.0541
  156OSM    C1517371   6.443   2.135   3.577  0.3124  0.0031  0.0061
  156OSM   H15A17372   6.428   2.239   3.551 -0.3030 -0.0339  0.2072
  156OSM   H15B17373   6.494   2.080   3.499 -2.6580 -1.3584 -1.0938
  156OSM   H15C17374   6.514   2.139   3.659  0.7470  0.4648 -0.3861
  156OSM    C1417375   6.229   2.069   3.495  0.1334  0.4399 -0.1118
  156OSM   H14A17376   6.214   2.175   3.481  0.2980  0.3795 -0.7671
  156OSM   H14B17377   6.138   2.016   3.516 -1.3643  2.5964 -0.8465
  156OSM   H14C17378   6.271   2.031   3.403  0.4312  0.5374 -0.0199
  156OSM    C1317379   6.368   1.910   3.619  0.6159  1.0635  0.3958
  156OSM   H13A17380   6.417   1.890   3.713  0.6433  0.1228  0.1907
  156OSM   H13B17381   6.440   1.896   3.539  1.1661 -0.1958  1.0847
  156OSM   H13C17382   6.286   1.842   3.602 -0.8291  2.0886  2.7728
  156OSM    C1217383   6.268   2.097   3.742 -0.2902  0.7821  0.0038
  156OSM   H12A17384   6.249   2.202   3.730 -1.7038  0.6395  0.8112
  156OSM   H12B17385   6.342   2.093   3.820  0.2564 -1.1594 -0.5347
  156OSM    C1117386   6.143   2.015   3.796 -0.8072  0.0643  0.0265
  156OSM   H11A17387   6.117   2.061   3.894  0.4560 -1.9673  1.3758
  156OSM   H11B17388   6.194   1.919   3.817  1.4188  0.8746 -1.4049
  156OSM      P17389   5.898   2.092   3.724 -0.1680 -0.2087 -0.0766
  156OSM    O1317390   5.928   2.231   3.672  0.2705  0.0682 -0.8874
  156OSM    O1417391   5.780   2.020   3.662 -0.3236 -0.2028  0.1730
  156OSM    O1117392   5.896   2.106   3.883  0.5244  0.1240  0.1238
  156OSM    O1217393   6.029   2.007   3.710 -0.2237 -0.5542  0.1948
  156OSM    C1S17394   5.778   2.149   3.951  0.4705 -0.0122 -0.1694
  156OSM    H1S17395   5.681   2.133   3.898  0.5962 -3.0439  0.3111
  156OSM    H1T17396   5.787   2.257   3.977  0.6663 -0.0688  0.0016
  156OSM     NF17397   5.633   2.102   4.144  0.8322  0.2120  0.7042
  156OSM    HNF17398   5.628   2.164   4.222 -0.3722 -0.2228  0.9979
  156OSM    C2S17399   5.758   2.065   4.080  0.4316 -0.0420  0.5850
  156OSM    H2S17400   5.759   1.964   4.034 -1.0258  0.2340 -0.0849
  156OSM    C3S17401   5.881   2.079   4.175  0.3394  1.3342  0.4741
  156OSM    H3S17402   5.900   2.184   4.205  1.3646  1.7026 -1.3141
  156OSM     O317403   6.003   2.046   4.106 -0.2968 -0.4708  0.1191
  156OSM    HO317404   5.979   2.028   4.015  0.6587  1.8197 -0.6398
  156OSM    C4S17405   5.871   2.002   4.312  0.3712  0.2282  0.4390
  156OSM    H4S17406   5.799   2.057   4.374 -0.7263 -2.4236  1.6543
  156OSM    C5S17407   5.934   1.893   4.349  0.2084  0.4762  0.2694
  156OSM    H5S17408   6.019   1.864   4.285  0.4311 -1.0710  1.1985
  156OSM    C6S17409   5.917   1.809   4.475  0.2918  0.4329  0.5017
  156OSM    H6S17410   6.005   1.744   4.493 -0.4572 -0.1738  2.2257
  156OSM    H6T17411   5.827   1.745   4.484  0.0278  0.9325  1.6254
  156OSM    C7S17412   5.905   1.891   4.605 -0.1403  0.6112  0.0033
  156OSM    H7S17413   5.816   1.955   4.585 -1.7714 -2.0164 -1.8791
  156OSM    H7T17414   5.996   1.954   4.602  0.1089  0.2224 -1.9848
  156OSM    C8S17415   5.897   1.813   4.735 -0.0351 -0.5044  0.2865
  156OSM    H8S17416   5.959   1.720   4.737  2.9370  1.3251  0.0996
  156OSM    H8T17417   5.793   1.775   4.723  1.0860 -4.0443  0.4244
  156OSM    C9S17418   5.912   1.890   4.867 -0.0518 -0.2155 -0.5948
  156OSM    H9S17419   5.831   1.966   4.866 -0.0798 -0.2031  0.7786
  156OSM    H9T17420   6.007   1.947   4.862 -0.7583  1.2324  1.3433
  156OSM   C10S17421   5.905   1.803   4.997  0.3706 -0.4817 -0.5039
  156OSM   H10S17422   5.999   1.744   5.006  0.8715  0.0621 -1.8286
  156OSM   H10T17423   5.811   1.745   4.985 -1.2083  1.5065  1.4837
  156OSM   C11S17424   5.892   1.890   5.124 -0.4842  0.4366 -0.3552
  156OSM   H11S17425   5.797   1.947   5.132  0.3872  1.7147  1.8415
  156OSM   H11T17426   5.979   1.959   5.125  2.4784 -2.9627  0.6124
  156OSM   C12S17427   5.911   1.808   5.251  0.2114  0.0433  0.9593
  156OSM   H12S17428   6.000   1.743   5.237 -0.0893 -0.1165 -0.4109
  156OSM   H12T17429   5.820   1.746   5.257  0.2175 -0.1899 -0.7143
  156OSM   C13S17430   5.931   1.886   5.381 -0.0322  0.6835 -0.1692
  156OSM   H13S17431   5.840   1.924   5.433 -0.2511  2.2882 -1.6297
  156OSM   H13T17432   5.984   1.980   5.357 -0.3413  1.0670  0.6402
  156OSM   C14S17433   6.000   1.803   5.486  0.4135  0.1479 -1.1130
  156OSM   H14S17434   6.104   1.775   5.459  0.1219 -2.1206 -0.1599
  156OSM   H14T17435   5.945   1.706   5.484  1.1525 -0.3026 -0.3466
  156OSM   C15S17436   5.991   1.867   5.622  0.4810 -0.3465  0.0015
  156OSM   H15S17437   5.887   1.905   5.635  0.1920 -0.3314 -1.9432
  156OSM   H15T17438   6.066   1.949   5.631 -1.1420  1.3501 -1.0681
  156OSM   C16S17439   6.039   1.768   5.731 -0.4024  0.0457  0.4166
  156OSM   H16S17440   6.149   1.761   5.734 -0.3368  1.1922  1.0108
  156OSM   H16T17441   6.010   1.664   5.702  2.0728 -0.2151 -1.4216
  156OSM   C17S17442   5.990   1.800   5.872 -0.1451 -0.1048 -0.3498
  156OSM   H17S17443   5.879   1.799   5.868 -0.1020 -1.2613 -3.4528
  156OSM   H17T17444   6.023   1.905   5.890 -0.5723  0.2997 -1.7947
  156OSM   C18S17445   6.041   1.703   5.978  0.0961 -0.3803  0.2699
  156OSM   H18S17446   6.152   1.701   5.979  0.1344  0.8705  0.5566
  156OSM   H18T17447   6.007   1.599   5.963 -0.8270  0.0380 -0.6697
  156OSM   H18U17448   6.002   1.724   6.080  1.4728  2.5370  0.2963
  156OSM    C1F17449   5.514   2.067   4.093 -0.1443  0.3291  0.2899
  156OSM     OF17450   5.506   1.995   3.994  0.2837 -0.2678  0.9026
  156OSM    C2F17451   5.395   2.105   4.181 -0.6784  0.1651 -0.1052
  156OSM    H2F17452   5.386   2.215   4.170  2.0071  0.2717 -2.1834
  156OSM    H2G17453   5.408   2.079   4.288 -0.8919 -0.2638 -0.1789
  156OSM    C3F17454   5.263   2.028   4.143  0.2009 -0.9216 -0.9657
  156OSM    H3F17455   5.273   1.918   4.154 -0.7024 -0.9669 -0.4689
  156OSM    H3G17456   5.238   2.045   4.036 -0.9770  0.3855 -0.5148
  156OSM    C4F17457   5.151   2.065   4.237  0.4964  0.4980 -0.5357
  156OSM    H4F17458   5.057   2.059   4.178  0.1101 -0.1198  0.1241
  156OSM    H4G17459   5.148   2.169   4.277  2.1864  0.8946 -1.3505
  156OSM    C5F17460   5.151   1.976   4.364  0.0587 -0.0693  0.1035
  156OSM    H5F17461   5.242   2.000   4.422  0.9238  0.3582 -1.3791
  156OSM    H5G17462   5.148   1.868   4.338 -0.2582  0.4950 -2.4584
  156OSM    C6F17463   5.014   2.013   4.442 -0.5437  0.0294 -0.8248
  156OSM    H6F17464   4.921   2.008   4.381 -0.2597 -0.1422 -1.2445
  156OSM    H6G17465   5.034   2.118   4.475 -0.9661  0.4311 -1.8046
  156OSM    C7F17466   4.994   1.929   4.575 -0.1186 -0.5768  0.4267
  156OSM    H7F17467   5.084   1.932   4.639 -0.3916  1.9420  0.7838
  156OSM    H7G17468   4.984   1.821   4.550  1.0194 -0.7703  0.7567
  156OSM    C8F17469   4.865   1.960   4.652  0.2392 -0.5198 -0.4582
  156OSM    H8F17470   4.843   1.872   4.716 -0.2262  0.1622  0.3300
  156OSM    H8G17471   4.773   1.962   4.589 -0.4597 -0.6898  0.5256
  156OSM    C9F17472   4.889   2.082   4.738 -0.1355  0.6833 -0.2055
  156OSM    H9F17473   4.868   2.177   4.686  1.1602  0.4625 -1.1616
  156OSM   C10F17474   4.924   2.086   4.867  0.8110 -0.1786 -0.0228
  156OSM   H10F17475   4.937   2.183   4.918 -1.6528 -0.6500  1.6774
  156OSM   C11F17476   4.952   1.965   4.952 -0.4465  0.1963 -0.4534
  156OSM   H11F17477   4.989   1.880   4.892 -1.3306  0.5569 -1.5462
  156OSM   H11G17478   4.866   1.930   5.014  1.2304 -1.7067  0.9104
  156OSM   C12F17479   5.049   2.001   5.070  0.1639  0.6111  0.6287
  156OSM   H12F17480   5.134   2.059   5.027  0.1442  0.2664  0.1125
  156OSM   H12G17481   5.102   1.908   5.102 -0.0716 -0.5199 -1.9873
  156OSM   C13F17482   4.981   2.055   5.193 -0.3633  0.5730 -0.4533
  156OSM   H13F17483   4.909   1.980   5.234 -0.1206  1.6167  2.0332
  156OSM   H13G17484   4.921   2.143   5.161  0.3492  0.2866 -2.7517
  156OSM   C14F17485   5.082   2.104   5.300 -0.2264  0.0210 -0.5661
  156OSM   H14F17486   5.165   2.161   5.253  1.4355 -0.8496  1.1850
  156OSM   H14G17487   5.142   2.021   5.343  1.0132  1.0332 -0.2849
  156OSM   C15F17488   5.030   2.188   5.414  0.0309  0.1012  0.0501
  156OSM   H15F17489   4.938   2.139   5.454  0.8702 -0.5716  1.1800
  156OSM   H15G17490   5.012   2.290   5.374  4.1629  1.0752  0.3265
  156OSM   C16F17491   5.114   2.208   5.543 -0.4404 -0.0873  0.3858
  156OSM   H16F17492   5.216   2.250   5.527 -1.3453  1.9071 -0.4734
  156OSM   H16G17493   5.125   2.107   5.587 -0.3157 -1.7405 -3.0682
  156OSM   C17F17494   5.044   2.306   5.643 -0.3754 -0.4843  0.1319
  156OSM   H17F17495   4.950   2.257   5.675 -1.3768 -0.1343 -2.0666
  156OSM   H17G17496   5.015   2.390   5.577  0.9755  0.6159  0.8914
  156OSM   C18F17497   5.123   2.361   5.756 -0.1763  0.1340 -0.6465
  156OSM   H18F17498   5.061   2.430   5.818  0.2526  0.8022 -0.9495
  156OSM   H18G17499   5.210   2.416   5.716  0.8674 -2.2461 -1.8775
  156OSM   H18H17500   5.155   2.282   5.828  1.0709  1.2435  0.0522
  157OSM      N17501   5.977   3.704   3.962 -0.5632  0.6259 -0.2756
  157OSM    C1517502   5.871   3.739   3.865 -0.1349  0.7852  0.3382
  157OSM   H15A17503   5.906   3.727   3.764  1.9223 -1.2528  1.1809
  157OSM   H15B17504   5.836   3.837   3.892  0.0204  0.5898  1.2924
  157OSM   H15C17505   5.787   3.671   3.875  0.3322  0.2598  0.8091
  157OSM    C1417506   6.033   3.568   3.929  0.0014  0.7283  0.0017
  157OSM   H14A17507   6.069   3.579   3.828 -0.0842  2.1142  0.1018
  157OSM   H14B17508   5.955   3.493   3.938 -1.3375  1.7021 -2.5347
  157OSM   H14C17509   6.122   3.546   3.986  0.0101 -2.9950 -1.1661
  157OSM    C1317510   6.079   3.808   3.961 -0.7728  0.7675 -0.3037
  157OSM   H13A17511   6.138   3.820   3.872  0.1136  1.7804  0.3857
  157OSM   H13B17512   6.147   3.782   4.041 -1.7488 -0.4792  0.1433
  157OSM   H13C17513   6.051   3.907   3.997 -0.0835  1.4686 -1.6140
  157OSM    C1217514   5.915   3.701   4.102  0.1424 -0.1571 -0.8838
  157OSM   H12A17515   5.815   3.667   4.081  1.0437 -2.2435 -2.0798
  157OSM   H12B17516   5.915   3.804   4.135  0.7262  0.1091 -1.6922
  157OSM    C1117517   5.988   3.619   4.218  0.2596 -0.0484 -0.2100
  157OSM   H11A17518   5.937   3.636   4.315 -0.6379  1.7196 -0.9596
  157OSM   H11B17519   6.093   3.657   4.214 -0.2738  1.5092 -4.0326
  157OSM      P17520   5.861   3.387   4.227 -0.3015  0.4222  0.0894
  157OSM    O1317521   5.739   3.475   4.231 -0.3991  0.0203  0.3096
  157OSM    O1417522   5.864   3.281   4.121 -0.3189 -0.0088 -0.0988
  157OSM    O1117523   5.891   3.320   4.365 -0.2415 -0.5812  0.3485
  157OSM    O1217524   5.993   3.477   4.203 -0.1241 -0.4208  0.1440
  157OSM    C1S17525   6.006   3.246   4.392 -0.7514 -0.5992 -1.3018
  157OSM    H1S17526   6.088   3.288   4.330 -0.0345  0.0100  0.0057
  157OSM    H1T17527   5.996   3.138   4.366 -0.8021 -1.1342  0.7424
  157OSM     NF17528   6.156   3.154   4.564  0.8894  0.2350  0.2503
  157OSM    HNF17529   6.124   3.065   4.596  0.9288  1.0760  2.8417
  157OSM    C2S17530   6.052   3.254   4.545  0.2881  0.0576  0.1550
  157OSM    H2S17531   6.091   3.356   4.566  0.0993  0.5108 -1.5581
  157OSM    C3S17532   5.933   3.237   4.640 -0.4488 -0.0627  0.4123
  157OSM    H3S17533   5.896   3.133   4.638  0.3742 -0.3844 -2.2532
  157OSM     O317534   5.812   3.309   4.604  0.1169 -0.2791 -0.3267
  157OSM    HO317535   5.833   3.334   4.513 -1.1634  0.7401 -0.3766
  157OSM    C4S17536   5.965   3.243   4.790 -1.1246 -0.3579 -0.0089
  157OSM    H4S17537   6.001   3.151   4.840 -0.7338  0.4174  1.1768
  157OSM    C5S17538   5.940   3.347   4.874  0.2729  0.1143 -1.0880
  157OSM    H5S17539   5.883   3.432   4.835 -1.0137  0.8169  2.0465
  157OSM    C6S17540   5.958   3.354   5.027  0.6187  0.6568  0.5158
  157OSM    H6S17541   5.862   3.352   5.083  0.9324 -0.0673  1.0419
  157OSM    H6T17542   6.014   3.444   5.059 -1.1112  1.4288  1.5229
  157OSM    C7S17543   6.048   3.251   5.080 -0.0292  0.8557 -0.1507
  157OSM    H7S17544   6.138   3.232   5.018 -0.4012 -2.4545  0.0963
  157OSM    H7T17545   6.014   3.145   5.079  0.4103  0.6979  0.6374
  157OSM    C8S17546   6.107   3.271   5.223 -0.0134 -0.2980  0.3148
  157OSM    H8S17547   6.170   3.361   5.236 -0.3125 -0.3437  2.3651
  157OSM    H8T17548   6.191   3.201   5.239  0.8868  0.7524  0.3031
  157OSM    C9S17549   5.999   3.246   5.332  0.3921  0.6569 -0.0085
  157OSM    H9S17550   5.949   3.146   5.334  0.1534  0.7861  0.6604
  157OSM    H9T17551   5.912   3.310   5.306 -0.2337 -0.0489  0.3038
  157OSM   C10S17552   6.049   3.290   5.473  0.7506 -0.0383  0.5124
  157OSM   H10S17553   6.085   3.393   5.456  0.0391 -0.0139 -1.0265
  157OSM   H10T17554   6.137   3.235   5.513  0.8189  1.3217  2.3579
  157OSM   C11S17555   5.948   3.298   5.589  0.3744 -0.6093  0.2613
  157OSM   H11S17556   5.879   3.211   5.602 -2.5779  1.4691 -0.5428
  157OSM   H11T17557   5.875   3.378   5.565 -0.7798 -1.8871 -0.7033
  157OSM   C12S17558   6.022   3.333   5.715  0.6848 -0.2179  0.4362
  157OSM   H12S17559   6.098   3.409   5.686 -1.6118  1.8967 -0.4552
  157OSM   H12T17560   6.088   3.251   5.751  0.4317  0.6296  3.0712
  157OSM   C13S17561   5.945   3.379   5.841 -0.3250  1.0973  0.1721
  157OSM   H13S17562   5.896   3.283   5.870  1.4376  0.1747  0.2223
  157OSM   H13T17563   5.870   3.458   5.818 -0.0221  1.6958  1.1682
  157OSM   C14S17564   6.038   3.417   5.957  0.1282 -0.4224  0.2788
  157OSM   H14S17565   6.071   3.519   5.928 -1.2151  0.6781  2.3866
  157OSM   H14T17566   6.124   3.348   5.951  0.6141  0.2122 -0.2174
  157OSM   C15S17567   5.951   3.420   6.080 -1.1587  0.4487 -0.1332
  157OSM   H15S17568   5.901   3.322   6.094  0.1661 -0.6187 -2.3369
  157OSM   H15T17569   5.877   3.503   6.074 -0.7021  0.7748 -2.7240
  157OSM   C16S17570   6.050   3.427   6.202 -0.3655  0.5672  0.4635
  157OSM   H16S17571   6.112   3.517   6.185 -1.0402  0.8700 -0.5334
  157OSM   H16T17572   6.120   3.340   6.199 -0.9020  0.1465 -0.1329
  157OSM   C17S17573   6.002   3.443   6.342  0.7227  0.3270 -0.0762
  157OSM   H17S17574   6.090   3.451   6.411  0.8590  0.5600 -0.2778
  157OSM   H17T17575   5.948   3.354   6.380  1.6832  0.3441  1.4482
  157OSM   C18S17576   5.907   3.563   6.358 -0.1765  0.7292 -0.1296
  157OSM   H18S17577   5.807   3.552   6.310 -0.7844 -0.5568  1.3412
  157OSM   H18T17578   5.958   3.646   6.305 -2.7893  1.2840 -1.9788
  157OSM   H18U17579   5.902   3.591   6.466  1.6476  0.1382  0.1345
  157OSM    C1F17580   6.267   3.156   4.502  0.1328  0.6406  0.1252
  157OSM     OF17581   6.296   3.250   4.426 -0.1563  0.2282  0.1598
  157OSM    C2F17582   6.358   3.044   4.532 -0.3122  0.4624 -0.0503
  157OSM    H2F17583   6.421   3.027   4.442  1.7950  0.0176  1.4441
  157OSM    H2G17584   6.306   2.947   4.548  0.2500 -0.6153 -3.8091
  157OSM    C3F17585   6.452   3.085   4.647  0.0954  0.0247  0.4682
  157OSM    H3F17586   6.503   3.183   4.630  1.4455 -0.1510  3.0216
  157OSM    H3G17587   6.523   3.004   4.673 -0.1147 -0.4100 -0.2809
  157OSM    C4F17588   6.388   3.113   4.790 -0.2454 -0.0672 -0.3934
  157OSM    H4F17589   6.322   3.023   4.794  0.5723 -0.6498  0.0464
  157OSM    H4G17590   6.318   3.199   4.797 -0.9794 -0.7740  1.4097
  157OSM    C5F17591   6.497   3.113   4.894  0.3747 -0.0940  0.6347
  157OSM    H5F17592   6.569   3.196   4.881 -0.2051 -0.0226 -3.7087
  157OSM    H5G17593   6.554   3.017   4.893 -1.8302 -1.4716  0.6527
  157OSM    C6F17594   6.444   3.114   5.041  0.3750  0.0486  0.7172
  157OSM    H6F17595   6.366   3.035   5.046  0.6136 -0.6423 -3.1477
  157OSM    H6G17596   6.388   3.206   5.070 -2.2123 -1.4174  0.6522
  157OSM    C7F17597   6.568   3.080   5.128 -0.0765 -0.4076  0.1420
  157OSM    H7F17598   6.642   3.162   5.115  0.8224 -1.3812 -1.1379
  157OSM    H7G17599   6.617   2.984   5.099 -0.6731 -1.4975  2.4812
  157OSM    C8F17600   6.525   3.054   5.273 -0.0726  0.1860 -0.4678
  157OSM    H8F17601   6.614   3.014   5.326 -1.4170 -0.2588  1.5628
  157OSM    H8G17602   6.449   2.974   5.258 -0.1519  0.1505  0.1245
  157OSM    C9F17603   6.461   3.167   5.351  0.1121  0.0894  0.0763
  157OSM    H9F17604   6.420   3.240   5.279  0.3893 -0.4569 -0.6452
  157OSM   C10F17605   6.463   3.205   5.479  0.7512 -0.0812  0.9015
  157OSM   H10F17606   6.411   3.297   5.510  0.8154 -0.6734  2.9110
  157OSM   C11F17607   6.519   3.139   5.601 -0.3912  0.3492  0.1874
  157OSM   H11F17608   6.604   3.193   5.649 -0.1200  1.2282 -1.2221
  157OSM   H11G17609   6.561   3.043   5.564 -1.2071  0.2637 -0.5527
  157OSM   C12F17610   6.408   3.110   5.700  0.0317  0.8934  0.1904
  157OSM   H12F17611   6.436   3.027   5.768  3.1174  2.7557  1.3823
  157OSM   H12G17612   6.309   3.091   5.652 -1.2575  0.7964  2.7437
  157OSM   C13F17613   6.390   3.221   5.801 -0.9299 -0.1748  0.2934
  157OSM   H13F17614   6.283   3.249   5.806 -1.2224 -0.8943 -1.3937
  157OSM   H13G17615   6.439   3.319   5.784  3.0881 -2.0057  0.1159
  157OSM   C14F17616   6.437   3.181   5.946  0.4003  0.8091  0.0055
  157OSM   H14F17617   6.542   3.148   5.934  0.5625  0.8102  1.2563
  157OSM   H14G17618   6.368   3.101   5.983 -0.2191  0.5269 -1.6680
  157OSM   C15F17619   6.441   3.299   6.054  0.0061  0.2488  0.4640
  157OSM   H15F17620   6.361   3.372   6.028 -1.1271 -0.6979  1.2241
  157OSM   H15G17621   6.541   3.349   6.054 -0.1512  0.7749  3.5654
  157OSM   C16F17622   6.413   3.269   6.204  0.1486  0.9838  0.1001
  157OSM   H16F17623   6.472   3.181   6.238 -0.9165 -0.7677 -2.3051
  157OSM   H16G17624   6.307   3.236   6.203  0.4388 -0.0556 -1.9796
  157OSM   C17F17625   6.422   3.391   6.292 -0.1205 -0.3072  0.6009
  157OSM   H17F17626   6.365   3.468   6.236  1.5906  0.7207  0.2083
  157OSM   H17G17627   6.526   3.431   6.291 -0.4096  0.5291 -1.1660
  157OSM   C18F17628   6.381   3.372   6.433 -0.0616  0.5904  0.4265
  157OSM   H18F17629   6.393   3.472   6.481  0.7167  1.3440 -1.2774
  157OSM   H18G17630   6.444   3.301   6.491 -1.1482  0.1900  1.1421
  157OSM   H18H17631   6.274   3.342   6.441  0.3589 -1.0574  0.1674
  158OSM      N17632   4.231   3.081   3.710  0.7889  0.9922 -0.2662
  158OSM    C1517633   4.163   3.182   3.633  0.4806 -0.0589  0.2966
  158OSM   H15A17634   4.069   3.214   3.676  0.6491 -0.5270  1.0224
  158OSM   H15B17635   4.145   3.155   3.530  1.5705  2.7045 -0.7184
  158OSM   H15C17636   4.226   3.269   3.623  1.9369 -1.1323 -0.2951
  158OSM    C1417637   4.239   3.122   3.847  0.7456 -0.0997 -0.2468
  158OSM   H14A17638   4.263   3.227   3.839  0.2763 -0.0946 -1.8844
  158OSM   H14B17639   4.317   3.067   3.897  1.0090  0.2727 -0.2485
  158OSM   H14C17640   4.152   3.135   3.910 -0.5631  0.3331 -2.0868
  158OSM    C1317641   4.140   2.955   3.705  0.1948 -0.5770 -0.0352
  158OSM   H13A17642   4.116   2.929   3.603 -0.2231  0.1754 -0.1340
  158OSM   H13B17643   4.052   2.980   3.762  0.4344  1.1479 -0.3675
  158OSM   H13C17644   4.180   2.872   3.762 -3.1885 -2.6717 -0.4366
  158OSM    C1217645   4.364   3.061   3.646 -0.1882 -0.2600  0.5480
  158OSM   H12A17646   4.410   3.156   3.623 -0.9631  0.0302  0.1609
  158OSM   H12B17647   4.348   3.025   3.546 -2.1977  1.0382  0.3550
  158OSM    C1117648   4.469   2.976   3.718 -0.0717 -0.3757  0.1466
  158OSM   H11A17649   4.555   2.959   3.650 -0.1601 -0.5980  0.0876
  158OSM   H11B17650   4.412   2.881   3.726 -1.3749  0.4055  0.3538
  158OSM      P17651   4.629   2.946   3.926  0.3709 -0.1066  0.2672
  158OSM    O1317652   4.582   2.813   3.967  0.4222  0.2384 -0.3434
  158OSM    O1417653   4.756   2.952   3.852 -0.3563 -0.5374 -0.2085
  158OSM    O1117654   4.640   3.036   4.048  0.1005 -0.4608 -0.1086
  158OSM    O1217655   4.509   3.023   3.851  0.1234 -0.5651 -0.1226
  158OSM    C1S17656   4.527   3.086   4.121  0.3375 -0.3298  0.5891
  158OSM    H1S17657   4.433   3.072   4.064  2.0777 -1.1809 -2.2641
  158OSM    H1T17658   4.546   3.192   4.151 -2.1379  0.1290  0.7419
  158OSM     NF17659   4.392   3.040   4.326 -0.6516 -0.5520 -0.0728
  158OSM    HNF17660   4.410   3.119   4.384 -2.1596  0.7675 -1.2934
  158OSM    C2S17661   4.512   3.000   4.249 -0.4896  0.8189 -0.7565
  158OSM    H2S17662   4.518   2.891   4.228  4.1277  0.7093  0.0323
  158OSM    C3S17663   4.631   3.020   4.349 -0.3624  0.4404 -0.6006
  158OSM    H3S17664   4.632   3.124   4.388  2.6558  0.1393  0.3855
  158OSM     O317665   4.764   3.011   4.294 -0.4688  0.4012 -0.0149
  158OSM    HO317666   4.753   3.023   4.200 -0.1366  0.7480 -0.0118
  158OSM    C4S17667   4.613   2.931   4.467  0.2068  0.3549  0.4256
  158OSM    H4S17668   4.574   2.976   4.559  2.4035  2.1081  0.5846
  158OSM    C5S17669   4.657   2.805   4.472 -0.0873  0.0520 -0.5497
  158OSM    H5S17670   4.713   2.766   4.386  0.3854  0.9230 -0.6403
  158OSM    C6S17671   4.652   2.723   4.602  0.0806 -0.7142  0.4867
  158OSM    H6S17672   4.755   2.693   4.628 -0.5640 -1.6385  2.0666
  158OSM    H6T17673   4.601   2.629   4.571  0.9942 -0.5012 -1.9027
  158OSM    C7S17674   4.589   2.764   4.739 -0.0444  0.2337  0.3544
  158OSM    H7S17675   4.567   2.668   4.792 -0.4005  0.0563 -0.1081
  158OSM    H7T17676   4.489   2.812   4.728  0.4032  0.9980 -0.4473
  158OSM    C8S17677   4.677   2.855   4.823  0.8013  0.0147  0.4874
  158OSM    H8S17678   4.719   2.942   4.768 -0.8894  0.9254  0.5880
  158OSM    H8T17679   4.768   2.802   4.860  2.3141  2.8502  1.1249
  158OSM    C9S17680   4.614   2.905   4.954 -0.0567  0.2018 -0.0457
  158OSM    H9S17681   4.558   2.817   4.991 -2.0889  0.3346 -2.4769
  158OSM    H9T17682   4.526   2.970   4.932 -2.5679 -2.5510  1.1392
  158OSM   C10S17683   4.713   2.967   5.054  0.9901 -0.2642  0.1862
  158OSM   H10S17684   4.767   3.055   5.015  0.8169 -0.5565 -0.7317
  158OSM   H10T17685   4.792   2.892   5.074  1.2833  0.4989  2.0624
  158OSM   C11S17686   4.638   3.012   5.184 -0.2670  0.0752  0.3115
  158OSM   H11S17687   4.591   2.921   5.228 -0.4756 -0.7445 -1.5125
  158OSM   H11T17688   4.560   3.086   5.154 -0.8543 -0.7235 -0.1760
  158OSM   C12S17689   4.725   3.058   5.297 -0.3675  0.3272 -0.8374
  158OSM   H12S17690   4.769   3.153   5.263  2.1029 -1.0052 -1.5570
  158OSM   H12T17691   4.803   2.981   5.310 -0.6515  0.2858  0.8949
  158OSM   C13S17692   4.655   3.083   5.423  1.3596  0.0728 -0.0532
  158OSM   H13S17693   4.600   2.991   5.456  0.5404  1.1926  1.9175
  158OSM   H13T17694   4.584   3.167   5.407 -1.2777 -1.6517  1.6078
  158OSM   C14S17695   4.735   3.128   5.540 -0.5742  0.6951 -0.1554
  158OSM   H14S17696   4.793   3.219   5.514 -1.6627  1.2337 -0.7323
  158OSM   H14T17697   4.810   3.047   5.555  1.2672  2.1720 -0.8996
  158OSM   C15S17698   4.660   3.145   5.670 -0.3189  0.1389  0.5538
  158OSM   H15S17699   4.613   3.047   5.693 -1.0533 -0.5170 -3.0908
  158OSM   H15T17700   4.572   3.212   5.656 -1.6994 -1.7410 -0.1630
  158OSM   C16S17701   4.739   3.201   5.786 -0.0158  0.3588 -0.2202
  158OSM   H16S17702   4.810   3.278   5.749  0.1725 -0.2016 -1.0323
  158OSM   H16T17703   4.812   3.128   5.826 -0.6799 -0.6158 -0.7472
  158OSM   C17S17704   4.657   3.269   5.897  0.2404 -0.0843 -0.5965
  158OSM   H17S17705   4.632   3.187   5.967  0.8634 -0.7864 -1.1794
  158OSM   H17T17706   4.572   3.319   5.847  0.2458  0.9064  0.3448
  158OSM   C18S17707   4.734   3.378   5.978 -0.6119  0.0638 -0.1434
  158OSM   H18S17708   4.826   3.326   6.014 -0.7583  0.1841  0.4122
  158OSM   H18T17709   4.666   3.405   6.062  1.0092  2.6594  0.4270
  158OSM   H18U17710   4.756   3.472   5.924  1.0109  0.4741  1.1584
  158OSM    C1F17711   4.261   3.022   4.297 -0.0154  0.6018  0.4142
  158OSM     OF17712   4.232   2.959   4.198 -0.3191  0.5852  0.3255
  158OSM    C2F17713   4.152   3.076   4.380  0.0136 -0.4590  0.0017
  158OSM    H2F17714   4.144   3.187   4.378 -3.3050 -0.5583  0.8958
  158OSM    H2G17715   4.178   3.037   4.480  4.0822  0.4886 -0.5268
  158OSM    C3F17716   4.016   3.032   4.340  0.1961 -0.5208 -0.0543
  158OSM    H3F17717   4.011   2.921   4.340  0.9529 -0.5630  0.2886
  158OSM    H3G17718   3.990   3.056   4.234 -1.4694 -2.0465 -0.0346
  158OSM    C4F17719   3.911   3.086   4.431  0.5235 -0.3202  0.6510
  158OSM    H4F17720   3.813   3.068   4.383  2.6088 -1.1483 -3.7825
  158OSM    H4G17721   3.925   3.194   4.452  0.2017 -0.3131  0.8289
  158OSM    C5F17722   3.925   3.023   4.574  0.1428  0.2496  0.2363
  158OSM    H5F17723   4.027   3.051   4.608 -0.3979  1.5081  0.8554
  158OSM    H5G17724   3.917   2.914   4.555 -1.1937  0.4590 -0.5481
  158OSM    C6F17725   3.821   3.070   4.676  0.0693  0.0150 -0.2506
  158OSM    H6F17726   3.722   3.042   4.632  0.3299  0.2045 -0.9653
  158OSM    H6G17727   3.832   3.179   4.696 -1.4901 -0.1510  1.9020
  158OSM    C7F17728   3.831   3.000   4.816  0.4955  0.8322 -0.7099
  158OSM    H7F17729   3.927   3.037   4.858  0.1260 -0.8509  1.8372
  158OSM    H7G17730   3.838   2.892   4.793 -0.5788  0.3184  1.1328
  158OSM    C8F17731   3.714   3.022   4.919 -0.0344  0.8930 -0.3994
  158OSM    H8F17732   3.713   3.129   4.947  1.5668  0.6918  0.5548
  158OSM    H8G17733   3.744   2.962   5.008 -0.8688 -0.5452 -1.0449
  158OSM    C9F17734   3.578   2.983   4.863  0.5417  0.1492 -0.0371
  158OSM    H9F17735   3.543   3.027   4.769 -1.4350 -0.8824  0.1520
  158OSM   C10F17736   3.486   2.900   4.919  0.4243  0.7867 -0.0609
  158OSM   H10F17737   3.390   2.878   4.870  1.0013  1.6387 -1.6606
  158OSM   C11F17738   3.508   2.824   5.049  0.0163 -0.3927  0.1755
  158OSM   H11F17739   3.452   2.882   5.125 -0.0880  1.2134 -1.0817
  158OSM   H11G17740   3.614   2.824   5.079 -0.4673 -1.2170  1.9806
  158OSM   C12F17741   3.447   2.684   5.044  0.2108 -0.0563  0.6336
  158OSM   H12F17742   3.491   2.617   5.121  0.5420 -0.6441 -0.0603
  158OSM   H12G17743   3.474   2.642   4.945  1.8738  1.1179  0.5339
  158OSM   C13F17744   3.293   2.679   5.060 -0.5903 -0.2730  0.2256
  158OSM   H13F17745   3.238   2.597   5.009 -0.8409  0.6939 -1.1238
  158OSM   H13G17746   3.251   2.774   5.019  1.7145  1.1240  0.9358
  158OSM   C14F17747   3.251   2.690   5.211 -0.0545  0.2166 -0.0668
  158OSM   H14F17748   3.300   2.778   5.257 -1.0571  0.3991  0.6967
  158OSM   H14G17749   3.286   2.595   5.258 -1.3239 -1.6678 -2.6680
  158OSM   C15F17750   3.102   2.695   5.223 -0.1470 -0.2267  0.0809
  158OSM   H15F17751   3.055   2.595   5.232  0.3586 -0.3242  2.0868
  158OSM   H15G17752   3.058   2.744   5.134  0.5206  0.2327 -0.0041
  158OSM   C16F17753   3.060   2.772   5.351 -0.1834  0.2667 -0.0648
  158OSM   H16F17754   3.093   2.877   5.335 -2.0723  1.2799  2.1062
  158OSM   H16G17755   3.105   2.735   5.445  0.2813  0.5999 -0.1525
  158OSM   C17F17756   2.901   2.768   5.361 -0.2392  0.2419 -0.0336
  158OSM   H17F17757   2.872   2.681   5.422  2.4613  0.5688  1.8826
  158OSM   H17G17758   2.874   2.756   5.254  2.5576  0.0161 -0.8039
  158OSM   C18F17759   2.831   2.898   5.404  0.0915 -0.3603  0.2742
  158OSM   H18F17760   2.852   2.980   5.332  0.8095 -1.8491 -1.2696
  158OSM   H18G17761   2.850   2.933   5.508  1.5582 -0.5246  0.0786
  158OSM   H18H17762   2.721   2.886   5.392  0.3546 -1.4262 -1.4042
  159OSM      N17763   0.245   3.500   3.778  0.2964  0.5505 -0.2562
  159OSM    C1517764   0.304   3.541   3.650 -0.0661  0.3601 -0.0545
  159OSM   H15A17765   0.409   3.564   3.654  0.5010 -2.0451  0.1405
  159OSM   H15B17766   0.267   3.636   3.615 -2.6217 -0.3617  0.4298
  159OSM   H15C17767   0.290   3.457   3.584  0.9837 -0.4758  0.7547
  159OSM    C1417768   0.100   3.477   3.772  0.2586 -0.1139  0.1931
  159OSM   H14A17769   0.072   3.425   3.862  1.7890 -2.5920 -0.6798
  159OSM   H14B17770   0.076   3.410   3.691  0.7248 -0.2791  0.1904
  159OSM   H14C17771   0.041   3.566   3.755 -3.2776 -2.5068 -1.2563
  159OSM    C1317772   0.316   3.373   3.818  0.2115 -0.3339 -0.4594
  159OSM   H13A17773   0.277   3.337   3.912  0.7406 -1.3895 -0.6238
  159OSM   H13B17774   0.423   3.389   3.826  0.3092  0.9884 -3.2694
  159OSM   H13C17775   0.302   3.297   3.742  0.5925 -0.2024 -0.6623
  159OSM    C1217776   0.280   3.612   3.883 -0.7941 -0.4385  0.7238
  159OSM   H12A17777   0.386   3.631   3.878 -0.8668 -0.2580 -2.8961
  159OSM   H12B17778   0.251   3.580   3.982 -1.1489  0.7548  1.0144
  159OSM    C1117779   0.210   3.750   3.854 -0.4466  0.2406  0.6361
  159OSM   H11A17780   0.228   3.825   3.934 -1.6100  0.5884  0.5919
  159OSM   H11B17781   0.101   3.733   3.844  0.1006 -2.4403 -2.2699
  159OSM      P17782   0.202   3.951   3.687  0.0561 -0.0908  0.6399
  159OSM    O1317783   0.295   3.997   3.577  0.0866  0.5728 -0.2727
  159OSM    O1417784   0.057   3.950   3.655  0.0561  0.6847  0.4556
  159OSM    O1117785   0.219   4.037   3.828  0.5145  0.2145 -0.2091
  159OSM    O1217786   0.255   3.803   3.720 -0.0940  0.1861 -0.5807
  159OSM    C1S17787   0.100   4.084   3.898 -0.2268 -0.1728 -0.5942
  159OSM    H1S17788   0.039   3.998   3.932  1.9228 -0.6039  2.4946
  159OSM    H1T17789   0.043   4.148   3.827 -1.2924  0.2259  0.5763
  159OSM     NF17790   0.010   4.200   4.099  0.1717 -0.3904 -0.2524
  159OSM    HNF17791  -0.042   4.284   4.082  0.2123 -0.4412 -0.6279
  159OSM    C2S17792   0.135   4.171   4.024  0.6620 -0.1629 -0.1606
  159OSM    H2S17793   0.189   4.095   4.085  1.2164  0.4824  0.1599
  159OSM    C3S17794   0.225   4.293   3.999 -0.4165  0.9149 -0.1716
  159OSM    H3S17795   0.175   4.370   3.936 -1.0936  2.2906  1.9438
  159OSM     O317796   0.334   4.260   3.912 -0.1465  0.2745  0.0937
  159OSM    HO317797   0.321   4.166   3.898 -0.2709 -0.0364  2.0483
  159OSM    C4S17798   0.266   4.349   4.134  0.2479  0.1663  0.4073
  159OSM    H4S17799   0.195   4.388   4.208  0.6571  0.9863  0.3812
  159OSM    C5S17800   0.380   4.321   4.188 -0.3576  0.4375 -0.3344
  159OSM    H5S17801   0.460   4.262   4.140 -1.1778 -1.1796  0.2318
  159OSM    C6S17802   0.440   4.351   4.316  0.0274  0.2186 -0.6373
  159OSM    H6S17803   0.506   4.440   4.315 -0.5905  0.6989  0.1436
  159OSM    H6T17804   0.496   4.259   4.343 -1.2645 -0.2858  0.4472
  159OSM    C7S17805   0.328   4.363   4.433 -0.1341 -0.4252  0.6571
  159OSM    H7S17806   0.249   4.285   4.423  2.0056 -2.5691 -0.6065
  159OSM    H7T17807   0.287   4.465   4.418  0.0189 -0.2806  1.2182
  159OSM    C8S17808   0.379   4.356   4.575  0.8714 -0.2218  0.1870
  159OSM    H8S17809   0.459   4.431   4.593 -0.0913  0.9299 -0.1961
  159OSM    H8T17810   0.436   4.262   4.589  3.2525  1.3592  1.8783
  159OSM    C9S17811   0.274   4.365   4.686  0.2663 -0.5265 -0.0913
  159OSM    H9S17812   0.196   4.286   4.676 -1.3582  1.1345 -1.1525
  159OSM    H9T17813   0.214   4.459   4.686  0.9058 -0.1137 -0.1288
  159OSM   C10S17814   0.337   4.360   4.829 -0.3508  0.0439  0.1146
  159OSM   H10S17815   0.422   4.430   4.845  0.1746 -0.8531  1.4263
  159OSM   H10T17816   0.366   4.255   4.852 -0.1192  0.0452 -0.1574
  159OSM   C11S17817   0.229   4.403   4.935 -0.0828 -0.0202 -0.2781
  159OSM   H11S17818   0.135   4.347   4.920  0.3278 -0.3576 -1.7706
  159OSM   H11T17819   0.214   4.512   4.923 -2.3667 -0.2884 -0.2810
  159OSM   C12S17820   0.284   4.388   5.078  0.0237 -0.1053 -0.0274
  159OSM   H12S17821   0.386   4.431   5.073 -0.4020  0.8166 -1.8600
  159OSM   H12T17822   0.298   4.288   5.123 -0.6944 -0.6861 -1.0486
  159OSM   C13S17823   0.208   4.469   5.184 -0.5843 -0.3928  0.9702
  159OSM   H13S17824   0.109   4.420   5.197 -0.1157 -1.9463 -0.9282
  159OSM   H13T17825   0.183   4.569   5.140 -1.2072 -0.6815  0.6560
  159OSM   C14S17826   0.286   4.473   5.314 -0.5638 -0.6969  1.0390
  159OSM   H14S17827   0.390   4.510   5.299 -1.9318  2.5505 -1.7449
  159OSM   H14T17828   0.300   4.368   5.349 -1.4869 -0.2165  2.9686
  159OSM   C15S17829   0.210   4.551   5.419  0.6388  0.3971 -0.6726
  159OSM   H15S17830   0.103   4.524   5.432  0.6949  1.2647  2.0357
  159OSM   H15T17831   0.219   4.660   5.399 -0.4279  0.4193 -1.1202
  159OSM   C16S17832   0.272   4.531   5.556 -0.3466 -0.0572 -0.2258
  159OSM   H16S17833   0.274   4.423   5.584  0.9223  0.0233  0.0470
  159OSM   H16T17834   0.204   4.585   5.625  0.9384  0.7550  0.4288
  159OSM   C17S17835   0.408   4.589   5.550 -0.0368 -0.0092 -0.2344
  159OSM   H17S17836   0.428   4.676   5.483  2.8359 -0.6363 -0.3450
  159OSM   H17T17837   0.475   4.518   5.497  1.1797  1.3606 -0.6083
  159OSM   C18S17838   0.464   4.602   5.687  0.8426  0.1716  0.0516
  159OSM   H18S17839   0.464   4.508   5.746  2.7154 -0.4600 -0.9034
  159OSM   H18T17840   0.401   4.656   5.762  1.2385 -1.1979  1.4202
  159OSM   H18U17841   0.567   4.642   5.684  0.8427  0.2162  0.5843
  159OSM    C1F17842  -0.060   4.098   4.153 -0.3117 -0.3536 -0.2467
  159OSM     OF17843  -0.025   3.981   4.157  0.1527  0.0944 -0.2751
  159OSM    C2F17844  -0.192   4.139   4.205  0.2200 -1.2226 -0.1208
  159OSM    H2F17845  -0.266   4.080   4.148 -0.4019 -1.1876  0.6310
  159OSM    H2G17846  -0.222   4.244   4.184 -1.5027 -1.4826  0.8917
  159OSM    C3F17847  -0.208   4.121   4.358  0.1730  0.5310 -0.1115
  159OSM    H3F17848  -0.230   4.014   4.379 -0.5990  1.0710  2.1609
  159OSM    H3G17849  -0.291   4.184   4.399  0.4365  0.8513 -0.0616
  159OSM    C4F17850  -0.081   4.160   4.442  0.8641 -0.5006  0.8144
  159OSM    H4F17851  -0.045   4.262   4.420 -2.1979  0.3197 -0.9968
  159OSM    H4G17852  -0.004   4.085   4.412 -0.2899 -1.3593 -0.0819
  159OSM    C5F17853  -0.090   4.165   4.592 -0.3999  0.0650  0.6568
  159OSM    H5F17854  -0.134   4.262   4.621  0.3539  1.0094 -1.1742
  159OSM    H5G17855   0.013   4.173   4.634  0.1364 -1.4287 -0.3012
  159OSM    C6F17856  -0.148   4.040   4.658  0.8167  0.2318 -0.2583
  159OSM    H6F17857  -0.084   3.950   4.657 -1.7865 -1.7562  0.0417
  159OSM    H6G17858  -0.237   3.998   4.607  0.7749 -0.8820  0.6927
  159OSM    C7F17859  -0.179   4.040   4.803  0.7180 -0.0376  0.0819
  159OSM    H7F17860  -0.219   3.938   4.816 -1.4005  0.8133  0.6227
  159OSM    H7G17861  -0.260   4.112   4.829  0.7628  0.0606 -0.0478
  159OSM    C8F17862  -0.051   4.068   4.889  1.1720 -0.4796  0.5335
  159OSM    H8F17863  -0.020   4.166   4.847 -1.0795 -0.3007 -0.9291
  159OSM    H8G17864   0.027   3.990   4.877  0.4496 -1.1506  0.0803
  159OSM    C9F17865  -0.111   4.067   5.033 -0.4148  0.5546  0.3047
  159OSM    H9F17866  -0.220   4.059   5.039 -0.4346 -1.4616 -1.4434
  159OSM   C10F17867  -0.037   4.049   5.139  0.5258  0.8134 -0.0685
  159OSM   H10F17868  -0.078   4.051   5.241  0.0949  1.8306 -0.2490
  159OSM   C11F17869   0.112   4.047   5.138  0.2530  0.1602  0.0856
  159OSM   H11F17870   0.144   4.125   5.210 -0.0384 -1.2778  1.8339
  159OSM   H11G17871   0.148   4.076   5.037  4.1410 -0.2893  1.1927
  159OSM   C12F17872   0.180   3.911   5.165 -0.1485  0.7063  0.2875
  159OSM   H12F17873   0.288   3.906   5.138  0.3872  2.9881  1.7744
  159OSM   H12G17874   0.126   3.842   5.097 -1.3324  2.4401 -0.6030
  159OSM   C13F17875   0.166   3.867   5.312  0.3912 -0.5613 -0.3046
  159OSM   H13F17876   0.214   3.767   5.313  0.6879 -0.4201  0.5107
  159OSM   H13G17877   0.057   3.869   5.333  0.6146  0.7763  0.8747
  159OSM   C14F17878   0.240   3.952   5.406 -0.2646  0.0897 -0.5565
  159OSM   H14F17879   0.277   4.049   5.367  1.7861  0.2534  1.5970
  159OSM   H14G17880   0.339   3.911   5.433  0.0677  2.3367  2.0785
  159OSM   C15F17881   0.174   3.975   5.541  0.2516 -0.0488 -0.7580
  159OSM   H15F17882   0.179   3.876   5.590  0.5999  0.0583 -0.5728
  159OSM   H15G17883   0.068   3.995   5.515  0.4004  0.3988 -1.0370
  159OSM   C16F17884   0.234   4.092   5.617  1.3100 -0.4321 -0.0169
  159OSM   H16F17885   0.198   4.185   5.568  0.5313  0.4629  2.1143
  159OSM   H16G17886   0.343   4.073   5.613  1.2723 -0.8289  0.6938
  159OSM   C17F17887   0.201   4.086   5.764  0.5756 -0.2385 -0.8556
  159OSM   H17F17888   0.203   3.980   5.798  0.7631 -0.0893 -0.4065
  159OSM   H17G17889   0.102   4.130   5.789  1.4967  0.5477  1.7514
  159OSM   C18F17890   0.303   4.166   5.847 -0.2868  0.4861  0.3839
  159OSM   H18F17891   0.314   4.270   5.811 -2.4749  0.2767 -1.0893
  159OSM   H18G17892   0.398   4.109   5.842 -0.3084  0.5336 -2.7631
  159OSM   H18H17893   0.280   4.161   5.956 -0.9761  1.8201  0.3179
  160OSM      N17894   4.684   4.200   3.228  0.0665 -0.1206 -0.2121
  160OSM    C1517895   4.634   4.166   3.093  0.3492  0.6049  0.0164
  160OSM   H15A17896   4.718   4.164   3.025  1.5305 -1.0238  1.4258
  160OSM   H15B17897   4.554   4.228   3.055 -0.9107 -0.2725  1.1314
  160OSM   H15C17898   4.582   4.072   3.085 -0.6852  1.2981 -2.8038
  160OSM    C1417899   4.795   4.102   3.268  0.7281  0.1072 -0.3763
  160OSM   H14A17900   4.829   4.145   3.361 -0.9930 -2.0878  1.3769
  160OSM   H14B17901   4.879   4.089   3.201  0.6209 -2.7134 -0.0837
  160OSM   H14C17902   4.748   4.008   3.290  0.5664  0.3873  0.5251
  160OSM    C1317903   4.763   4.331   3.223  0.1015  0.1199 -0.7669
  160OSM   H13A17904   4.829   4.322   3.137  0.7475  1.7182 -0.4779
  160OSM   H13B17905   4.828   4.345   3.308  0.5391  1.0604 -1.2285
  160OSM   H13C17906   4.703   4.420   3.206 -0.5410 -0.0636  0.4590
  160OSM    C1217907   4.570   4.212   3.325  0.1384 -0.2637 -0.8353
  160OSM   H12A17908   4.533   4.112   3.342  0.5680 -0.2231  0.4385
  160OSM   H12B17909   4.494   4.278   3.285 -0.3675 -1.3333 -1.6888
  160OSM    C1117910   4.599   4.262   3.472  0.4807  0.3500  0.8012
  160OSM   H11A17911   4.512   4.325   3.501  0.1289 -0.2565  1.0741
  160OSM   H11B17912   4.682   4.336   3.479  0.0638  0.7454  1.8743
  160OSM      P17913   4.508   4.067   3.615 -0.2071 -0.1703 -0.2544
  160OSM    O1317914   4.377   4.122   3.569  0.9978  0.1927  0.1032
  160OSM    O1417915   4.531   3.921   3.600  0.6150  0.3493 -0.0204
  160OSM    O1117916   4.526   4.108   3.762 -0.3574 -0.4197 -0.1547
  160OSM    O1217917   4.628   4.147   3.550 -0.1833 -0.0103 -0.2111
  160OSM    C1S17918   4.587   4.227   3.812  0.6264 -0.4235  0.5904
  160OSM    H1S17919   4.524   4.314   3.784  1.0263 -0.7791 -1.6147
  160OSM    H1T17920   4.677   4.246   3.749 -0.8249 -0.0293 -1.4741
  160OSM     NF17921   4.647   4.360   4.022 -0.3064 -0.2959  0.6959
  160OSM    HNF17922   4.743   4.374   4.045  0.6977 -0.1141 -2.9385
  160OSM    C2S17923   4.615   4.223   3.967  0.3861 -0.3682  0.8327
  160OSM    H2S17924   4.519   4.186   4.009  0.8973 -1.5421  1.0186
  160OSM    C3S17925   4.722   4.109   4.001  0.4616  0.0448 -0.9035
  160OSM    H3S17926   4.819   4.155   3.974  0.5145 -0.5677 -1.8195
  160OSM     O317927   4.709   3.986   3.931 -0.5029 -0.2554  0.4946
  160OSM    HO317928   4.641   4.004   3.867  0.2505 -0.3265 -0.3424
  160OSM    C4S17929   4.735   4.078   4.146 -0.3479 -0.8299 -0.3417
  160OSM    H4S17930   4.650   4.048   4.210  2.1084  0.0476  3.7143
  160OSM    C5S17931   4.857   4.086   4.207  0.3289 -0.1561  0.5543
  160OSM    H5S17932   4.944   4.117   4.146 -0.2706 -0.7493 -0.6503
  160OSM    C6S17933   4.888   4.043   4.345 -0.0776 -0.6275  0.2782
  160OSM    H6S17934   4.995   4.061   4.368 -0.0933 -0.9862  0.6515
  160OSM    H6T17935   4.879   3.934   4.361 -1.9447 -0.5823 -0.1159
  160OSM    C7S17936   4.811   4.118   4.459 -0.6059  0.9506 -0.4437
  160OSM    H7S17937   4.705   4.085   4.459 -0.9176  1.9331 -0.8344
  160OSM    H7T17938   4.810   4.226   4.435  1.0180  1.6373  2.2062
  160OSM    C8S17939   4.890   4.108   4.590  0.0440 -0.3929  0.7075
  160OSM    H8S17940   4.992   4.147   4.570  1.4794 -4.7802 -1.9115
  160OSM    H8T17941   4.906   4.004   4.626  2.3378  0.5800  2.7809
  160OSM    C9S17942   4.813   4.172   4.709 -0.6164  0.5051 -0.3553
  160OSM    H9S17943   4.722   4.113   4.734 -1.4155  2.4993  1.7986
  160OSM    H9T17944   4.790   4.278   4.686  2.3768  1.2973 -0.1622
  160OSM   C10S17945   4.886   4.191   4.851  0.0193 -0.5398 -0.0702
  160OSM   H10S17946   4.960   4.273   4.846 -0.0270 -0.3803  1.4574
  160OSM   H10T17947   4.938   4.094   4.867 -0.0513 -0.7579 -1.0934
  160OSM   C11S17948   4.784   4.236   4.966  0.2643  0.7936 -0.1604
  160OSM   H11S17949   4.701   4.161   4.965  0.5596  0.3277  2.4366
  160OSM   H11T17950   4.755   4.340   4.941 -2.6361  0.0353 -0.3620
  160OSM   C12S17951   4.838   4.207   5.108 -0.0642  0.4475 -0.1560
  160OSM   H12S17952   4.934   4.261   5.111 -0.6154  1.5060 -0.9594
  160OSM   H12T17953   4.854   4.098   5.120 -0.9298  0.4096  0.8567
  160OSM   C13S17954   4.747   4.249   5.222  0.0334 -0.4678  0.2604
  160OSM   H13S17955   4.651   4.192   5.232  0.1613 -0.7276  0.0173
  160OSM   H13T17956   4.709   4.350   5.197  0.2045 -0.7691 -1.3046
  160OSM   C14S17957   4.808   4.241   5.365  0.0821 -0.2443  1.0401
  160OSM   H14S17958   4.820   4.136   5.398 -0.3469 -0.8710 -0.6529
  160OSM   H14T17959   4.735   4.278   5.440 -0.6169  1.1163 -0.2378
  160OSM   C15S17960   4.937   4.321   5.387  0.4157  0.3981 -0.0674
  160OSM   H15S17961   4.908   4.424   5.358 -1.5219 -0.2329 -0.5355
  160OSM   H15T17962   5.019   4.282   5.323  0.5157 -1.0492  0.8868
  160OSM   C16S17963   4.974   4.311   5.535  0.3270 -0.6244  0.3657
  160OSM   H16S17964   4.877   4.326   5.587 -1.1086 -1.6910 -1.8162
  160OSM   H16T17965   5.037   4.391   5.579 -0.2389 -0.0794  0.2110
  160OSM   C17S17966   5.034   4.179   5.587 -0.1107  0.1538  1.1090
  160OSM   H17S17967   5.127   4.162   5.529 -0.9370  1.0854 -0.5743
  160OSM   H17T17968   4.962   4.097   5.570 -2.7305  1.8365  3.2378
  160OSM   C18S17969   5.056   4.183   5.738  0.1489  0.1308 -0.6733
  160OSM   H18S17970   5.104   4.087   5.765  0.5469  0.5600  0.1651
  160OSM   H18T17971   4.961   4.185   5.795  0.8073  0.4361  0.4393
  160OSM   H18U17972   5.118   4.272   5.764 -0.2804  0.4666 -0.7918
  160OSM    C1F17973   4.552   4.442   4.036  0.1049  0.0516  0.3857
  160OSM     OF17974   4.435   4.418   3.994 -0.8207 -1.0269 -1.2215
  160OSM    C2F17975   4.588   4.570   4.112 -0.2785 -0.0698  0.5506
  160OSM    H2F17976   4.501   4.637   4.131 -1.5128 -1.3567 -0.3386
  160OSM    H2G17977   4.656   4.633   4.051  0.4506  1.2139  2.5504
  160OSM    C3F17978   4.661   4.545   4.247  0.0895  0.2408  0.2153
  160OSM    H3F17979   4.721   4.630   4.285  1.1425  0.2586 -1.3960
  160OSM    H3G17980   4.738   4.465   4.240 -0.0062  0.2173 -0.6596
  160OSM    C4F17981   4.550   4.523   4.358  0.2221  0.5349  0.3739
  160OSM    H4F17982   4.474   4.449   4.325  2.6692 -1.9289 -0.0744
  160OSM    H4G17983   4.488   4.615   4.363 -0.7454 -0.0004 -1.0828
  160OSM    C5F17984   4.609   4.476   4.499 -0.2571 -0.5167  0.1431
  160OSM    H5F17985   4.698   4.536   4.529  2.2551 -4.0215  0.4060
  160OSM    H5G17986   4.651   4.375   4.480 -0.8088 -0.4047 -1.9307
  160OSM    C6F17987   4.505   4.473   4.615  0.3824 -0.8221 -0.0685
  160OSM    H6F17988   4.423   4.406   4.582  0.5066 -0.7877 -0.4434
  160OSM    H6G17989   4.469   4.578   4.625 -0.3877 -0.8727 -1.9679
  160OSM    C7F17990   4.548   4.440   4.758  0.2268 -0.3259 -0.4758
  160OSM    H7F17991   4.641   4.500   4.771  0.2132 -0.0258 -1.6953
  160OSM    H7G17992   4.574   4.334   4.780  0.5999  0.2170  2.0230
  160OSM    C8F17993   4.435   4.484   4.852 -0.6698 -0.3136 -0.5266
  160OSM    H8F17994   4.344   4.425   4.830 -2.4124  1.9744  0.1770
  160OSM    H8G17995   4.412   4.593   4.844  0.4645 -0.1424 -1.8415
  160OSM    C9F17996   4.491   4.453   4.992  1.0360 -0.5370  1.0230
  160OSM    H9F17997   4.455   4.363   5.043 -1.7501 -0.2879 -0.3230
  160OSM   C10F17998   4.569   4.536   5.065  0.4987  0.5153  0.0919
  160OSM   H10F17999   4.583   4.494   5.166  1.0171 -3.6624 -1.5098
  160OSM   C11F18000   4.616   4.668   5.027  0.0970 -0.5192  0.0678
  160OSM   H11F18001   4.547   4.732   5.087 -0.9966 -1.4234 -0.2000
  160OSM   H11G18002   4.586   4.679   4.920  1.4504  0.2396 -0.2510
  160OSM   C12F18003   4.763   4.690   5.051 -0.2135 -0.6375  0.1287
  160OSM   H12F18004   4.796   4.785   5.003 -0.0462 -1.0626 -0.6073
  160OSM   H12G18005   4.805   4.606   4.991 -0.0739  0.5277 -1.4981
  160OSM   C13F18006   4.811   4.689   5.197 -0.5585 -0.0230  0.1958
  160OSM   H13F18007   4.777   4.586   5.222  0.8134 -1.0879 -1.9328
  160OSM   H13G18008   4.743   4.759   5.249 -0.4481 -0.3590  0.8058
  160OSM   C14F18009   4.958   4.703   5.221  0.2764  0.5802  0.8359
  160OSM   H14F18010   4.999   4.790   5.165  1.7725 -0.4796  0.2221
  160OSM   H14G18011   5.017   4.616   5.184 -0.2248 -0.1060  1.5987
  160OSM   C15F18012   4.990   4.713   5.371 -0.4996 -0.5866  0.6618
  160OSM   H15F18013   4.931   4.636   5.425  1.2326 -2.0561  0.5581
  160OSM   H15G18014   4.961   4.817   5.398 -0.9341  0.0519 -2.0218
  160OSM   C16F18015   5.142   4.679   5.396 -0.4645  0.5342  1.0312
  160OSM   H16F18016   5.192   4.745   5.323  0.3801  0.2751  1.3666
  160OSM   H16G18017   5.162   4.576   5.358 -0.0077  1.1601 -0.4958
  160OSM   C17F18018   5.187   4.700   5.539 -0.7923  0.0621  0.4147
  160OSM   H17F18019   5.116   4.664   5.617  1.5448  0.3622  2.8365
  160OSM   H17G18020   5.194   4.811   5.539 -0.5697  0.0874 -1.5944
  160OSM   C18F18021   5.324   4.648   5.575  0.1197 -0.7359 -0.0877
  160OSM   H18F18022   5.310   4.538   5.568 -1.0800 -0.4981 -2.4308
  160OSM   H18G18023   5.351   4.667   5.681 -0.5188 -0.4164  0.0219
  160OSM   H18H18024   5.395   4.680   5.495  1.7703 -1.3623  1.0601
  161OSM      N18025   5.442   2.777   3.786  0.6459  0.6277 -0.4105
  161OSM    C1518026   5.523   2.900   3.819  1.0358  0.1941 -0.1588
  161OSM   H15A18027   5.512   2.980   3.747  3.7681 -0.1331 -1.0251
  161OSM   H15B18028   5.628   2.879   3.824  0.6028 -1.9338  1.7621
  161OSM   H15C18029   5.495   2.943   3.914  0.1569 -0.5367 -0.0744
  161OSM    C1418030   5.295   2.818   3.758  0.3740  0.4817  0.3038
  161OSM   H14A18031   5.234   2.729   3.758  1.2057 -0.1016  0.6759
  161OSM   H14B18032   5.278   2.876   3.669  0.0809 -0.0155  0.0287
  161OSM   H14C18033   5.269   2.883   3.840  0.5059  1.9918 -0.8150
  161OSM    C1318034   5.490   2.722   3.663  0.0773 -0.9343 -0.3085
  161OSM   H13A18035   5.589   2.679   3.662  0.1807 -0.7412  0.5162
  161OSM   H13B18036   5.482   2.784   3.575  0.1522 -0.3373  0.1045
  161OSM   H13C18037   5.429   2.635   3.639 -0.3041 -1.0170  0.8627
  161OSM    C1218038   5.458   2.666   3.884  0.5371  0.0492 -0.2780
  161OSM   H12A18039   5.562   2.639   3.894  0.0301 -2.6207 -1.2432
  161OSM   H12B18040   5.410   2.579   3.842  1.4501 -0.5811 -0.0469
  161OSM    C1118041   5.388   2.697   4.025 -0.0748 -0.5229  0.3517
  161OSM   H11A18042   5.393   2.601   4.082 -0.3765 -1.2855 -0.8638
  161OSM   H11B18043   5.284   2.714   3.992  0.1622 -1.6618 -1.1303
  161OSM      P18044   5.600   2.789   4.146  0.4751  0.1101 -0.4229
  161OSM    O1318045   5.628   2.644   4.151 -0.4592  0.9454 -0.3444
  161OSM    O1418046   5.690   2.873   4.065  0.1610 -0.1942  0.3342
  161OSM    O1118047   5.588   2.853   4.294 -0.1142 -0.7175 -0.2793
  161OSM    O1218048   5.447   2.807   4.096  0.4417  0.2023  0.0618
  161OSM    C1S18049   5.580   2.993   4.314 -0.0947 -0.8498 -0.5638
  161OSM    H1S18050   5.509   3.050   4.251 -0.5472 -1.3122 -0.4795
  161OSM    H1T18051   5.680   3.036   4.294 -0.9218  1.4058 -0.1536
  161OSM     NF18052   5.534   3.179   4.491 -0.2171  0.3107  0.1530
  161OSM    HNF18053   5.624   3.216   4.513 -0.4009  1.0637 -0.3380
  161OSM    C2S18054   5.539   3.031   4.465  0.0769 -0.6291 -0.6528
  161OSM    H2S18055   5.432   3.002   4.474 -0.9569  2.5759 -1.2742
  161OSM    C3S18056   5.621   2.958   4.578  0.3140  1.1684 -0.4357
  161OSM    H3S18057   5.727   2.979   4.550  0.6557 -1.0911 -1.0648
  161OSM     O318058   5.614   2.813   4.568 -0.6149 -0.4172  0.7371
  161OSM    HO318059   5.621   2.789   4.475  1.5403  2.4430  0.0016
  161OSM    C4S18060   5.591   2.978   4.723 -0.0075 -0.4861  0.2950
  161OSM    H4S18061   5.485   2.984   4.751 -0.2217 -2.7770  0.1994
  161OSM    C5S18062   5.680   3.015   4.817 -0.1038 -0.0430 -0.8501
  161OSM    H5S18063   5.785   3.016   4.783  1.0167 -1.8002  2.1412
  161OSM    C6S18064   5.658   3.071   4.958 -0.2054  0.5098 -0.5122
  161OSM    H6S18065   5.684   3.179   4.959 -1.0200  0.7065  0.6275
  161OSM    H6T18066   5.734   3.021   5.022  0.7190  0.0050 -1.9490
  161OSM    C7S18067   5.517   3.051   5.024  0.0453  0.1528  0.0738
  161OSM    H7S18068   5.487   2.944   5.017  2.4868 -0.6090  0.3621
  161OSM    H7T18069   5.439   3.108   4.969  0.1121 -0.2538 -0.4555
  161OSM    C8S18070   5.515   3.100   5.171  0.3062 -0.4680  0.6400
  161OSM    H8S18071   5.410   3.102   5.207 -0.0821 -1.0295 -0.4064
  161OSM    H8T18072   5.556   3.202   5.181 -2.1786  0.4889  2.0410
  161OSM    C9S18073   5.587   2.997   5.260  0.0206  0.0097  0.6659
  161OSM    H9S18074   5.692   2.990   5.225 -0.8070  0.4910 -2.1130
  161OSM    H9T18075   5.536   2.901   5.237 -1.3341  0.7996  0.2885
  161OSM   C10S18076   5.599   3.021   5.413  0.1587 -0.0573  0.6697
  161OSM   H10S18077   5.511   3.080   5.448 -0.3240  1.3269 -2.5285
  161OSM   H10T18078   5.688   3.086   5.423 -0.7595  1.6925 -1.6354
  161OSM   C11S18079   5.600   2.898   5.501 -0.6630  0.3686  0.3132
  161OSM   H11S18080   5.692   2.838   5.489 -0.7168  0.7390 -2.7536
  161OSM   H11T18081   5.518   2.836   5.460 -0.5834  0.9609 -0.7901
  161OSM   C12S18082   5.575   2.937   5.645  0.2929  0.4871 -0.3321
  161OSM   H12S18083   5.597   2.849   5.708 -1.6542  0.1671 -0.0248
  161OSM   H12T18084   5.469   2.968   5.654 -0.1300 -1.4117  3.2507
  161OSM   C13S18085   5.669   3.047   5.701 -0.5877  0.3747 -0.0738
  161OSM   H13S18086   5.667   3.134   5.632 -3.2389  1.7173  1.5286
  161OSM   H13T18087   5.771   3.004   5.706 -1.2601 -1.4410 -1.0360
  161OSM   C14S18088   5.625   3.091   5.841  0.1588  0.4500 -0.1923
  161OSM   H14S18089   5.514   3.097   5.839  0.1737  1.7111  1.1936
  161OSM   H14T18090   5.651   3.195   5.871 -2.1520  1.0498 -0.0898
  161OSM   C15S18091   5.662   3.008   5.968  0.7715  0.4242  0.3469
  161OSM   H15S18092   5.772   3.023   5.966  0.7614  0.5511  0.6732
  161OSM   H15T18093   5.636   2.902   5.949 -1.3561  0.9983 -0.2163
  161OSM   C16S18094   5.597   3.057   6.100 -0.6377  0.6283  0.0827
  161OSM   H16S18095   5.630   2.978   6.171 -0.0779  0.2413 -0.5955
  161OSM   H16T18096   5.486   3.049   6.090 -0.7561 -1.2523  2.1016
  161OSM   C17S18097   5.659   3.188   6.148 -0.1066 -0.5012  0.0742
  161OSM   H17S18098   5.658   3.270   6.073  0.9911 -0.1805  0.3977
  161OSM   H17T18099   5.764   3.173   6.181  0.6115 -0.5944 -2.0553
  161OSM   C18S18100   5.583   3.244   6.267  0.6165 -0.2040  0.0827
  161OSM   H18S18101   5.481   3.262   6.228 -0.5114  0.2934  2.9654
  161OSM   H18T18102   5.626   3.342   6.296  1.7684 -1.0521  1.4096
  161OSM   H18U18103   5.568   3.178   6.356 -2.0690  0.0616 -0.0946
  161OSM    C1F18104   5.444   3.253   4.425  0.9268 -0.8974  0.1690
  161OSM     OF18105   5.363   3.205   4.354 -0.1218  1.0728 -0.3907
  161OSM    C2F18106   5.452   3.405   4.432  0.2604  0.0910 -0.4435
  161OSM    H2F18107   5.445   3.451   4.331  2.4959 -0.1111 -0.7339
  161OSM    H2G18108   5.550   3.431   4.477  0.0536 -0.5348  0.3811
  161OSM    C3F18109   5.350   3.456   4.530  0.1296 -0.4420 -0.3422
  161OSM    H3F18110   5.251   3.415   4.500 -1.6900  1.6746  2.3236
  161OSM    H3G18111   5.324   3.564   4.531  2.3469  0.1379 -0.8106
  161OSM    C4F18112   5.377   3.415   4.681 -0.0925  0.2108  0.2789
  161OSM    H4F18113   5.398   3.306   4.685  1.3281  0.4769  0.3771
  161OSM    H4G18114   5.286   3.431   4.743 -0.6059 -1.1457 -0.0941
  161OSM    C5F18115   5.486   3.491   4.752  0.1997  0.5300  0.1703
  161OSM    H5F18116   5.452   3.596   4.752 -0.5660  0.3153 -1.7034
  161OSM    H5G18117   5.578   3.482   4.690  1.1122 -1.2818  1.6763
  161OSM    C6F18118   5.511   3.438   4.895 -0.3529 -0.1098 -0.5966
  161OSM    H6F18119   5.619   3.454   4.913  0.9151 -5.7376 -1.3280
  161OSM    H6G18120   5.495   3.329   4.887  0.0053 -0.3365  1.3170
  161OSM    C7F18121   5.428   3.516   5.003 -0.2167  0.1289  0.7880
  161OSM    H7F18122   5.322   3.515   4.969  0.8582  0.1803 -2.8924
  161OSM    H7G18123   5.465   3.621   5.008 -2.2841  0.9208  0.6524
  161OSM    C8F18124   5.428   3.447   5.144 -0.3039  0.5204  0.4287
  161OSM    H8F18125   5.536   3.433   5.164  0.1314  0.7137 -1.6148
  161OSM    H8G18126   5.372   3.353   5.124 -0.7259  1.0638 -1.1045
  161OSM    C9F18127   5.363   3.530   5.251 -0.3206  1.0130 -0.6712
  161OSM    H9F18128   5.259   3.559   5.232 -0.7045  1.5784  1.8992
  161OSM   C10F18129   5.429   3.559   5.365  0.0916  0.2485  0.3747
  161OSM   H10F18130   5.374   3.624   5.434 -0.9985  0.1343 -0.3673
  161OSM   C11F18131   5.569   3.518   5.410  0.1166  0.5981 -0.3348
  161OSM   H11F18132   5.611   3.592   5.482  1.0683 -0.0402 -0.2194
  161OSM   H11G18133   5.631   3.508   5.319 -2.2490  0.9151 -2.0852
  161OSM   C12F18134   5.566   3.378   5.477  0.9549  0.6336 -0.1076
  161OSM   H12F18135   5.671   3.352   5.502  0.3393 -3.3044 -0.9298
  161OSM   H12G18136   5.537   3.304   5.400 -0.6003 -0.5166  1.5069
  161OSM   C13F18137   5.476   3.379   5.600 -0.6710  0.1646 -0.0508
  161OSM   H13F18138   5.449   3.274   5.625  0.0547 -0.2933 -1.1014
  161OSM   H13G18139   5.377   3.416   5.567  0.1049  1.5220 -0.9398
  161OSM   C14F18140   5.531   3.469   5.711  0.1259 -0.5241 -0.2728
  161OSM   H14F18141   5.522   3.573   5.675  2.4610 -0.3083 -0.3847
  161OSM   H14G18142   5.641   3.460   5.722  0.2039  2.5816  3.7112
  161OSM   C15F18143   5.468   3.448   5.851 -0.4200  0.5573  0.1741
  161OSM   H15F18144   5.465   3.342   5.884  0.7059  0.2828 -0.5796
  161OSM   H15G18145   5.359   3.471   5.843 -0.1550  1.8914  0.2513
  161OSM   C16F18146   5.521   3.535   5.971  0.0961 -0.0636 -0.0501
  161OSM   H16F18147   5.625   3.502   5.989  0.5403  0.9835 -0.6160
  161OSM   H16G18148   5.464   3.503   6.060 -2.2009 -2.1222 -2.1001
  161OSM   C17F18149   5.488   3.684   5.958  0.1890  0.5091  0.6901
  161OSM   H17F18150   5.377   3.689   5.954  0.0272 -1.4951  1.4036
  161OSM   H17G18151   5.534   3.725   5.866  0.7639  0.3383  0.8977
  161OSM   C18F18152   5.529   3.769   6.086 -0.4926 -0.0994  0.7882
  161OSM   H18F18153   5.630   3.743   6.124 -0.1935  2.4729  1.9669
  161OSM   H18G18154   5.457   3.762   6.171 -0.3106 -1.0053  0.8783
  161OSM   H18H18155   5.538   3.876   6.057 -0.0520 -0.3605 -0.0501
  162OSM      N18156   2.805   4.366   3.320  0.2976  0.0950 -0.4151
  162OSM    C1518157   2.660   4.395   3.300  0.3888 -0.1982  0.0521
  162OSM   H15A18158   2.636   4.449   3.209 -0.5967 -0.5498  0.0935
  162OSM   H15B18159   2.622   4.455   3.382  1.0808  0.4805 -0.1059
  162OSM   H15C18160   2.602   4.304   3.302 -2.0033  1.2540  1.2083
  162OSM    C1418161   2.841   4.256   3.221 -0.4706  0.3530  0.4214
  162OSM   H14A18162   2.771   4.174   3.227 -0.5908  0.4922  1.0774
  162OSM   H14B18163   2.940   4.218   3.242 -1.6116 -2.1217  1.7204
  162OSM   H14C18164   2.849   4.294   3.120  4.1323 -0.0194  0.4192
  162OSM    C1318165   2.890   4.483   3.277 -0.4522  0.4564  0.9033
  162OSM   H13A18166   2.889   4.562   3.352  1.5943  0.8292  0.6024
  162OSM   H13B18167   2.853   4.535   3.191  0.0170  0.2173  0.5513
  162OSM   H13C18168   2.991   4.455   3.251 -1.0000 -0.9655  0.2238
  162OSM    C1218169   2.829   4.325   3.468  0.3738 -1.0424  0.6149
  162OSM   H12A18170   2.767   4.241   3.495 -0.3208  0.1528  3.0488
  162OSM   H12B18171   2.804   4.407   3.534 -0.8176  0.8376 -2.0171
  162OSM    C1118172   2.979   4.283   3.508 -0.0835  0.0098  0.1252
  162OSM   H11A18173   2.987   4.270   3.619 -1.9542 -0.1985  0.2766
  162OSM   H11B18174   3.049   4.366   3.486  1.0984 -1.2803 -1.1505
  162OSM      P18175   2.968   4.026   3.443  0.1534  0.2645 -0.3503
  162OSM    O1318176   2.822   4.031   3.478  0.4543  0.7134  0.5595
  162OSM    O1418177   3.001   3.948   3.325 -1.0464  0.3352 -0.1603
  162OSM    O1118178   3.053   3.964   3.556  0.0285 -0.2612  0.2035
  162OSM    O1218179   3.021   4.171   3.426 -0.4115  0.0337 -0.3626
  162OSM    C1S18180   3.043   4.021   3.691  0.2809  0.0096  0.2062
  162OSM    H1S18181   2.956   4.090   3.704  2.3737  2.5463  1.7825
  162OSM    H1T18182   3.134   4.079   3.719  0.6481 -0.2334 -0.4454
  162OSM     NF18183   2.999   3.953   3.926  0.1300 -0.1103 -0.1896
  162OSM    HNF18184   3.074   3.977   3.987  0.9467 -1.1746 -0.7490
  162OSM    C2S18185   3.045   3.907   3.797  0.4403  0.4552 -0.0796
  162OSM    H2S18186   2.978   3.826   3.764  1.4423 -1.0183  1.3379
  162OSM    C3S18187   3.181   3.829   3.814  0.2883  0.3390  0.6405
  162OSM    H3S18188   3.257   3.903   3.845 -1.1855  2.5965 -0.8638
  162OSM     O318189   3.229   3.780   3.690 -0.0433  0.7225 -0.5746
  162OSM    HO318190   3.167   3.815   3.625  0.5915  1.9375 -0.5514
  162OSM    C4S18191   3.183   3.722   3.916  0.6502  0.6027 -0.3296
  162OSM    H4S18192   3.097   3.655   3.901 -0.1266  2.1509 -3.9545
  162OSM    C5S18193   3.276   3.712   4.018  0.6722  0.0466  0.3215
  162OSM    H5S18194   3.360   3.784   4.017  2.5808 -2.0715  1.0619
  162OSM    C6S18195   3.275   3.621   4.143 -0.0491  0.4233  0.1947
  162OSM    H6S18196   3.302   3.681   4.232 -0.4910 -0.3099  0.8409
  162OSM    H6T18197   3.356   3.546   4.128  0.3936  0.9446 -0.0604
  162OSM    C7S18198   3.141   3.548   4.177 -0.3006 -0.0046  0.4257
  162OSM    H7S18199   3.108   3.492   4.087 -1.9102  0.9687  0.3826
  162OSM    H7T18200   3.066   3.621   4.215  0.1731  0.7150 -0.0131
  162OSM    C8S18201   3.145   3.455   4.299 -0.7974  0.2828  0.2323
  162OSM    H8S18202   3.210   3.370   4.268 -0.9036 -0.5612  2.1897
  162OSM    H8T18203   3.044   3.418   4.327  0.1498 -1.1125  2.0652
  162OSM    C9S18204   3.204   3.521   4.421 -0.7073  0.2041 -0.5628
  162OSM    H9S18205   3.177   3.629   4.423  1.5905  0.8199  1.1035
  162OSM    H9T18206   3.313   3.531   4.404 -0.5517 -1.5925 -0.8180
  162OSM   C10S18207   3.163   3.455   4.551  0.7262  0.1614  0.2242
  162OSM   H10S18208   3.053   3.459   4.562  0.8098  0.5513  1.0660
  162OSM   H10T18209   3.210   3.509   4.637  1.8037 -0.3940  0.0105
  162OSM   C11S18210   3.212   3.312   4.576 -0.4796 -0.0844  0.4616
  162OSM   H11S18211   3.223   3.276   4.472 -0.2782 -1.8597  1.0681
  162OSM   H11T18212   3.141   3.244   4.629 -1.4310  1.3478  1.0773
  162OSM   C12S18213   3.347   3.312   4.643 -0.3021  0.4142 -0.0674
  162OSM   H12S18214   3.407   3.389   4.590  3.3303 -1.4395  0.9585
  162OSM   H12T18215   3.374   3.207   4.616  0.0232 -0.5334  3.4628
  162OSM   C13S18216   3.346   3.316   4.798  0.0837 -0.6808  0.4679
  162OSM   H13S18217   3.291   3.222   4.820 -1.1043 -0.0471  0.3175
  162OSM   H13T18218   3.283   3.403   4.827 -0.2358 -0.0849 -1.8247
  162OSM   C14S18219   3.479   3.334   4.861  0.4855 -1.0306  0.0251
  162OSM   H14S18220   3.557   3.262   4.827  2.7359  0.9589  0.7736
  162OSM   H14T18221   3.458   3.306   4.967 -0.1130 -0.7023 -0.0013
  162OSM   C15S18222   3.526   3.479   4.879 -0.0079 -0.1675 -0.3140
  162OSM   H15S18223   3.450   3.540   4.933  0.4725  0.5467 -0.4391
  162OSM   H15T18224   3.541   3.520   4.777  1.7989  0.1208  0.0296
  162OSM   C16S18225   3.668   3.492   4.932 -0.6921  0.2378  0.2000
  162OSM   H16S18226   3.720   3.580   4.888 -1.4833  0.7693  0.2906
  162OSM   H16T18227   3.720   3.400   4.900 -0.7605  0.1926  0.2167
  162OSM   C17S18228   3.690   3.503   5.081  0.1811  0.4223  0.1010
  162OSM   H17S18229   3.637   3.417   5.126  1.7161 -0.2030  0.7683
  162OSM   H17T18230   3.637   3.591   5.124 -0.9906 -0.9193  1.4569
  162OSM   C18S18231   3.840   3.506   5.126  0.3526  0.5610 -0.2085
  162OSM   H18S18232   3.882   3.602   5.088  0.2857 -0.0785 -2.0013
  162OSM   H18T18233   3.893   3.423   5.075 -1.2133 -0.8592  0.4118
  162OSM   H18U18234   3.865   3.507   5.234  2.2046  0.0977 -0.5857
  162OSM    C1F18235   2.866   3.979   3.948 -0.8617  0.2133  0.0414
  162OSM     OF18236   2.786   3.975   3.859 -0.3838 -0.3897 -0.3185
  162OSM    C2F18237   2.823   4.009   4.084 -0.4583  0.2949 -0.7018
  162OSM    H2F18238   2.714   4.029   4.089 -0.0111  2.8098  1.7351
  162OSM    H2G18239   2.871   4.102   4.123  0.1360 -0.2858 -0.0074
  162OSM    C3F18240   2.854   3.887   4.176  0.2434 -0.1798  0.6502
  162OSM    H3F18241   2.964   3.873   4.171  0.0559 -2.6463  1.9886
  162OSM    H3G18242   2.815   3.787   4.146 -2.0334  0.4411  1.3198
  162OSM    C4F18243   2.817   3.923   4.324  1.1407 -0.4939  0.5306
  162OSM    H4F18244   2.707   3.934   4.334  0.8284 -1.4586 -1.4143
  162OSM    H4G18245   2.869   4.019   4.345  2.1072 -1.2525  1.7358
  162OSM    C5F18246   2.878   3.818   4.414 -0.5060  0.3082  0.5671
  162OSM    H5F18247   2.989   3.828   4.422 -0.2989 -0.2137 -1.2798
  162OSM    H5G18248   2.861   3.721   4.362  1.5667 -0.6871  1.6184
  162OSM    C6F18249   2.810   3.809   4.550  0.2713 -0.1160 -0.4477
  162OSM    H6F18250   2.703   3.782   4.539  0.0405  0.5289  0.1961
  162OSM    H6G18251   2.814   3.912   4.590  0.3805 -0.0014 -0.7465
  162OSM    C7F18252   2.895   3.733   4.648 -0.0152  0.2789 -0.1076
  162OSM    H7F18253   2.995   3.769   4.617 -0.4172 -1.4511 -4.1189
  162OSM    H7G18254   2.885   3.626   4.620  0.5363  0.5360 -1.3438
  162OSM    C8F18255   2.859   3.768   4.789  0.5757 -0.4225 -0.1920
  162OSM    H8F18256   2.870   3.878   4.801  1.1362 -0.4040 -0.8178
  162OSM    H8G18257   2.926   3.714   4.860  0.7083  0.1900  0.1528
  162OSM    C9F18258   2.712   3.726   4.820  0.6830 -0.2125 -0.3077
  162OSM    H9F18259   2.655   3.689   4.733 -0.6459 -0.1382  0.5031
  162OSM   C10F18260   2.640   3.756   4.930  0.6440 -0.2379  0.9332
  162OSM   H10F18261   2.533   3.735   4.945  0.3531  1.8324  2.1700
  162OSM   C11F18262   2.701   3.818   5.052 -0.5982  0.7797 -0.0893
  162OSM   H11F18263   2.805   3.848   5.029 -1.0199  1.2729 -1.4475
  162OSM   H11G18264   2.702   3.735   5.126 -0.5038 -1.5924 -2.5830
  162OSM   C12F18265   2.629   3.929   5.136 -0.1189 -0.0557  0.3467
  162OSM   H12F18266   2.533   3.883   5.167  0.3701 -1.3052  0.0774
  162OSM   H12G18267   2.607   4.019   5.075 -3.3824 -0.8449  0.1843
  162OSM   C13F18268   2.702   3.976   5.264  0.5856 -0.2527  0.0231
  162OSM   H13F18269   2.635   4.049   5.315 -1.8743 -2.0300 -0.4624
  162OSM   H13G18270   2.801   4.018   5.237  1.7383 -3.5472 -1.3005
  162OSM   C14F18271   2.731   3.863   5.369  0.3621  0.2171 -0.7690
  162OSM   H14F18272   2.806   3.795   5.322  0.4940 -0.3054  0.1746
  162OSM   H14G18273   2.634   3.810   5.381  0.5275  0.4083  2.2254
  162OSM   C15F18274   2.756   3.917   5.509 -0.1444  1.1925 -0.2026
  162OSM   H15F18275   2.685   3.990   5.552  0.6535  0.9357  1.6525
  162OSM   H15G18276   2.856   3.965   5.509  1.0530 -1.1520 -0.0367
  162OSM   C16F18277   2.765   3.790   5.604 -0.0181 -0.8302 -0.1347
  162OSM   H16F18278   2.868   3.748   5.597  0.6949  0.7147  0.7303
  162OSM   H16G18279   2.685   3.719   5.573  0.6376 -1.0163 -1.5128
  162OSM   C17F18280   2.731   3.840   5.745 -0.0356 -0.0616 -0.2116
  162OSM   H17F18281   2.622   3.855   5.758 -0.3704 -3.2788  1.8686
  162OSM   H17G18282   2.775   3.939   5.768 -2.0549  1.3962 -2.2264
  162OSM   C18F18283   2.772   3.736   5.849 -0.3205  0.2603 -1.0467
  162OSM   H18F18284   2.879   3.706   5.840 -0.4665 -0.7244  0.2422
  162OSM   H18G18285   2.713   3.642   5.844 -1.2692  0.9273 -2.9977
  162OSM   H18H18286   2.755   3.777   5.951 -1.3923  0.6913 -1.3878
  163OSM      N18287   0.229   2.438   3.855  0.6549  0.2268  0.1664
  163OSM    C1518288   0.327   2.428   3.742  0.4130 -0.3694 -0.6954
  163OSM   H15A18289   0.416   2.483   3.769  2.7167 -3.7747 -0.7443
  163OSM   H15B18290   0.282   2.452   3.647  0.8594  0.0700 -0.8013
  163OSM   H15C18291   0.367   2.327   3.741  0.5618 -0.3485  0.6119
  163OSM    C1418292   0.111   2.365   3.810 -0.9038  0.3640 -0.0668
  163OSM   H14A18293   0.136   2.262   3.789 -2.0296  0.0841 -0.0658
  163OSM   H14B18294   0.070   2.404   3.718 -0.0504  0.1536 -0.5470
  163OSM   H14C18295   0.032   2.352   3.882 -0.0105 -1.3497  0.6688
  163OSM    C1318296   0.287   2.385   3.983 -0.0168 -0.1100  0.5366
  163OSM   H13A18297   0.228   2.424   4.065 -1.6187  0.6228 -0.8947
  163OSM   H13B18298   0.390   2.409   4.004  0.2749  0.4644 -1.3384
  163OSM   H13C18299   0.271   2.279   3.982 -0.3712 -0.0637 -0.8075
  163OSM    C1218300   0.191   2.592   3.872  0.0450  0.3321  0.1382
  163OSM   H12A18301   0.147   2.638   3.784 -0.3957  1.1766  0.7775
  163OSM   H12B18302   0.283   2.647   3.874 -0.3318  1.3845 -3.4233
  163OSM    C1118303   0.099   2.640   3.987  0.1341 -0.3397  0.2947
  163OSM   H11A18304   0.170   2.656   4.071 -0.0252 -2.2581  0.8522
  163OSM   H11B18305   0.019   2.568   4.013 -0.3158  0.4312  1.0670
  163OSM      P18306  -0.104   2.770   3.898  0.0866  0.2691 -0.1329
  163OSM    O1318307  -0.124   2.891   3.815  0.8165 -0.5975 -0.4344
  163OSM    O1418308  -0.145   2.638   3.849  0.3135  0.0006  0.4772
  163OSM    O1118309  -0.166   2.809   4.044  0.0115  0.1929 -0.3218
  163OSM    O1218310   0.054   2.767   3.941 -0.0063 -0.4075  0.4625
  163OSM    C1S18311  -0.222   2.708   4.126 -0.8171 -0.8539 -0.3144
  163OSM    H1S18312  -0.236   2.604   4.089 -3.2222 -0.4388 -0.7805
  163OSM    H1T18313  -0.328   2.734   4.149 -0.9881 -0.9378 -0.9940
  163OSM     NF18314  -0.186   2.576   4.329  1.1783  0.4169  0.8714
  163OSM    HNF18315  -0.229   2.580   4.418  0.9169 -1.5438  0.8864
  163OSM    C2S18316  -0.151   2.698   4.260 -0.3438 -0.8688 -0.4625
  163OSM    H2S18317  -0.040   2.695   4.248  0.0795  1.6197  1.6862
  163OSM    C3S18318  -0.188   2.820   4.344  0.2023 -0.7002 -0.3520
  163OSM    H3S18319  -0.299   2.817   4.348  0.1887 -1.1074 -0.9861
  163OSM     O318320  -0.157   2.946   4.282  0.2081  0.4604 -0.0624
  163OSM    HO318321  -0.140   2.922   4.191 -2.0899  2.5635 -1.1829
  163OSM    C4S18322  -0.130   2.821   4.480 -0.5076 -0.0446  0.0399
  163OSM    H4S18323  -0.195   2.770   4.553 -0.1928  1.0967  1.1452
  163OSM    C5S18324  -0.004   2.863   4.526  0.2784 -0.5169  0.0295
  163OSM    H5S18325   0.069   2.909   4.458 -1.6924  0.0385 -1.8220
  163OSM    C6S18326   0.031   2.856   4.670 -0.4275 -0.5443 -0.3138
  163OSM    H6S18327   0.123   2.797   4.685 -0.0928  0.4222  1.7502
  163OSM    H6T18328  -0.049   2.807   4.729 -1.2327  0.4604 -0.5391
  163OSM    C7S18329   0.050   2.993   4.738  0.7031 -0.2026  0.0231
  163OSM    H7S18330  -0.036   3.063   4.730  1.0047  0.1311 -0.3415
  163OSM    H7T18331   0.134   3.052   4.697  0.0878  1.1409  0.6247
  163OSM    C8S18332   0.090   2.968   4.878  0.1832  0.3562  0.5401
  163OSM    H8S18333   0.166   2.888   4.890 -1.3526 -1.1381  0.5253
  163OSM    H8T18334   0.003   2.929   4.935 -0.1224  1.1546  0.6364
  163OSM    C9S18335   0.139   3.092   4.955 -0.6072 -0.4610  0.2918
  163OSM    H9S18336   0.065   3.141   5.021  1.2735  2.3982  0.4847
  163OSM    H9T18337   0.167   3.173   4.884 -0.9884 -0.4244  0.1836
  163OSM   C10S18338   0.260   3.074   5.046  0.7374 -0.3482  0.8341
  163OSM   H10S18339   0.357   3.071   4.992  0.2787 -1.0457  0.0301
  163OSM   H10T18340   0.248   2.980   5.104 -0.5986 -0.1790  0.8812
  163OSM   C11S18341   0.273   3.186   5.158 -0.1284 -0.0104 -0.3730
  163OSM   H11S18342   0.197   3.171   5.238  0.1545 -1.9115 -0.4052
  163OSM   H11T18343   0.261   3.284   5.106 -1.6450 -1.1612 -2.3640
  163OSM   C12S18344   0.416   3.181   5.224  0.5177  0.1613 -0.6163
  163OSM   H12S18345   0.448   3.286   5.239  1.6730 -0.3031  0.2756
  163OSM   H12T18346   0.488   3.155   5.143  0.3952  1.8636 -1.3293
  163OSM   C13S18347   0.424   3.101   5.357 -0.6656  0.5052  0.2284
  163OSM   H13S18348   0.533   3.083   5.372 -0.4766  1.2638 -0.2051
  163OSM   H13T18349   0.381   2.999   5.344 -1.2497  1.0037 -2.2922
  163OSM   C14S18350   0.354   3.177   5.469 -0.3394 -0.0730  0.0875
  163OSM   H14S18351   0.245   3.192   5.454  0.1296  1.4583 -2.4382
  163OSM   H14T18352   0.402   3.276   5.488  3.8729 -2.1916  1.8077
  163OSM   C15S18353   0.386   3.107   5.598  0.4340  0.1660 -0.5726
  163OSM   H15S18354   0.497   3.105   5.604  0.3945 -2.6533  0.9637
  163OSM   H15T18355   0.339   3.007   5.600 -1.8178  1.1729  1.1578
  163OSM   C16S18356   0.333   3.176   5.730 -0.7878  0.1384 -0.2979
  163OSM   H16S18357   0.222   3.186   5.725 -0.7664 -0.0094 -1.3804
  163OSM   H16T18358   0.383   3.275   5.728 -1.2729  0.4137  0.8251
  163OSM   C17S18359   0.375   3.098   5.858  0.5531 -0.2030 -0.2710
  163OSM   H17S18360   0.336   2.995   5.841  0.3189 -0.0536 -0.6595
  163OSM   H17T18361   0.309   3.138   5.939  0.0678 -1.5698  0.0378
  163OSM   C18S18362   0.523   3.110   5.894  0.6339 -0.0346  0.2955
  163OSM   H18S18363   0.545   3.213   5.930 -0.4384  0.4974 -0.5202
  163OSM   H18T18364   0.578   3.088   5.800 -0.5020  0.0352 -0.3941
  163OSM   H18U18365   0.536   3.038   5.978  1.3560 -0.5895 -0.2811
  163OSM    C1F18366  -0.133   2.457   4.301  0.4297 -0.1521  0.6203
  163OSM     OF18367  -0.053   2.440   4.217  0.3508  0.2246  0.3245
  163OSM    C2F18368  -0.183   2.347   4.377  0.0269  0.8423 -0.5098
  163OSM    H2F18369  -0.199   2.270   4.299 -0.2975  1.6089 -1.2178
  163OSM    H2G18370  -0.273   2.387   4.427  0.5843  2.9234 -1.0669
  163OSM    C3F18371  -0.078   2.288   4.470 -0.0615 -0.2690  0.3578
  163OSM    H3F18372  -0.033   2.368   4.534  2.2324 -1.9486  0.9748
  163OSM    H3G18373   0.012   2.251   4.415  1.5908 -1.9670  3.8781
  163OSM    C4F18374  -0.126   2.170   4.549 -0.7323  0.0616  0.3847
  163OSM    H4F18375  -0.168   2.096   4.478  1.5312  0.5946 -1.6368
  163OSM    H4G18376  -0.209   2.214   4.609 -1.9403 -0.8810 -0.5482
  163OSM    C5F18377  -0.023   2.114   4.650  0.2975 -0.1402  0.6024
  163OSM    H5F18378   0.020   2.204   4.700 -0.1063 -0.3077  1.2658
  163OSM    H5G18379   0.059   2.061   4.598  0.2558  0.0861  0.3028
  163OSM    C6F18380  -0.078   2.012   4.750  0.1683 -0.2173 -0.9912
  163OSM    H6F18381  -0.123   1.927   4.696 -0.1441  0.8821 -2.5282
  163OSM    H6G18382  -0.162   2.065   4.800  0.3659 -0.2019 -0.6683
  163OSM    C7F18383   0.009   1.945   4.857 -0.0636  0.0340  0.3282
  163OSM    H7F18384   0.087   1.892   4.798 -0.6120 -0.3199 -0.0775
  163OSM    H7G18385  -0.042   1.875   4.926 -2.7476 -0.8787 -2.3943
  163OSM    C8F18386   0.088   2.059   4.927  0.2074 -0.2082  0.4988
  163OSM    H8F18387   0.153   2.110   4.853 -0.2987  2.6772  1.8937
  163OSM    H8G18388   0.154   2.016   5.005  1.5320 -0.1141 -0.5295
  163OSM    C9F18389  -0.003   2.164   4.994  0.4822  0.6008 -0.0901
  163OSM    H9F18390  -0.024   2.252   4.931 -0.8439  3.6313  4.1317
  163OSM   C10F18391  -0.053   2.167   5.119  0.2131  0.0807 -0.0671
  163OSM   H10F18392  -0.114   2.255   5.144  1.2000  1.4220 -2.1163
  163OSM   C11F18393  -0.034   2.060   5.231 -0.1555 -1.2045  0.6490
  163OSM   H11F18394  -0.005   1.970   5.172  0.9939 -0.2534 -0.3014
  163OSM   H11G18395  -0.130   2.034   5.280 -1.5295  0.6284 -0.9104
  163OSM   C12F18396   0.058   2.087   5.348  0.3714 -0.2814 -0.0810
  163OSM   H12F18397   0.164   2.095   5.317 -0.1666  0.0769 -1.9598
  163OSM   H12G18398   0.045   2.003   5.420  0.8236 -1.4195 -1.2879
  163OSM   C13F18399   0.008   2.208   5.431 -0.2960  0.2070  0.1208
  163OSM   H13F18400  -0.102   2.213   5.441 -0.2560 -0.6036  1.1333
  163OSM   H13G18401   0.044   2.296   5.374  0.5212 -0.4936 -0.4821
  163OSM   C14F18402   0.073   2.210   5.568 -0.4070 -0.3255  0.5214
  163OSM   H14F18403   0.177   2.170   5.567  0.5047  1.6868  2.7270
  163OSM   H14G18404   0.016   2.146   5.639 -3.1222  1.8483  0.4432
  163OSM   C15F18405   0.079   2.354   5.631  0.6086 -1.0148  0.3451
  163OSM   H15F18406  -0.025   2.393   5.619  1.4941  1.9305  1.3661
  163OSM   H15G18407   0.139   2.428   5.573 -0.5835 -0.1731  0.1505
  163OSM   C16F18408   0.126   2.373   5.777  0.0559  0.4486 -0.0834
  163OSM   H16F18409   0.074   2.292   5.832 -1.0876  2.3395  1.7848
  163OSM   H16G18410   0.078   2.470   5.801 -2.6652 -0.5017 -1.2243
  163OSM   C17F18411   0.275   2.371   5.806  0.2242  0.3763  0.8155
  163OSM   H17F18412   0.330   2.468   5.807 -0.4598  0.8092 -0.7661
  163OSM   H17G18413   0.317   2.317   5.719 -2.6236 -0.7740  0.0193
  163OSM   C18F18414   0.313   2.295   5.932  0.0124  0.7003  0.1109
  163OSM   H18F18415   0.306   2.184   5.934  3.1033  0.4322  1.2984
  163OSM   H18G18416   0.254   2.340   6.014  0.3717  1.7985 -0.2162
  163OSM   H18H18417   0.422   2.310   5.948 -0.0123  2.7305 -1.2608
  164OSM      N18418   4.354   5.553   3.651 -0.2006 -0.2077 -0.2097
  164OSM    C1518419   4.283   5.657   3.572  0.4598  0.6630  0.0937
  164OSM   H15A18420   4.185   5.630   3.536  0.5421  0.0580  0.3187
  164OSM   H15B18421   4.345   5.679   3.486 -1.3959  1.1740 -1.1818
  164OSM   H15C18422   4.279   5.750   3.627  0.2956  0.3872  0.5531
  164OSM    C1418423   4.360   5.421   3.562 -0.1083  0.2349  0.0228
  164OSM   H14A18424   4.412   5.452   3.472  0.9352  3.0443  1.4735
  164OSM   H14B18425   4.267   5.375   3.532 -0.5577  0.3295  1.2210
  164OSM   H14C18426   4.418   5.343   3.608 -3.3017 -2.3171  0.0599
  164OSM    C1318427   4.491   5.601   3.687  0.0615 -0.7009 -0.0601
  164OSM   H13A18428   4.541   5.527   3.747 -0.3508 -0.0193  1.1566
  164OSM   H13B18429   4.498   5.693   3.744  1.4529 -0.1496 -1.0725
  164OSM   H13C18430   4.554   5.611   3.600  1.0885 -1.6967  0.5480
  164OSM    C1218431   4.276   5.522   3.778  0.3393 -0.4543 -0.2842
  164OSM   H12A18432   4.191   5.464   3.744 -0.1894  0.4498 -0.5632
  164OSM   H12B18433   4.231   5.612   3.819  1.1002  0.0726 -0.5796
  164OSM    C1118434   4.334   5.429   3.888 -0.2491  0.9192 -0.3870
  164OSM   H11A18435   4.266   5.436   3.976  1.2205  0.3618  0.8304
  164OSM   H11B18436   4.417   5.489   3.930  0.2772  1.6289 -2.3285
  164OSM      P18437   4.286   5.172   3.870  0.3150 -0.3645  0.0078
  164OSM    O1318438   4.150   5.194   3.814 -0.1761  0.0641 -0.1141
  164OSM    O1418439   4.362   5.053   3.827  0.2592  0.5643 -0.5025
  164OSM    O1118440   4.281   5.171   4.027  0.0501 -1.0213 -0.6445
  164OSM    O1218441   4.376   5.297   3.839 -0.1137 -0.4016  0.2091
  164OSM    C1S18442   4.389   5.208   4.116 -0.6469  0.1498  0.4721
  164OSM    H1S18443   4.464   5.272   4.065  0.4551 -0.5362  1.1956
  164OSM    H1T18444   4.447   5.117   4.142  2.5491  1.1779 -2.2429
  164OSM     NF18445   4.450   5.321   4.323  0.7788  0.0036 -0.1656
  164OSM    HNF18446   4.470   5.269   4.405  0.8573  2.0279  1.1808
  164OSM    C2S18447   4.335   5.283   4.239 -0.2902 -0.4049 -0.3580
  164OSM    H2S18448   4.293   5.373   4.189  2.6032  0.6485 -1.0474
  164OSM    C3S18449   4.226   5.216   4.321 -0.9415  1.2195  0.2401
  164OSM    H3S18450   4.267   5.118   4.355 -2.1217 -0.2638 -2.2894
  164OSM     O318451   4.116   5.173   4.244  0.2248  0.2732  0.1820
  164OSM    HO318452   4.145   5.165   4.152 -0.8222 -1.3141 -0.0568
  164OSM    C4S18453   4.178   5.279   4.446  0.3761 -0.4755  0.2366
  164OSM    H4S18454   4.200   5.222   4.537  2.4834 -0.0014  0.0796
  164OSM    C5S18455   4.078   5.370   4.456 -0.1654  0.5633 -0.3997
  164OSM    H5S18456   4.014   5.403   4.373 -0.5335  1.1280  0.0937
  164OSM    C6S18457   4.013   5.418   4.580 -0.4398 -0.1076 -0.2227
  164OSM    H6S18458   3.912   5.463   4.566 -0.5083  0.1701  1.0765
  164OSM    H6T18459   4.082   5.502   4.603 -0.7532 -0.2649  1.4046
  164OSM    C7S18460   4.004   5.328   4.706 -0.3242 -0.2304  0.0629
  164OSM    H7S18461   4.105   5.286   4.724 -0.2577  0.3417  1.0942
  164OSM    H7T18462   3.931   5.244   4.699 -1.0185  0.3563  0.1617
  164OSM    C8S18463   3.965   5.421   4.817  0.0038  0.4853  0.2598
  164OSM    H8S18464   3.870   5.476   4.798  0.2957  1.0307  0.3392
  164OSM    H8T18465   4.046   5.496   4.836 -0.2949  0.7573  0.4588
  164OSM    C9S18466   3.945   5.343   4.947  0.5492 -0.0329 -0.7502
  164OSM    H9S18467   4.043   5.297   4.971  0.5477 -1.6518 -3.3998
  164OSM    H9T18468   3.872   5.259   4.946 -0.7216  0.8860  2.8281
  164OSM   C10S18469   3.892   5.425   5.068  0.5002  0.1582 -0.5592
  164OSM   H10S18470   3.795   5.474   5.047  0.1772 -1.0322 -1.9441
  164OSM   H10T18471   3.966   5.500   5.103  0.6392 -0.4516  0.5018
  164OSM   C11S18472   3.875   5.343   5.194 -0.5070 -0.3601  0.1742
  164OSM   H11S18473   3.977   5.302   5.210 -0.1843 -1.5146 -3.7945
  164OSM   H11T18474   3.808   5.257   5.173  0.1832 -0.9000  0.1865
  164OSM   C12S18475   3.818   5.420   5.309  0.4342 -0.0070  0.1872
  164OSM   H12S18476   3.709   5.435   5.290  0.5177  0.9783  0.4622
  164OSM   H12T18477   3.845   5.527   5.298 -5.4921  1.8125 -0.3968
  164OSM   C13S18478   3.835   5.363   5.448 -0.2136 -0.7046 -0.9002
  164OSM   H13S18479   3.943   5.338   5.462 -0.2700 -0.4752  0.0280
  164OSM   H13T18480   3.775   5.271   5.462  0.3048 -0.9486 -0.1976
  164OSM   C14S18481   3.792   5.453   5.562 -0.1790  0.1046 -0.0531
  164OSM   H14S18482   3.687   5.487   5.552 -0.4711 -0.2537  1.5696
  164OSM   H14T18483   3.848   5.548   5.554 -3.6430  2.1681 -2.7800
  164OSM   C15S18484   3.822   5.412   5.710  0.1497 -0.2552  0.0657
  164OSM   H15S18485   3.808   5.504   5.772  1.5156  0.3917 -0.5573
  164OSM   H15T18486   3.929   5.388   5.724  0.1437 -0.4962 -0.2933
  164OSM   C16S18487   3.731   5.293   5.758  0.0889  0.5341 -0.1962
  164OSM   H16S18488   3.722   5.225   5.671  0.1571 -2.8492  2.2631
  164OSM   H16T18489   3.627   5.332   5.765 -0.3711  0.1393 -3.3571
  164OSM   C17S18490   3.773   5.218   5.884  1.0988 -0.1369 -0.1262
  164OSM   H17S18491   3.770   5.298   5.960 -1.5399  0.7749 -1.0861
  164OSM   H17T18492   3.876   5.181   5.866  0.3182 -1.5491 -2.0177
  164OSM   C18S18493   3.685   5.099   5.907 -0.2419  0.5222  0.0690
  164OSM   H18S18494   3.710   5.044   6.000 -0.5848 -1.5298 -1.0067
  164OSM   H18T18495   3.710   5.033   5.822  1.4980 -0.7365  1.4822
  164OSM   H18U18496   3.577   5.125   5.915 -0.0144  1.4115  0.4221
  164OSM    C1F18497   4.539   5.415   4.280 -0.2661  0.5403 -0.8137
  164OSM     OF18498   4.526   5.479   4.176  0.4712  0.5243 -0.8733
  164OSM    C2F18499   4.667   5.436   4.357  0.5377 -0.3439  0.6428
  164OSM    H2F18500   4.755   5.448   4.290  0.7801  1.4606  1.2031
  164OSM    H2G18501   4.690   5.352   4.425 -0.0320 -0.6916  0.4152
  164OSM    C3F18502   4.639   5.557   4.446  0.5321 -0.3772  0.1684
  164OSM    H3F18503   4.566   5.631   4.406  1.3735  0.6732  0.5245
  164OSM    H3G18504   4.740   5.602   4.455  2.2120 -4.0184  1.4638
  164OSM    C4F18505   4.594   5.535   4.594 -0.2653 -0.3476  0.2895
  164OSM    H4F18506   4.635   5.620   4.652  0.1491  0.5970 -1.3167
  164OSM    H4G18507   4.633   5.440   4.636 -0.3270  0.1073  1.4192
  164OSM    C5F18508   4.444   5.537   4.613  0.8473  0.4038  0.4527
  164OSM    H5F18509   4.411   5.437   4.576  1.0708  0.1035  1.0547
  164OSM    H5G18510   4.392   5.612   4.551 -0.1450 -1.0865 -0.5925
  164OSM    C6F18511   4.393   5.535   4.761  0.3843  0.1881 -0.1582
  164OSM    H6F18512   4.443   5.462   4.829 -1.8093  1.5689  3.2152
  164OSM    H6G18513   4.290   5.494   4.762 -0.1888  1.4970  2.1266
  164OSM    C7F18514   4.395   5.679   4.814 -0.0655 -0.4379 -0.1167
  164OSM    H7F18515   4.336   5.740   4.742  0.1921 -2.1307 -1.8507
  164OSM    H7G18516   4.494   5.729   4.807 -1.3118  2.1445 -0.3551
  164OSM    C8F18517   4.324   5.695   4.957  0.2922  0.0200 -0.4634
  164OSM    H8F18518   4.221   5.656   4.942  0.8429 -1.5253 -0.4160
  164OSM    H8G18519   4.318   5.805   4.968  0.6330 -0.0664  0.6939
  164OSM    C9F18520   4.398   5.619   5.058 -0.3445 -0.2623 -0.2571
  164OSM    H9F18521   4.460   5.539   5.014  1.1188  0.5545  0.2554
  164OSM   C10F18522   4.374   5.630   5.192  0.0115 -0.3004  0.3713
  164OSM   H10F18523   4.438   5.573   5.261  1.6122 -0.9390 -1.5319
  164OSM   C11F18524   4.275   5.728   5.250 -0.2757 -0.1022 -0.1024
  164OSM   H11F18525   4.177   5.678   5.268 -0.4629  0.3122  0.0368
  164OSM   H11G18526   4.270   5.818   5.185  1.6804  0.4139  0.4101
  164OSM   C12F18527   4.308   5.786   5.389 -0.3381  0.4654 -0.0936
  164OSM   H12F18528   4.325   5.705   5.463 -1.2099  0.7214  0.4012
  164OSM   H12G18529   4.225   5.848   5.427  0.1712  0.0796  1.7599
  164OSM   C13F18530   4.430   5.872   5.388  0.1759 -0.6968 -0.3607
  164OSM   H13F18531   4.398   5.967   5.340  0.9960 -0.0067  0.4294
  164OSM   H13G18532   4.512   5.843   5.320  2.2697  1.0586  1.2843
  164OSM   C14F18533   4.493   5.914   5.519 -0.1079 -0.1440  0.4600
  164OSM   H14F18534   4.529   5.826   5.576  0.6165 -0.0155  0.2116
  164OSM   H14G18535   4.407   5.948   5.581  1.2941 -0.3288  2.5740
  164OSM   C15F18536   4.595   6.030   5.520  0.2291  0.1866  0.3167
  164OSM   H15F18537   4.563   6.115   5.457  0.9887 -0.3528 -0.8280
  164OSM   H15G18538   4.690   5.986   5.483 -0.2841 -1.5906  0.9922
  164OSM   C16F18539   4.625   6.073   5.665  0.6008  0.0622  0.0800
  164OSM   H16F18540   4.622   5.987   5.736  0.4524  1.3554  1.7223
  164OSM   H16G18541   4.538   6.134   5.699 -1.5126 -1.9063 -1.4808
  164OSM   C17F18542   4.747   6.157   5.688  0.1309  0.0536  0.2920
  164OSM   H17F18543   4.742   6.244   5.619 -2.8829 -2.6258 -3.2351
  164OSM   H17G18544   4.837   6.098   5.660 -0.7863 -1.2521  0.0094
  164OSM   C18F18545   4.766   6.214   5.831  0.0710  0.1153 -0.0127
  164OSM   H18F18546   4.685   6.289   5.848 -0.1979 -0.2145  0.1720
  164OSM   H18G18547   4.864   6.264   5.843 -0.4730  1.5691 -1.2044
  164OSM   H18H18548   4.755   6.142   5.914 -2.4118  0.8518  0.4059
  165SAPS     N18549   1.805   1.386   8.517  0.4034 -0.0885  0.4598
  165SAPS   HN118550   1.705   1.412   8.501  0.5287 -0.3436 -0.8723
  165SAPS   HN218551   1.868   1.445   8.459 -0.2552  0.4745  0.2914
  165SAPS   HN318552   1.819   1.286   8.495  1.2429  0.2228 -0.5247
  165SAPS   C1218553   1.828   1.406   8.662 -0.5661 -0.6249  0.4632
  165SAPS  H12A18554   1.790   1.313   8.703 -1.9125 -1.3016 -2.1324
  165SAPS   C1318555   1.981   1.421   8.694  0.8773  0.4116 -0.4128
  165SAPS  O13A18556   2.070   1.425   8.606  0.1893  0.7901 -0.3725
  165SAPS  O13B18557   2.014   1.419   8.815  0.4788 -0.1432 -0.4251
  165SAPS   C1118558   1.756   1.531   8.726  0.0295  0.4070  0.0721
  165SAPS  H11A18559   1.803   1.618   8.676  0.6709 -0.1343 -0.2873
  165SAPS  H11B18560   1.789   1.538   8.832 -0.2563 -0.1697  0.2074
  165SAPS     P18561   1.537   1.618   8.613 -0.2528 -0.2452  0.1235
  165SAPS   O1318562   1.395   1.584   8.597 -0.3953  0.4368  0.4334
  165SAPS   O1418563   1.562   1.756   8.647 -0.4185 -0.9709 -0.5492
  165SAPS   O1218564   1.610   1.520   8.718 -0.6221 -0.0680  0.0130
  165SAPS   O1118565   1.614   1.585   8.484  0.5615  0.6355  0.0739
  165SAPS    C118566   1.631   1.668   8.375 -0.0647 -0.1138 -0.1386
  165SAPS    HA18567   1.674   1.771   8.383 -0.1845  0.0974 -1.8305
  165SAPS    HB18568   1.693   1.620   8.297 -1.5209  0.0476 -1.4404
  165SAPS    C218569   1.505   1.691   8.284 -0.1848 -0.8663  0.0214
  165SAPS    HS18570   1.426   1.732   8.350 -1.6763 -1.3809 -1.3689
  165SAPS   O2118571   1.464   1.566   8.226  0.1856  0.0902  0.0192
  165SAPS   C2118572   1.333   1.553   8.211  0.1591  0.7754 -1.0180
  165SAPS   O2218573   1.255   1.633   8.254 -0.3685 -0.0578 -0.6621
  165SAPS   C2218574   1.303   1.433   8.125 -0.0277 -0.3118 -0.4210
  165SAPS   H2R18575   1.388   1.362   8.128  0.6401  0.5066  0.6478
  165SAPS   H2S18576   1.216   1.372   8.158  1.1685 -3.0683 -2.0271
  165SAPS    C318577   1.527   1.791   8.170  0.1917  0.0636 -0.6622
  165SAPS    HX18578   1.608   1.747   8.108  0.4198 -1.7602  0.8265
  165SAPS    HY18579   1.555   1.886   8.220 -1.7659  0.2822  0.1248
  165SAPS   O3118580   1.412   1.811   8.090  0.5758  0.2376 -0.3974
  165SAPS   C3118581   1.313   1.890   8.125 -0.2573  0.9979  0.3708
  165SAPS   O3218582   1.300   1.943   8.230  0.3479  0.1471 -0.6784
  165SAPS   C3218583   1.223   1.891   8.005 -0.4139  0.1886  0.1247
  165SAPS   H2X18584   1.149   1.808   8.012  1.5246 -1.7367 -0.7315
  165SAPS   H2Y18585   1.287   1.863   7.918  1.1851  0.0781  1.2944
  165SAPS   C2318586   1.288   1.473   7.978  0.0494 -0.1088  0.1362
  165SAPS   H3R18587   1.386   1.508   7.938  0.0892 -0.2101  0.1428
  165SAPS   H3S18588   1.222   1.562   7.978  0.3497  0.1384 -1.1074
  165SAPS   C2418589   1.236   1.357   7.892 -0.2170 -0.6754 -0.4382
  165SAPS   H4R18590   1.203   1.399   7.795  0.0131  0.9015  0.1374
  165SAPS   H4S18591   1.148   1.315   7.946  1.5407 -1.1620  2.2575
  165SAPS   C2518592   1.336   1.242   7.879  0.1956  0.2631 -1.3732
  165SAPS   H5R18593   1.347   1.185   7.973 -0.6234  0.5225 -1.1077
  165SAPS   C2618594   1.411   1.219   7.767  0.0849  0.3391 -0.0021
  165SAPS   H6R18595   1.493   1.145   7.777  0.8095  1.3648  2.5265
  165SAPS   C2718596   1.400   1.294   7.635  0.3898  0.4461 -0.4750
  165SAPS   H7R18597   1.373   1.401   7.646  2.0131  0.8623 -0.1767
  165SAPS   H7S18598   1.321   1.260   7.565 -1.5418  2.4241  0.6268
  165SAPS   C2818599   1.546   1.303   7.584  0.4102 -0.0863  0.1505
  165SAPS   H8R18600   1.615   1.356   7.651 -1.6608  1.2437  1.3753
  165SAPS   C2918601   1.576   1.274   7.459 -0.6563  0.5002  0.1465
  165SAPS   H9R18602   1.683   1.266   7.437  0.0107  3.3480  1.7905
  165SAPS  C21018603   1.485   1.213   7.350 -0.7394 -0.7315 -0.2771
  165SAPS  H10R18604   1.412   1.139   7.389 -1.2122 -0.8231 -1.3198
  165SAPS  H10S18605   1.540   1.141   7.287 -0.5396 -1.6118  0.8622
  165SAPS  C21118606   1.409   1.320   7.277  0.3240 -0.4089  0.9710
  165SAPS  H11R18607   1.355   1.391   7.341 -0.8759 -1.0263  0.6672
  165SAPS  C21218608   1.397   1.320   7.141 -0.1944  0.3242 -0.7073
  165SAPS  H12R18609   1.322   1.387   7.096 -0.2522  0.0464 -1.0274
  165SAPS  C21318610   1.466   1.227   7.035 -0.8813  0.3087  0.1261
  165SAPS  H13R18611   1.425   1.244   6.933  0.4383 -0.0634 -0.4861
  165SAPS  H13S18612   1.443   1.121   7.055  0.7371 -0.3267 -1.1340
  165SAPS  C21418613   1.615   1.248   7.029  0.7957  0.0043  0.3849
  165SAPS  H14R18614   1.654   1.273   7.128  2.0865  0.2650 -0.1638
  165SAPS  C21518615   1.704   1.232   6.929 -0.4084 -0.5399  0.1290
  165SAPS  H15R18616   1.809   1.264   6.939 -0.7645  0.9094 -0.5189
  165SAPS  C21618617   1.671   1.192   6.793 -0.1381 -0.3086 -1.0072
  165SAPS  H16R18618   1.580   1.242   6.753 -0.5266 -0.2728 -0.1026
  165SAPS  H16S18619   1.642   1.085   6.788  1.4205 -0.8333  0.4301
  165SAPS  C21718620   1.782   1.215   6.685  0.5602 -0.1378 -0.9341
  165SAPS  H17R18621   1.823   1.316   6.705 -0.3339  1.0220 -4.2728
  165SAPS  H17S18622   1.739   1.210   6.583 -0.5262  0.1035 -0.5024
  165SAPS  C21818623   1.897   1.109   6.693 -0.5258 -0.7467  0.2510
  165SAPS  H18R18624   1.941   1.106   6.795  1.9308 -0.1891 -0.7065
  165SAPS  H18S18625   1.978   1.136   6.622 -1.4955  2.3445  0.1733
  165SAPS  C21918626   1.848   0.977   6.649 -0.0719  0.5539  0.3972
  165SAPS  H19R18627   1.870   0.969   6.540  1.0234 -1.5998  0.7372
  165SAPS  H19S18628   1.740   0.963   6.671 -0.0112  0.6561  0.7651
  165SAPS  C22018629   1.927   0.862   6.719 -1.5182 -0.1564 -0.0616
  165SAPS  H20R18630   2.037   0.869   6.727 -1.5556 -0.9361  1.6829
  165SAPS  H20S18631   1.893   0.759   6.693  0.1669 -0.8462  0.3350
  165SAPS  H20T18632   1.908   0.873   6.828 -2.9996 -2.2055 -0.0575
  165SAPS   C3318633   1.143   2.026   7.977  0.4548  0.3061 -0.9757
  165SAPS   H3X18634   1.201   2.113   8.015 -2.2425  1.6704  0.2823
  165SAPS   H3Y18635   1.053   2.028   8.042 -0.4970 -0.0256 -2.2535
  165SAPS   C3418636   1.103   2.047   7.835  0.4813  0.3180  0.7947
  165SAPS   H4X18637   1.045   1.957   7.804  1.0546  0.4693 -0.7870
  165SAPS   H4Y18638   1.186   2.071   7.765 -1.0350  0.2935 -1.0707
  165SAPS   C3518639   1.013   2.165   7.817  0.0514 -0.2887 -0.1531
  165SAPS   H5X18640   1.075   2.256   7.835  0.3379 -0.2273 -1.3709
  165SAPS   H5Y18641   0.935   2.146   7.894  1.4401  0.0474  1.3864
  165SAPS   C3618642   0.949   2.178   7.677 -0.1137 -0.3077  0.1932
  165SAPS   H6X18643   1.023   2.177   7.594  1.0926  1.5412  1.1818
  165SAPS   H6Y18644   0.916   2.284   7.670  3.4184  0.8950 -0.3973
  165SAPS   C3718645   0.830   2.084   7.659  0.3341 -0.7013 -0.1508
  165SAPS   H7X18646   0.751   2.106   7.733 -0.3238  0.3730 -1.1469
  165SAPS   H7Y18647   0.859   1.978   7.674  1.8323 -0.1883  0.8560
  165SAPS   C3818648   0.770   2.086   7.519  0.5424 -0.0466  0.6662
  165SAPS   H8X18649   0.690   2.009   7.525 -0.4783  1.0892  2.1920
  165SAPS   H8Y18650   0.856   2.052   7.456  0.3843  0.1943  0.3133
  165SAPS   C3918651   0.711   2.220   7.479  0.6732  0.2559  0.2832
  165SAPS   H9X18652   0.796   2.291   7.465  1.3439 -0.4459  0.7333
  165SAPS   H9Y18653   0.651   2.263   7.561  0.3132  1.5866 -0.6375
  165SAPS  C31018654   0.615   2.202   7.355  0.1080  0.7012 -0.2443
  165SAPS  H10X18655   0.575   2.304   7.338  0.2361  0.4449 -2.2812
  165SAPS  H10Y18656   0.524   2.143   7.381  0.1717  0.4317 -0.6213
  165SAPS  C31118657   0.679   2.142   7.222  0.1384 -0.0234 -0.4807
  165SAPS  H11X18658   0.714   2.037   7.221  0.8229  0.1966 -0.1946
  165SAPS  H11Y18659   0.769   2.201   7.194 -0.6175  0.3394 -2.3188
  165SAPS  C31218660   0.585   2.155   7.105 -0.5297  0.0178 -0.5125
  165SAPS  H12X18661   0.546   2.259   7.101  0.3169  0.4470  1.3940
  165SAPS  H12Y18662   0.495   2.093   7.125 -1.6523  1.9488  0.7903
  165SAPS  C31318663   0.641   2.121   6.968 -0.1781  0.5722 -0.3366
  165SAPS  H13X18664   0.667   2.015   6.947 -0.5197  0.4979 -0.3927
  165SAPS  H13Y18665   0.735   2.174   6.941  0.6630 -0.8266 -0.2470
  165SAPS  C31418666   0.530   2.153   6.862 -0.0352 -0.3197 -0.1855
  165SAPS  H14X18667   0.515   2.263   6.857  0.2587 -0.1132  2.2468
  165SAPS  H14Y18668   0.440   2.094   6.891  1.5369 -2.1594  1.1915
  165SAPS  C31518669   0.563   2.121   6.714  0.7512  0.2851  0.3329
  165SAPS  H15X18670   0.610   2.020   6.707  2.0982  0.8673  0.6567
  165SAPS  H15Y18671   0.638   2.186   6.664  2.3703 -1.4158  0.4313
  165SAPS  C31618672   0.429   2.119   6.624 -0.2058  0.1267  0.1651
  165SAPS  H16X18673   0.386   2.221   6.623  0.7254  0.5671 -2.8121
  165SAPS  H16Y18674   0.347   2.053   6.659 -1.2591  0.8957 -0.8134
  165SAPS  C31718675   0.457   2.095   6.472 -0.4685  0.5621  0.3715
  165SAPS  H17X18676   0.489   1.989   6.467 -1.1502  0.2890  1.3858
  165SAPS  H17Y18677   0.544   2.152   6.434 -0.2882 -0.5734 -0.9680
  165SAPS  C31818678   0.332   2.118   6.393  0.4363  0.3961 -0.0865
  165SAPS  H18X18679   0.343   2.074   6.291 -1.2397 -1.6212  0.5162
  165SAPS  H18Y18680   0.302   2.224   6.380 -2.1029 -0.3685 -1.2193
  165SAPS  H18Z18681   0.249   2.068   6.448  0.3746  1.6442  0.9973
  166SAPS     N18682   2.155   0.752   8.624  0.3995  0.4259 -0.0445
  166SAPS   HN118683   2.099   0.664   8.623  0.6234  0.1743  2.3223
  166SAPS   HN218684   2.132   0.808   8.540  1.4253  0.5590 -0.2445
  166SAPS   HN318685   2.256   0.730   8.612 -0.4670 -2.6427 -3.7910
  166SAPS   C1218686   2.129   0.833   8.741  0.1208 -0.0923 -0.2069
  166SAPS  H12A18687   2.148   0.778   8.832 -2.0299  2.3346  1.8908
  166SAPS   C1318688   2.219   0.959   8.727 -0.5917 -0.1469 -0.4453
  166SAPS  O13A18689   2.302   0.979   8.636  0.1590  0.2954  0.3740
  166SAPS  O13B18690   2.209   1.042   8.820  0.3397 -0.1696  0.1077
  166SAPS   C1118691   1.976   0.871   8.730 -0.3500  0.6206 -0.2824
  166SAPS  H11A18692   1.948   0.910   8.831  0.4432 -0.3540  0.3363
  166SAPS  H11B18693   1.917   0.777   8.722  3.6101 -2.3787  2.0019
  166SAPS     P18694   1.809   1.002   8.570  0.2049  0.2128 -0.0357
  166SAPS   O1318695   1.711   0.991   8.685  0.4638  0.6124 -0.4195
  166SAPS   O1418696   1.816   1.127   8.494 -0.0617  0.0847 -0.5615
  166SAPS   O1218697   1.952   0.969   8.627 -0.0857 -0.4958  0.4511
  166SAPS   O1118698   1.782   0.891   8.465 -0.3965 -0.0261  0.1486
  166SAPS    C118699   1.830   0.891   8.325  0.3910  0.0323 -0.4747
  166SAPS    HA18700   1.890   0.983   8.311 -0.6328  1.0517  1.3601
  166SAPS    HB18701   1.892   0.800   8.312 -0.7976 -0.6052 -1.9449
  166SAPS    C218702   1.720   0.879   8.207 -0.0868 -0.0888 -0.7949
  166SAPS    HS18703   1.779   0.836   8.124  1.2899 -0.7769  0.5060
  166SAPS   O2118704   1.667   1.012   8.177 -0.8699  0.1158 -0.6242
  166SAPS   C2118705   1.735   1.082   8.088 -0.2823  0.2511 -0.6152
  166SAPS   O2218706   1.852   1.061   8.057 -0.0475 -0.4486 -0.1728
  166SAPS   C2218707   1.655   1.201   8.046 -0.3742  0.1180  0.0814
  166SAPS   H2R18708   1.606   1.177   7.949  2.7768  1.5508 -2.0398
  166SAPS   H2S18709   1.588   1.228   8.131 -0.2483  1.0920 -0.1158
  166SAPS    C318710   1.604   0.781   8.227  0.1788  0.2985  0.4149
  166SAPS    HX18711   1.535   0.829   8.299 -0.2928 -1.1389  0.9701
  166SAPS    HY18712   1.647   0.688   8.271  1.1820  1.1876  1.3653
  166SAPS   O3118713   1.547   0.746   8.099  0.3835  0.1431  0.0647
  166SAPS   C3118714   1.432   0.808   8.065 -0.5962 -0.0941  0.1575
  166SAPS   O3218715   1.389   0.905   8.123 -0.1339 -0.1517  0.2181
  166SAPS   C3218716   1.389   0.765   7.925  0.3916 -0.4554 -0.4714
  166SAPS   H2X18717   1.350   0.662   7.927 -3.8956  0.9259 -2.3132
  166SAPS   H2Y18718   1.474   0.760   7.853  0.7976 -0.6350  0.0131
  166SAPS   C2318719   1.754   1.316   8.020 -0.6722 -1.4115  0.5334
  166SAPS   H3R18720   1.807   1.292   7.926 -2.0619 -1.1533 -0.3496
  166SAPS   H3S18721   1.832   1.321   8.099  1.5814 -0.3150 -1.6696
  166SAPS   C2418722   1.681   1.447   7.998  0.2378  0.3960  0.5876
  166SAPS   H4R18723   1.621   1.477   8.087 -2.8975 -1.5061 -0.7425
  166SAPS   H4S18724   1.599   1.437   7.924  1.6500  1.5663 -1.2279
  166SAPS   C2518725   1.770   1.566   7.971  0.7317  0.2122 -0.3510
  166SAPS   H5R18726   1.860   1.559   8.034  0.4004  0.0827  0.1145
  166SAPS   C2618727   1.760   1.666   7.878  0.0768  0.3170  0.2290
  166SAPS   H6R18728   1.827   1.752   7.876  0.0143  0.3728 -2.3724
  166SAPS   C2718729   1.647   1.686   7.780  0.4440 -0.2231 -0.2146
  166SAPS   H7R18730   1.555   1.651   7.832  0.3923 -1.9289 -1.3826
  166SAPS   H7S18731   1.670   1.614   7.699 -0.7101 -2.4818  1.3708
  166SAPS   C2818732   1.641   1.824   7.715  0.0901  0.0491  0.2470
  166SAPS   H8R18733   1.706   1.896   7.766  1.4365 -0.2183 -1.0467
  166SAPS   C2918734   1.572   1.861   7.600  0.1116 -0.6960 -0.0500
  166SAPS   H9R18735   1.580   1.960   7.553  0.7423 -0.3111  0.8391
  166SAPS  C21018736   1.475   1.789   7.517 -0.4114 -0.4039 -0.3191
  166SAPS  H10R18737   1.436   1.860   7.442 -0.1478  0.9177  0.7611
  166SAPS  H10S18738   1.394   1.757   7.587  0.4301  1.3026  1.5417
  166SAPS  C21118739   1.536   1.667   7.464  0.0285 -0.4912 -0.5215
  166SAPS  H11R18740   1.544   1.579   7.530  0.5363  1.3581  2.0675
  166SAPS  C21218741   1.569   1.651   7.331  0.2870 -0.8978 -0.0988
  166SAPS  H12R18742   1.607   1.550   7.308  0.5978 -1.4184  2.3852
  166SAPS  C21318743   1.565   1.754   7.219  1.2096 -0.1186 -0.2424
  166SAPS  H13R18744   1.657   1.752   7.155  1.2621  1.5360 -0.2774
  166SAPS  H13S18745   1.567   1.852   7.271  0.2023 -0.6156  0.7619
  166SAPS  C21418746   1.440   1.724   7.132  0.0716 -0.7549  0.1147
  166SAPS  H14R18747   1.341   1.743   7.177 -1.3523 -0.4649 -2.9124
  166SAPS  C21518748   1.431   1.680   7.006 -0.4392  0.2963 -0.3817
  166SAPS  H15R18749   1.337   1.656   6.955  0.0001  0.6084 -1.3675
  166SAPS  C21618750   1.550   1.634   6.922 -0.6353 -0.7468  0.4560
  166SAPS  H16R18751   1.552   1.524   6.907 -0.4171 -0.4785 -1.9577
  166SAPS  H16S18752   1.639   1.680   6.971 -1.6341  2.9374 -0.8472
  166SAPS  C21718753   1.548   1.690   6.780  0.4022  0.1011  0.1235
  166SAPS  H17R18754   1.635   1.657   6.718 -2.0926 -0.7602 -3.1808
  166SAPS  H17S18755   1.549   1.801   6.785  0.1840  0.2289 -1.8019
  166SAPS  C21818756   1.430   1.659   6.681  0.7209  0.3560 -0.7364
  166SAPS  H18R18757   1.339   1.666   6.744  0.4108 -1.9872 -0.8613
  166SAPS  H18S18758   1.450   1.557   6.642 -2.2399 -0.0437 -1.3835
  166SAPS  C21918759   1.421   1.760   6.569  0.1064  0.1939  0.0464
  166SAPS  H19R18760   1.522   1.763   6.522  0.9048 -1.0545  1.5780
  166SAPS  H19S18761   1.401   1.859   6.616 -1.4102  0.6990 -1.5753
  166SAPS  C22018762   1.317   1.716   6.471  0.5569 -0.2060 -0.0488
  166SAPS  H20R18763   1.337   1.618   6.421 -3.4965 -2.6199  2.4707
  166SAPS  H20S18764   1.307   1.788   6.387  1.0623 -0.4505 -0.3325
  166SAPS  H20T18765   1.219   1.701   6.519  1.2753  0.1060  1.5640
  166SAPS   C3318766   1.281   0.860   7.865 -0.4565  0.2478  0.0651
  166SAPS   H3X18767   1.329   0.957   7.841 -0.2601  0.6719  2.0153
  166SAPS   H3Y18768   1.202   0.879   7.940 -0.0738  1.1471  0.2513
  166SAPS   C3418769   1.231   0.805   7.732 -0.4999 -0.0309  0.0345
  166SAPS   H4X18770   1.187   0.883   7.665  2.0502  0.5009 -1.1429
  166SAPS   H4Y18771   1.154   0.728   7.752 -0.3853 -0.3259 -0.6290
  166SAPS   C3518772   1.340   0.740   7.647  0.0222  0.9118  0.1195
  166SAPS   H5X18773   1.378   0.650   7.700 -0.4684  0.5852 -0.0716
  166SAPS   H5Y18774   1.425   0.810   7.636  0.7367 -0.0824 -0.8963
  166SAPS   C3618775   1.288   0.699   7.513 -0.6926 -0.3583  0.1893
  166SAPS   H6X18776   1.224   0.783   7.480  1.4816  0.9824 -0.8976
  166SAPS   H6Y18777   1.229   0.607   7.533 -1.5310  0.2196  0.4144
  166SAPS   C3718778   1.400   0.669   7.412 -0.7645 -0.0500  0.8997
  166SAPS   H7X18779   1.359   0.622   7.320  0.6597  0.7740 -0.2129
  166SAPS   H7Y18780   1.473   0.595   7.451 -0.7060 -0.9219 -0.7825
  166SAPS   C3818781   1.480   0.785   7.360  0.3770 -0.5486 -0.0607
  166SAPS   H8X18782   1.526   0.835   7.448  0.4500  0.0942 -0.4589
  166SAPS   H8Y18783   1.421   0.859   7.303  1.7232 -0.2954 -1.1814
  166SAPS   C3918784   1.598   0.732   7.267  0.2108  0.6703  0.0794
  166SAPS   H9X18785   1.558   0.652   7.201 -0.0978  0.5951  0.3556
  166SAPS   H9Y18786   1.672   0.684   7.335  0.3080  1.0957  0.2800
  166SAPS  C31018787   1.659   0.846   7.180  0.7735  0.0802  0.0503
  166SAPS  H10X18788   1.718   0.908   7.251  1.0606 -0.6845  0.4880
  166SAPS  H10Y18789   1.572   0.892   7.128  0.9671  1.7568  1.1211
  166SAPS  C31118790   1.763   0.782   7.081 -0.0628 -0.2543 -0.7233
  166SAPS  H11X18791   1.838   0.712   7.124 -1.3438 -1.7191 -0.8315
  166SAPS  H11Y18792   1.817   0.870   7.039  0.1799 -0.1009 -0.0976
  166SAPS  C31218793   1.700   0.701   6.972 -0.1685  1.1342 -0.2771
  166SAPS  H12X18794   1.643   0.613   7.008  0.3046 -0.2423 -2.6856
  166SAPS  H12Y18795   1.771   0.659   6.897 -1.0944  1.0021 -1.0977
  166SAPS  C31318796   1.612   0.802   6.891  0.0572  0.0123 -0.8005
  166SAPS  H13X18797   1.662   0.899   6.874 -1.9914  1.0691 -1.1153
  166SAPS  H13Y18798   1.530   0.845   6.953  1.2718 -1.4349  2.0102
  166SAPS  C31418799   1.544   0.733   6.771 -0.4367 -0.1898 -0.2439
  166SAPS  H14X18800   1.485   0.645   6.804  0.5477 -0.1531  1.7426
  166SAPS  H14Y18801   1.626   0.708   6.701 -0.2260  0.3057 -0.1810
  166SAPS  C31518802   1.462   0.833   6.688  0.1965 -0.4410 -0.5300
  166SAPS  H15X18803   1.525   0.917   6.653 -0.8693  0.3841 -0.5172
  166SAPS  H15Y18804   1.400   0.890   6.760  1.6024  1.4090 -0.7072
  166SAPS  C31618805   1.388   0.775   6.579 -0.6936  0.1932  0.4093
  166SAPS  H16X18806   1.288   0.824   6.573  0.0539  1.7231  0.0596
  166SAPS  H16Y18807   1.358   0.669   6.593 -1.4766  0.2955 -0.3925
  166SAPS  C31718808   1.452   0.808   6.439 -0.8848 -0.5150 -0.9332
  166SAPS  H17X18809   1.559   0.780   6.444 -1.5577 -3.2526  2.9098
  166SAPS  H17Y18810   1.445   0.918   6.422 -2.1026 -0.1364  1.5439
  166SAPS  C31818811   1.379   0.726   6.329 -0.3675  0.1704 -0.0251
  166SAPS  H18X18812   1.270   0.743   6.338 -0.1233  2.1318 -0.2497
  166SAPS  H18Y18813   1.387   0.617   6.350 -3.7057 -0.6078 -2.0405
  166SAPS  H18Z18814   1.430   0.744   6.232 -1.6252 -0.0188 -0.7442
  167SAPS     N18815   3.904   5.340   8.171 -0.4839  0.2773  0.2873
  167SAPS   HN118816   3.837   5.288   8.231  0.7941  0.1816  1.6836
  167SAPS   HN218817   3.864   5.428   8.132 -0.8746 -0.3016 -0.6521
  167SAPS   HN318818   3.920   5.278   8.089 -1.1906  0.8015 -0.2593
  167SAPS   C1218819   4.040   5.344   8.241  0.1094 -0.3866  0.8359
  167SAPS  H12A18820   4.120   5.308   8.179  0.6953  2.5678 -0.2907
  167SAPS   C1318821   4.082   5.488   8.271 -0.4338 -0.0091  0.5241
  167SAPS  O13A18822   3.998   5.581   8.250  0.4230  0.5345  0.2080
  167SAPS  O13B18823   4.192   5.510   8.330  0.3165  0.8033  0.2386
  167SAPS   C1118824   4.037   5.253   8.363  0.4439 -0.2399 -0.1493
  167SAPS  H11A18825   3.958   5.298   8.428  0.1162 -2.0045  0.7396
  167SAPS  H11B18826   4.131   5.249   8.423  0.7895 -0.9679 -0.7222
  167SAPS     P18827   4.091   5.009   8.275  0.3676  0.4518 -0.0172
  167SAPS   O1318828   4.072   5.003   8.124 -0.3716  0.5012 -0.2036
  167SAPS   O1418829   4.222   5.032   8.334 -0.7929 -0.2560 -0.2477
  167SAPS   O1218830   3.991   5.123   8.327 -0.2451 -0.0842  0.1600
  167SAPS   O1118831   4.034   4.880   8.346  0.0076 -0.1065 -0.5540
  167SAPS    C118832   3.890   4.852   8.341  0.3838 -0.9068 -0.1458
  167SAPS    HA18833   3.850   4.822   8.440 -0.2038  0.7855  0.1512
  167SAPS    HB18834   3.832   4.941   8.309 -0.0345 -0.7367  1.0410
  167SAPS    C218835   3.851   4.731   8.240  0.2572 -0.0041 -0.3413
  167SAPS    HS18836   3.900   4.637   8.274 -1.6427 -0.9227  0.0233
  167SAPS   O2118837   3.886   4.764   8.103  0.6409 -0.4131  0.2019
  167SAPS   C2118838   3.986   4.698   8.039 -0.5945  0.3573  0.0771
  167SAPS   O2218839   4.051   4.610   8.098 -0.6973  0.3771 -0.5979
  167SAPS   C2218840   3.997   4.735   7.888 -0.0540  0.4790 -0.4367
  167SAPS   H2R18841   3.980   4.845   7.882  2.1231  0.8461 -0.5642
  167SAPS   H2S18842   4.103   4.723   7.859  0.2521 -0.0758  0.8393
  167SAPS    C318843   3.694   4.710   8.234  0.3469 -0.3620 -0.5631
  167SAPS    HX18844   3.662   4.807   8.190 -1.0255  0.0673  1.2497
  167SAPS    HY18845   3.666   4.694   8.340  3.5106 -0.4780  0.3513
  167SAPS   O3118846   3.650   4.593   8.157  0.1948 -0.2254  0.1713
  167SAPS   C3118847   3.539   4.598   8.089 -0.2322  0.1141  0.6638
  167SAPS   O3218848   3.465   4.699   8.075 -0.7211 -0.7894  0.8149
  167SAPS   C3218849   3.514   4.472   8.004 -0.5684  0.2377  0.3322
  167SAPS   H2X18850   3.404   4.460   8.014 -0.3250 -1.9932  0.8003
  167SAPS   H2Y18851   3.548   4.381   8.058 -0.0266  0.5985  0.6124
  167SAPS   C2318852   3.905   4.650   7.803  0.4146 -0.1258 -0.5438
  167SAPS   H3R18853   3.805   4.700   7.804  1.5138  2.2181  0.9593
  167SAPS   H3S18854   3.885   4.551   7.849  1.0802 -0.4867 -1.0159
  167SAPS   C2418855   3.962   4.622   7.655 -0.2305  0.4232  0.1357
  167SAPS   H4R18856   3.995   4.722   7.621 -0.6927  1.4068  2.4005
  167SAPS   H4S18857   3.879   4.585   7.592  0.4058  0.7537 -0.9225
  167SAPS   C2518858   4.074   4.522   7.659 -0.3623  0.2704  0.0608
  167SAPS   H5R18859   4.112   4.496   7.758  1.3796  2.3061 -0.0080
  167SAPS   C2618860   4.150   4.476   7.552 -0.0369 -0.1655 -0.1493
  167SAPS   H6R18861   4.231   4.407   7.580  2.0630  2.1102 -0.2737
  167SAPS   C2718862   4.150   4.500   7.401 -0.1124  0.0607  0.2856
  167SAPS   H7R18863   4.255   4.502   7.364 -0.1679  0.0582  0.1269
  167SAPS   H7S18864   4.124   4.606   7.379  1.2079  0.4125  0.3334
  167SAPS   C2818865   4.056   4.405   7.329 -0.6414  0.0772  0.6484
  167SAPS   H8R18866   3.970   4.369   7.388 -1.8089  0.6638 -0.6234
  167SAPS   C2918867   4.066   4.362   7.200 -0.9889 -0.2518 -0.2442
  167SAPS   H9R18868   3.981   4.302   7.165 -1.0132 -2.1481  2.7180
  167SAPS  C21018869   4.176   4.391   7.105  0.7007  0.3477  0.1287
  167SAPS  H10R18870   4.248   4.464   7.147  0.6751 -0.2041  1.1484
  167SAPS  H10S18871   4.121   4.433   7.018 -0.4374 -2.6886 -0.7510
  167SAPS  C21118872   4.254   4.277   7.044 -0.3232 -0.0240 -0.8211
  167SAPS  H11R18873   4.322   4.225   7.113 -2.1888 -1.0534  0.3568
  167SAPS  C21218874   4.221   4.224   6.923 -0.5051  0.3362  0.2473
  167SAPS  H12R18875   4.273   4.137   6.879  1.3518  1.0138  1.0132
  167SAPS  C21318876   4.112   4.264   6.832 -0.0530 -0.0071 -0.6811
  167SAPS  H13R18877   4.026   4.304   6.890  2.3448  1.4525  2.1302
  167SAPS  H13S18878   4.080   4.171   6.779  1.2007 -0.7735 -0.1425
  167SAPS  C21418879   4.144   4.376   6.732  0.2164 -0.0045 -0.2335
  167SAPS  H14R18880   4.099   4.473   6.754  0.5826  0.2070 -0.3980
  167SAPS  C21518881   4.212   4.365   6.615 -0.5838  0.3684  0.1557
  167SAPS  H15R18882   4.219   4.460   6.561  0.8423 -0.0436 -0.4470
  167SAPS  C21618883   4.271   4.237   6.559 -0.3148  0.5801 -0.3079
  167SAPS  H16R18884   4.262   4.145   6.621  1.8660 -0.1988 -1.0504
  167SAPS  H16S18885   4.379   4.255   6.538  0.4074  1.0943  3.1782
  167SAPS  C21718886   4.188   4.210   6.425  0.6800 -0.0873 -0.1502
  167SAPS  H17R18887   4.212   4.292   6.353  1.4471 -0.5070 -0.3900
  167SAPS  H17S18888   4.083   4.219   6.460  1.2865 -0.0010  1.7706
  167SAPS  C21818889   4.200   4.074   6.345 -0.0297  0.1435  0.4359
  167SAPS  H18R18890   4.168   4.102   6.242 -2.6913 -2.3327  0.4588
  167SAPS  H18S18891   4.130   4.000   6.389 -0.0357  0.4991  1.0299
  167SAPS  C21918892   4.344   4.017   6.342 -0.0154 -0.0536 -0.3190
  167SAPS  H19R18893   4.341   3.919   6.290  0.2037 -0.0403 -0.3575
  167SAPS  H19S18894   4.373   4.003   6.448  0.7089  1.5913 -0.2725
  167SAPS  C22018895   4.453   4.102   6.280 -0.0874  0.6160  0.1972
  167SAPS  H20R18896   4.431   4.107   6.171 -0.5971  0.4643  0.2872
  167SAPS  H20S18897   4.556   4.061   6.288  0.1231  1.1928  0.4454
  167SAPS  H20T18898   4.442   4.200   6.330 -0.9452  1.4235 -1.4871
  167SAPS   C3318899   3.555   4.476   7.862 -0.4130 -0.4697  0.6740
  167SAPS   H3X18900   3.666   4.478   7.862 -0.3823 -0.0690  2.7801
  167SAPS   H3Y18901   3.537   4.571   7.809 -0.5645 -1.0821 -0.3911
  167SAPS   C3418902   3.504   4.347   7.793  0.1372  0.2894  0.3950
  167SAPS   H4X18903   3.394   4.336   7.791  0.2403 -0.9122 -0.9096
  167SAPS   H4Y18904   3.541   4.254   7.842  1.9535  0.4939 -0.4604
  167SAPS   C3518905   3.559   4.334   7.648 -0.4794 -0.0888  0.1061
  167SAPS   H5X18906   3.505   4.260   7.586 -1.9896  0.2253  1.0004
  167SAPS   H5Y18907   3.664   4.302   7.662 -0.2683  1.1673  1.6776
  167SAPS   C3618908   3.573   4.464   7.561  0.3044  0.1516  0.2994
  167SAPS   H6X18909   3.628   4.542   7.618  0.7349  0.5234 -0.6095
  167SAPS   H6Y18910   3.470   4.503   7.545  1.0609  1.4670 -1.7076
  167SAPS   C3718911   3.643   4.443   7.428  0.4648 -0.6540  0.2221
  167SAPS   H7X18912   3.584   4.374   7.364  3.7713 -3.5745  0.0585
  167SAPS   H7Y18913   3.744   4.399   7.438  0.3298 -0.9602  0.2390
  167SAPS   C3818914   3.651   4.582   7.365  0.0813 -0.0020 -0.1442
  167SAPS   H8X18915   3.700   4.660   7.427  0.6137 -0.9368  0.6398
  167SAPS   H8Y18916   3.548   4.618   7.351  0.0519  0.4000  1.0539
  167SAPS   C3918917   3.735   4.573   7.234 -0.4259  0.4382  0.0436
  167SAPS   H9X18918   3.840   4.550   7.259 -1.0488 -0.0539  2.5146
  167SAPS   H9Y18919   3.730   4.673   7.186 -1.5742 -0.7464 -2.4796
  167SAPS  C31018920   3.681   4.473   7.130  0.6945 -0.0395 -0.9695
  167SAPS  H10X18921   3.571   4.489   7.131  0.8991  1.9616 -2.6542
  167SAPS  H10Y18922   3.701   4.370   7.165 -2.9802 -0.0927  1.5873
  167SAPS  C31118923   3.727   4.500   6.989  0.1779 -0.7906 -0.1025
  167SAPS  H11X18924   3.837   4.503   7.000  0.1147  2.0825  0.5791
  167SAPS  H11Y18925   3.689   4.597   6.951 -2.6846 -1.1736  1.4256
  167SAPS  C31218926   3.691   4.392   6.882  0.2782 -0.3988 -0.7178
  167SAPS  H12X18927   3.580   4.391   6.873  0.0544 -1.1336  1.4890
  167SAPS  H12Y18928   3.719   4.298   6.934 -2.5164 -0.7475  0.3404
  167SAPS  C31318929   3.763   4.409   6.745  0.0247 -0.4126  0.8148
  167SAPS  H13X18930   3.873   4.415   6.758  0.5623  0.1433 -2.9400
  167SAPS  H13Y18931   3.724   4.506   6.710  2.2805  1.3832  2.9095
  167SAPS  C31418932   3.727   4.293   6.648 -0.6887  0.6714 -0.9413
  167SAPS  H14X18933   3.618   4.276   6.662 -1.1012  1.2600 -3.0817
  167SAPS  H14Y18934   3.784   4.202   6.677 -3.3161 -0.6297  0.5378
  167SAPS  C31518935   3.739   4.329   6.499  0.1884 -0.1378  0.6996
  167SAPS  H15X18936   3.848   4.350   6.491 -0.1057  1.2158 -0.0841
  167SAPS  H15Y18937   3.676   4.420   6.492  0.0302 -0.2788  0.2785
  167SAPS  C31618938   3.690   4.204   6.411  0.0255 -0.0272 -0.3170
  167SAPS  H16X18939   3.583   4.188   6.434 -0.3979 -1.2650 -2.7504
  167SAPS  H16Y18940   3.742   4.110   6.440  0.0305 -0.0791 -0.4918
  167SAPS  C31718941   3.717   4.206   6.258 -0.2130 -0.2666 -0.4651
  167SAPS  H17X18942   3.656   4.293   6.225 -0.7477 -0.2097  0.6468
  167SAPS  H17Y18943   3.682   4.113   6.208 -0.0384  0.1944 -1.4893
  167SAPS  C31818944   3.859   4.235   6.215 -0.1806 -0.1450  0.8933
  167SAPS  H18X18945   3.923   4.152   6.251 -0.5968 -1.0651 -0.3996
  167SAPS  H18Y18946   3.910   4.328   6.248  1.3882  0.2896 -2.2984
  167SAPS  H18Z18947   3.861   4.238   6.104 -0.3718  0.1830  0.8981
  168SAPS     N18948   0.542   5.743   8.327 -0.4491 -0.1944  0.1353
  168SAPS   HN118949   0.539   5.655   8.382  0.3228 -1.7337 -2.1211
  168SAPS   HN218950   0.446   5.774   8.299 -0.8996  0.3459  2.0764
  168SAPS   HN318951   0.588   5.730   8.235 -0.5740  1.7371 -0.2403
  168SAPS   C1218952   0.608   5.853   8.394  0.0258 -0.1711 -0.0217
  168SAPS  H12A18953   0.542   5.880   8.476 -0.9809 -0.3399 -0.7541
  168SAPS   C1318954   0.758   5.825   8.443 -0.6409  0.0521 -0.4151
  168SAPS  O13A18955   0.809   5.712   8.429 -0.4661  0.4819  0.6678
  168SAPS  O13B18956   0.818   5.914   8.504  0.5136 -0.2476  0.1053
  168SAPS   C1118957   0.617   5.979   8.298  0.2893 -0.0903  0.1983
  168SAPS  H11A18958   0.689   5.953   8.217  0.8185 -0.4226  0.7617
  168SAPS  H11B18959   0.658   6.058   8.365 -0.5393 -0.6507  1.4052
  168SAPS     P18960   0.437   6.156   8.220  0.2667  0.2184  0.2308
  168SAPS   O1318961   0.341   6.148   8.106 -0.8643  0.2397 -0.0724
  168SAPS   O1418962   0.394   6.212   8.350  0.3298  0.5900 -0.1239
  168SAPS   O1218963   0.485   6.010   8.248 -0.3928  1.1008  0.4750
  168SAPS   O1118964   0.575   6.229   8.170  0.3527 -0.0666  0.7374
  168SAPS    C118965   0.638   6.176   8.048  0.3579  0.3830 -0.2212
  168SAPS    HA18966   0.637   6.065   8.050  4.3630  0.2024  0.4691
  168SAPS    HB18967   0.582   6.201   7.955 -1.2331  0.0820  0.6187
  168SAPS    C218968   0.783   6.224   8.044 -0.6049  0.4468  0.6309
  168SAPS    HS18969   0.808   6.261   8.146  0.1005  3.8954 -0.6576
  168SAPS   O2118970   0.800   6.343   7.970 -0.4368  0.0159  0.7917
  168SAPS   C2118971   0.772   6.463   8.028 -0.1472  0.0700 -0.1986
  168SAPS   O2218972   0.743   6.484   8.145  0.0876  0.5595  0.3083
  168SAPS   C2218973   0.798   6.575   7.931 -0.1686 -0.2099  0.4569
  168SAPS   H2R18974   0.736   6.660   7.966  0.5508 -0.4754  2.5323
  168SAPS   H2S18975   0.905   6.605   7.936 -0.7419  1.9439  0.9702
  168SAPS    C318976   0.879   6.112   7.998 -0.4022 -0.3956 -0.0168
  168SAPS    HX18977   0.856   6.020   8.057  0.1699 -2.1732 -2.3883
  168SAPS    HY18978   0.982   6.148   8.016  0.1075 -0.4989 -2.3325
  168SAPS   O3118979   0.861   6.082   7.863  0.3423 -0.0207 -0.0719
  168SAPS   C3118980   0.836   5.952   7.827  0.0421  0.3896  0.6595
  168SAPS   O3218981   0.806   5.862   7.905  0.2182 -0.5905  0.3003
  168SAPS   C3218982   0.829   5.928   7.675 -0.0539 -1.2245 -0.4039
  168SAPS   H2X18983   0.737   5.984   7.646  0.8808  0.4532 -0.2934
  168SAPS   H2Y18984   0.829   5.820   7.648  0.7317 -2.0524  2.5118
  168SAPS   C2318985   0.734   6.540   7.794 -0.8121 -0.3282 -0.0781
  168SAPS   H3R18986   0.710   6.643   7.758  2.2943  0.7880  0.7757
  168SAPS   H3S18987   0.640   6.481   7.808 -0.9104 -1.3818 -3.8397
  168SAPS   C2418988   0.835   6.470   7.701  0.1366 -0.4671 -0.0224
  168SAPS   H4R18989   0.868   6.378   7.755 -0.6740 -0.6556  0.1711
  168SAPS   H4S18990   0.924   6.535   7.688 -0.1006  0.1454  1.2909
  168SAPS   C2518991   0.766   6.425   7.566 -0.3990  0.0302 -0.8965
  168SAPS   H5R18992   0.676   6.362   7.574 -0.5714  0.2827 -0.8207
  168SAPS   C2618993   0.820   6.446   7.443 -0.0687 -0.3358  0.8775
  168SAPS   H6R18994   0.772   6.411   7.351  1.9521  1.0118 -0.7795
  168SAPS   C2718995   0.941   6.525   7.416 -0.6747  0.3736 -0.1894
  168SAPS   H7R18996   1.035   6.467   7.421 -1.5966 -1.1001  1.4464
  168SAPS   H7S18997   0.951   6.608   7.489 -2.0248  0.1270  0.3056
  168SAPS   C2818998   0.938   6.602   7.286 -0.3677  0.0148  0.1132
  168SAPS   H8R18999   0.920   6.710   7.287  0.5323  0.1758  0.0598
  168SAPS   C2919000   0.959   6.550   7.164  0.3551 -0.3922  0.0375
  168SAPS   H9R19001   0.970   6.613   7.075 -1.0933 -0.5553 -0.2891
  168SAPS  C21019002   0.997   6.408   7.142 -0.3433 -0.4944  0.0352
  168SAPS  H10R19003   1.021   6.341   7.228  1.7285  0.2423  0.0790
  168SAPS  H10S19004   1.093   6.409   7.087 -0.1202  2.7622  0.2838
  168SAPS  C21119005   0.883   6.346   7.070  0.1763 -0.0931  0.3267
  168SAPS  H11R19006   0.807   6.294   7.131 -0.2616  1.2669  0.9721
  168SAPS  C21219007   0.857   6.358   6.939  0.3548 -0.0310  0.2468
  168SAPS  H12R19008   0.763   6.317   6.897 -0.5066 -0.3711  2.3561
  168SAPS  C21319009   0.934   6.428   6.831  0.8636  0.0961 -0.4866
  168SAPS  H13R19010   0.993   6.513   6.872 -0.4305  0.7833  0.0301
  168SAPS  H13S19011   0.876   6.486   6.756  0.6036 -1.3028 -1.3949
  168SAPS  C21419012   1.013   6.320   6.763  1.0161  0.0642  0.4355
  168SAPS  H14R19013   1.116   6.309   6.802  1.8961 -0.4616 -1.8635
  168SAPS  C21519014   0.972   6.246   6.655 -0.2387 -0.3776 -0.4204
  168SAPS  H15R19015   1.037   6.164   6.619 -1.7039 -1.7650 -0.0548
  168SAPS  C21619016   0.846   6.265   6.572 -0.2779  0.0661  0.4351
  168SAPS  H16R19017   0.775   6.312   6.642  0.7196 -0.4325  1.8428
  168SAPS  H16S19018   0.800   6.173   6.528  1.8563 -0.8986  0.0707
  168SAPS  C21719019   0.871   6.363   6.460 -0.5375  0.2115 -0.2637
  168SAPS  H17R19020   0.920   6.455   6.499  2.2266 -1.2439 -0.1141
  168SAPS  H17S19021   0.777   6.392   6.407 -0.1490  0.7022 -0.6970
  168SAPS  C21819022   0.958   6.317   6.346 -0.4345  0.6367  0.1706
  168SAPS  H18R19023   1.061   6.296   6.383  0.1064  0.9698 -1.0723
  168SAPS  H18S19024   0.954   6.402   6.273  1.7272  0.8576  0.2345
  168SAPS  C21919025   0.903   6.186   6.272  0.3423 -0.1927 -0.6390
  168SAPS  H19R19026   0.917   6.103   6.345  0.9044  1.7569  1.5682
  168SAPS  H19S19027   0.966   6.156   6.185 -0.3596  0.6467 -1.4598
  168SAPS  C22019028   0.753   6.181   6.234  0.2728  0.5648  0.5053
  168SAPS  H20R19029   0.733   6.088   6.176 -0.4940  0.1635  1.3973
  168SAPS  H20S19030   0.741   6.268   6.166  1.1196 -0.2780 -0.7647
  168SAPS  H20T19031   0.697   6.199   6.328 -0.6270  2.0009 -0.2751
  168SAPS   C3319032   0.942   6.009   7.597  0.3158 -0.6449 -0.2321
  168SAPS   H3X19033   1.044   5.968   7.613 -0.2507 -1.7232  0.7795
  168SAPS   H3Y19034   0.938   6.108   7.647 -0.9730  0.3148 -2.1099
  168SAPS   C3419035   0.917   6.034   7.449 -0.4105 -0.5444 -0.2395
  168SAPS   H4X19036   1.007   6.085   7.410  1.3629 -3.3712 -0.1665
  168SAPS   H4Y19037   0.837   6.109   7.430  0.9279  0.5258 -1.8410
  168SAPS   C3519038   0.875   5.908   7.374  0.2916 -0.1276 -0.1681
  168SAPS   H5X19039   0.799   5.843   7.422 -1.6208  1.5069 -0.8397
  168SAPS   H5Y19040   0.969   5.849   7.382  0.2921  0.0741  1.7949
  168SAPS   C3619041   0.857   5.934   7.222 -0.1163 -0.6255 -0.0841
  168SAPS   H6X19042   0.944   5.997   7.192 -0.9666  0.8691  0.4768
  168SAPS   H6Y19043   0.766   5.995   7.208 -0.6305 -1.1432  0.9350
  168SAPS   C3719044   0.854   5.806   7.141  0.0914  0.0396  0.5167
  168SAPS   H7X19045   0.760   5.753   7.168  0.6693  0.1179  2.9485
  168SAPS   H7Y19046   0.930   5.731   7.170 -1.0076 -1.4915 -0.4194
  168SAPS   C3819047   0.855   5.829   6.989  0.7063  0.2877 -0.3020
  168SAPS   H8X19048   0.842   5.733   6.935  3.7807  0.6549 -1.9183
  168SAPS   H8Y19049   0.945   5.883   6.951  0.0371  0.1751 -2.1526
  168SAPS   C3919050   0.734   5.912   6.948 -0.2982 -0.2825  0.6028
  168SAPS   H9X19051   0.733   6.003   7.011  2.3397  0.2814 -0.0179
  168SAPS   H9Y19052   0.636   5.860   6.943 -0.6156  0.2673  1.0444
  168SAPS  C31019053   0.725   5.971   6.801  0.1529 -0.0717  0.2220
  168SAPS  H10X19054   0.789   6.057   6.773  0.8042 -0.5054  0.3536
  168SAPS  H10Y19055   0.622   6.010   6.789 -0.4492 -1.1687  1.5018
  168SAPS  C31119056   0.755   5.861   6.700 -0.3986  0.2531 -0.2878
  168SAPS  H11X19057   0.687   5.887   6.616  0.0231  0.9414 -0.4251
  168SAPS  H11Y19058   0.728   5.758   6.733 -1.2789  0.7159  0.4583
  168SAPS  C31219059   0.891   5.869   6.645  0.3558 -0.3504 -0.3595
  168SAPS  H12X19060   0.962   5.858   6.730  0.5009 -0.3050 -0.4731
  168SAPS  H12Y19061   0.924   5.967   6.604 -1.3611  0.8419  0.9162
  168SAPS  C31319062   0.931   5.762   6.540  0.8920  0.1715  0.2033
  168SAPS  H13X19063   0.932   5.657   6.576  0.2978  0.7615  2.0087
  168SAPS  H13Y19064   1.036   5.785   6.514  1.0432  0.0494  0.7108
  168SAPS  C31419065   0.847   5.770   6.407  1.0640 -0.1502  0.0232
  168SAPS  H14X19066   0.863   5.867   6.356  0.8389 -0.1578 -0.0642
  168SAPS  H14Y19067   0.739   5.763   6.434  0.2344 -0.6521 -3.0210
  168SAPS  C31519068   0.862   5.662   6.294 -0.1496  1.0240 -0.2491
  168SAPS  H15X19069   0.817   5.701   6.201 -1.6203 -0.1191 -0.0713
  168SAPS  H15Y19070   0.795   5.575   6.317  2.1104 -1.3231 -1.9672
  168SAPS  C31619071   1.008   5.609   6.264 -0.1068  0.7941  0.0979
  168SAPS  H16X19072   0.998   5.537   6.180  2.9164  2.2503 -1.6890
  168SAPS  H16Y19073   1.058   5.557   6.349  0.7045  0.5670 -0.5116
  168SAPS  C31719074   1.091   5.715   6.201  0.1713 -0.0034 -0.2079
  168SAPS  H17X19075   1.114   5.791   6.279  0.8387 -0.8608  0.4545
  168SAPS  H17Y19076   1.034   5.770   6.124 -0.7423 -0.3158  0.2321
  168SAPS  C31819077   1.227   5.662   6.154 -0.3889 -0.0411 -0.0033
  168SAPS  H18X19078   1.292   5.748   6.125  0.1315 -0.6983 -0.8206
  168SAPS  H18Y19079   1.217   5.594   6.067  3.0713 -0.6059 -0.0981
  168SAPS  H18Z19080   1.287   5.605   6.228 -0.4169 -1.8932 -1.3328
  169SAPS     N19081   2.555   0.918   8.598  0.2629  0.6768  0.0706
  169SAPS   HN119082   2.621   0.999   8.591  0.8168  0.3764  1.4992
  169SAPS   HN219083   2.535   0.866   8.511 -2.1524  0.3163  0.7621
  169SAPS   HN319084   2.463   0.952   8.632  0.6174 -0.1611  1.9920
  169SAPS   C1219085   2.609   0.825   8.695  0.5335 -0.2194 -0.4760
  169SAPS  H12A19086   2.610   0.882   8.786  0.7423  0.2027 -0.7412
  169SAPS   C1319087   2.527   0.696   8.705 -0.5884  0.3251  0.8890
  169SAPS  O13A19088   2.423   0.681   8.642  0.6287 -0.1727  0.1224
  169SAPS  O13B19089   2.562   0.608   8.788  0.1066  0.4749 -0.1144
  169SAPS   C1119090   2.759   0.800   8.665  1.0270  0.3567  0.4654
  169SAPS  H11A19091   2.753   0.751   8.565 -2.6157 -1.8489  1.5629
  169SAPS  H11B19092   2.810   0.740   8.743  0.5992 -0.9867 -0.2563
  169SAPS     P19093   2.984   0.929   8.602 -0.3842 -0.0135  0.3369
  169SAPS   O1319094   3.046   1.061   8.631  0.7042 -0.3521  0.4992
  169SAPS   O1419095   3.064   0.814   8.655  0.0386 -0.2047 -0.5920
  169SAPS   O1219096   2.836   0.922   8.657 -0.4526 -0.5606 -0.5606
  169SAPS   O1119097   2.972   0.911   8.445  0.3672  0.4369 -0.5535
  169SAPS    C119098   2.890   0.988   8.361 -0.0319 -0.4873 -0.7611
  169SAPS    HA19099   2.786   0.956   8.386 -0.0869  1.5082  2.0781
  169SAPS    HB19100   2.894   1.097   8.383 -2.1220 -1.1893  4.7362
  169SAPS    C219101   2.924   0.962   8.210 -0.4315  0.3854 -0.1567
  169SAPS    HS19102   2.915   0.852   8.195  0.8618  0.4910 -2.0718
  169SAPS   O2119103   3.051   1.008   8.175 -0.1463  0.2241 -0.0671
  169SAPS   C2119104   3.118   0.943   8.084  0.2977 -0.3688  0.4971
  169SAPS   O2219105   3.083   0.833   8.045 -0.0597  0.4694  0.2221
  169SAPS   C2219106   3.239   1.029   8.046 -0.7939  0.4379  0.3894
  169SAPS   H2R19107   3.204   1.118   7.989  1.2381  0.1736 -1.3976
  169SAPS   H2S19108   3.279   1.058   8.146  0.3696 -2.6840  0.9287
  169SAPS    C319109   2.823   1.030   8.115 -0.5108 -0.0927 -0.0090
  169SAPS    HX19110   2.819   1.136   8.148 -2.4332  0.1271 -0.8165
  169SAPS    HY19111   2.724   0.982   8.132  0.1985 -2.0356 -1.0518
  169SAPS   O3119112   2.866   1.022   7.980 -0.0663 -0.0500  0.6437
  169SAPS   C3119113   2.798   0.942   7.896 -0.2700  0.4683  0.8239
  169SAPS   O3219114   2.693   0.891   7.922  0.2551  1.2045  0.0383
  169SAPS   C3219115   2.865   0.930   7.756 -0.8400 -0.1846 -1.0061
  169SAPS   H2X19116   2.976   0.932   7.763 -0.8347  1.0643 -1.1237
  169SAPS   H2Y19117   2.828   1.014   7.693 -2.7993 -0.9008 -0.8770
  169SAPS   C2319118   3.348   0.958   7.957  0.5652 -0.1797 -0.2025
  169SAPS   H3R19119   3.374   0.856   7.994 -0.3313 -0.1630  0.5000
  169SAPS   H3S19120   3.444   1.015   7.959  1.0027 -0.9135  0.2719
  169SAPS   C2419121   3.308   0.949   7.808  0.2623 -1.2183 -0.1111
  169SAPS   H4R19122   3.206   0.905   7.808 -0.0782 -0.5274  1.8337
  169SAPS   H4S19123   3.361   0.870   7.751 -0.5594 -0.7679 -1.5620
  169SAPS   C2519124   3.316   1.080   7.743  0.3072  0.5460 -0.0885
  169SAPS   H5R19125   3.273   1.163   7.801  1.6297  0.7425  0.6734
  169SAPS   C2619126   3.382   1.111   7.630 -0.0190  0.3388  0.4726
  169SAPS   H6R19127   3.378   1.208   7.579 -0.7476 -0.3424 -0.8325
  169SAPS   C2719128   3.466   0.997   7.555  0.4024 -0.5910  0.3666
  169SAPS   H7R19129   3.391   0.933   7.504 -0.7513  0.0089  1.2779
  169SAPS   H7S19130   3.525   0.938   7.629 -0.0328 -0.9816  0.4048
  169SAPS   C2819131   3.559   1.054   7.449  0.0922 -0.1354 -0.3922
  169SAPS   H8R19132   3.593   1.154   7.480 -1.8405  0.7294 -0.9136
  169SAPS   C2919133   3.619   0.999   7.344 -0.3881  0.6868 -0.2398
  169SAPS   H9R19134   3.702   1.053   7.298  0.4984  0.1812  0.7172
  169SAPS  C21019135   3.580   0.861   7.283  0.5018 -0.6032  0.4536
  169SAPS  H10R19136   3.549   0.869   7.177 -0.4441  2.8696  0.8822
  169SAPS  H10S19137   3.487   0.819   7.326 -1.8674  3.0711 -0.6332
  169SAPS  C21119138   3.682   0.758   7.291  0.0199  0.2441 -0.4013
  169SAPS  H11R19139   3.694   0.703   7.385 -0.5405  0.4451 -0.2082
  169SAPS  C21219140   3.759   0.703   7.182  0.5080 -0.9781 -0.2816
  169SAPS  H12R19141   3.826   0.619   7.206  0.9728 -0.5800 -0.1635
  169SAPS  C21319142   3.759   0.742   7.036  0.2341  0.5343  0.1139
  169SAPS  H13R19143   3.700   0.666   6.979  1.1370 -0.7856  0.8813
  169SAPS  H13S19144   3.864   0.721   7.007 -0.0088 -2.3565  0.9755
  169SAPS  C21419145   3.754   0.881   6.998 -0.5345 -0.2411  0.0831
  169SAPS  H14R19146   3.750   0.954   7.080 -1.2535 -1.0087  0.7412
  169SAPS  C21519147   3.758   0.914   6.867 -0.6311 -0.3903  0.9168
  169SAPS  H15R19148   3.768   1.019   6.836  1.0543 -1.0498 -1.0073
  169SAPS  C21619149   3.755   0.816   6.754  0.0830  0.5432  0.2711
  169SAPS  H16R19150   3.651   0.778   6.743  0.3502  0.0982 -0.9386
  169SAPS  H16S19151   3.828   0.733   6.763 -2.1575 -1.4288  1.1622
  169SAPS  C21719152   3.778   0.863   6.610  0.1970  0.0784 -0.7473
  169SAPS  H17R19153   3.684   0.912   6.576 -0.7488 -0.8296  0.4820
  169SAPS  H17S19154   3.804   0.775   6.548 -1.8446 -1.2383  0.1718
  169SAPS  C21819155   3.888   0.964   6.599  0.4071  1.1067  0.6863
  169SAPS  H18R19156   3.986   0.916   6.621 -0.6733 -2.0942 -0.8166
  169SAPS  H18S19157   3.878   1.043   6.677 -0.8452  0.4786  1.1941
  169SAPS  C21919158   3.894   1.038   6.467 -0.2405 -0.1551 -0.2398
  169SAPS  H19R19159   3.800   1.093   6.444 -0.6071 -0.3991  0.6301
  169SAPS  H19S19160   3.917   0.961   6.390  0.4027 -1.0115  0.7637
  169SAPS  C22019161   4.010   1.138   6.468 -0.1385  0.5105 -0.5910
  169SAPS  H20R19162   4.105   1.096   6.507  0.0074  3.3750  2.6480
  169SAPS  H20S19163   3.987   1.220   6.539  2.4160 -0.0763  1.0476
  169SAPS  H20T19164   4.039   1.181   6.370 -1.4624 -1.8916 -2.1451
  169SAPS   C3319165   2.827   0.795   7.689 -0.0637  0.2566  0.3793
  169SAPS   H3X19166   2.716   0.793   7.683 -0.2954  5.2067 -3.6506
  169SAPS   H3Y19167   2.859   0.709   7.752 -1.4753 -2.0099 -1.8137
  169SAPS   C3419168   2.891   0.781   7.547  0.1937  0.0876  0.3722
  169SAPS   H4X19169   2.997   0.767   7.576 -0.7886 -2.9627  3.0260
  169SAPS   H4Y19170   2.885   0.876   7.489  0.1938  0.3795  0.8473
  169SAPS   C3519171   2.834   0.669   7.465 -0.1042 -0.0415  0.2337
  169SAPS   H5X19172   2.730   0.692   7.433  0.5870  2.7185 -0.2599
  169SAPS   H5Y19173   2.836   0.575   7.524  0.5522 -0.5924 -0.6407
  169SAPS   C3619174   2.909   0.626   7.337 -0.5535 -0.1125  0.4721
  169SAPS   H6X19175   2.898   0.518   7.313  1.2982 -0.2472  0.0631
  169SAPS   H6Y19176   3.016   0.644   7.359 -0.2611  0.1747 -1.0423
  169SAPS   C3719177   2.859   0.701   7.211 -0.1154 -0.5735  0.0119
  169SAPS   H7X19178   2.861   0.805   7.250  4.2362 -1.0314  1.5568
  169SAPS   H7Y19179   2.751   0.678   7.199  0.0859 -1.6447  0.2267
  169SAPS   C3819180   2.937   0.674   7.090 -0.3475  0.0656 -0.1301
  169SAPS   H8X19181   2.943   0.566   7.064 -0.1058  0.1378 -0.3805
  169SAPS   H8Y19182   3.040   0.715   7.095  0.3462 -1.1305 -2.6770
  169SAPS   C3919183   2.875   0.752   6.971 -0.6428 -0.2088  0.5680
  169SAPS   H9X19184   2.932   0.725   6.879  0.3831  0.3623  1.0338
  169SAPS   H9Y19185   2.891   0.861   6.974 -0.4600 -0.1812 -0.7975
  169SAPS  C31019186   2.731   0.720   6.944 -0.5314  0.0900 -0.3432
  169SAPS  H10X19187   2.668   0.779   7.014 -1.4467  0.4243 -1.4236
  169SAPS  H10Y19188   2.712   0.614   6.969 -0.1914  0.4627  1.6759
  169SAPS  C31119189   2.691   0.764   6.803  0.3067 -1.6432  0.2401
  169SAPS  H11X19190   2.596   0.714   6.777  0.3081 -1.4454 -0.1429
  169SAPS  H11Y19191   2.773   0.740   6.732  0.0479  1.5550 -1.2858
  169SAPS  C31219192   2.661   0.918   6.793  0.0498 -0.3873  0.0599
  169SAPS  H12X19193   2.753   0.975   6.820 -1.1493  1.4908  0.3462
  169SAPS  H12Y19194   2.585   0.938   6.872 -0.0433 -0.7493  0.0614
  169SAPS  C31319195   2.619   0.960   6.651 -0.1278 -0.3197 -0.6232
  169SAPS  H13X19196   2.686   0.906   6.581  0.8169 -0.6392  0.4940
  169SAPS  H13Y19197   2.638   1.069   6.654 -0.4277 -0.2779 -0.2656
  169SAPS  C31419198   2.473   0.928   6.618 -0.2211 -0.1260  0.8924
  169SAPS  H14X19199   2.394   0.954   6.692 -2.9601 -1.5438 -1.3282
  169SAPS  H14Y19200   2.468   0.818   6.604  2.6743 -0.1405 -0.8122
  169SAPS  C31519201   2.451   1.001   6.485 -0.7638 -0.7672 -0.4656
  169SAPS  H15X19202   2.546   1.031   6.436 -1.0780  0.7626 -0.1871
  169SAPS  H15Y19203   2.406   1.102   6.492  0.5859 -0.1193 -0.7871
  169SAPS  C31619204   2.380   0.913   6.381  0.7387 -0.5385  0.3204
  169SAPS  H16X19205   2.293   0.866   6.431 -0.3422 -0.3439 -1.3179
  169SAPS  H16Y19206   2.454   0.830   6.376 -0.8214 -1.9134 -1.1814
  169SAPS  C31719207   2.341   0.965   6.244 -0.2865 -0.7632  0.6403
  169SAPS  H17X19208   2.365   0.879   6.179 -1.7008  0.0647 -1.0556
  169SAPS  H17Y19209   2.411   1.049   6.223 -0.4019 -0.5400  1.1095
  169SAPS  C31819210   2.190   1.001   6.234 -0.2081 -0.3615 -0.2246
  169SAPS  H18X19211   2.141   0.912   6.190 -0.9670 -0.4040  0.6838
  169SAPS  H18Y19212   2.152   1.089   6.177 -0.4077 -0.2209  0.1216
  169SAPS  H18Z19213   2.142   1.005   6.334  1.6111 -1.1573  0.7401
  170SAPS     N19214   5.681   5.498   8.266  0.1805 -0.2975 -0.6643
  170SAPS   HN119215   5.749   5.420   8.276 -0.7316 -0.8920  1.5570
  170SAPS   HN219216   5.580   5.473   8.264  0.1575 -0.1979 -0.7499
  170SAPS   HN319217   5.705   5.549   8.179  1.8929  0.1883  0.0540
  170SAPS   C1219218   5.690   5.592   8.385 -0.0207 -0.0931 -0.4819
  170SAPS  H12A19219   5.633   5.682   8.369 -2.1942 -1.5881 -1.5885
  170SAPS   C1319220   5.642   5.538   8.517  0.0217 -0.6637 -0.2721
  170SAPS  O13A19221   5.560   5.438   8.512  0.5424  0.5003 -0.2113
  170SAPS  O13B19222   5.652   5.602   8.627 -0.4380 -0.1213  0.2711
  170SAPS   C1119223   5.834   5.652   8.399 -0.4071  0.0722 -0.3654
  170SAPS  H11A19224   5.894   5.571   8.445 -2.7136 -0.4889  1.9356
  170SAPS  H11B19225   5.824   5.733   8.475  1.3300 -0.7097  0.7484
  170SAPS     P19226   6.000   5.803   8.248  0.4136  0.2080 -0.5079
  170SAPS   O1319227   5.974   5.905   8.140  0.3887  0.0928  0.3839
  170SAPS   O1419228   6.063   5.850   8.377  0.9086  0.4848  0.2717
  170SAPS   O1219229   5.873   5.712   8.271 -0.0027  0.2869  0.1162
  170SAPS   O1119230   6.101   5.704   8.182  0.1180  0.0430  0.3162
  170SAPS    C119231   6.071   5.625   8.069 -0.7898  0.6554 -0.3520
  170SAPS    HA19232   6.072   5.518   8.098  0.4644  1.1118  1.5051
  170SAPS    HB19233   5.965   5.633   8.038 -0.8462 -2.8047 -1.4096
  170SAPS    C219234   6.177   5.655   7.955 -0.2443  0.4460  0.1838
  170SAPS    HS19235   6.188   5.764   7.940 -1.0536  0.2950 -1.8316
  170SAPS   O2119236   6.126   5.584   7.837  0.5588 -0.2562  0.5811
  170SAPS   C2119237   6.062   5.669   7.753  0.1500 -0.2957 -0.7068
  170SAPS   O2219238   6.062   5.791   7.766  0.0231 -0.3788  0.2078
  170SAPS   C2219239   5.997   5.588   7.645  0.1225 -0.3820 -0.1622
  170SAPS   H2R19240   5.905   5.543   7.688 -0.1227 -0.1141 -0.4117
  170SAPS   H2S19241   5.965   5.662   7.569  0.2519  1.1794  1.2480
  170SAPS    C319242   6.312   5.590   7.981  0.4525 -0.4685  0.0194
  170SAPS    HX19243   6.287   5.485   8.008 -1.4487  0.6069  3.0483
  170SAPS    HY19244   6.338   5.625   8.083 -3.3909 -0.0967  1.0414
  170SAPS   O3119245   6.407   5.589   7.874  0.0394 -0.5220 -0.3418
  170SAPS   C3119246   6.474   5.694   7.837 -0.0335  0.3697 -0.2449
  170SAPS   O3219247   6.473   5.803   7.894  0.0456 -0.4059  0.2300
  170SAPS   C3219248   6.551   5.658   7.706 -0.4229 -0.3876  0.3340
  170SAPS   H2X19249   6.479   5.674   7.622 -0.9654  0.6720  0.9889
  170SAPS   H2Y19250   6.585   5.553   7.721  0.3026 -0.1397  0.4599
  170SAPS   C2319251   6.067   5.463   7.587 -0.0190 -0.3596  0.5895
  170SAPS   H3R19252   5.980   5.401   7.559  0.4306 -0.0357 -1.6965
  170SAPS   H3S19253   6.113   5.402   7.668  0.7540  0.6602  0.9438
  170SAPS   C2419254   6.160   5.489   7.463 -0.3657 -0.9664 -0.2105
  170SAPS   H4R19255   6.181   5.389   7.419  0.6250 -0.8089 -0.1147
  170SAPS   H4S19256   6.257   5.529   7.498 -1.4695  0.6818  1.1094
  170SAPS   C2519257   6.098   5.578   7.355  0.4720 -0.2363 -0.3874
  170SAPS   H5R19258   6.092   5.683   7.388 -1.6419  0.6043 -3.1631
  170SAPS   C2619259   6.055   5.541   7.237  0.1431 -0.4708  0.1443
  170SAPS   H6R19260   6.001   5.617   7.179 -1.7761 -1.6170  0.3294
  170SAPS   C2719261   6.045   5.406   7.183  0.8772 -0.2454  0.0380
  170SAPS   H7R19262   6.136   5.350   7.215  0.8540 -0.2398  0.1139
  170SAPS   H7S19263   6.040   5.414   7.072  0.8798  1.9355  0.1528
  170SAPS   C2819264   5.926   5.332   7.236  0.7842  0.0056  0.0182
  170SAPS   H8R19265   5.930   5.291   7.338  0.5050 -0.4670 -0.1587
  170SAPS   C2919266   5.807   5.326   7.172 -0.3072 -0.8923 -0.6481
  170SAPS   H9R19267   5.721   5.286   7.229 -2.2377  3.5791  0.0323
  170SAPS  C21019268   5.763   5.381   7.043 -0.3681 -0.0882  1.2137
  170SAPS  H10R19269   5.716   5.306   6.976  0.3741 -0.2030  0.8159
  170SAPS  H10S19270   5.843   5.416   6.974  1.0246 -3.1055  1.1634
  170SAPS  C21119271   5.670   5.497   7.084  0.2377 -0.0527 -0.1599
  170SAPS  H11R19272   5.724   5.575   7.140  1.4110 -1.6090  0.9814
  170SAPS  C21219273   5.539   5.506   7.047 -0.8387 -0.4911 -0.2239
  170SAPS  H12R19274   5.479   5.590   7.083  1.6269  0.8945  0.9117
  170SAPS  C21319275   5.472   5.412   6.957  0.5980  0.4611  0.3722
  170SAPS  H13R19276   5.453   5.312   7.000  1.2774 -0.0201 -0.4117
  170SAPS  H13S19277   5.538   5.403   6.868 -1.8134  0.2243 -1.4985
  170SAPS  C21419278   5.341   5.469   6.896  0.0749 -0.4601  0.1226
  170SAPS  H14R19279   5.250   5.423   6.937 -1.0785  0.2202 -1.5734
  170SAPS  C21519280   5.325   5.562   6.800  0.0016  0.5765  0.1876
  170SAPS  H15R19281   5.223   5.599   6.780 -0.3470  0.4265  1.5843
  170SAPS  C21619282   5.435   5.639   6.727 -0.0416  0.6483 -0.5713
  170SAPS  H16R19283   5.525   5.634   6.791 -0.3555  1.1297 -0.0855
  170SAPS  H16S19284   5.409   5.742   6.697  1.9782  1.7382  1.1750
  170SAPS  C21719285   5.470   5.546   6.604 -0.5407  0.0208 -0.1697
  170SAPS  H17R19286   5.494   5.444   6.642  0.3792 -0.2728 -1.4621
  170SAPS  H17S19287   5.567   5.588   6.570 -0.9761  0.5902 -0.7401
  170SAPS  C21819288   5.367   5.542   6.492 -0.1536 -0.0232  0.2792
  170SAPS  H18R19289   5.304   5.633   6.487  0.1466  0.2279  0.9546
  170SAPS  H18S19290   5.302   5.456   6.521  1.9199 -1.0512  2.1749
  170SAPS  C21919291   5.419   5.521   6.349 -0.5918 -0.8735 -0.2939
  170SAPS  H19R19292   5.339   5.541   6.274 -0.4002 -1.1634 -0.5791
  170SAPS  H19S19293   5.456   5.417   6.344 -1.0606 -1.1689  1.6467
  170SAPS  C22019294   5.542   5.610   6.317  0.3714 -0.3341  0.5167
  170SAPS  H20R19295   5.530   5.714   6.356  4.6881  0.1837  0.9461
  170SAPS  H20S19296   5.558   5.617   6.207 -1.3649  3.2411  0.3422
  170SAPS  H20T19297   5.634   5.563   6.359 -0.6392 -0.0091  3.3071
  170SAPS   C3319298   6.689   5.723   7.667  0.2826 -0.6210  0.1357
  170SAPS   H3X19299   6.761   5.721   7.751  1.4039 -0.0611 -0.7920
  170SAPS   H3Y19300   6.686   5.834   7.657  0.1627 -0.5475  0.9043
  170SAPS   C3419301   6.755   5.662   7.545 -0.4508  0.3021 -0.3906
  170SAPS   H4X19302   6.775   5.554   7.562 -2.5235  0.0820  1.0841
  170SAPS   H4Y19303   6.858   5.697   7.526 -0.7658 -0.2905 -3.8910
  170SAPS   C3519304   6.684   5.698   7.420  0.6240 -0.4633  0.1105
  170SAPS   H5X19305   6.719   5.802   7.400  1.8649 -0.3395  2.5338
  170SAPS   H5Y19306   6.574   5.699   7.435  0.7061  1.3014  0.8647
  170SAPS   C3619307   6.710   5.606   7.295 -0.0374 -0.8497 -0.0198
  170SAPS   H6X19308   6.719   5.502   7.335 -1.3886 -0.5328  1.1937
  170SAPS   H6Y19309   6.811   5.643   7.267 -0.3692  0.7451  0.8021
  170SAPS   C3719310   6.602   5.628   7.186 -0.3990 -0.3178  0.3798
  170SAPS   H7X19311   6.603   5.734   7.153  0.7205  0.9454  3.9406
  170SAPS   H7Y19312   6.499   5.605   7.220 -0.8744 -1.8135 -1.8801
  170SAPS   C3819313   6.624   5.534   7.065  0.4872 -0.2657  0.0744
  170SAPS   H8X19314   6.621   5.433   7.111  3.0431  0.0095  0.9829
  170SAPS   H8Y19315   6.728   5.557   7.034 -0.0465 -0.4402 -2.0487
  170SAPS   C3919316   6.520   5.537   6.953 -0.1603 -0.3367 -0.0183
  170SAPS   H9X19317   6.509   5.642   6.919 -0.9438 -1.0278 -2.0004
  170SAPS   H9Y19318   6.419   5.513   6.992  0.7091 -1.4814  1.6960
  170SAPS  C31019319   6.557   5.434   6.837  0.1325 -0.6338 -0.5069
  170SAPS  H10X19320   6.580   5.334   6.880 -0.6200 -1.4122 -1.8260
  170SAPS  H10Y19321   6.652   5.458   6.784 -0.1674  0.1455 -0.7061
  170SAPS  C31119322   6.438   5.419   6.738 -0.3226 -0.0288  0.3740
  170SAPS  H11X19323   6.421   5.520   6.696 -2.1818 -0.9827 -1.3573
  170SAPS  H11Y19324   6.353   5.392   6.806  0.9759 -0.9384  1.6978
  170SAPS  C31219325   6.474   5.309   6.624 -1.5112 -0.2765 -0.4993
  170SAPS  H12X19326   6.506   5.214   6.673  1.4574  0.1972 -1.3482
  170SAPS  H12Y19327   6.565   5.336   6.567 -1.8034 -1.5279 -1.5966
  170SAPS  C31319328   6.349   5.298   6.546 -0.0643  0.5143  0.5234
  170SAPS  H13X19329   6.316   5.394   6.501 -0.4576  0.2235  0.1877
  170SAPS  H13Y19330   6.283   5.256   6.626 -0.3421 -0.6981 -0.3253
  170SAPS  C31419331   6.356   5.201   6.425 -0.3533 -0.0965  1.2553
  170SAPS  H14X19332   6.407   5.109   6.462  0.6303  0.1236  0.4817
  170SAPS  H14Y19333   6.437   5.231   6.355 -1.5435  3.9587  1.3681
  170SAPS  C31519334   6.227   5.167   6.350  0.2133  0.2533  0.6833
  170SAPS  H15X19335   6.159   5.128   6.429 -0.1732  1.9254  1.2212
  170SAPS  H15Y19336   6.246   5.097   6.266 -0.4207 -0.8318  1.4181
  170SAPS  C31619337   6.161   5.292   6.293 -0.2927  0.2842 -0.6014
  170SAPS  H16X19338   6.239   5.339   6.229  1.0608 -1.3860 -0.2334
  170SAPS  H16Y19339   6.140   5.366   6.373 -0.9604  0.0722 -0.5688
  170SAPS  C31719340   6.029   5.255   6.219 -0.1341 -0.0757 -0.6136
  170SAPS  H17X19341   6.021   5.144   6.219 -1.1571 -0.0382  1.0154
  170SAPS  H17Y19342   6.037   5.292   6.114  0.0018 -0.4672 -0.7440
  170SAPS  C31819343   5.900   5.294   6.284 -0.3010  0.1872 -0.0426
  170SAPS  H18X19344   5.888   5.404   6.293  2.7940  0.8217 -2.0599
  170SAPS  H18Y19345   5.902   5.248   6.385  0.9778 -2.6685 -1.2687
  170SAPS  H18Z19346   5.809   5.255   6.234  0.2364 -0.1972 -0.7393
  171SAPS     N19347   6.572   3.824   8.548 -0.1825 -0.3155  0.5209
  171SAPS   HN119348   6.654   3.824   8.612  1.3114  0.7114 -1.2893
  171SAPS   HN219349   6.504   3.747   8.565 -1.1950  0.0517 -1.5213
  171SAPS   HN319350   6.611   3.803   8.454  0.4698 -0.6151  0.8527
  171SAPS   C1219351   6.500   3.950   8.550 -0.1063 -0.4569 -0.9858
  171SAPS  H12A19352   6.426   3.940   8.472  1.0540 -0.0691 -2.1548
  171SAPS   C1319353   6.415   3.965   8.678 -0.0842 -0.6699 -0.1492
  171SAPS  O13A19354   6.401   3.872   8.765 -0.2630  0.2816 -0.5400
  171SAPS  O13B19355   6.371   4.080   8.708 -0.7348  0.2095 -0.1857
  171SAPS   C1119356   6.597   4.064   8.529  0.2569 -0.1982 -0.0569
  171SAPS  H11A19357   6.654   4.072   8.624  0.4316 -2.0735  0.0437
  171SAPS  H11B19358   6.538   4.157   8.518  1.0403  0.2259 -0.7843
  171SAPS     P19359   6.789   4.133   8.366 -0.6537 -0.1793 -0.0871
  171SAPS   O1319360   6.881   4.170   8.479  0.5131 -0.7604 -1.0721
  171SAPS   O1419361   6.865   4.084   8.245  0.6448  0.3788 -0.1799
  171SAPS   O1219362   6.680   4.028   8.421 -0.9607 -0.5807 -0.3257
  171SAPS   O1119363   6.703   4.258   8.320  0.0013  0.1265  0.1233
  171SAPS    C119364   6.587   4.245   8.247  0.2508  0.4023 -0.1889
  171SAPS    HA19365   6.533   4.150   8.261  0.5124  0.6159  2.8879
  171SAPS    HB19366   6.513   4.323   8.274 -1.2222  0.0835 -2.9074
  171SAPS    C219367   6.608   4.279   8.103 -0.4768  0.2093  0.5802
  171SAPS    HS19368   6.509   4.284   8.052 -0.6800 -1.5912  0.7389
  171SAPS   O2119369   6.710   4.190   8.047 -0.2878 -0.0034  0.3774
  171SAPS   C2119370   6.648   4.076   8.005 -0.0419 -0.0670 -0.5610
  171SAPS   O2219371   6.535   4.041   8.028  0.1991 -0.1465 -0.2175
  171SAPS   C2219372   6.735   4.009   7.903  0.2556  0.6478  0.3893
  171SAPS   H2R19373   6.831   3.977   7.948  0.9903 -1.9107 -2.6452
  171SAPS   H2S19374   6.681   3.924   7.856 -0.6886 -0.9635  4.0381
  171SAPS    C319375   6.654   4.428   8.084 -0.4470  0.1741 -0.2146
  171SAPS    HX19376   6.737   4.435   8.158  0.9334 -2.5613 -1.3665
  171SAPS    HY19377   6.567   4.492   8.110 -0.4808 -0.0249  0.1631
  171SAPS   O3119378   6.698   4.455   7.952 -0.0383 -0.3576  0.6581
  171SAPS   C3119379   6.803   4.525   7.934 -0.4595  0.0078  0.7859
  171SAPS   O3219380   6.874   4.583   8.017 -0.5656 -0.1569  0.3295
  171SAPS   C3219381   6.842   4.533   7.788 -0.1154 -0.8951 -0.2305
  171SAPS   H2X19382   6.843   4.640   7.761 -0.6671 -0.8182  0.0398
  171SAPS   H2Y19383   6.762   4.489   7.724 -0.8622  3.7490 -2.9301
  171SAPS   C2319384   6.766   4.097   7.783 -0.1093 -0.9076  0.7069
  171SAPS   H3R19385   6.829   4.042   7.710  1.6138 -1.7599  2.7414
  171SAPS   H3S19386   6.826   4.181   7.821 -0.1802 -0.5425  0.0254
  171SAPS   C2419387   6.645   4.156   7.706  0.0912  0.0452 -0.6324
  171SAPS   H4R19388   6.678   4.243   7.645  0.5534 -0.7554 -1.5454
  171SAPS   H4S19389   6.572   4.189   7.783 -0.7524 -2.9107 -0.0314
  171SAPS   C2519390   6.583   4.054   7.615  0.0152 -0.5174  0.8595
  171SAPS   H5R19391   6.515   3.983   7.663  0.3058 -0.3651  1.5038
  171SAPS   C2619392   6.591   4.059   7.478 -0.3805  0.1618  0.8439
  171SAPS   H6R19393   6.548   3.975   7.422 -1.6364  0.3087  1.5389
  171SAPS   C2719394   6.669   4.161   7.402 -0.4905  0.2587 -0.6153
  171SAPS   H7R19395   6.745   4.103   7.345 -0.3909 -0.1246 -0.1003
  171SAPS   H7S19396   6.731   4.237   7.453  2.2952 -0.9059 -2.0130
  171SAPS   C2819397   6.580   4.240   7.310  0.9638 -0.2452 -0.1933
  171SAPS   H8R19398   6.484   4.276   7.349  1.2211  0.4197 -0.1663
  171SAPS   C2919399   6.607   4.279   7.186  0.8533 -0.1789  0.1936
  171SAPS   H9R19400   6.540   4.345   7.129  0.8141 -1.4748 -1.3334
  171SAPS  C21019401   6.739   4.248   7.113  0.3700  1.0339  0.7028
  171SAPS  H10R19402   6.830   4.250   7.177  1.8537 -2.8294 -1.0109
  171SAPS  H10S19403   6.753   4.328   7.036  1.7594 -0.8309 -1.1041
  171SAPS  C21119404   6.732   4.115   7.035 -0.1560  0.1062 -0.3934
  171SAPS  H11R19405   6.721   4.027   7.100 -3.2699  2.3354  2.4472
  171SAPS  C21219406   6.713   4.096   6.903 -0.4263  0.3269 -0.3700
  171SAPS  H12R19407   6.715   3.995   6.860 -2.0436 -0.7858  1.9073
  171SAPS  C21319408   6.721   4.207   6.796 -0.3465  0.4339  0.1733
  171SAPS  H13R19409   6.825   4.198   6.757 -0.1206  3.2706 -0.0438
  171SAPS  H13S19410   6.709   4.303   6.851  0.6822  0.1007  1.0313
  171SAPS  C21419411   6.624   4.197   6.678  0.4432 -0.0938 -0.2542
  171SAPS  H14R19412   6.523   4.226   6.712  1.6366  2.1723  1.7294
  171SAPS  C21519413   6.653   4.153   6.553  0.3306 -0.1803  0.6277
  171SAPS  H15R19414   6.580   4.170   6.473  0.0510  1.6048  1.2093
  171SAPS  C21619415   6.787   4.105   6.506 -0.0988 -0.6579 -0.4884
  171SAPS  H16R19416   6.796   3.998   6.533  0.3987 -0.4149  0.3314
  171SAPS  H16S19417   6.877   4.155   6.550  0.5031 -0.6276 -1.7071
  171SAPS  C21719418   6.801   4.107   6.354 -0.2214  0.3088  0.1177
  171SAPS  H17R19419   6.804   4.205   6.301  0.4616 -0.3648 -1.1434
  171SAPS  H17S19420   6.711   4.060   6.311  1.8168 -1.0009 -3.0995
  171SAPS  C21819421   6.941   4.040   6.301  0.3729 -1.1515 -0.4865
  171SAPS  H18R19422   6.967   3.948   6.356  2.5160  1.0223  2.4365
  171SAPS  H18S19423   7.016   4.114   6.336 -1.3205  0.0687  0.7690
  171SAPS  C21919424   6.950   4.015   6.149 -0.2094  0.2845  0.3965
  171SAPS  H19R19425   7.058   3.997   6.131  0.8679  4.2856  1.6807
  171SAPS  H19S19426   6.921   4.106   6.091 -2.2647 -0.0331  0.8405
  171SAPS  C22019427   6.865   3.901   6.097 -0.3687  0.4215  0.8318
  171SAPS  H20R19428   6.758   3.925   6.116 -0.2716  0.8750  0.8089
  171SAPS  H20S19429   6.884   3.798   6.134  0.7955  0.3536  0.0831
  171SAPS  H20T19430   6.871   3.892   5.987 -1.4868 -0.2755  0.8041
  171SAPS   C3319431   6.976   4.467   7.749  1.0242  0.5126  0.4683
  171SAPS   H3X19432   6.985   4.368   7.799  1.2286  0.3842  0.1854
  171SAPS   H3Y19433   7.056   4.539   7.774 -0.8455  2.5967  0.7334
  171SAPS   C3419434   6.991   4.457   7.603  0.6792  0.6767  0.7615
  171SAPS   H4X19435   6.913   4.386   7.567  0.9823  0.5397  0.3719
  171SAPS   H4Y19436   7.089   4.409   7.585  0.3952  0.2271  0.4062
  171SAPS   C3519437   6.976   4.600   7.532 -0.3652  0.4573  0.0052
  171SAPS   H5X19438   7.043   4.674   7.582  0.6527 -0.2720 -0.2730
  171SAPS   H5Y19439   6.870   4.634   7.539 -0.4371  1.2875 -3.3158
  171SAPS   C3619440   7.021   4.592   7.381 -0.1222 -0.6689 -0.6884
  171SAPS   H6X19441   7.129   4.568   7.373  0.5665  0.9134  2.4007
  171SAPS   H6Y19442   7.017   4.699   7.349  1.5973  1.1524  4.1547
  171SAPS   C3719443   6.925   4.510   7.289 -0.0982 -0.2696  0.5013
  171SAPS   H7X19444   6.818   4.539   7.290 -0.1902 -0.6025  0.3369
  171SAPS   H7Y19445   6.933   4.403   7.318  0.4460  0.4029  3.1159
  171SAPS   C3819446   6.986   4.504   7.149  0.4003 -0.4024 -0.5146
  171SAPS   H8X19447   6.948   4.406   7.113 -0.8638 -0.7407  1.5817
  171SAPS   H8Y19448   7.097   4.501   7.159  0.3836  0.8985  0.4810
  171SAPS   C3919449   6.938   4.608   7.052 -0.6560  0.1174  0.3621
  171SAPS   H9X19450   6.950   4.706   7.104  0.1733 -0.7565  1.8787
  171SAPS   H9Y19451   6.829   4.590   7.038 -0.5426 -0.0618 -0.3235
  171SAPS  C31019452   7.028   4.624   6.920 -1.0278  0.0299 -0.2321
  171SAPS  H10X19453   7.131   4.656   6.944 -0.6787 -0.3352 -1.1905
  171SAPS  H10Y19454   6.978   4.716   6.881 -1.0657  0.8276  1.5767
  171SAPS  C31119455   7.016   4.498   6.833 -0.6490 -0.0804  0.2529
  171SAPS  H11X19456   6.919   4.448   6.852 -0.1145 -1.5596 -0.7868
  171SAPS  H11Y19457   7.084   4.422   6.877  1.0164  1.9163  1.3522
  171SAPS  C31219458   7.057   4.519   6.684 -0.6934 -0.2803 -1.1001
  171SAPS  H12X19459   7.162   4.547   6.661 -1.5246  0.8021 -3.9577
  171SAPS  H12Y19460   6.996   4.608   6.657 -0.4772  0.6234  1.1347
  171SAPS  C31319461   7.041   4.380   6.613  0.6588  0.3592  0.7561
  171SAPS  H13X19462   6.943   4.339   6.642 -1.4300  2.4222 -2.6708
  171SAPS  H13Y19463   7.124   4.308   6.632  0.1696 -0.8285 -1.2634
  171SAPS  C31419464   7.034   4.399   6.463  0.3591 -0.1316  0.4141
  171SAPS  H14X19465   6.959   4.479   6.448  1.8768  0.9978 -1.7609
  171SAPS  H14Y19466   6.997   4.302   6.422  0.5319 -0.2406  0.5124
  171SAPS  C31519467   7.164   4.422   6.388 -0.3904  0.2911 -0.5283
  171SAPS  H15X19468   7.235   4.341   6.414 -0.7264  0.1841  0.0642
  171SAPS  H15Y19469   7.218   4.519   6.391  1.0286 -0.4906  0.5122
  171SAPS  C31619470   7.144   4.392   6.238  0.0789 -0.5899 -0.0539
  171SAPS  H16X19471   7.070   4.467   6.203  0.0666 -0.4619  0.2442
  171SAPS  H16Y19472   7.101   4.290   6.233 -0.6532 -0.3413  0.9257
  171SAPS  C31719473   7.263   4.396   6.140  0.0978  0.5382  0.1671
  171SAPS  H17X19474   7.320   4.490   6.149 -1.0761  1.3164 -0.3204
  171SAPS  H17Y19475   7.221   4.393   6.037 -0.0770  3.0207  0.1279
  171SAPS  C31819476   7.359   4.279   6.151  0.6874  0.2523 -0.0851
  171SAPS  H18X19477   7.409   4.283   6.250 -0.6956  0.2503  0.6455
  171SAPS  H18Y19478   7.427   4.274   6.063 -1.6818 -1.3271 -1.9633
  171SAPS  H18Z19479   7.298   4.186   6.149 -1.1202  1.3248  1.5495
  172SAPS     N19480   0.160   4.745   8.625 -0.3593 -0.4902 -0.2599
  172SAPS   HN119481   0.092   4.676   8.588 -1.8118  0.4587  0.5310
  172SAPS   HN219482   0.147   4.773   8.725  0.3868  1.4973 -0.6704
  172SAPS   HN319483   0.140   4.835   8.577  0.5296  1.7157  3.1050
  172SAPS   C1219484   0.303   4.699   8.607  0.2621  0.7130 -0.2898
  172SAPS  H12A19485   0.354   4.713   8.701  0.9077 -1.2922 -0.2828
  172SAPS   C1319486   0.302   4.549   8.573  0.4666  0.5874 -0.3875
  172SAPS  O13A19487   0.193   4.484   8.575  0.7055 -0.5257  0.6144
  172SAPS  O13B19488   0.405   4.488   8.521 -0.1162 -0.0607 -0.5470
  172SAPS   C1119489   0.365   4.789   8.496  0.3536  0.4328 -0.0022
  172SAPS  H11A19490   0.308   4.789   8.401  0.6099  0.0751 -0.1623
  172SAPS  H11B19491   0.463   4.742   8.471  1.1526  2.0843 -0.1187
  172SAPS     P19492   0.415   5.040   8.454 -0.0503  0.3325  0.1896
  172SAPS   O1319493   0.286   5.106   8.417 -0.2629 -0.4630 -0.3062
  172SAPS   O1419494   0.516   5.129   8.515  0.2800  0.2287  0.5972
  172SAPS   O1219495   0.386   4.915   8.551 -0.1807 -0.3585  0.4153
  172SAPS   O1119496   0.482   4.974   8.327  0.2134 -0.5978 -0.4610
  172SAPS    C119497   0.614   4.934   8.300 -0.3114 -0.1148  0.1647
  172SAPS    HA19498   0.691   5.001   8.346  0.1470 -0.5625  0.0570
  172SAPS    HB19499   0.628   4.828   8.327 -1.2711  0.3048  2.5053
  172SAPS    C219500   0.654   4.934   8.149  0.1144 -0.1383 -0.2475
  172SAPS    HS19501   0.760   4.903   8.135  0.4131  1.2109 -1.2691
  172SAPS   O2119502   0.624   5.067   8.091  0.1895 -0.0670  0.3807
  172SAPS   C2119503   0.716   5.153   8.091 -0.1909 -0.5292 -0.7515
  172SAPS   O2219504   0.829   5.144   8.139  0.0476  0.3442 -0.2361
  172SAPS   C2219505   0.669   5.287   8.033  0.0070 -0.2427 -0.6500
  172SAPS   H2R19506   0.596   5.264   7.953 -0.2186 -0.8413 -0.2740
  172SAPS   H2S19507   0.600   5.328   8.110 -1.0343  0.1300 -1.7456
  172SAPS    C319508   0.569   4.841   8.076 -0.1627 -0.1804 -0.1785
  172SAPS    HX19509   0.469   4.888   8.068 -0.4212 -0.9031 -1.4294
  172SAPS    HY19510   0.562   4.748   8.137 -2.4534  0.1346  0.1224
  172SAPS   O3119511   0.624   4.815   7.946 -0.6221  0.0373  0.3799
  172SAPS   C3119512   0.575   4.708   7.892  0.2127  0.1674  0.3227
  172SAPS   O3219513   0.496   4.628   7.941 -0.0889  0.4165  0.4196
  172SAPS   C3219514   0.659   4.685   7.768  0.6726 -0.2064  0.0133
  172SAPS   H2X19515   0.757   4.651   7.807  1.0547  1.9163  1.0309
  172SAPS   H2Y19516   0.674   4.783   7.719  0.2840  0.7620  1.7326
  172SAPS   C2319517   0.780   5.384   7.989  0.1507  0.1339 -0.4233
  172SAPS   H3R19518   0.869   5.326   7.956  1.8583  0.6509  2.9011
  172SAPS   H3S19519   0.814   5.447   8.074 -0.3088  2.0988 -1.6210
  172SAPS   C2419520   0.734   5.471   7.870 -0.5915  1.1199  0.3932
  172SAPS   H4R19521   0.650   5.534   7.907 -2.1428 -1.1577  0.9871
  172SAPS   H4S19522   0.689   5.409   7.790 -0.4612  2.3341 -0.6544
  172SAPS   C2519523   0.839   5.560   7.818 -0.7329  0.5517  0.1755
  172SAPS   H5R19524   0.883   5.637   7.883  1.5548  0.8313 -1.5743
  172SAPS   C2619525   0.904   5.535   7.700 -0.2894  0.1178 -0.5244
  172SAPS   H6R19526   0.986   5.604   7.674  0.9157 -0.5714  1.2031
  172SAPS   C2719527   0.881   5.423   7.601 -0.3797  0.3114  0.3619
  172SAPS   H7R19528   0.807   5.454   7.524  0.3424  1.4770  0.1014
  172SAPS   H7S19529   0.840   5.336   7.656  2.7002 -1.3070  0.3757
  172SAPS   C2819530   1.013   5.381   7.531 -0.6235 -0.3266  1.0184
  172SAPS   H8R19531   1.097   5.349   7.594 -0.0334 -0.3971  0.2106
  172SAPS   C2919532   1.039   5.410   7.400  0.1167 -0.5974 -0.2863
  172SAPS   H9R19533   1.131   5.379   7.350  0.5284  0.0679  0.0436
  172SAPS  C21019534   0.938   5.463   7.302 -0.1527 -0.5738  0.2712
  172SAPS  H10R19535   0.989   5.512   7.216 -0.1251  1.5407  1.4080
  172SAPS  H10S19536   0.879   5.553   7.331  1.8553  0.2195  2.1422
  172SAPS  C21119537   0.840   5.358   7.236 -0.5863 -0.6057 -0.2756
  172SAPS  H11R19538   0.774   5.309   7.310 -0.9727  0.8101  0.3548
  172SAPS  C21219539   0.819   5.328   7.101 -0.4782  0.0546 -0.8295
  172SAPS  H12R19540   0.737   5.257   7.080 -1.9350  0.9203  1.4790
  172SAPS  C21319541   0.892   5.389   6.985 -0.3223 -0.1398 -0.7303
  172SAPS  H13R19542   0.998   5.407   7.013 -0.0385 -3.4837  0.8655
  172SAPS  H13S19543   0.852   5.485   6.945  1.3256 -0.0314 -2.2513
  172SAPS  C21419544   0.888   5.287   6.876 -0.1985  0.0919 -0.0961
  172SAPS  H14R19545   0.968   5.212   6.884  1.3069  1.6577 -0.0994
  172SAPS  C21519546   0.801   5.281   6.774 -0.3063  0.7184  0.6003
  172SAPS  H15R19547   0.792   5.197   6.705  0.1435  1.1677 -0.0153
  172SAPS  C21619548   0.694   5.377   6.741  0.2466  0.2491 -0.6467
  172SAPS  H16R19549   0.680   5.453   6.820  1.6543 -0.1933  0.0591
  172SAPS  H16S19550   0.601   5.316   6.745 -0.9365  2.0428  0.1098
  172SAPS  C21719551   0.691   5.446   6.605  0.0230 -0.4318 -0.2029
  172SAPS  H17R19552   0.778   5.514   6.595  1.0400 -1.2202  2.3885
  172SAPS  H17S19553   0.600   5.510   6.606 -0.6601 -1.3840  0.2246
  172SAPS  C21819554   0.675   5.351   6.481 -0.4274  0.3221 -0.2981
  172SAPS  H18R19555   0.634   5.404   6.393  0.3133 -0.3552 -1.0648
  172SAPS  H18S19556   0.606   5.266   6.499 -0.4961  0.5242  0.4410
  172SAPS  C21919557   0.817   5.299   6.438  0.2117  0.0641 -0.4857
  172SAPS  H19R19558   0.881   5.253   6.516  1.0778 -0.2269 -1.3650
  172SAPS  H19S19559   0.875   5.379   6.388 -0.0212  0.1338 -0.6454
  172SAPS  C22019560   0.794   5.193   6.326 -0.0893 -0.5595  0.2802
  172SAPS  H20R19561   0.717   5.123   6.366 -1.1005 -1.0280 -2.2979
  172SAPS  H20S19562   0.888   5.137   6.306  0.4107  0.1448  0.6401
  172SAPS  H20T19563   0.758   5.235   6.230 -1.0718  0.7259  1.1744
  172SAPS   C3319564   0.585   4.581   7.689  0.1015  0.4830  0.0927
  172SAPS   H3X19565   0.474   4.585   7.680  0.0897  1.2239  0.4845
  172SAPS   H3Y19566   0.609   4.483   7.735  2.7709  0.3723 -1.3149
  172SAPS   C3419567   0.642   4.577   7.544 -0.5387 -0.0844 -0.5883
  172SAPS   H4X19568   0.752   4.565   7.541 -0.6654 -1.1444 -1.3399
  172SAPS   H4Y19569   0.613   4.676   7.502 -0.1464  0.1486 -0.3130
  172SAPS   C3519570   0.584   4.457   7.463  0.1344  0.2723 -0.2937
  172SAPS   H5X19571   0.473   4.467   7.473  0.0239 -0.9777 -0.1468
  172SAPS   H5Y19572   0.618   4.359   7.503 -1.4301 -0.7837 -1.4088
  172SAPS   C3619573   0.623   4.460   7.312  0.5304  0.4303  0.0506
  172SAPS   H6X19574   0.559   4.382   7.267  1.4232 -0.9206  1.0206
  172SAPS   H6Y19575   0.732   4.440   7.299  0.4435 -0.9444  1.1916
  172SAPS   C3719576   0.605   4.597   7.243 -0.2929  0.3624  0.0843
  172SAPS   H7X19577   0.691   4.664   7.266 -0.7038  1.1227 -0.5720
  172SAPS   H7Y19578   0.519   4.640   7.299 -0.6793 -0.2857 -0.0043
  172SAPS   C3819579   0.575   4.581   7.088  0.6384 -0.1059 -0.1461
  172SAPS   H8X19580   0.506   4.667   7.080  2.2711  1.2283 -0.4984
  172SAPS   H8Y19581   0.510   4.496   7.057  0.0087  0.5337 -0.6011
  172SAPS   C3919582   0.696   4.587   7.000 -0.3817 -0.3443 -0.0178
  172SAPS   H9X19583   0.756   4.494   7.011  0.0204  0.0643  1.3776
  172SAPS   H9Y19584   0.765   4.667   7.033 -0.6878 -0.9669  2.2457
  172SAPS  C31019585   0.661   4.580   6.846  0.3664  0.3875  0.5843
  172SAPS  H10X19586   0.579   4.650   6.820 -0.2517 -0.9596 -1.2003
  172SAPS  H10Y19587   0.629   4.475   6.833  2.5619 -0.2909  0.1630
  172SAPS  C31119588   0.781   4.603   6.747  0.0928  0.1732  0.4511
  172SAPS  H11X19589   0.861   4.535   6.784  1.0806  0.7775 -0.5240
  172SAPS  H11Y19590   0.803   4.712   6.742 -0.5545  0.2459 -1.4191
  172SAPS  C31219591   0.755   4.537   6.615  0.3353 -0.2859 -0.1925
  172SAPS  H12X19592   0.679   4.586   6.550  0.6506  0.1874 -0.2105
  172SAPS  H12Y19593   0.732   4.430   6.634  1.6368 -0.3421  1.2450
  172SAPS  C31319594   0.885   4.524   6.534  0.1894 -0.4310 -0.3726
  172SAPS  H13X19595   0.948   4.450   6.587 -2.6718 -1.8438  1.3527
  172SAPS  H13Y19596   0.935   4.623   6.535  1.1986 -0.9100  1.5924
  172SAPS  C31419597   0.846   4.476   6.391 -0.1645  0.0529 -0.4735
  172SAPS  H14X19598   0.789   4.564   6.357  0.9536  0.1724 -2.1270
  172SAPS  H14Y19599   0.786   4.383   6.399  2.0711 -1.3784  1.0384
  172SAPS  C31519600   0.962   4.467   6.287  0.0706  0.1233 -0.3026
  172SAPS  H15X19601   1.014   4.371   6.308 -0.0066  0.3703  1.1632
  172SAPS  H15Y19602   1.038   4.547   6.300 -0.7675  0.7913  0.7077
  172SAPS  C31619603   0.914   4.455   6.138  0.1290  0.2777 -1.0322
  172SAPS  H16X19604   1.008   4.438   6.082  1.1936  0.6862  0.5763
  172SAPS  H16Y19605   0.842   4.371   6.141 -3.6705  3.2486  1.9279
  172SAPS  C31719606   0.843   4.581   6.080  0.5599  0.5694 -0.2440
  172SAPS  H17X19607   0.912   4.668   6.067  0.4867  0.2754 -3.2141
  172SAPS  H17Y19608   0.769   4.614   6.157  2.2359  1.8292  0.9115
  172SAPS  C31819609   0.762   4.557   5.955  0.3425  0.2530  0.0571
  172SAPS  H18X19610   0.691   4.642   5.948 -1.2261 -0.8655  1.5187
  172SAPS  H18Y19611   0.685   4.481   5.976  1.7225 -0.5932  2.3946
  172SAPS  H18Z19612   0.821   4.544   5.861 -2.6227  0.8911 -2.0337
  173SAPS     N19613   1.345   6.383   3.614 -0.4318 -0.0448  0.0453
  173SAPS   HN119614   1.367   6.479   3.647  1.4639  0.3998 -2.1960
  173SAPS   HN219615   1.388   6.309   3.673 -2.2820 -0.9864  0.2718
  173SAPS   HN319616   1.383   6.372   3.518 -0.6015 -0.9615  0.0708
  173SAPS   C1219617   1.192   6.345   3.586 -0.8890 -0.6536 -0.0953
  173SAPS  H12A19618   1.142   6.352   3.681  0.5525  2.6518  0.5412
  173SAPS   C1319619   1.122   6.428   3.474  0.0440 -0.2083  0.2322
  173SAPS  O13A19620   1.168   6.524   3.411 -0.2872 -0.6205 -0.4744
  173SAPS  O13B19621   0.996   6.415   3.474 -0.0116  0.1691  0.2757
  173SAPS   C1119622   1.196   6.193   3.548  0.3819  0.3710 -0.2268
  173SAPS  H11A19623   1.249   6.184   3.450 -0.4167 -1.1955 -0.5477
  173SAPS  H11B19624   1.093   6.154   3.534 -0.8489  3.7428 -1.6056
  173SAPS     P19625   1.257   5.950   3.658  0.3861 -0.0297 -0.3937
  173SAPS   O1319626   1.137   5.898   3.589  0.4399  0.0071  0.4723
  173SAPS   O1419627   1.388   5.888   3.631 -0.5036  0.0876 -0.1830
  173SAPS   O1219628   1.267   6.109   3.642  0.3360 -0.1616 -1.0351
  173SAPS   O1119629   1.234   5.936   3.811 -0.3456  0.0190 -0.2985
  173SAPS    C119630   1.290   6.020   3.909 -0.1277 -0.0983  0.2554
  173SAPS    HA19631   1.393   5.991   3.939  0.4237  0.9701 -0.4974
  173SAPS    HB19632   1.303   6.127   3.880  0.0263 -0.5919 -1.6540
  173SAPS    C219633   1.196   6.017   4.026  0.7879  0.0603 -0.1422
  173SAPS    HS19634   1.211   6.112   4.082  0.6173 -0.3014  0.5263
  173SAPS   O2119635   1.212   5.917   4.117  0.0844  0.2057 -0.6488
  173SAPS   C2119636   1.321   5.921   4.186 -0.3718  0.4939  1.0189
  173SAPS   O2219637   1.414   5.998   4.170  0.1093 -0.2225 -0.2665
  173SAPS   C2219638   1.319   5.801   4.276 -0.1593 -0.6795  0.0225
  173SAPS   H2R19639   1.231   5.735   4.258 -0.8033  0.4540 -1.1397
  173SAPS   H2S19640   1.413   5.747   4.252  1.5191  2.6328 -1.3831
  173SAPS    C319641   1.048   6.005   3.980 -0.5030  0.2125 -0.1992
  173SAPS    HX19642   1.031   5.902   3.940 -0.3334 -0.3717  1.1876
  173SAPS    HY19643   1.041   6.076   3.895 -1.2998 -2.1273 -2.2004
  173SAPS   O3119644   0.956   6.034   4.085 -0.1106 -0.6779 -0.4234
  173SAPS   C3119645   0.893   6.154   4.081 -0.0059  0.0899 -0.6934
  173SAPS   O3219646   0.913   6.245   4.003 -0.0570  0.2909 -0.7343
  173SAPS   C3219647   0.808   6.172   4.211 -0.3243 -0.5842 -0.2617
  173SAPS   H2X19648   0.733   6.092   4.196 -0.2135 -0.3352 -2.4879
  173SAPS   H2Y19649   0.752   6.268   4.211  0.8217  0.1028 -0.4635
  173SAPS   C2319650   1.312   5.837   4.427  0.0002 -0.0147  0.6588
  173SAPS   H3R19651   1.203   5.853   4.444 -0.2428 -0.6691 -0.1484
  173SAPS   H3S19652   1.378   5.921   4.453 -0.6527  0.5189  0.6193
  173SAPS   C2419653   1.357   5.718   4.514 -0.1960  0.5946 -0.4516
  173SAPS   H4R19654   1.295   5.632   4.482  0.0903 -0.4890  1.7445
  173SAPS   H4S19655   1.328   5.739   4.619 -0.6561  0.0756 -0.4678
  173SAPS   C2519656   1.512   5.702   4.507  0.1286  0.7826 -0.1212
  173SAPS   H5R19657   1.550   5.720   4.405 -1.1246 -0.2921 -0.7968
  173SAPS   C2619658   1.598   5.685   4.608  0.3946  0.1486 -0.0379
  173SAPS   H6R19659   1.705   5.663   4.592  0.0384 -0.4307 -1.8202
  173SAPS   C2719660   1.560   5.649   4.746 -0.5384 -0.4106  0.2624
  173SAPS   H7R19661   1.451   5.652   4.769 -0.1359 -0.3154  2.4338
  173SAPS   H7S19662   1.600   5.732   4.809 -0.4723 -1.6116  1.8865
  173SAPS   C2819663   1.615   5.526   4.798  0.3069 -0.0199  0.2552
  173SAPS   H8R19664   1.557   5.438   4.765 -4.4254  2.1710  1.8739
  173SAPS   C2919665   1.725   5.502   4.875 -0.4591 -0.4842 -0.3630
  173SAPS   H9R19666   1.738   5.396   4.900 -2.7412 -1.1591 -1.7630
  173SAPS  C21019667   1.819   5.602   4.945  0.3426  0.1722 -0.1824
  173SAPS  H10R19668   1.779   5.705   4.945  1.6901  0.7276  1.0102
  173SAPS  H10S19669   1.918   5.605   4.894  1.5471 -0.1788  2.0213
  173SAPS  C21119670   1.845   5.548   5.088  0.4110  0.1452  0.1980
  173SAPS  H11R19671   1.945   5.504   5.099 -0.2254 -1.5627 -0.4081
  173SAPS  C21219672   1.754   5.537   5.189 -0.2900 -0.1379  0.6937
  173SAPS  H12R19673   1.791   5.503   5.287 -2.7951 -0.2461  1.6661
  173SAPS  C21319674   1.615   5.604   5.185 -0.3087  0.3600  0.4645
  173SAPS  H13R19675   1.579   5.622   5.081  0.5111 -0.4096  0.0310
  173SAPS  H13S19676   1.604   5.703   5.233 -1.7358 -0.4995  2.0373
  173SAPS  C21419677   1.535   5.502   5.267  0.4966  0.3384  0.7730
  173SAPS  H14R19678   1.513   5.416   5.201 -0.0700  0.3196  0.9820
  173SAPS  C21519679   1.512   5.491   5.398 -0.4134 -0.4364  0.2419
  173SAPS  H15R19680   1.453   5.403   5.427  2.8074 -2.3950  1.3726
  173SAPS  C21619681   1.550   5.597   5.497 -0.2204 -0.0640  0.1169
  173SAPS  H16R19682   1.460   5.652   5.533  0.3870  0.5676  0.6998
  173SAPS  H16S19683   1.617   5.672   5.451  0.1256 -0.8533 -0.6889
  173SAPS  C21719684   1.614   5.552   5.629  0.3686 -0.3922  0.4199
  173SAPS  H17R19685   1.560   5.472   5.684 -0.1596 -0.1860  0.2052
  173SAPS  H17S19686   1.619   5.646   5.689  1.8270  0.6399 -1.2256
  173SAPS  C21819687   1.760   5.499   5.604 -0.4511  0.3194 -0.7113
  173SAPS  H18R19688   1.818   5.568   5.540 -0.8498  0.2952 -1.1095
  173SAPS  H18S19689   1.752   5.408   5.540  0.8542  0.1644 -0.6676
  173SAPS  C21919690   1.833   5.465   5.733 -0.2836  0.1603  0.0677
  173SAPS  H19R19691   1.828   5.555   5.798  1.3837  1.5601 -1.5915
  173SAPS  H19S19692   1.940   5.466   5.701 -0.8452  2.7852 -2.1480
  173SAPS  C22019693   1.801   5.336   5.801 -0.2639  0.4801 -0.1775
  173SAPS  H20R19694   1.700   5.333   5.846 -1.0775 -0.4220 -1.9775
  173SAPS  H20S19695   1.881   5.313   5.875 -0.7760 -0.4891  0.0895
  173SAPS  H20T19696   1.819   5.253   5.729  1.0484  1.1878 -0.7014
  173SAPS   C3319697   0.879   6.140   4.345 -0.2626  0.0046 -0.1848
  173SAPS   H3X19698   0.944   6.228   4.365 -3.2681  2.4916 -0.5377
  173SAPS   H3Y19699   0.947   6.055   4.323 -1.6029 -0.5489 -2.5953
  173SAPS   C3419700   0.780   6.126   4.462 -0.5393 -0.4567  0.0250
  173SAPS   H4X19701   0.727   6.036   4.423  0.5085 -1.2587  0.4051
  173SAPS   H4Y19702   0.693   6.193   4.475 -1.0103 -1.3254  1.6485
  173SAPS   C3519703   0.850   6.099   4.595  0.3360 -0.1017  0.6639
  173SAPS   H5X19704   0.891   6.198   4.624  1.2713 -0.5379  0.8642
  173SAPS   H5Y19705   0.942   6.040   4.574  1.2930  1.6881 -0.4558
  173SAPS   C3619706   0.760   6.038   4.713 -0.1858 -0.3685  0.0336
  173SAPS   H6X19707   0.714   5.940   4.688 -1.9722  0.0102  1.5914
  173SAPS   H6Y19708   0.683   6.114   4.738 -0.4784 -0.9145  0.8525
  173SAPS   C3719709   0.858   6.019   4.838 -0.5556 -0.8304  0.6880
  173SAPS   H7X19710   0.933   6.100   4.823 -1.8011  0.8479  3.0661
  173SAPS   H7Y19711   0.912   5.922   4.833  1.1225  0.0699  0.5204
  173SAPS   C3819712   0.795   6.023   4.982 -0.2069 -0.4777 -0.2945
  173SAPS   H8X19713   0.729   5.934   4.990  1.3748 -1.7597 -1.1422
  173SAPS   H8Y19714   0.739   6.117   5.003  0.8751  0.4745 -1.5084
  173SAPS   C3919715   0.908   6.011   5.086 -0.1007 -0.1854  0.1311
  173SAPS   H9X19716   0.969   6.102   5.068 -2.5306  1.2623 -1.4809
  173SAPS   H9Y19717   0.973   5.925   5.061  0.5083  0.9244 -2.4855
  173SAPS  C31019718   0.854   5.984   5.227 -0.4933 -0.6621 -0.3817
  173SAPS  H10X19719   0.850   5.874   5.240 -0.0218 -0.7863 -1.1931
  173SAPS  H10Y19720   0.752   6.024   5.246 -0.5949 -0.2464 -1.7027
  173SAPS  C31119721   0.938   6.048   5.339  0.2625  0.2305 -0.3784
  173SAPS  H11X19722   0.947   6.159   5.328  1.9409  0.2842  1.0846
  173SAPS  H11Y19723   1.036   5.997   5.329  0.2645  0.0202  0.6223
  173SAPS  C31219724   0.873   6.005   5.470 -0.4683  0.0730 -0.4143
  173SAPS  H12X19725   0.852   5.896   5.464 -1.1008  0.1815 -0.2350
  173SAPS  H12Y19726   0.771   6.050   5.468 -1.1577 -1.4403 -0.7626
  173SAPS  C31319727   0.962   6.037   5.588 -0.0730  0.5401  0.4486
  173SAPS  H13X19728   0.993   6.143   5.598 -0.3981  0.8210 -1.2118
  173SAPS  H13Y19729   1.055   5.976   5.585 -0.4237 -0.0030  0.4879
  173SAPS  C31419730   0.890   6.016   5.714  0.3485 -0.4055 -0.2729
  173SAPS  H14X19731   0.969   6.017   5.792 -0.7147 -1.7997  0.8856
  173SAPS  H14Y19732   0.843   5.915   5.716  1.8633 -1.1342 -0.0845
  173SAPS  C31519733   0.775   6.115   5.738  0.1831  0.2672  0.0727
  173SAPS  H15X19734   0.684   6.092   5.678 -0.1362 -0.2999  0.7577
  173SAPS  H15Y19735   0.819   6.215   5.716  0.3476  0.1695 -0.0345
  173SAPS  C31619736   0.743   6.116   5.885  0.1246 -0.1184  0.0390
  173SAPS  H16X19737   0.704   6.217   5.911  1.8349  0.8514 -0.9194
  173SAPS  H16Y19738   0.841   6.106   5.938 -0.2418  2.3429  1.3588
  173SAPS  C31719739   0.650   5.991   5.924  0.2614 -0.5416 -0.2492
  173SAPS  H17X19740   0.642   5.983   6.034 -0.4728  0.7078 -0.1979
  173SAPS  H17Y19741   0.705   5.895   5.908 -0.3464 -0.7308 -1.3783
  173SAPS  C31819742   0.510   5.999   5.870 -0.0286  0.5380  0.2352
  173SAPS  H18X19743   0.507   5.958   5.766  1.9624  2.7190 -0.7823
  173SAPS  H18Y19744   0.486   6.107   5.875  0.0308  0.4938  1.6088
  173SAPS  H18Z19745   0.431   5.945   5.927  0.2084  0.8811  0.8964
  174SAPS     N19746   0.923   0.944   3.619  0.0320 -0.5132 -0.2465
  174SAPS   HN119747   0.831   0.959   3.664  0.8108  1.6166  0.7997
  174SAPS   HN219748   0.978   1.019   3.666 -3.0442  0.5763  1.9602
  174SAPS   HN319749   0.918   0.966   3.517  0.4610 -0.0225 -0.1654
  174SAPS   C1219750   0.969   0.815   3.637 -0.5066  0.0989 -0.0884
  174SAPS  H12A19751   0.915   0.791   3.727 -0.7059 -0.8907 -0.4548
  174SAPS   C1319752   0.937   0.707   3.528  0.1986 -0.8943 -0.4629
  174SAPS  O13A19753   0.881   0.740   3.422 -0.0496  0.0782 -0.2178
  174SAPS  O13B19754   0.981   0.589   3.544 -0.1767 -0.2980 -0.6424
  174SAPS   C1119755   1.118   0.829   3.671 -0.5942  0.2586 -0.3056
  174SAPS  H11A19756   1.163   0.869   3.577 -0.8697 -2.8362 -1.9015
  174SAPS  H11B19757   1.158   0.726   3.685  0.5100  0.4387 -1.7817
  174SAPS     P19758   1.264   0.906   3.874  0.0228 -0.3778  0.2464
  174SAPS   O1319759   1.353   0.800   3.816 -0.3610 -0.2029  0.4426
  174SAPS   O1419760   1.323   1.036   3.912 -0.1434  0.2775 -0.8282
  174SAPS   O1219761   1.134   0.914   3.792  0.5960 -0.0473  0.5239
  174SAPS   O1119762   1.214   0.846   4.010  0.7959 -0.1656  0.0387
  174SAPS    C119763   1.142   0.724   3.994  0.5176 -0.2281  0.1292
  174SAPS    HA19764   1.058   0.729   3.921  1.0337  1.1648 -0.4073
  174SAPS    HB19765   1.209   0.643   3.959  0.0837 -0.1891 -0.8354
  174SAPS    C219766   1.092   0.690   4.130 -0.0530 -0.1194 -0.5045
  174SAPS    HS19767   1.068   0.787   4.179  0.0609  0.0348 -0.7564
  174SAPS   O2119768   1.194   0.621   4.204 -0.0345 -0.2075 -0.6055
  174SAPS   C2119769   1.281   0.703   4.277  0.2183  0.1351 -0.5763
  174SAPS   O2219770   1.283   0.823   4.274  0.0674  0.0644  0.1191
  174SAPS   C2219771   1.379   0.611   4.355 -0.6979 -0.3924 -1.0174
  174SAPS   H2R19772   1.445   0.566   4.278 -2.4085 -1.8187 -1.7172
  174SAPS   H2S19773   1.436   0.680   4.421 -2.4852  1.4012 -1.2677
  174SAPS    C319774   0.963   0.606   4.130 -0.4915 -0.5298 -0.4867
  174SAPS    HX19775   0.981   0.512   4.073 -1.2546 -1.7690  1.2022
  174SAPS    HY19776   0.892   0.658   4.063  1.3385  0.5732 -1.6569
  174SAPS   O3119777   0.922   0.589   4.273 -0.1212 -0.0530  0.1630
  174SAPS   C3119778   0.928   0.462   4.318 -0.2918  0.6680  0.4289
  174SAPS   O3219779   0.959   0.365   4.258 -0.2002 -0.1588  0.0267
  174SAPS   C3219780   0.875   0.466   4.463  0.5706 -0.1394 -0.4019
  174SAPS   H2X19781   0.765   0.479   4.458  0.5556  1.1975  1.9397
  174SAPS   H2Y19782   0.907   0.551   4.527 -2.8287  2.8243 -2.2432
  174SAPS   C2319783   1.310   0.504   4.446  0.0735  1.1485  0.7418
  174SAPS   H3R19784   1.385   0.440   4.496 -1.7906 -0.6136  1.4256
  174SAPS   H3S19785   1.265   0.440   4.367  0.8630 -0.8604  1.8607
  174SAPS   C2419786   1.213   0.561   4.548 -1.2739 -0.4264 -0.3608
  174SAPS   H4R19787   1.143   0.482   4.580  0.8734 -3.0957 -1.8572
  174SAPS   H4S19788   1.148   0.630   4.491  1.3581  0.4640 -2.5320
  174SAPS   C2519789   1.283   0.630   4.663  0.0394  1.6769  0.7182
  174SAPS   H5R19790   1.326   0.729   4.638 -2.6573  3.0068  1.0056
  174SAPS   C2619791   1.279   0.592   4.796 -0.5227 -0.2919  0.0558
  174SAPS   H6R19792   1.332   0.646   4.876 -0.3110 -0.2227 -0.1308
  174SAPS   C2719793   1.218   0.464   4.838  0.3064 -0.1829 -0.4434
  174SAPS   H7R19794   1.257   0.437   4.939  0.4644 -0.2174 -0.5146
  174SAPS   H7S19795   1.256   0.382   4.774 -0.4629 -1.1819  0.3379
  174SAPS   C2819796   1.070   0.465   4.849 -0.3272 -0.1276  0.2175
  174SAPS   H8R19797   1.006   0.495   4.764  0.3983 -1.0213 -0.6715
  174SAPS   C2919798   0.999   0.439   4.958 -0.1607 -0.1907  0.0836
  174SAPS   H9R19799   0.893   0.413   4.943  0.1554 -1.8458  0.4217
  174SAPS  C21019800   1.055   0.395   5.094  0.0862 -0.0284  1.0221
  174SAPS  H10R19801   1.128   0.315   5.070  1.6577  1.6332 -0.0215
  174SAPS  H10S19802   0.980   0.326   5.137  0.9176 -1.5219  0.1491
  174SAPS  C21119803   1.132   0.495   5.175 -0.0029 -0.2900  0.2327
  174SAPS  H11R19804   1.184   0.578   5.124  1.6927 -0.5079  1.5319
  174SAPS  C21219805   1.157   0.496   5.312  0.8140 -0.1485  0.2295
  174SAPS  H12R19806   1.217   0.578   5.356 -0.6517  1.8581 -1.3137
  174SAPS  C21319807   1.094   0.398   5.405 -0.5939 -0.0567  0.0631
  174SAPS  H13R19808   1.061   0.309   5.347  0.4888 -0.8740  0.6587
  174SAPS  H13S19809   1.001   0.435   5.454 -0.7599 -0.2658 -0.0908
  174SAPS  C21419810   1.203   0.359   5.509  0.1673  0.5811  0.2903
  174SAPS  H14R19811   1.288   0.301   5.469 -0.2910 -1.4050  2.0415
  174SAPS  C21519812   1.215   0.400   5.637  0.2434  0.6180  0.1588
  174SAPS  H15R19813   1.309   0.372   5.687  1.1331 -0.3119 -1.9130
  174SAPS  C21619814   1.118   0.488   5.713  0.0946 -0.6716 -0.7980
  174SAPS  H16R19815   1.063   0.415   5.777 -0.1542 -0.7903 -1.1466
  174SAPS  H16S19816   1.043   0.546   5.656  0.1382 -1.7092 -1.9454
  174SAPS  C21719817   1.174   0.593   5.819 -0.0079 -0.0091 -0.3647
  174SAPS  H17R19818   1.267   0.619   5.765 -0.0926 -1.6960 -1.4020
  174SAPS  H17S19819   1.205   0.537   5.911  1.7533  0.8094 -0.4267
  174SAPS  C21819820   1.093   0.723   5.853  0.1425  0.1369  0.3074
  174SAPS  H18R19821   0.987   0.696   5.870  0.1211 -0.4310 -0.6915
  174SAPS  H18S19822   1.098   0.788   5.764  0.4261 -0.0151  0.2100
  174SAPS  C21919823   1.149   0.797   5.981  0.5349  0.5923 -0.3004
  174SAPS  H19R19824   1.127   0.906   5.974  0.6407  0.6000 -0.5593
  174SAPS  H19S19825   1.259   0.780   5.978  0.2486 -1.4144 -0.9158
  174SAPS  C22019826   1.097   0.736   6.112 -0.1494  0.2192  0.7879
  174SAPS  H20R19827   0.988   0.735   6.133  0.0871 -1.8761  2.3153
  174SAPS  H20S19828   1.134   0.789   6.202  0.3042 -0.4049  0.9795
  174SAPS  H20T19829   1.132   0.631   6.124  0.2757  0.2239 -0.3338
  174SAPS   C3319830   0.881   0.326   4.537 -0.0216  0.2393  0.5584
  174SAPS   H3X19831   0.982   0.300   4.576  0.7075  0.0002 -1.3836
  174SAPS   H3Y19832   0.856   0.238   4.475  1.2917 -0.3662  0.8360
  174SAPS   C3419833   0.775   0.326   4.652  0.3765  0.2243  0.8435
  174SAPS   H4X19834   0.670   0.341   4.616  0.7513  1.8057  0.3253
  174SAPS   H4Y19835   0.784   0.419   4.711 -1.2733  0.2588  1.1066
  174SAPS   C3519836   0.781   0.201   4.737  0.0918 -0.1940 -0.4147
  174SAPS   H5X19837   0.888   0.196   4.767  0.2956 -1.4475 -1.2722
  174SAPS   H5Y19838   0.752   0.116   4.673 -0.8833  2.0720 -3.1775
  174SAPS   C3619839   0.693   0.213   4.864  0.1240  0.1859 -0.2083
  174SAPS   H6X19840   0.587   0.204   4.834 -0.3248 -4.3015  2.0055
  174SAPS   H6Y19841   0.713   0.313   4.910  0.2703  1.3268 -2.6094
  174SAPS   C3719842   0.725   0.093   4.961 -0.8989  0.4212 -0.3439
  174SAPS   H7X19843   0.833   0.104   4.986 -0.4903 -2.5154 -0.5190
  174SAPS   H7Y19844   0.722  -0.002   4.903  2.7774  0.3920 -0.7707
  174SAPS   C3819845   0.628   0.111   5.075  0.6666 -0.0124  0.7949
  174SAPS   H8X19846   0.528   0.068   5.052  1.1339 -0.8371  0.2860
  174SAPS   H8Y19847   0.603   0.217   5.096 -0.2994  0.0196 -0.3936
  174SAPS   C3919848   0.689   0.049   5.198 -0.0049 -0.0707 -0.2610
  174SAPS   H9X19849   0.724  -0.054   5.175 -0.3029 -0.5124  1.1568
  174SAPS   H9Y19850   0.618   0.043   5.283 -1.7070  1.1107 -1.5219
  174SAPS  C31019851   0.808   0.135   5.250 -0.3802  0.4851 -0.2794
  174SAPS  H10X19852   0.768   0.237   5.267 -0.1291  0.8242 -1.6137
  174SAPS  H10Y19853   0.882   0.140   5.168 -0.5356 -1.3219 -0.5761
  174SAPS  C31119854   0.874   0.084   5.380  0.3505  0.2452  0.0374
  174SAPS  H11X19855   0.985   0.085   5.375  0.3384 -1.1073 -2.1839
  174SAPS  H11Y19856   0.849  -0.024   5.379  0.7483  0.1412  0.6788
  174SAPS  C31219857   0.827   0.136   5.510  0.2060 -0.3088 -0.5527
  174SAPS  H12X19858   0.717   0.139   5.501  0.3168  0.9071 -1.6527
  174SAPS  H12Y19859   0.852   0.243   5.525 -1.3228 -0.0441  0.3443
  174SAPS  C31319860   0.877   0.046   5.630 -0.6397  0.7003  0.2387
  174SAPS  H13X19861   0.985   0.071   5.634 -0.7045  1.0019  0.1111
  174SAPS  H13Y19862   0.869  -0.063   5.609  1.6320  0.7146 -0.9415
  174SAPS  C31419863   0.810   0.079   5.767 -0.4164  0.7053  0.4120
  174SAPS  H14X19864   0.839  -0.008   5.829  2.3908  0.7950 -0.6191
  174SAPS  H14Y19865   0.704   0.109   5.752 -0.7523  1.0072  2.8861
  174SAPS  C31519866   0.881   0.203   5.832  0.7746  0.6493  0.1883
  174SAPS  H15X19867   0.855   0.281   5.757  2.0199  0.1843 -0.7526
  174SAPS  H15Y19868   0.989   0.179   5.843  0.2497 -0.7029  3.6533
  174SAPS  C31619869   0.814   0.230   5.968  0.1027  0.5282  0.3995
  174SAPS  H16X19870   0.845   0.148   6.036  0.5566 -0.5627 -1.0782
  174SAPS  H16Y19871   0.705   0.236   5.947  0.2366  1.0592 -0.1560
  174SAPS  C31719872   0.852   0.366   6.019  0.6750  0.4921 -0.0580
  174SAPS  H17X19873   0.815   0.447   5.953 -0.0964  1.8665  1.9786
  174SAPS  H17Y19874   0.962   0.380   6.027  0.6978 -0.5905  3.2156
  174SAPS  C31819875   0.797   0.383   6.163  0.7949  0.1711 -1.0368
  174SAPS  H18X19876   0.689   0.406   6.161  0.2260 -2.0098  0.7056
  174SAPS  H18Y19877   0.844   0.469   6.216 -0.6379 -0.9275  2.2201
  174SAPS  H18Z19878   0.803   0.291   6.224  1.7555  1.1301  0.3579
  175SAPS     N19879   5.133   3.983   3.746  0.4315 -0.2795 -1.0851
  175SAPS   HN119880   5.124   4.024   3.841  0.4055 -0.4584 -1.0106
  175SAPS   HN219881   5.055   4.012   3.682 -0.3308  1.1109  0.3969
  175SAPS   HN319882   5.139   3.879   3.746 -0.4216 -0.3494 -2.1833
  175SAPS   C1219883   5.264   4.025   3.684  0.3984  0.0986 -1.0558
  175SAPS  H12A19884   5.338   3.987   3.753 -1.0044  0.1845  0.5555
  175SAPS   C1319885   5.289   3.987   3.542  0.2003 -0.6621 -0.0267
  175SAPS  O13A19886   5.208   3.906   3.485  0.0561 -0.0456  0.2578
  175SAPS  O13B19887   5.381   4.043   3.478  0.4517  0.3712  0.6904
  175SAPS   C1119888   5.267   4.178   3.698 -0.1220  0.2384  0.3681
  175SAPS  H11A19889   5.197   4.225   3.626  1.7172 -0.0642 -1.7262
  175SAPS  H11B19890   5.371   4.203   3.669 -0.4522  0.1617 -0.9368
  175SAPS     P19891   5.213   4.356   3.878  0.2464  0.0714  0.1349
  175SAPS   O1319892   5.292   4.457   3.803  0.3030 -0.2133 -0.0543
  175SAPS   O1419893   5.066   4.367   3.859 -0.0672 -0.6326 -0.0698
  175SAPS   O1219894   5.257   4.210   3.841  0.4646  0.2194 -0.1520
  175SAPS   O1119895   5.247   4.355   4.031 -0.8349 -0.3159 -0.4535
  175SAPS    C119896   5.359   4.286   4.076  0.3918  0.1290  0.2588
  175SAPS    HA19897   5.344   4.177   4.092  0.4894  0.1282  0.3466
  175SAPS    HB19898   5.445   4.292   4.006  1.2944 -0.5755  1.2693
  175SAPS    C219899   5.418   4.355   4.201  0.4465 -0.1174 -0.7288
  175SAPS    HS19900   5.523   4.328   4.225  0.0869 -1.3888 -0.5118
  175SAPS   O2119901   5.338   4.341   4.324 -0.4234 -0.2542  0.6601
  175SAPS   C2119902   5.367   4.220   4.378  0.3490  0.7085 -0.5473
  175SAPS   O2219903   5.425   4.130   4.325 -0.1809  0.8514  0.4282
  175SAPS   C2219904   5.288   4.213   4.504  0.1148 -0.1963 -0.1971
  175SAPS   H2R19905   5.340   4.279   4.578 -1.0302  0.7178 -0.1737
  175SAPS   H2S19906   5.184   4.248   4.483 -1.9064 -4.8393  0.9377
  175SAPS    C319907   5.428   4.510   4.175  0.2712  0.2851  0.8199
  175SAPS    HX19908   5.337   4.544   4.121  0.6612 -0.9549 -0.6929
  175SAPS    HY19909   5.505   4.512   4.095 -1.6735  1.7445 -1.1528
  175SAPS   O3119910   5.485   4.595   4.281  0.0857  0.5460 -0.0979
  175SAPS   C3119911   5.395   4.645   4.364 -0.8717  0.0841 -0.5238
  175SAPS   O3219912   5.277   4.638   4.348  0.2735 -0.4841  0.2786
  175SAPS   C3219913   5.459   4.734   4.474 -0.8637  0.5710  0.4035
  175SAPS   H2X19914   5.444   4.842   4.450 -1.1663  1.4046  3.7235
  175SAPS   H2Y19915   5.567   4.709   4.478 -0.7480  0.7152 -1.3355
  175SAPS   C2319916   5.274   4.071   4.565 -0.3204 -0.0606  0.1323
  175SAPS   H3R19917   5.367   4.012   4.549  0.5804  0.3061  3.1967
  175SAPS   H3S19918   5.193   4.012   4.518 -1.3269  0.2581  1.4164
  175SAPS   C2419919   5.249   4.068   4.715 -0.5235 -0.6485  0.5617
  175SAPS   H4R19920   5.157   4.120   4.748  0.1115  0.1121  1.1632
  175SAPS   H4S19921   5.330   4.129   4.760 -1.0581 -0.2608  1.0089
  175SAPS   C2519922   5.253   3.933   4.760  0.0588  1.0128  0.1786
  175SAPS   H5R19923   5.233   3.852   4.688 -0.8029 -0.1840  1.6842
  175SAPS   C2619924   5.259   3.894   4.891  0.1490 -0.0415 -0.1676
  175SAPS   H6R19925   5.279   3.787   4.911  0.4579  0.3390  1.7748
  175SAPS   C2719926   5.301   3.991   5.007  0.2335  1.4374 -0.1533
  175SAPS   H7R19927   5.361   4.074   4.964  2.4109 -1.1225 -2.4147
  175SAPS   H7S19928   5.384   3.940   5.059 -0.7289 -1.2773 -1.1230
  175SAPS   C2819929   5.189   4.043   5.099  0.1135 -0.1176  0.3958
  175SAPS   H8R19930   5.126   4.122   5.054  1.0421 -0.5749 -1.8444
  175SAPS   C2919931   5.158   4.007   5.221  0.3492  0.5871 -0.7729
  175SAPS   H9R19932   5.082   4.067   5.273  1.3525 -0.1074  1.6314
  175SAPS  C21019933   5.242   3.907   5.308  0.0726 -0.4592  0.7243
  175SAPS  H10R19934   5.347   3.940   5.316 -0.3456  0.7809  1.4299
  175SAPS  H10S19935   5.257   3.813   5.251  1.3599  1.4098 -2.2561
  175SAPS  C21119936   5.176   3.883   5.437 -0.0893 -0.3180  0.3429
  175SAPS  H11R19937   5.066   3.876   5.431 -0.2871 -1.8373  3.6750
  175SAPS  C21219938   5.233   3.859   5.556 -0.1623  0.8094  0.2667
  175SAPS  H12R19939   5.169   3.825   5.639 -1.4773 -0.7079 -1.2969
  175SAPS  C21319940   5.384   3.873   5.590 -0.0948 -0.1075 -0.2563
  175SAPS  H13R19941   5.442   3.824   5.508 -4.6847 -3.3538 -2.0182
  175SAPS  H13S19942   5.401   3.816   5.683  1.8409  0.2421 -0.3481
  175SAPS  C21419943   5.419   4.014   5.591 -0.1232 -0.1894 -0.2598
  175SAPS  H14R19944   5.400   4.059   5.493  1.5114  1.7040  0.2396
  175SAPS  C21519945   5.475   4.087   5.684  0.1041  0.0827  0.1063
  175SAPS  H15R19946   5.499   4.192   5.663 -1.0326  0.0042 -1.7922
  175SAPS  C21619947   5.515   4.038   5.821  0.4099 -0.0103  0.3662
  175SAPS  H16R19948   5.558   3.936   5.822 -0.0945 -0.2812 -1.7527
  175SAPS  H16S19949   5.423   4.026   5.883  0.6207 -0.7344  0.5440
  175SAPS  C21719950   5.616   4.133   5.883  0.3119 -0.5246  0.5445
  175SAPS  H17R19951   5.691   4.153   5.805  0.0855 -1.3846  0.0939
  175SAPS  H17S19952   5.669   4.076   5.963  1.6415 -0.0107  0.0488
  175SAPS  C21819953   5.548   4.257   5.944  0.3353  0.5448 -0.2025
  175SAPS  H18R19954   5.480   4.229   6.027 -0.4779  0.3866 -0.9015
  175SAPS  H18S19955   5.486   4.308   5.867 -0.1537  1.1523  0.5765
  175SAPS  C21919956   5.658   4.349   5.990  0.5036 -0.1269 -0.6850
  175SAPS  H19R19957   5.704   4.406   5.906 -1.1953  1.3089 -0.7042
  175SAPS  H19S19958   5.737   4.289   6.041 -0.2776 -0.9030 -0.3489
  175SAPS  C22019959   5.627   4.469   6.086  0.6310  0.1699  0.2322
  175SAPS  H20R19960   5.542   4.522   6.037  0.3232  0.0850  0.6698
  175SAPS  H20S19961   5.724   4.522   6.093  0.7168 -0.0921  1.0985
  175SAPS  H20T19962   5.594   4.437   6.187 -0.0715  1.8591  0.5766
  175SAPS   C3319963   5.399   4.705   4.620  0.5469 -0.3464 -0.0133
  175SAPS   H3X19964   5.424   4.601   4.650 -0.6552 -0.7645 -0.3806
  175SAPS   H3Y19965   5.290   4.725   4.628  0.8950  0.9405  2.3900
  175SAPS   C3419966   5.476   4.800   4.713  0.2615 -0.6926 -0.6919
  175SAPS   H4X19967   5.585   4.777   4.708  0.8775  1.5911  0.6744
  175SAPS   H4Y19968   5.443   4.779   4.817 -3.2916  1.1416 -1.3022
  175SAPS   C3519969   5.459   4.957   4.699 -0.3069  0.3292 -0.4615
  175SAPS   H5X19970   5.491   4.988   4.597 -3.2829  0.5602 -1.4061
  175SAPS   H5Y19971   5.510   5.007   4.784  1.9345 -2.5112  0.0230
  175SAPS   C3619972   5.319   5.008   4.721  0.4744  0.1058 -0.4012
  175SAPS   H6X19973   5.228   4.956   4.685 -1.7383  0.6582  3.7811
  175SAPS   H6Y19974   5.309   5.114   4.690 -0.0425  1.0675  2.7524
  175SAPS   C3719975   5.278   5.006   4.875 -0.2528  0.4010 -0.2203
  175SAPS   H7X19976   5.359   5.045   4.940  2.3737 -2.3370 -1.5920
  175SAPS   H7Y19977   5.256   4.903   4.907 -0.3796  1.0744  2.0396
  175SAPS   C3819978   5.149   5.092   4.902 -0.2846  0.2053 -0.1369
  175SAPS   H8X19979   5.081   5.052   4.824 -1.3143  0.1684  0.7621
  175SAPS   H8Y19980   5.160   5.200   4.878  2.3529  0.0794  0.2323
  175SAPS   C3919981   5.095   5.068   5.045 -0.2780  0.3737 -0.1050
  175SAPS   H9X19982   5.118   4.961   5.065  1.1243  0.5931 -0.4187
  175SAPS   H9Y19983   4.984   5.076   5.042 -0.5449 -1.5126  2.1892
  175SAPS  C31019984   5.151   5.155   5.161 -0.6419  0.0362 -0.5737
  175SAPS  H10X19985   5.122   5.261   5.148  1.8457  1.0370  1.2431
  175SAPS  H10Y19986   5.261   5.138   5.157 -0.6363 -0.1987  0.2725
  175SAPS  C31119987   5.120   5.102   5.302  0.1220 -0.4351 -0.5633
  175SAPS  H11X19988   5.153   4.998   5.320  0.0742 -0.1481  1.3445
  175SAPS  H11Y19989   5.009   5.103   5.301  0.0824  1.4229 -2.4441
  175SAPS  C31219990   5.167   5.191   5.417 -0.8456 -0.1170  0.0692
  175SAPS  H12X19991   5.274   5.218   5.412 -1.3312  1.7870 -0.9462
  175SAPS  H12Y19992   5.147   5.153   5.520 -0.0722  1.0234  0.6606
  175SAPS  C31319993   5.109   5.333   5.409 -0.1159 -0.0445 -0.4161
  175SAPS  H13X19994   5.002   5.317   5.430  0.4127 -2.1133  1.0500
  175SAPS  H13Y19995   5.122   5.373   5.306  0.3312  0.5142 -0.1552
  175SAPS  C31419996   5.186   5.424   5.501 -0.7678 -0.4268  0.9088
  175SAPS  H14X19997   5.129   5.517   5.483  0.3549  0.2332  0.6785
  175SAPS  H14Y19998   5.289   5.443   5.464  0.0580 -1.7226  2.3940
  175SAPS  C31519999   5.181   5.393   5.649  0.4416  0.7321  0.5555
  175SAPS  H15X20000   5.222   5.291   5.668 -0.4212 -1.1405 -5.4405
  175SAPS  H15Y20001   5.075   5.369   5.672  1.0036 -0.8074  1.7612
  175SAPS  C31620002   5.232   5.499   5.748  0.2786  0.2158 -0.0783
  175SAPS  H16X20003   5.170   5.590   5.738 -0.6558 -0.2893  0.9641
  175SAPS  H16Y20004   5.336   5.523   5.716  0.3388 -0.2266 -0.2148
  175SAPS  C31720005   5.229   5.446   5.900 -0.7076 -0.4425 -0.1988
  175SAPS  H17X20006   5.267   5.523   5.971  0.2200 -0.9357 -0.1384
  175SAPS  H17Y20007   5.315   5.376   5.905 -1.2619 -1.0260  1.6507
  175SAPS  C31820008   5.095   5.401   5.960 -0.6334  0.0954 -0.0055
  175SAPS  H18X20009   5.006   5.465   5.937 -0.9924  0.5875  2.4094
  175SAPS  H18Y20010   5.105   5.400   6.071  2.4959 -0.2337 -0.2118
  175SAPS  H18Z20011   5.075   5.297   5.927  0.1287 -0.4607  1.1913
  176SAPS     N20012   3.391   2.221   3.413 -0.6443 -0.0190 -0.1390
  176SAPS   HN120013   3.376   2.156   3.334 -0.7565  0.8608 -0.8576
  176SAPS   HN220014   3.363   2.179   3.504 -0.1108  0.2666  0.1656
  176SAPS   HN320015   3.338   2.309   3.395 -1.8982 -0.5385  0.9062
  176SAPS   C1220016   3.536   2.250   3.408 -0.4485  0.4130 -0.2561
  176SAPS  H12A20017   3.582   2.162   3.366 -1.3566  1.1292 -2.9641
  176SAPS   C1320018   3.571   2.369   3.322 -0.2538 -0.1449 -0.4389
  176SAPS  O13A20019   3.475   2.421   3.260 -0.3359  0.3413  0.0323
  176SAPS  O13B20020   3.690   2.401   3.294  0.0180 -0.0525  0.1293
  176SAPS   C1120021   3.585   2.272   3.554  0.0054 -0.1103 -0.7225
  176SAPS  H11A20022   3.530   2.362   3.587 -0.3352  0.4570 -2.6755
  176SAPS  H11B20023   3.694   2.277   3.570 -0.4406  0.7941  2.6383
  176SAPS     P20024   3.608   2.039   3.677 -0.1618 -0.1091 -0.0777
  176SAPS   O1320025   3.517   1.954   3.753 -0.3573 -0.2761 -0.8656
  176SAPS   O1420026   3.655   1.992   3.542  0.0523  0.7882  0.4215
  176SAPS   O1220027   3.537   2.171   3.647 -0.6801  0.2328  0.3899
  176SAPS   O1120028   3.731   2.082   3.773 -0.1599 -0.1272 -0.2824
  176SAPS    C120029   3.737   2.201   3.853 -0.2007  0.1821  0.6083
  176SAPS    HA20030   3.706   2.286   3.790 -0.1137  1.4269  2.1863
  176SAPS    HB20031   3.667   2.200   3.939 -1.6780  2.6055 -0.4712
  176SAPS    C220032   3.889   2.226   3.892  0.5504 -0.2564 -0.2103
  176SAPS    HS20033   3.950   2.183   3.810  1.5382 -0.6117  0.6737
  176SAPS   O2120034   3.904   2.164   4.018 -0.3154 -0.0511  0.1788
  176SAPS   C2120035   4.029   2.163   4.068  0.5502 -0.1579 -0.6172
  176SAPS   O2220036   4.132   2.184   4.008  0.4735 -0.3301 -0.3358
  176SAPS   C2220037   4.023   2.124   4.218  0.1758 -0.0602 -0.2308
  176SAPS   H2R20038   3.967   2.206   4.268  0.8650 -1.2584  2.7248
  176SAPS   H2S20039   3.964   2.030   4.216  0.5704 -0.3074 -0.4205
  176SAPS    C320040   3.907   2.386   3.904 -0.6792 -0.4902 -0.3455
  176SAPS    HX20041   3.886   2.421   3.800  1.3931 -0.9609 -0.9678
  176SAPS    HY20042   4.013   2.418   3.905 -0.2449 -1.2136 -4.2118
  176SAPS   O3120043   3.809   2.446   3.992 -0.2845  0.3063 -0.0920
  176SAPS   C3120044   3.850   2.458   4.115  1.7568  0.4785 -0.8232
  176SAPS   O3220045   3.963   2.432   4.159 -0.0715  0.4534 -0.9441
  176SAPS   C3220046   3.725   2.508   4.205 -0.2319  0.3732  0.0690
  176SAPS   H2X20047   3.632   2.487   4.148  0.1642  0.0954 -0.4863
  176SAPS   H2Y20048   3.733   2.618   4.210  1.9987  0.2515  0.2113
  176SAPS   C2320049   4.167   2.100   4.280 -0.3784  0.3527 -0.1851
  176SAPS   H3R20050   4.241   2.182   4.267  0.6286 -0.8841 -3.3970
  176SAPS   H3S20051   4.204   2.019   4.213 -1.2024  0.7438 -1.1469
  176SAPS   C2420052   4.151   2.046   4.422  0.3462 -0.1766 -0.2694
  176SAPS   H4R20053   4.139   2.132   4.491 -2.8380 -0.9146  0.2325
  176SAPS   H4S20054   4.257   2.019   4.441  0.1216 -0.7191  0.2091
  176SAPS   C2520055   4.053   1.932   4.447  0.5093  0.3178  0.4769
  176SAPS   H5R20056   3.981   1.913   4.365  1.1863  0.4672 -0.1674
  176SAPS   C2620057   4.054   1.854   4.562 -0.4889 -0.2892 -0.2385
  176SAPS   H6R20058   3.967   1.792   4.586 -0.1925 -1.0248 -0.9963
  176SAPS   C2720059   4.158   1.878   4.671  0.2073  0.3661 -0.1317
  176SAPS   H7R20060   4.255   1.902   4.621 -0.6764  2.5619 -0.9391
  176SAPS   H7S20061   4.158   1.779   4.721 -0.4869  0.0371 -0.7616
  176SAPS   C2820062   4.135   1.986   4.777  0.4193  0.0524  0.6003
  176SAPS   H8R20063   4.058   2.057   4.744 -0.4252 -0.3366  1.6842
  176SAPS   C2920064   4.210   2.028   4.887  0.6868 -0.0851 -0.2934
  176SAPS   H9R20065   4.170   2.108   4.951  2.6510  1.5227 -0.9688
  176SAPS  C21020066   4.333   1.955   4.940 -0.1846 -0.7394 -0.2816
  176SAPS  H10R20067   4.395   2.030   4.995  1.0288 -1.2656 -0.8854
  176SAPS  H10S20068   4.409   1.918   4.867  0.5302  0.7844 -0.3435
  176SAPS  C21120069   4.294   1.846   5.036 -0.7295  0.4765 -0.1877
  176SAPS  H11R20070   4.283   1.747   4.990 -1.2387  0.2234  0.4620
  176SAPS  C21220071   4.243   1.870   5.160 -0.5975  0.4372 -0.2389
  176SAPS  H12R20072   4.231   1.781   5.223 -0.7553  0.1845 -0.6224
  176SAPS  C21320073   4.228   1.995   5.234  0.2961 -0.6409 -1.0359
  176SAPS  H13R20074   4.266   2.080   5.174  0.0631 -0.4196 -0.8788
  176SAPS  H13S20075   4.287   1.994   5.328 -0.6374  2.0025 -0.3252
  176SAPS  C21420076   4.073   2.008   5.265 -0.6265  0.1648  0.2200
  176SAPS  H14R20077   4.015   1.971   5.179  2.7303 -4.1634 -0.5026
  176SAPS  C21520078   4.014   2.043   5.389 -0.0539 -0.7347  0.1871
  176SAPS  H15R20079   3.905   2.054   5.398 -0.0050  0.1509 -0.2196
  176SAPS  C21620080   4.086   2.073   5.514  0.3037  0.7469 -0.4154
  176SAPS  H16R20081   4.172   2.143   5.508 -0.5921  2.1542  1.6491
  176SAPS  H16S20082   4.117   1.974   5.553 -0.3069  0.4513 -0.6761
  176SAPS  C21720083   4.009   2.128   5.636  0.7006 -0.1530  0.3945
  176SAPS  H17R20084   3.934   2.055   5.672 -0.1434  0.1450 -0.6957
  176SAPS  H17S20085   3.954   2.221   5.609  1.4992  0.3081  0.2842
  176SAPS  C21820086   4.103   2.162   5.750 -0.8349 -0.6996  0.6518
  176SAPS  H18R20087   4.173   2.242   5.716 -2.2819  0.6156  0.6547
  176SAPS  H18S20088   4.162   2.082   5.801  0.4993 -0.3780 -0.3418
  176SAPS  C21920089   4.038   2.220   5.875 -0.1211  0.4179  0.5305
  176SAPS  H19R20090   4.122   2.236   5.946 -0.3977  3.0887  0.3453
  176SAPS  H19S20091   3.968   2.141   5.909 -0.0724 -1.7254 -3.6541
  176SAPS  C22020092   3.960   2.348   5.854  0.5463 -0.3098  0.8258
  176SAPS  H20R20093   4.025   2.433   5.823 -1.2110  1.3034  1.3550
  176SAPS  H20S20094   3.901   2.383   5.942 -1.3196  0.1038 -0.5405
  176SAPS  H20T20095   3.890   2.332   5.770  1.3800  0.1012  0.0399
  176SAPS   C3320096   3.712   2.443   4.342  0.0560  0.3385 -0.2143
  176SAPS   H3X20097   3.619   2.487   4.382  0.4415  1.2539 -0.3019
  176SAPS   H3Y20098   3.798   2.464   4.410 -0.7244  3.0589  0.0256
  176SAPS   C3420099   3.707   2.287   4.339  1.2232  0.0491  0.4974
  176SAPS   H4X20100   3.767   2.229   4.265  1.1596 -3.1289  2.7064
  176SAPS   H4Y20101   3.601   2.254   4.326  1.0083  0.2058  1.7634
  176SAPS   C3520102   3.736   2.237   4.479  0.0585  0.0815 -0.3501
  176SAPS   H5X20103   3.842   2.256   4.506  0.2044  0.4288 -1.1292
  176SAPS   H5Y20104   3.742   2.127   4.488 -2.6054 -0.0027  1.9822
  176SAPS   C3620105   3.650   2.304   4.590 -0.1825 -0.4144 -0.8848
  176SAPS   H6X20106   3.543   2.278   4.578 -0.9262  1.9974 -0.0241
  176SAPS   H6Y20107   3.653   2.415   4.591 -0.0208 -0.4104  0.4528
  176SAPS   C3720108   3.683   2.253   4.738  0.3283  0.6393  0.3075
  176SAPS   H7X20109   3.651   2.147   4.747  1.3233  0.0102 -2.4683
  176SAPS   H7Y20110   3.622   2.319   4.804  3.2391  1.7242  2.0836
  176SAPS   C3820111   3.833   2.269   4.776  0.1460 -0.2623 -0.2636
  176SAPS   H8X20112   3.877   2.361   4.732  1.4910 -0.1720  1.1814
  176SAPS   H8Y20113   3.885   2.181   4.731  2.7105  0.3950  1.2384
  176SAPS   C3920114   3.863   2.268   4.930  0.0870  0.7942  0.1004
  176SAPS   H9X20115   3.973   2.265   4.945  0.2134 -1.3984 -0.7831
  176SAPS   H9Y20116   3.815   2.174   4.966 -1.5918  0.7080 -2.1687
  176SAPS  C31020117   3.803   2.393   5.000  0.0530  1.1013 -0.4780
  176SAPS  H10X20118   3.693   2.389   4.985  0.0623 -1.1922 -0.1902
  176SAPS  H10Y20119   3.853   2.485   4.963  0.1660  1.9035  1.5445
  176SAPS  C31120120   3.834   2.383   5.153  0.1920 -0.5708 -0.5185
  176SAPS  H11X20121   3.943   2.396   5.170  0.3228 -2.6203  0.5854
  176SAPS  H11Y20122   3.805   2.285   5.197 -1.9342  0.4188  0.4280
  176SAPS  C31220123   3.773   2.495   5.236 -0.1371 -0.2555 -1.0189
  176SAPS  H12X20124   3.665   2.503   5.211 -0.5606  0.0191  0.7390
  176SAPS  H12Y20125   3.828   2.587   5.208 -0.6516 -0.5057 -2.9395
  176SAPS  C31320126   3.793   2.462   5.386 -0.0133 -0.7078 -0.6512
  176SAPS  H13X20127   3.903   2.458   5.400 -0.1047  0.1411  0.4825
  176SAPS  H13Y20128   3.746   2.365   5.413 -0.1588 -0.2708  0.7270
  176SAPS  C31420129   3.749   2.577   5.483 -0.7703  0.0345  0.1601
  176SAPS  H14X20130   3.797   2.668   5.441 -1.0523 -0.5779 -1.5607
  176SAPS  H14Y20131   3.789   2.554   5.584 -1.8910  0.3823  0.7081
  176SAPS  C31520132   3.596   2.596   5.487 -0.0121  0.2717 -0.0039
  176SAPS  H15X20133   3.556   2.492   5.497 -0.9309  0.3305 -2.5183
  176SAPS  H15Y20134   3.552   2.614   5.387  1.5571  1.2760 -0.5423
  176SAPS  C31620135   3.543   2.695   5.596 -0.0248 -0.1719  0.5029
  176SAPS  H16X20136   3.436   2.685   5.623 -0.6234  0.7903 -1.3624
  176SAPS  H16Y20137   3.549   2.794   5.545 -0.8007 -0.8649 -0.9911
  176SAPS  C31720138   3.631   2.700   5.716 -0.6161  0.1051  0.5662
  176SAPS  H17X20139   3.732   2.745   5.702 -0.8319  0.5425  0.4285
  176SAPS  H17Y20140   3.645   2.595   5.752  0.0784 -0.1021 -0.2887
  176SAPS  C31820141   3.571   2.784   5.829 -0.1933  0.0843  0.1315
  176SAPS  H18X20142   3.471   2.743   5.854 -0.6644  0.6518 -0.7479
  176SAPS  H18Y20143   3.576   2.890   5.795  0.3788 -0.6887 -2.3919
  176SAPS  H18Z20144   3.630   2.785   5.923 -0.6625 -1.7191  0.4933
  177SAPS     N20145   0.562   1.181   3.994 -0.0926  0.7150 -0.2493
  177SAPS   HN120146   0.585   1.269   3.943  3.0553 -0.1315 -0.5197
  177SAPS   HN220147   0.468   1.198   4.035  1.2030  2.1715  2.3928
  177SAPS   HN320148   0.620   1.155   4.076  0.0078  1.1447 -0.1828
  177SAPS   C1220149   0.553   1.076   3.890 -0.6079 -0.1595  0.6615
  177SAPS  H12A20150   0.507   1.126   3.806  0.1237 -1.9901 -0.9108
  177SAPS   C1320151   0.687   1.017   3.839 -0.0505 -0.4436  0.7096
  177SAPS  O13A20152   0.793   1.048   3.897 -0.0818  0.1448 -0.4170
  177SAPS  O13B20153   0.684   0.935   3.744 -0.2907  0.2691 -0.8891
  177SAPS   C1120154   0.449   0.969   3.939 -0.0456  0.3584 -0.1322
  177SAPS  H11A20155   0.507   0.916   4.018  2.4550  1.0853 -1.3756
  177SAPS  H11B20156   0.425   0.891   3.864 -1.4147 -0.3424  0.9898
  177SAPS     P20157   0.215   0.937   4.057 -0.3309 -0.4207  0.2617
  177SAPS   O1320158   0.137   0.994   4.175 -0.2349 -0.3809  0.0867
  177SAPS   O1420159   0.133   0.894   3.943  0.9870 -0.3388  0.0148
  177SAPS   O1220160   0.334   1.036   4.002 -0.4245  1.0819 -0.2211
  177SAPS   O1120161   0.301   0.816   4.113 -0.4460  0.6794 -0.7215
  177SAPS    C120162   0.377   0.843   4.232 -0.1110 -0.5379 -0.5264
  177SAPS    HA20163   0.439   0.935   4.231 -0.2646 -0.4080  0.5793
  177SAPS    HB20164   0.311   0.844   4.321  0.7458  1.4989  0.1333
  177SAPS    C220165   0.482   0.729   4.237 -0.6580  0.4346 -0.7308
  177SAPS    HS20166   0.543   0.735   4.144 -0.4506  1.4146 -0.5397
  177SAPS   O2120167   0.417   0.602   4.239  0.3458 -0.0886 -0.2392
  177SAPS   C2120168   0.492   0.498   4.229 -0.2721  0.4190  0.0208
  177SAPS   O2220169   0.611   0.504   4.199  0.6592  0.0464 -0.3702
  177SAPS   C2220170   0.422   0.370   4.262 -0.5929  0.0434  0.2227
  177SAPS   H2R20171   0.314   0.385   4.282 -0.6799  0.5590 -0.5828
  177SAPS   H2S20172   0.416   0.310   4.169  3.9397 -1.0817  0.4167
  177SAPS    C320173   0.582   0.733   4.358  0.3981 -0.5072  0.7490
  177SAPS    HX20174   0.619   0.837   4.372 -0.0945 -0.0158 -1.3635
  177SAPS    HY20175   0.670   0.667   4.342 -1.4238 -2.8324 -0.2692
  177SAPS   O3120176   0.518   0.689   4.478 -0.2714 -0.1635 -0.6441
  177SAPS   C3120177   0.597   0.686   4.581  0.1065  0.3100 -0.4645
  177SAPS   O3220178   0.717   0.699   4.581 -0.8539 -0.3302  0.1260
  177SAPS   C3220179   0.504   0.688   4.701 -0.1221 -0.5867  0.0791
  177SAPS   H2X20180   0.399   0.660   4.679 -0.2197 -0.2119  0.0630
  177SAPS   H2Y20181   0.506   0.794   4.734 -1.4513 -0.0389 -1.4769
  177SAPS   C2320182   0.499   0.293   4.373  0.3421 -0.5645 -0.3171
  177SAPS   H3R20183   0.504   0.341   4.474  1.0283  1.3998 -1.2406
  177SAPS   H3S20184   0.605   0.309   4.344  0.5043  1.7154  1.2205
  177SAPS   C2420185   0.469   0.146   4.387 -0.1896  1.7401  0.3629
  177SAPS   H4R20186   0.532   0.088   4.458  0.1328  0.3085 -1.0441
  177SAPS   H4S20187   0.492   0.099   4.289 -0.7095 -0.2362  1.1372
  177SAPS   C2520188   0.333   0.104   4.428  0.2195  0.0280  0.0249
  177SAPS   H5R20189   0.280   0.051   4.348  0.8766 -1.2606  0.4178
  177SAPS   C2620190   0.275   0.109   4.547  0.0783 -0.2047 -0.5351
  177SAPS   H6R20191   0.170   0.080   4.560  0.1843 -0.9691 -1.3435
  177SAPS   C2720192   0.328   0.173   4.670 -0.0433 -0.2694 -0.6776
  177SAPS   H7R20193   0.254   0.243   4.715  0.3246 -0.1964 -0.1785
  177SAPS   H7S20194   0.422   0.232   4.668  0.8290 -1.3283  2.2579
  177SAPS   C2820195   0.361   0.060   4.761  0.0788 -0.1668 -0.4931
  177SAPS   H8R20196   0.438  -0.007   4.721  0.7361 -0.5847  1.4152
  177SAPS   C2920197   0.312   0.040   4.889  0.0417  0.1348  0.0506
  177SAPS   H9R20198   0.346  -0.048   4.946 -0.3870  0.0445  0.1684
  177SAPS  C21020199   0.206   0.134   4.945 -0.3031  0.5532  0.2663
  177SAPS  H10R20200   0.132   0.164   4.868 -0.8258  1.3062  1.0430
  177SAPS  H10S20201   0.264   0.224   4.973  3.2884 -0.6944 -2.3554
  177SAPS  C21120202   0.127   0.061   5.058  0.0504 -0.3971  0.2150
  177SAPS  H11R20203   0.055  -0.013   5.022 -1.5458  1.3704 -0.4371
  177SAPS  C21220204   0.134   0.073   5.188 -1.1586 -0.3583  0.1404
  177SAPS  H12R20205   0.067   0.013   5.251 -0.8565  1.2811  2.1406
  177SAPS  C21320206   0.238   0.157   5.261  0.7968  0.0571  0.7543
  177SAPS  H13R20207   0.178   0.234   5.314  1.7684  2.7786 -1.8595
  177SAPS  H13S20208   0.312   0.199   5.190 -1.8695 -0.3430 -2.5158
  177SAPS  C21420209   0.299   0.071   5.368  0.1341  0.0744  0.0553
  177SAPS  H14R20210   0.269  -0.035   5.375  1.5561 -0.3068  0.9746
  177SAPS  C21520211   0.387   0.119   5.459 -0.1209  0.4894 -0.3943
  177SAPS  H15R20212   0.422   0.058   5.543 -0.1593 -0.0319 -0.7523
  177SAPS  C21620213   0.446   0.258   5.468  0.1255  0.3125  0.1234
  177SAPS  H16R20214   0.403   0.318   5.385 -0.3315 -1.8108 -1.2657
  177SAPS  H16S20215   0.557   0.264   5.466  0.1567 -0.3749 -0.4175
  177SAPS  C21720216   0.381   0.329   5.591 -0.2764 -0.3901 -0.1067
  177SAPS  H17R20217   0.271   0.336   5.581 -0.4936 -1.2739  1.4174
  177SAPS  H17S20218   0.426   0.431   5.580  1.1094 -1.0248 -0.5411
  177SAPS  C21820219   0.410   0.268   5.724 -0.1370 -0.0589 -0.1366
  177SAPS  H18R20220   0.515   0.231   5.724 -0.6790 -1.8471 -2.7334
  177SAPS  H18S20221   0.349   0.180   5.755  1.6725 -0.2248  3.5166
  177SAPS  C21920222   0.384   0.367   5.838 -0.6574 -0.6141  0.4638
  177SAPS  H19R20223   0.309   0.436   5.794  1.0226  1.3706  0.5784
  177SAPS  H19S20224   0.485   0.411   5.846 -0.5139 -0.9460  0.4611
  177SAPS  C22020225   0.354   0.313   5.978  0.4076  0.5754  0.2191
  177SAPS  H20R20226   0.368   0.397   6.049  0.6769  0.6140  0.1217
  177SAPS  H20S20227   0.420   0.226   5.998 -0.9113 -1.1805 -2.4054
  177SAPS  H20T20228   0.248   0.278   5.978  0.1982  1.0942  2.1038
  177SAPS   C3320229   0.543   0.595   4.818  0.2065  0.5944  0.0602
  177SAPS   H3X20230   0.557   0.486   4.800  0.1939 -0.2570  4.2814
  177SAPS   H3Y20231   0.456   0.594   4.887  1.1209  0.6647  1.2551
  177SAPS   C3420232   0.665   0.654   4.878  1.6909  0.5886  0.1443
  177SAPS   H4X20233   0.652   0.764   4.882  1.2767  0.5091  1.0802
  177SAPS   H4Y20234   0.751   0.652   4.807  1.3040  0.2050 -0.3203
  177SAPS   C3520235   0.698   0.606   5.017 -0.6101 -0.4551 -0.0286
  177SAPS   H5X20236   0.801   0.644   5.039 -1.9641  3.3409  0.5640
  177SAPS   H5Y20237   0.698   0.495   5.019  1.9783 -0.5369 -0.2792
  177SAPS   C3620238   0.599   0.646   5.126 -0.0899 -0.1836  0.4332
  177SAPS   H6X20239   0.512   0.578   5.115  0.5485 -1.1097  0.9404
  177SAPS   H6Y20240   0.579   0.754   5.116 -0.2659 -0.2781 -0.2343
  177SAPS   C3720241   0.652   0.612   5.272 -0.4209  0.6505  0.2058
  177SAPS   H7X20242   0.762   0.629   5.274 -0.4071  0.5497  1.9321
  177SAPS   H7Y20243   0.639   0.502   5.281  0.1023  0.5668 -0.0061
  177SAPS   C3820244   0.581   0.676   5.384  0.3807  0.5663 -0.1706
  177SAPS   H8X20245   0.475   0.645   5.394 -0.1644  2.4601  0.2547
  177SAPS   H8Y20246   0.575   0.785   5.364 -1.6977  0.1656 -2.1323
  177SAPS   C3920247   0.652   0.632   5.518 -0.1019 -0.0042 -0.4008
  177SAPS   H9X20248   0.758   0.667   5.518  0.6885 -2.2630 -0.6208
  177SAPS   H9Y20249   0.656   0.523   5.536  0.1422 -0.3232 -2.1947
  177SAPS  C31020250   0.579   0.690   5.639  0.2208  0.3812 -0.0913
  177SAPS  H10X20251   0.471   0.662   5.638  1.1931 -4.3693  0.6000
  177SAPS  H10Y20252   0.593   0.798   5.618 -0.1120  0.8704  1.9635
  177SAPS  C31120253   0.652   0.660   5.769  0.1321 -0.2395  0.1818
  177SAPS  H11X20254   0.762   0.676   5.769  0.3016 -0.5751  3.7615
  177SAPS  H11Y20255   0.622   0.557   5.797 -1.5737  0.3768  0.7700
  177SAPS  C31220256   0.618   0.760   5.884  1.1122  0.8134  0.3671
  177SAPS  H12X20257   0.512   0.785   5.860  1.3696  0.0182 -1.8556
  177SAPS  H12Y20258   0.666   0.858   5.865  1.6881  0.2869 -1.0359
  177SAPS  C31320259   0.652   0.707   6.025 -0.0645  0.2698 -0.6891
  177SAPS  H13X20260   0.760   0.683   6.026 -0.1222  0.0313 -0.3006
  177SAPS  H13Y20261   0.596   0.616   6.054  0.4457  0.6783  1.8116
  177SAPS  C31420262   0.622   0.810   6.134 -0.2403 -0.4915 -0.1787
  177SAPS  H14X20263   0.675   0.905   6.111 -0.0076 -0.4413  0.5363
  177SAPS  H14Y20264   0.650   0.778   6.237  0.9359  0.7026 -0.0921
  177SAPS  C31520265   0.469   0.847   6.149  0.2522 -0.3435  0.1466
  177SAPS  H15X20266   0.419   0.748   6.138  0.2465 -0.2733 -0.4803
  177SAPS  H15Y20267   0.444   0.920   6.069  1.7972  1.8318  1.5644
  177SAPS  C31620268   0.438   0.924   6.283 -0.5022  0.0676  0.4683
  177SAPS  H16X20269   0.474   1.029   6.280  0.6763 -0.3461 -0.6152
  177SAPS  H16Y20270   0.505   0.882   6.361 -0.2334  0.9832  0.7467
  177SAPS  C31720271   0.293   0.914   6.333  0.1845  1.0151 -0.6345
  177SAPS  H17X20272   0.262   0.808   6.339 -3.0430  1.9283  0.6065
  177SAPS  H17Y20273   0.234   0.961   6.252 -0.5454  0.3168 -0.5107
  177SAPS  C31820274   0.268   0.984   6.466 -0.1242  0.0284  0.4764
  177SAPS  H18X20275   0.313   1.086   6.470 -3.4196  1.6764 -0.9797
  177SAPS  H18Y20276   0.307   0.915   6.544  0.8974  0.0270 -0.0115
  177SAPS  H18Z20277   0.158   0.991   6.481 -0.0222 -0.7825  1.8062
  178SAPS     N20278   5.716   1.932   3.402 -0.1568  0.2004 -0.4549
  178SAPS   HN120279   5.671   1.842   3.426 -0.6733  0.4626 -0.4246
  178SAPS   HN220280   5.751   1.975   3.490 -1.9829  0.3283  0.2447
  178SAPS   HN320281   5.643   1.995   3.361  0.1890  0.2656 -0.9871
  178SAPS   C1220282   5.839   1.906   3.315  0.1664  0.8540  0.0219
  178SAPS  H12A20283   5.805   1.849   3.230 -0.5535 -0.2729  1.0385
  178SAPS   C1320284   5.919   2.032   3.275 -0.4114  0.4619  0.8043
  178SAPS  O13A20285   5.872   2.148   3.285 -0.1275  0.1081 -0.0364
  178SAPS  O13B20286   6.019   2.009   3.199 -0.1452 -0.7587 -0.0060
  178SAPS   C1120287   5.936   1.816   3.393  0.3503  0.3278 -0.6842
  178SAPS  H11A20288   5.959   1.863   3.491 -0.1585  0.9967 -0.8812
  178SAPS  H11B20289   6.036   1.813   3.346  1.1589 -0.0907  0.9924
  178SAPS     P20290   5.965   1.570   3.467  0.5160 -0.5138 -0.1927
  178SAPS   O1320291   5.922   1.441   3.415  0.6608  0.6390  0.5208
  178SAPS   O1420292   6.103   1.609   3.446  0.2401  0.5877 -0.1618
  178SAPS   O1220293   5.875   1.688   3.418 -0.0383 -0.7887  0.4226
  178SAPS   O1120294   5.926   1.569   3.621 -0.4428 -0.5316  0.4920
  178SAPS    C120295   5.916   1.685   3.695  0.2791 -0.3050  0.7855
  178SAPS    HA20296   6.015   1.736   3.696 -0.7725  1.9877  3.2964
  178SAPS    HB20297   5.841   1.752   3.648  1.7058  0.2136 -0.8327
  178SAPS    C220298   5.888   1.663   3.840 -0.3427  0.6346 -0.6258
  178SAPS    HS20299   5.935   1.753   3.887  0.9528  1.3986 -3.2051
  178SAPS   O2120300   5.940   1.534   3.886  0.4771  0.2415  0.6143
  178SAPS   C2120301   6.070   1.518   3.885 -0.3541 -0.1237  0.3870
  178SAPS   O2220302   6.152   1.598   3.847  0.2793 -0.0043  0.2039
  178SAPS   C2220303   6.100   1.380   3.947  0.0187 -0.0276  0.6829
  178SAPS   H2R20304   6.029   1.366   4.031  1.8851  0.0312  2.3662
  178SAPS   H2S20305   6.082   1.307   3.866 -0.6243 -0.0373  0.8324
  178SAPS    C320306   5.735   1.666   3.877  0.0066 -0.9131  0.4249
  178SAPS    HX20307   5.686   1.594   3.808  0.4362  0.1765 -1.0850
  178SAPS    HY20308   5.700   1.762   3.833  0.2225 -0.0608  2.0722
  178SAPS   O3120309   5.705   1.664   4.016 -0.7067 -0.1276  0.4369
  178SAPS   C3120310   5.595   1.614   4.065 -0.1676 -0.7553  0.4518
  178SAPS   O3220311   5.497   1.583   3.993  0.3444 -0.1601 -0.0241
  178SAPS   C3220312   5.607   1.603   4.214 -0.1569 -0.8258  0.2253
  178SAPS   H2X20313   5.711   1.579   4.244  0.0844  0.8386  0.8640
  178SAPS   H2Y20314   5.554   1.510   4.244 -0.1091 -0.8542  0.2205
  178SAPS   C2320315   6.248   1.366   3.993  0.0723  0.0082 -0.0077
  178SAPS   H3R20316   6.317   1.405   3.915  1.7530 -1.2793  0.7761
  178SAPS   H3S20317   6.272   1.257   3.998 -0.8275 -0.1691  0.7413
  178SAPS   C2420318   6.284   1.425   4.132  0.0921  0.0105 -0.0321
  178SAPS   H4R20319   6.230   1.520   4.151  0.1246  0.0534 -0.1528
  178SAPS   H4S20320   6.394   1.424   4.148  0.2769 -1.1735 -1.1272
  178SAPS   C2520321   6.237   1.327   4.235 -1.0190  0.4625  0.5214
  178SAPS   H5R20322   6.325   1.262   4.246 -1.9754 -1.2173 -1.0655
  178SAPS   C2620323   6.132   1.321   4.314 -0.3066  0.1097  0.4298
  178SAPS   H6R20324   6.125   1.242   4.390 -0.0151  1.2919  1.7313
  178SAPS   C2720325   6.009   1.408   4.303 -0.2081 -0.2366 -0.6743
  178SAPS   H7R20326   6.021   1.470   4.211 -0.5470  0.4097 -0.2829
  178SAPS   H7S20327   6.020   1.482   4.385 -0.0489 -1.5816  0.5424
  178SAPS   C2820328   5.880   1.334   4.316  0.1913  0.0769 -0.4145
  178SAPS   H8R20329   5.856   1.265   4.234 -1.4989  0.7261 -0.4982
  178SAPS   C2920330   5.809   1.321   4.436 -0.1348 -0.7361 -0.1645
  178SAPS   H9R20331   5.726   1.250   4.448 -1.7929  1.2519  0.5528
  178SAPS  C21020332   5.841   1.395   4.560  0.0809  0.0204  0.1289
  178SAPS  H10R20333   5.747   1.432   4.607  0.1648  0.7580 -0.2651
  178SAPS  H10S20334   5.915   1.477   4.545 -1.3110  1.2343 -0.3126
  178SAPS  C21120335   5.888   1.290   4.655  0.2754 -0.4897  1.4367
  178SAPS  H11R20336   5.881   1.185   4.624  0.9186 -0.3257  0.6895
  178SAPS  C21220337   5.936   1.313   4.777  0.3352  0.8918  0.8030
  178SAPS  H12R20338   5.968   1.224   4.834  0.5335  1.2432  1.2402
  178SAPS  C21320339   5.966   1.440   4.840  0.1227 -0.1339 -0.9907
  178SAPS  H13R20340   5.894   1.470   4.919 -0.7614 -1.8993 -1.0919
  178SAPS  H13S20341   5.953   1.520   4.763 -0.5578 -0.1527 -0.9057
  178SAPS  C21420342   6.108   1.433   4.892 -0.6343  0.0877  0.0870
  178SAPS  H14R20343   6.116   1.418   5.000 -1.9784  0.8229  0.3179
  178SAPS  C21520344   6.226   1.430   4.827  0.0598  0.5874  0.7152
  178SAPS  H15R20345   6.314   1.420   4.892 -0.0889  0.0551  0.8410
  178SAPS  C21620346   6.235   1.451   4.675 -1.0556  0.0022 -0.8631
  178SAPS  H16R20347   6.140   1.425   4.625 -1.2429 -4.3209  1.2512
  178SAPS  H16S20348   6.299   1.369   4.636  2.5711  0.4620  3.3071
  178SAPS  C21720349   6.310   1.587   4.641  0.2228  0.2961  0.3966
  178SAPS  H17R20350   6.405   1.586   4.698  1.6748 -2.9108 -1.7447
  178SAPS  H17S20351   6.249   1.677   4.663 -0.4497  0.0027 -0.1927
  178SAPS  C21820352   6.350   1.585   4.491  0.3632  0.0820 -0.6343
  178SAPS  H18R20353   6.262   1.573   4.425  0.8642 -2.8546 -0.9003
  178SAPS  H18S20354   6.411   1.494   4.472  0.1491 -0.0084 -0.8864
  178SAPS  C21920355   6.423   1.721   4.443  0.0907  0.4399  0.0941
  178SAPS  H19R20356   6.357   1.800   4.485  1.4183  0.3736  2.4857
  178SAPS  H19S20357   6.424   1.723   4.332 -2.5589 -1.2233 -0.0568
  178SAPS  C22020358   6.561   1.740   4.499 -0.9919 -0.1492  0.0372
  178SAPS  H20R20359   6.598   1.842   4.474 -1.7283  0.0426 -0.2961
  178SAPS  H20S20360   6.638   1.666   4.467  1.7966  1.8925  1.5906
  178SAPS  H20T20361   6.571   1.719   4.607  2.6734 -0.4729 -0.2255
  178SAPS   C3320362   5.553   1.722   4.286  1.0113 -0.5240  1.2459
  178SAPS   H3X20363   5.446   1.730   4.257  1.8729  1.1384 -1.9907
  178SAPS   H3Y20364   5.608   1.818   4.276 -0.5791  0.2496 -0.8971
  178SAPS   C3420365   5.533   1.702   4.437 -0.7799  1.1857 -0.2714
  178SAPS   H4X20366   5.629   1.684   4.489 -1.1251  1.2229  0.3944
  178SAPS   H4Y20367   5.474   1.610   4.459 -0.8553  1.7663  2.1624
  178SAPS   C3520368   5.480   1.825   4.507  0.6317 -0.2331 -0.1318
  178SAPS   H5X20369   5.388   1.855   4.453  1.9034  1.3826 -1.5143
  178SAPS   H5Y20370   5.546   1.909   4.476 -1.7050  1.8242  0.1933
  178SAPS   C3620371   5.468   1.798   4.656 -0.3910  0.0090 -0.0100
  178SAPS   H6X20372   5.567   1.769   4.696 -1.2933 -1.1677  1.5110
  178SAPS   H6Y20373   5.393   1.727   4.698 -0.1987  0.1183  0.5283
  178SAPS   C3720374   5.443   1.927   4.729  0.6489 -0.4990  0.1359
  178SAPS   H7X20375   5.370   1.986   4.669  1.6580  0.2178 -0.4070
  178SAPS   H7Y20376   5.539   1.983   4.733  0.9839 -0.9008 -1.5576
  178SAPS   C3820377   5.394   1.909   4.877 -0.3425 -0.6207 -0.5091
  178SAPS   H8X20378   5.304   1.844   4.864 -1.2881 -0.4348  3.7262
  178SAPS   H8Y20379   5.375   2.011   4.916  1.5295 -0.8440  1.1170
  178SAPS   C3920380   5.485   1.823   4.961 -0.5872  0.0901  0.2551
  178SAPS   H9X20381   5.584   1.873   4.963 -0.5459  0.0037  0.3833
  178SAPS   H9Y20382   5.503   1.719   4.925 -0.1024 -0.0903  0.9799
  178SAPS  C31020383   5.437   1.815   5.105  1.0255  0.8287  0.0911
  178SAPS  H10X20384   5.497   1.736   5.156 -1.8059 -1.5394  0.0299
  178SAPS  H10Y20385   5.333   1.778   5.113  1.2750  0.1409  0.2891
  178SAPS  C31120386   5.450   1.948   5.186 -0.2555  0.1534  0.0018
  178SAPS  H11X20387   5.369   2.018   5.158 -0.6115  0.4928  1.7300
  178SAPS  H11Y20388   5.553   1.989   5.173 -0.4174  2.4601  4.1549
  178SAPS  C31220389   5.437   1.922   5.333 -0.5624  0.0642 -0.0762
  178SAPS  H12X20390   5.505   1.839   5.362 -0.6086 -0.2459 -0.8199
  178SAPS  H12Y20391   5.335   1.885   5.356  0.4439 -2.1409  1.0907
  178SAPS  C31320392   5.453   2.044   5.425 -0.1986 -0.1495  0.4819
  178SAPS  H13X20393   5.393   2.129   5.387  1.0524 -0.1946 -1.7618
  178SAPS  H13Y20394   5.560   2.072   5.414 -0.6550  0.5634 -4.6767
  178SAPS  C31420395   5.420   2.012   5.571  0.1238  0.0828  0.2604
  178SAPS  H14X20396   5.475   1.929   5.620  0.0307  1.6517  3.2439
  178SAPS  H14Y20397   5.312   1.990   5.581 -0.1384  1.5531  0.8472
  178SAPS  C31520398   5.437   2.128   5.670 -0.5427 -0.3856 -0.6437
  178SAPS  H15X20399   5.346   2.191   5.667 -0.4770 -0.2968 -0.7881
  178SAPS  H15Y20400   5.530   2.180   5.637 -1.0820 -0.1100 -1.7509
  178SAPS  C31620401   5.463   2.081   5.815 -0.0540  0.1062  0.0703
  178SAPS  H16X20402   5.382   2.020   5.861 -0.3306 -0.6268 -1.3301
  178SAPS  H16Y20403   5.473   2.178   5.868  1.1769  0.4196 -0.6967
  178SAPS  C31720404   5.590   2.010   5.845 -0.2917  0.5672 -0.4929
  178SAPS  H17X20405   5.682   2.046   5.794  0.8885  0.4580  1.4213
  178SAPS  H17Y20406   5.601   1.906   5.806  0.3293  0.9770 -1.4509
  178SAPS  C31820407   5.630   2.016   5.997  0.2061 -0.5866 -0.1410
  178SAPS  H18X20408   5.539   1.998   6.059  1.4628 -3.8423  0.9542
  178SAPS  H18Y20409   5.678   2.113   6.020 -1.0109 -0.1368  0.6477
  178SAPS  H18Z20410   5.705   1.939   6.023  0.6716  0.3305  1.3951
  179SAPS     N20411   2.464   2.819   3.334 -0.6114  0.0372 -0.3055
  179SAPS   HN120412   2.496   2.915   3.358  1.3793 -0.3024 -1.4094
  179SAPS   HN220413   2.510   2.758   3.404 -0.9811 -2.0405 -1.7662
  179SAPS   HN320414   2.512   2.803   3.243  0.2488 -1.5598  0.3915
  179SAPS   C1220415   2.312   2.799   3.323 -0.2296  0.3755  0.3591
  179SAPS  H12A20416   2.274   2.851   3.236 -2.6516  1.1971  1.8096
  179SAPS   C1320417   2.257   2.648   3.320  0.4782 -0.2513  0.7222
  179SAPS  O13A20418   2.342   2.564   3.285  0.5450 -0.0722 -0.0646
  179SAPS  O13B20419   2.133   2.623   3.314 -0.1688 -0.2151  0.4011
  179SAPS   C1120420   2.243   2.871   3.445 -0.5587 -0.0171  0.1791
  179SAPS  H11A20421   2.301   2.847   3.537  1.9328  1.7529 -0.8231
  179SAPS  H11B20422   2.140   2.830   3.454 -0.2671 -1.1392 -1.3107
  179SAPS     P20423   2.120   3.100   3.471  0.1193  0.1453  0.4306
  179SAPS   O1320424   2.152   3.243   3.447  0.1741  0.0334  0.7584
  179SAPS   O1420425   2.013   3.045   3.389  0.0929  0.5451 -0.4446
  179SAPS   O1220426   2.248   3.011   3.443 -0.5417 -0.0583 -0.0002
  179SAPS   O1120427   2.098   3.078   3.626  0.2228 -0.0589  0.6669
  179SAPS    C120428   1.984   3.112   3.703  0.0204 -0.0917  0.2743
  179SAPS    HA20429   1.994   3.219   3.731 -1.0080  0.5077 -1.4761
  179SAPS    HB20430   1.893   3.112   3.638  0.0088  2.6773  0.2016
  179SAPS    C220431   1.982   3.009   3.827 -0.3543  0.2062  0.5890
  179SAPS    HS20432   1.890   3.022   3.888 -0.4943 -0.0293  0.4270
  179SAPS   O2120433   2.099   3.031   3.911  0.2657 -0.5369  0.0627
  179SAPS   C2120434   2.102   3.153   3.968 -0.4601  0.4109  0.4457
  179SAPS   O2220435   2.010   3.229   3.971 -0.0774  0.0265  0.7001
  179SAPS   C2220436   2.231   3.165   4.052 -0.0914 -0.6771  0.7555
  179SAPS   H2R20437   2.316   3.155   3.981  0.2056  0.5060  0.9315
  179SAPS   H2S20438   2.237   3.265   4.099  0.0939  0.5729 -1.7591
  179SAPS    C320439   1.982   2.866   3.780  0.1773  0.5981 -0.1792
  179SAPS    HX20440   2.066   2.848   3.710 -0.8198  3.0574 -2.1531
  179SAPS    HY20441   1.887   2.853   3.724  0.8892  0.4410 -1.3685
  179SAPS   O3120442   1.982   2.786   3.898 -0.0443 -0.0258 -0.3483
  179SAPS   C3120443   2.095   2.740   3.943 -0.4474  0.8233 -0.4578
  179SAPS   O3220444   2.203   2.752   3.887 -0.7462  0.0997  0.6018
  179SAPS   C3220445   2.072   2.660   4.080 -0.7126  0.9211 -0.6331
  179SAPS   H2X20446   1.976   2.604   4.082 -0.9290  1.1374 -2.6222
  179SAPS   H2Y20447   2.074   2.740   4.156  0.8367 -0.2595  0.6426
  179SAPS   C2320448   2.241   3.060   4.159 -0.0799 -0.2418 -0.1990
  179SAPS   H3R20449   2.272   2.965   4.110 -0.8402 -0.8873  0.5420
  179SAPS   H3S20450   2.149   3.039   4.217 -0.0404  0.1082 -0.0087
  179SAPS   C2420451   2.350   3.095   4.264  0.1299  0.1772 -0.4981
  179SAPS   H4R20452   2.306   3.180   4.321 -0.7948  0.2602 -1.3176
  179SAPS   H4S20453   2.448   3.131   4.224 -0.2600  2.3710  0.3627
  179SAPS   C2520454   2.374   2.967   4.350 -0.1429  0.1936 -0.5467
  179SAPS   H5R20455   2.383   2.878   4.285  0.5556  0.9448 -1.5064
  179SAPS   C2620456   2.365   2.942   4.486 -0.1099  0.0023  0.0218
  179SAPS   H6R20457   2.388   2.840   4.519 -2.4084 -1.1835 -1.6884
  179SAPS   C2720458   2.320   3.062   4.583 -0.6367  0.7751  0.1710
  179SAPS   H7R20459   2.250   3.138   4.542 -0.8012  1.2137  1.2260
  179SAPS   H7S20460   2.408   3.125   4.609 -1.1190  0.5206  2.7316
  179SAPS   C2820461   2.253   3.010   4.707  0.0218 -0.0950  0.7243
  179SAPS   H8R20462   2.148   2.987   4.684  0.0931 -0.0715  0.3635
  179SAPS   C2920463   2.300   3.010   4.829  0.0813  0.0851  0.0895
  179SAPS   H9R20464   2.242   2.949   4.900  1.0792 -0.4140  0.4874
  179SAPS  C21020465   2.430   3.054   4.879 -0.1965 -0.0481 -0.1885
  179SAPS  H10R20466   2.413   3.144   4.942  0.9433  0.4596 -0.5732
  179SAPS  H10S20467   2.509   3.095   4.812  1.1887 -2.2994 -0.0205
  179SAPS  C21120468   2.486   2.936   4.951  0.6247  0.1461 -0.1269
  179SAPS  H11R20469   2.497   2.845   4.890 -0.8110 -0.9399  1.1419
  179SAPS  C21220470   2.525   2.937   5.079 -0.8193 -0.0334  0.6849
  179SAPS  H12R20471   2.572   2.846   5.118 -0.1579 -0.9423 -2.0245
  179SAPS  C21320472   2.530   3.053   5.174  0.1598 -0.4659 -0.4943
  179SAPS  H13R20473   2.573   3.139   5.120  0.6701 -0.1245  0.4269
  179SAPS  H13S20474   2.604   3.050   5.257  0.9992 -2.1102 -1.2536
  179SAPS  C21420475   2.389   3.076   5.236  0.1061 -0.0715  0.3168
  179SAPS  H14R20476   2.320   3.123   5.165  1.2513 -0.8766 -1.3981
  179SAPS  C21520477   2.348   3.051   5.362 -0.2543 -0.3523  0.0391
  179SAPS  H15R20478   2.243   3.081   5.380 -0.4535 -1.0358  0.0459
  179SAPS  C21620479   2.414   3.005   5.486  0.1415 -0.2176 -0.6975
  179SAPS  H16R20480   2.509   2.954   5.460  0.0118  0.2188 -2.1094
  179SAPS  H16S20481   2.347   2.946   5.552 -1.4554  0.0828 -2.0030
  179SAPS  C21720482   2.457   3.129   5.578  0.4657  0.9081 -0.5488
  179SAPS  H17R20483   2.362   3.180   5.605 -2.0554 -2.6275 -1.9160
  179SAPS  H17S20484   2.525   3.196   5.522  1.9250  1.3078  1.5922
  179SAPS  C21820485   2.515   3.090   5.716 -0.0255  0.3152 -0.0115
  179SAPS  H18R20486   2.440   3.041   5.781 -1.5795  3.0338  0.4028
  179SAPS  H18S20487   2.549   3.184   5.764  4.1914 -0.8179 -0.3462
  179SAPS  C21920488   2.647   3.007   5.709  0.0597  0.2271 -0.2415
  179SAPS  H19R20489   2.720   3.060   5.644  0.9805 -0.2359  0.4041
  179SAPS  H19S20490   2.621   2.907   5.667 -0.9349  0.8085 -1.0777
  179SAPS  C22020491   2.718   2.994   5.847  0.6267 -0.7499 -0.5562
  179SAPS  H20R20492   2.823   2.962   5.833  1.2513  0.3568  1.3238
  179SAPS  H20S20493   2.662   2.926   5.914 -0.8154 -1.5814 -2.4905
  179SAPS  H20T20494   2.716   3.095   5.894 -1.5474 -0.3850 -1.3119
  179SAPS   C3320495   2.189   2.561   4.107  0.2488 -0.0832 -0.1928
  179SAPS   H3X20496   2.287   2.614   4.105 -0.5689  1.4926 -0.0061
  179SAPS   H3Y20497   2.189   2.475   4.037  2.1337  0.3674 -0.7991
  179SAPS   C3420498   2.179   2.492   4.248  0.0200  0.1011  0.2780
  179SAPS   H4X20499   2.253   2.409   4.248  0.7918  0.7815  0.9037
  179SAPS   H4Y20500   2.081   2.443   4.266 -0.4400  0.3260 -1.4248
  179SAPS   C3520501   2.195   2.590   4.375  0.1276  0.4273  0.3851
  179SAPS   H5X20502   2.113   2.663   4.363 -1.2274 -1.2924 -1.6448
  179SAPS   H5Y20503   2.290   2.646   4.360  0.2029  0.3216  0.4634
  179SAPS   C3620504   2.204   2.513   4.499  0.2913  0.0429 -0.3009
  179SAPS   H6X20505   2.282   2.434   4.494  0.6005  0.2987  0.3252
  179SAPS   H6Y20506   2.104   2.466   4.513  1.0088 -0.5463  4.7321
  179SAPS   C3720507   2.231   2.591   4.628  0.2885  0.8960  0.5810
  179SAPS   H7X20508   2.152   2.669   4.641 -0.6411 -0.4393  3.8109
  179SAPS   H7Y20509   2.328   2.643   4.613  0.3920  0.6068  0.2676
  179SAPS   C3820510   2.230   2.511   4.761  0.6750 -0.3029  0.1874
  179SAPS   H8X20511   2.290   2.418   4.757 -1.7255 -1.9543  0.4601
  179SAPS   H8Y20512   2.132   2.462   4.778 -0.3215  1.1100 -1.1820
  179SAPS   C3920513   2.273   2.601   4.883 -0.0606 -0.8551  0.4143
  179SAPS   H9X20514   2.199   2.684   4.888 -0.5619 -1.3437  1.2232
  179SAPS   H9Y20515   2.373   2.641   4.857  0.0443 -0.9103  0.7378
  179SAPS  C31020516   2.270   2.525   5.019  0.3414 -0.0488 -0.0288
  179SAPS  H10X20517   2.324   2.428   5.009  2.3357  1.1079 -1.2037
  179SAPS  H10Y20518   2.166   2.506   5.053  1.2263 -2.2003  1.6842
  179SAPS  C31120519   2.341   2.603   5.131 -0.3520  0.2947  0.0135
  179SAPS  H11X20520   2.269   2.685   5.150 -0.4626 -0.1032  1.4509
  179SAPS  H11Y20521   2.438   2.646   5.099 -0.8033  2.3534  1.2799
  179SAPS  C31220522   2.353   2.522   5.259 -1.1719  0.2183 -0.1969
  179SAPS  H12X20523   2.413   2.430   5.245 -0.3051  1.0670 -2.5516
  179SAPS  H12Y20524   2.258   2.491   5.309 -0.8299  0.1984  0.4540
  179SAPS  C31320525   2.414   2.612   5.374 -0.1389 -0.4946  0.0526
  179SAPS  H13X20526   2.355   2.702   5.403  0.8871 -0.1219  1.1124
  179SAPS  H13Y20527   2.507   2.658   5.333  0.2599  0.9623  2.3868
  179SAPS  C31420528   2.452   2.531   5.499 -0.2342  0.2233  0.5766
  179SAPS  H14X20529   2.501   2.438   5.462 -2.4863 -1.2168  1.0370
  179SAPS  H14Y20530   2.365   2.483   5.549  1.5376 -2.6143  1.1762
  179SAPS  C31520531   2.540   2.614   5.597 -1.1800 -0.2544 -0.2024
  179SAPS  H15X20532   2.468   2.677   5.652 -1.4519 -0.7123 -0.0227
  179SAPS  H15Y20533   2.618   2.666   5.538 -0.0280 -3.1159 -1.4283
  179SAPS  C31620534   2.616   2.536   5.702  0.9961 -0.1512 -0.1479
  179SAPS  H16X20535   2.655   2.610   5.775 -2.6304  1.8435 -0.0064
  179SAPS  H16Y20536   2.704   2.490   5.652  0.5139 -0.5620 -0.6235
  179SAPS  C31720537   2.523   2.426   5.769 -0.4031 -0.9685 -0.7111
  179SAPS  H17X20538   2.473   2.360   5.694 -0.3019 -0.6951 -1.0225
  179SAPS  H17Y20539   2.442   2.480   5.823  1.5405 -0.4221  1.7995
  179SAPS  C31820540   2.600   2.340   5.865  0.6288  0.6755 -0.4968
  179SAPS  H18X20541   2.539   2.270   5.926  1.7884  0.2383  0.2010
  179SAPS  H18Y20542   2.655   2.397   5.943  0.8157 -1.2060  0.8112
  179SAPS  H18Z20543   2.665   2.278   5.799 -0.1486 -0.2250 -0.4322
  180SAPS     N20544   1.925   5.378   3.557 -0.6704 -0.3212  0.1210
  180SAPS   HN120545   1.916   5.424   3.464  1.6874 -2.9412 -1.5616
  180SAPS   HN220546   1.858   5.299   3.566 -1.3488  0.3320  0.9411
  180SAPS   HN320547   1.912   5.441   3.639 -0.6876  0.0220 -0.1445
  180SAPS   C1220548   2.067   5.318   3.559  0.2078 -0.6020  0.9307
  180SAPS  H12A20549   2.078   5.276   3.658 -0.7374 -0.3504  1.1533
  180SAPS   C1320550   2.072   5.208   3.452  0.1197  0.2737  0.2834
  180SAPS  O13A20551   1.978   5.189   3.372 -0.1503 -0.2610  0.9238
  180SAPS  O13B20552   2.178   5.148   3.436 -0.3931 -0.2399  0.0885
  180SAPS   C1120553   2.169   5.433   3.543  0.0110  0.1005  0.1134
  180SAPS  H11A20554   2.152   5.496   3.452 -0.2431  1.4930  1.0961
  180SAPS  H11B20555   2.274   5.401   3.525  0.3568  0.3470  1.5902
  180SAPS     P20556   2.279   5.627   3.678  0.0933 -0.1129 -0.2779
  180SAPS   O1320557   2.316   5.699   3.555 -0.4468 -0.2025  0.1188
  180SAPS   O1420558   2.244   5.712   3.796  0.2305  0.2124  0.0160
  180SAPS   O1220559   2.165   5.522   3.655  0.4695 -0.0788 -0.5924
  180SAPS   O1120560   2.402   5.537   3.719  0.1925 -0.4780 -0.4813
  180SAPS    C120561   2.393   5.417   3.797 -0.0858 -0.3734 -0.6714
  180SAPS    HA20562   2.293   5.367   3.794 -0.3919  0.2291 -0.7564
  180SAPS    HB20563   2.477   5.352   3.766  0.7291  0.2956  0.0958
  180SAPS    C220564   2.421   5.451   3.949 -1.2614  0.1570  0.0236
  180SAPS    HS20565   2.454   5.357   3.999  1.2591  1.2017  0.4914
  180SAPS   O2120566   2.316   5.518   4.027 -0.5797  0.0977  0.2728
  180SAPS   C2120567   2.227   5.435   4.061  0.2430  0.3583  0.1840
  180SAPS   O2220568   2.214   5.324   4.025  0.0032  0.2206  0.0123
  180SAPS   C2220569   2.132   5.497   4.172 -0.6376 -0.0204 -0.3545
  180SAPS   H2R20570   2.192   5.554   4.246  0.0360  1.1639 -1.7587
  180SAPS   H2S20571   2.051   5.553   4.120 -1.4562 -1.0934 -0.2795
  180SAPS    C320572   2.539   5.547   3.961 -0.0241  0.4528  0.0623
  180SAPS    HX20573   2.510   5.644   3.916 -1.9497 -0.2156 -0.2414
  180SAPS    HY20574   2.618   5.500   3.899 -0.1866  2.7784 -2.0161
  180SAPS   O3120575   2.570   5.567   4.103  0.1915  0.5158  0.0100
  180SAPS   C3120576   2.525   5.677   4.155 -0.3777 -0.0560 -0.4861
  180SAPS   O3220577   2.445   5.753   4.107 -0.7001  0.1140  0.4821
  180SAPS   C3220578   2.593   5.699   4.294  0.1210  0.8813  0.3111
  180SAPS   H2X20579   2.677   5.764   4.262 -0.0317  0.1160 -1.8213
  180SAPS   H2Y20580   2.647   5.607   4.325  0.4383  1.5946  1.9926
  180SAPS   C2320581   2.055   5.380   4.247 -0.9111  0.2987 -0.1369
  180SAPS   H3R20582   2.128   5.325   4.311 -1.5082  0.5876  0.8098
  180SAPS   H3S20583   2.012   5.320   4.165 -0.2040 -0.8024  0.2834
  180SAPS   C2420584   1.946   5.455   4.323 -0.4083  0.6945 -0.7299
  180SAPS   H4R20585   1.878   5.509   4.255 -2.3413 -1.7663 -0.9039
  180SAPS   H4S20586   1.994   5.532   4.387 -0.1781  2.5759 -3.0498
  180SAPS   C2520587   1.870   5.349   4.404  0.2982  0.1133  0.1974
  180SAPS   H5R20588   1.808   5.284   4.339  0.6123  1.3154 -1.3833
  180SAPS   C2620589   1.899   5.317   4.532 -0.3863 -0.4567  0.2416
  180SAPS   H6R20590   1.847   5.231   4.576  0.9228 -0.5608  1.6985
  180SAPS   C2720591   1.991   5.398   4.619  0.6333  0.0680 -0.5721
  180SAPS   H7R20592   1.955   5.385   4.723 -0.3487 -0.0406 -0.9150
  180SAPS   H7S20593   1.982   5.505   4.592 -2.0175  0.0901  0.0893
  180SAPS   C2820594   2.128   5.338   4.613  0.1663  0.5839  0.2997
  180SAPS   H8R20595   2.184   5.374   4.526  0.9492 -2.1049 -0.4049
  180SAPS   C2920596   2.188   5.268   4.711 -0.0933 -0.0363 -0.6694
  180SAPS   H9R20597   2.292   5.234   4.697  0.1475  0.3310  0.1449
  180SAPS  C21020598   2.129   5.227   4.844 -0.5120 -0.3906 -0.1343
  180SAPS  H10R20599   2.103   5.316   4.905  1.0947  0.1884 -0.2330
  180SAPS  H10S20600   2.210   5.185   4.907 -0.7422 -0.0944  0.3612
  180SAPS  C21120601   2.015   5.125   4.842 -0.7770 -0.4722 -0.5534
  180SAPS  H11R20602   2.002   5.082   4.742 -1.7043  1.7308 -1.4482
  180SAPS  C21220603   1.918   5.098   4.933 -0.0366 -0.5902 -0.0777
  180SAPS  H12R20604   1.844   5.020   4.909  0.7203 -1.6131  0.8032
  180SAPS  C21320605   1.902   5.168   5.063 -0.2188 -0.0438 -0.3754
  180SAPS  H13R20606   1.793   5.171   5.085  0.2216 -1.4104  2.4464
  180SAPS  H13S20607   1.935   5.273   5.058  2.0639 -0.7139 -0.6289
  180SAPS  C21420608   1.977   5.089   5.168  0.0285  0.6647 -0.4003
  180SAPS  H14R20609   2.074   5.046   5.140 -0.5382 -1.9488  1.2850
  180SAPS  C21520610   1.924   5.052   5.285  0.0072 -0.1821  0.1804
  180SAPS  H15R20611   1.994   5.010   5.359 -1.0068 -1.1226  0.6491
  180SAPS  C21620612   1.781   5.072   5.331  0.0287 -0.4285  0.7220
  180SAPS  H16R20613   1.725   4.988   5.286  0.4039  0.1076 -0.8071
  180SAPS  H16S20614   1.737   5.163   5.286  1.2025 -0.4848 -0.6393
  180SAPS  C21720615   1.756   5.097   5.477 -0.0798  0.4926  0.1444
  180SAPS  H17R20616   1.668   5.161   5.499 -0.6149 -0.4827  0.9182
  180SAPS  H17S20617   1.846   5.151   5.515  0.1255 -0.7055  1.4234
  180SAPS  C21820618   1.740   4.964   5.556 -0.5188  1.3342 -0.3996
  180SAPS  H18R20619   1.816   4.890   5.524 -1.6956  0.2241 -0.6803
  180SAPS  H18S20620   1.645   4.916   5.525 -1.5164  1.8441  1.6688
  180SAPS  C21920621   1.729   4.971   5.706  0.4552 -0.0054  0.0994
  180SAPS  H19R20622   1.683   4.877   5.745 -0.5566  0.9953  1.3934
  180SAPS  H19S20623   1.661   5.055   5.730  0.1559  0.2029 -1.4339
  180SAPS  C22020624   1.869   4.974   5.776  0.0707  1.0317 -0.2246
  180SAPS  H20R20625   1.856   4.990   5.885  0.2363  1.6455 -0.2886
  180SAPS  H20S20626   1.918   4.874   5.768 -3.5907 -1.0146  0.9155
  180SAPS  H20T20627   1.929   5.063   5.748 -1.2163  2.4507  1.3460
  180SAPS   C3320628   2.509   5.753   4.408  0.3579 -0.0167 -0.7517
  180SAPS   H3X20629   2.422   5.809   4.368 -0.6334 -0.2020  1.0378
  180SAPS   H3Y20630   2.550   5.837   4.467 -2.1053 -0.3337  1.5838
  180SAPS   C3420631   2.465   5.655   4.515  0.0650 -0.3279  0.1368
  180SAPS   H4X20632   2.559   5.631   4.569  0.3290  0.4720  0.0455
  180SAPS   H4Y20633   2.413   5.563   4.480  0.5234 -0.1479 -1.0374
  180SAPS   C3520634   2.383   5.728   4.622 -0.0217 -0.7284  0.7780
  180SAPS   H5X20635   2.288   5.768   4.582  0.6923 -1.7197 -2.1744
  180SAPS   H5Y20636   2.435   5.815   4.668 -2.1413  0.5454  0.9040
  180SAPS   C3620637   2.354   5.627   4.740 -0.1030 -0.4963 -0.4867
  180SAPS   H6X20638   2.450   5.580   4.769  0.9857  1.5344 -0.6235
  180SAPS   H6Y20639   2.291   5.551   4.689 -3.8929  1.5055  0.8197
  180SAPS   C3720640   2.272   5.687   4.863  0.4601  0.4431 -0.1604
  180SAPS   H7X20641   2.182   5.740   4.824 -1.3441 -0.6646  2.1889
  180SAPS   H7Y20642   2.338   5.758   4.917  0.9225  0.8859 -1.2902
  180SAPS   C3820643   2.225   5.585   4.968 -0.0894 -1.2174  0.2939
  180SAPS   H8X20644   2.144   5.521   4.927 -1.9849  0.7866  0.7213
  180SAPS   H8Y20645   2.169   5.641   5.046 -0.9021 -1.2686 -0.2459
  180SAPS   C3920646   2.342   5.505   5.031  0.2311  0.1294 -0.5665
  180SAPS   H9X20647   2.415   5.585   5.060  0.4969 -0.6280  0.9683
  180SAPS   H9Y20648   2.385   5.436   4.956  1.7448  0.9204 -0.4775
  180SAPS  C31020649   2.331   5.424   5.162  0.2254 -0.1229  0.3791
  180SAPS  H10X20650   2.429   5.394   5.206 -0.8691 -1.9785  1.7021
  180SAPS  H10Y20651   2.274   5.333   5.135 -1.6539  1.1923 -0.2536
  180SAPS  C31120652   2.251   5.494   5.278 -0.3149  0.0335  0.2580
  180SAPS  H11X20653   2.177   5.569   5.241  0.3769  1.9364  2.4653
  180SAPS  H11Y20654   2.325   5.562   5.326  3.1302 -1.0608 -3.0418
  180SAPS  C31220655   2.177   5.402   5.376  0.1840  0.6986 -0.2213
  180SAPS  H12X20656   2.133   5.316   5.321 -0.4636  0.1985  1.0264
  180SAPS  H12Y20657   2.095   5.463   5.420  0.8170  2.4186 -1.3405
  180SAPS  C31320658   2.282   5.350   5.478  0.8091 -0.6032 -0.5959
  180SAPS  H13X20659   2.338   5.433   5.526  1.0942  0.0857 -2.0607
  180SAPS  H13Y20660   2.358   5.290   5.424  2.1540  0.6103 -0.1271
  180SAPS  C31420661   2.219   5.272   5.593  0.5938 -0.0608 -0.1564
  180SAPS  H14X20662   2.144   5.195   5.565  1.3763 -2.0869  2.8589
  180SAPS  H14Y20663   2.155   5.344   5.650 -3.5665 -1.8928 -2.0933
  180SAPS  C31520664   2.331   5.211   5.671  0.0707  0.2240 -0.3135
  180SAPS  H15X20665   2.389   5.292   5.720 -0.7937  0.7474 -0.1416
  180SAPS  H15Y20666   2.400   5.157   5.603  1.3774  1.4784 -0.0211
  180SAPS  C31620667   2.296   5.124   5.792  0.1980  0.5726  0.0984
  180SAPS  H16X20668   2.397   5.093   5.827  0.4882  0.6746 -0.6403
  180SAPS  H16Y20669   2.235   5.034   5.766  2.2977 -1.6903  2.4105
  180SAPS  C31720670   2.220   5.190   5.909 -0.2772 -0.4563  0.5423
  180SAPS  H17X20671   2.128   5.228   5.859 -1.5030 -2.0716  1.4670
  180SAPS  H17Y20672   2.287   5.263   5.959  1.6675 -3.1834  2.2064
  180SAPS  C31820673   2.165   5.086   6.009  0.5056  0.5576  0.2716
  180SAPS  H18X20674   2.102   5.008   5.961  0.4648 -0.2331  1.5735
  180SAPS  H18Y20675   2.099   5.138   6.081 -1.6946 -1.1311 -0.4134
  180SAPS  H18Z20676   2.250   5.035   6.060  1.4721  0.2749 -1.5369
  181POPC     N20677   3.229   5.056   8.070  0.3149  0.4520 -0.0159
  181POPC   C1220678   3.206   5.142   8.191 -0.0115  0.0503 -0.0908
  181POPC  H12A20679   3.122   5.107   8.248  0.5295  0.2032  0.8370
  181POPC  H12B20680   3.184   5.241   8.154 -2.3487 -0.2425  0.3513
  181POPC   C1320681   3.094   5.029   8.004 -0.2900 -0.2633  0.1484
  181POPC  H13A20682   3.062   5.120   7.956 -3.5671 -1.0826  0.5354
  181POPC  H13B20683   3.116   4.957   7.927  0.2331 -0.1371  0.1725
  181POPC  H13C20684   3.026   5.003   8.084  0.7557  1.2663  1.5879
  181POPC   C1420685   3.318   5.128   7.973  0.6071 -0.6043 -0.0192
  181POPC  H14A20686   3.414   5.157   8.013 -0.5304  2.6182  0.7026
  181POPC  H14B20687   3.344   5.071   7.885 -1.5442 -2.1283  0.2639
  181POPC  H14C20688   3.270   5.222   7.949  0.5700 -1.0846 -2.0532
  181POPC   C1520689   3.295   4.924   8.108  0.6244 -0.2656 -0.0570
  181POPC  H15A20690   3.382   4.946   8.168 -0.2052  1.1676  0.6746
  181POPC  H15B20691   3.328   4.866   8.023 -0.5046 -2.8116  1.1310
  181POPC  H15C20692   3.221   4.877   8.172 -2.8141  1.0127 -2.7447
  181POPC   C1120693   3.304   5.162   8.313 -0.2873 -0.2677  0.4225
  181POPC  H11A20694   3.317   5.072   8.377  2.4881  0.4612  1.0221
  181POPC  H11B20695   3.270   5.244   8.380  2.1122 -0.9385  2.6073
  181POPC     P20696   3.564   5.121   8.243 -0.1401 -0.8136 -0.3133
  181POPC   O1320697   3.540   4.984   8.293 -0.5059  0.6988  0.7296
  181POPC   O1420698   3.684   5.197   8.288  0.2549 -0.3240  0.6342
  181POPC   O1220699   3.437   5.206   8.272 -0.3699 -0.1311 -0.1110
  181POPC   O1120700   3.570   5.127   8.093 -0.0858  0.5038 -0.0419
  181POPC    C120701   3.685   5.068   8.024  0.0234 -0.4420 -1.1923
  181POPC    HA20702   3.721   4.978   8.078  1.6947 -0.0001 -1.4990
  181POPC    HB20703   3.770   5.139   8.030 -0.7785  0.4631  0.1792
  181POPC    C220704   3.665   5.031   7.878 -0.5692 -0.0109  0.3120
  181POPC    HS20705   3.761   5.021   7.822 -0.4099 -0.8590  0.7252
  181POPC   O2120706   3.583   5.134   7.813  0.1129  0.2342  0.4267
  181POPC   C2120707   3.653   5.237   7.769  0.5091 -0.1107  0.0611
  181POPC   O2220708   3.778   5.247   7.763  0.3391 -0.2879 -0.2245
  181POPC   C2220709   3.561   5.342   7.708  0.0220 -0.7946 -0.1816
  181POPC   H2R20710   3.587   5.436   7.760 -0.4748 -0.8320  0.1418
  181POPC   H2S20711   3.458   5.322   7.745 -0.1366 -1.7136 -1.0630
  181POPC    C320712   3.605   4.896   7.847 -0.3276  0.2563  0.5794
  181POPC    HX20713   3.516   4.880   7.912  0.5524 -0.4177  1.6472
  181POPC    HY20714   3.677   4.821   7.886  1.6621  1.0544 -1.3448
  181POPC   O3120715   3.584   4.855   7.708  0.4513 -0.4486  0.4160
  181POPC   C3120716   3.465   4.887   7.660  0.3471  0.2225 -0.4230
  181POPC   O3220717   3.374   4.943   7.720 -0.3538 -0.0244 -0.2467
  181POPC   C3220718   3.451   4.833   7.518 -0.3552  0.2249  0.1770
  181POPC   H2X20719   3.426   4.725   7.525  2.5988 -0.5939 -0.2695
  181POPC   H2Y20720   3.550   4.849   7.470  1.4652  2.6367  4.2206
  181POPC   C2320721   3.563   5.355   7.556  0.1683  0.3845 -0.4689
  181POPC   H3R20722   3.663   5.334   7.513  0.8211  1.0662  0.6600
  181POPC   H3S20723   3.540   5.463   7.544 -0.0260  0.4083  0.0568
  181POPC   C2420724   3.454   5.275   7.488  0.2409 -0.1228  0.0139
  181POPC   H4R20725   3.354   5.293   7.532 -0.2143  0.5932 -1.2781
  181POPC   H4S20726   3.465   5.165   7.503 -2.6070 -0.4290  0.3323
  181POPC   C2520727   3.424   5.296   7.341  0.0851 -0.1926  1.0597
  181POPC   H5R20728   3.324   5.249   7.333 -0.5217  1.2724 -0.7814
  181POPC   H5S20729   3.494   5.244   7.273  0.2852  0.7911  0.4844
  181POPC   C2620730   3.421   5.439   7.309 -0.4425  0.3905  0.5171
  181POPC   H6R20731   3.523   5.483   7.310  0.0665 -0.7123 -0.2107
  181POPC   H6S20732   3.358   5.485   7.387 -0.9053  0.7410 -0.0568
  181POPC   C2720733   3.364   5.487   7.169  0.1654 -0.4107 -0.0846
  181POPC   H7R20734   3.373   5.598   7.161 -0.5086 -0.2683  1.0155
  181POPC   H7S20735   3.256   5.462   7.165 -0.2346  1.1142  0.5885
  181POPC   C2820736   3.439   5.435   7.040  0.2724  0.1013  0.0331
  181POPC   H8R20737   3.471   5.330   7.060  0.9776 -0.1536 -2.1505
  181POPC   H8S20738   3.535   5.490   7.037  0.1838  0.2210 -1.9836
  181POPC   C2920739   3.373   5.464   6.909 -0.5031 -0.6321 -0.3343
  181POPC   H9120740   3.378   5.571   6.886  0.6035 -0.1326  1.9199
  181POPC  C21020741   3.298   5.375   6.843 -0.1381  0.3349 -0.1476
  181POPC  H10120742   3.236   5.400   6.755 -0.0392  0.1853 -0.2608
  181POPC  C21120743   3.270   5.235   6.888  0.9322 -0.2360 -0.8082
  181POPC  H11R20744   3.159   5.228   6.888  0.7575  1.5036 -2.3745
  181POPC  H11S20745   3.311   5.209   6.988 -0.8100  0.1504  0.0620
  181POPC  C21220746   3.323   5.126   6.788 -0.0030  0.3912 -0.1787
  181POPC  H12R20747   3.304   5.020   6.817 -1.6044  0.5008 -0.7303
  181POPC  H12S20748   3.434   5.132   6.787  0.1296 -1.1662  0.8369
  181POPC  C21320749   3.257   5.141   6.653 -0.5315  0.4750  0.4515
  181POPC  H13R20750   3.268   5.246   6.620  0.6194  0.1501 -0.2437
  181POPC  H13S20751   3.150   5.111   6.649 -1.0944  2.4663 -0.5107
  181POPC  C21420752   3.332   5.073   6.538  0.5684  0.0310 -0.0901
  181POPC  H14R20753   3.371   4.972   6.561 -0.5747 -0.9162 -2.1076
  181POPC  H14S20754   3.424   5.132   6.516  1.8487 -1.1060  1.9330
  181POPC  C21520755   3.249   5.054   6.408  0.5084  0.2942  0.1044
  181POPC  H15R20756   3.216   5.153   6.371 -1.0634 -1.0332 -2.3827
  181POPC  H15S20757   3.157   4.994   6.421  0.0119  0.3154 -2.6531
  181POPC  C21620758   3.314   4.999   6.279  0.1412  0.6548 -0.0450
  181POPC  H16R20759   3.356   4.899   6.303 -1.2872 -0.3475 -1.4196
  181POPC  H16S20760   3.407   5.052   6.252  1.5563 -1.7663 -0.2684
  181POPC  C21720761   3.225   4.984   6.154 -0.6179  0.2149 -0.2759
  181POPC  H17R20762   3.156   4.902   6.183  0.2100  0.1544  1.6708
  181POPC  H17S20763   3.270   4.942   6.062 -2.4307 -1.1254 -0.6048
  181POPC  C21820764   3.140   5.105   6.119 -0.3531 -0.3205 -0.3547
  181POPC  H18R20765   3.192   5.202   6.107  0.3615 -0.7587 -0.8702
  181POPC  H18S20766   3.062   5.129   6.194 -0.2497 -0.1046 -0.3141
  181POPC  H18T20767   3.067   5.090   6.036 -2.6476 -0.0941  1.5363
  181POPC   C3320768   3.329   4.897   7.458  1.1519  0.1773 -0.0549
  181POPC   H3X20769   3.332   5.008   7.460 -0.1622  0.2190  1.6470
  181POPC   H3Y20770   3.235   4.868   7.510 -0.3143  2.5816 -1.1716
  181POPC   C3420771   3.311   4.857   7.312 -0.0504 -0.6234  0.9333
  181POPC   H4X20772   3.220   4.900   7.266  1.7245 -0.4239 -2.6950
  181POPC   H4Y20773   3.289   4.750   7.294  0.5670 -0.2345 -2.8844
  181POPC   C3520774   3.432   4.908   7.237  0.1002  0.2417 -0.1295
  181POPC   H5X20775   3.523   4.848   7.259 -1.4934 -1.1141  3.7271
  181POPC   H5Y20776   3.449   5.012   7.272  0.7771 -0.0528  0.4481
  181POPC   C3620777   3.402   4.900   7.091  0.2153 -0.0052 -0.5785
  181POPC   H6X20778   3.490   4.949   7.044  2.1841 -1.4721  1.3395
  181POPC   H6Y20779   3.307   4.954   7.068 -0.1442  0.5935  2.0443
  181POPC   C3720780   3.395   4.758   7.044 -0.2893  0.6748  0.1604
  181POPC   H7X20781   3.301   4.721   7.090 -1.2387  2.1505 -0.5052
  181POPC   H7Y20782   3.475   4.690   7.079  0.3377  1.9905  1.4003
  181POPC   C3820783   3.374   4.747   6.895 -0.1747  1.0227  1.4103
  181POPC   H8X20784   3.463   4.796   6.852  0.1624 -1.0915 -0.5300
  181POPC   H8Y20785   3.284   4.802   6.859 -2.2134 -2.4970  0.5671
  181POPC   C3920786   3.381   4.599   6.847  0.3588  0.1308 -0.2935
  181POPC   H9X20787   3.289   4.550   6.885  0.3328  0.9416  0.7508
  181POPC   H9Y20788   3.460   4.556   6.913  0.2796  1.3433  0.6401
  181POPC  C31020789   3.409   4.568   6.698 -0.5024 -0.0998  0.6860
  181POPC  H10X20790   3.378   4.462   6.683 -1.7421  0.0676  1.7934
  181POPC  H10Y20791   3.512   4.584   6.660 -1.0589  4.2952  0.5495
  181POPC  C31120792   3.310   4.645   6.605  0.1619 -0.0565  0.3008
  181POPC  H11X20793   3.330   4.751   6.631 -2.0060  0.3797  0.3987
  181POPC  H11Y20794   3.206   4.620   6.636  0.3379 -1.4236 -0.1602
  181POPC  C31220795   3.347   4.628   6.458 -0.2359  0.4087  0.4409
  181POPC  H12X20796   3.409   4.536   6.447 -1.1921 -0.0501 -1.4483
  181POPC  H12Y20797   3.402   4.712   6.410  0.5853 -0.3379  0.0501
  181POPC  C31320798   3.225   4.592   6.375 -0.2446 -0.0847 -0.5717
  181POPC  H13X20799   3.160   4.682   6.373  0.3945  0.3855 -0.8053
  181POPC  H13Y20800   3.171   4.497   6.395  0.7280 -0.2549  1.5503
  181POPC  C31420801   3.273   4.558   6.226  0.2363 -0.0428  0.0502
  181POPC  H14X20802   3.341   4.634   6.182 -0.1657  0.0625 -0.3909
  181POPC  H14Y20803   3.191   4.544   6.152  1.7915 -1.8288 -1.4537
  181POPC  C31520804   3.360   4.429   6.214 -0.0693  0.7932 -0.4222
  181POPC  H15X20805   3.321   4.359   6.291 -0.1461  1.7180  0.4031
  181POPC  H15Y20806   3.460   4.464   6.249 -1.1921  3.8520  0.0404
  181POPC  C31620807   3.378   4.373   6.076  0.3347 -0.1854 -0.3460
  181POPC  H16X20808   3.370   4.451   5.997 -0.8652 -0.5424 -0.6074
  181POPC  H16Y20809   3.298   4.297   6.063  1.8703 -1.5566 -2.4503
  181POPC  H16Z20810   3.479   4.329   6.067  0.7040  0.6122 -0.1606
  182POPC     N20811   0.087   2.364   8.508  0.0956  0.8162 -0.5538
  182POPC   C1220812   0.072   2.326   8.362 -0.8459 -0.0071  0.0655
  182POPC  H12A20813   0.158   2.280   8.315 -2.2986 -1.4456 -1.3180
  182POPC  H12B20814   0.058   2.421   8.312  0.0788 -0.7410 -1.6941
  182POPC   C1320815   0.095   2.237   8.593  0.2659  0.0970 -0.1115
  182POPC  H13A20816   0.004   2.180   8.584  0.1999  0.3791 -1.4433
  182POPC  H13B20817   0.178   2.177   8.557 -1.4905 -2.5421 -0.0610
  182POPC  H13C20818   0.109   2.249   8.699 -0.3284  0.0200 -0.0199
  182POPC   C1420819   0.208   2.439   8.519  0.7549 -0.1434 -0.5221
  182POPC  H14A20820   0.219   2.487   8.615 -0.1158 -2.2767  0.7013
  182POPC  H14B20821   0.298   2.386   8.495  0.9371 -0.3421  0.5786
  182POPC  H14C20822   0.198   2.517   8.445  1.4804  1.7797  1.3099
  182POPC   C1520823  -0.020   2.458   8.553 -0.5017 -0.0406 -0.0882
  182POPC  H15A20824  -0.018   2.557   8.510 -0.5909  0.4204  0.9423
  182POPC  H15B20825  -0.014   2.482   8.658  0.7586 -2.2424  0.4057
  182POPC  H15C20826  -0.113   2.411   8.524 -0.1637 -1.5196  1.0944
  182POPC   C1120827  -0.055   2.239   8.327 -0.6606 -1.0620  0.4326
  182POPC  H11A20828  -0.037   2.138   8.369  0.8461 -0.8311  0.3676
  182POPC  H11B20829  -0.055   2.226   8.216 -1.7025 -0.7871  0.3799
  182POPC     P20830  -0.270   2.386   8.283  0.0491 -0.1115  0.0384
  182POPC   O1320831  -0.183   2.501   8.252  0.2107 -0.7094 -0.5635
  182POPC   O1420832  -0.394   2.421   8.349 -0.2649  0.3883 -0.1203
  182POPC   O1220833  -0.180   2.291   8.371  0.1958  0.1165  0.4760
  182POPC   O1120834  -0.303   2.310   8.149 -0.0461  0.1086 -0.0207
  182POPC    C120835  -0.363   2.184   8.150 -0.6638  0.1281  0.1660
  182POPC    HA20836  -0.464   2.176   8.195  0.4253 -0.6038  2.7312
  182POPC    HB20837  -0.308   2.107   8.209 -1.5945 -1.9540 -1.5571
  182POPC    C220838  -0.363   2.127   8.001 -0.8603 -0.6163 -0.6337
  182POPC    HS20839  -0.431   2.040   7.996 -1.9778  0.2508 -0.9777
  182POPC   O2120840  -0.236   2.091   7.952 -0.7399  0.8121 -0.1848
  182POPC   C2120841  -0.189   1.971   7.999 -0.1809 -0.2792  0.5893
  182POPC   O2220842  -0.243   1.897   8.078  0.1137 -0.5274 -0.0636
  182POPC   C2220843  -0.044   1.943   7.956 -0.8373  0.3131 -1.3279
  182POPC   H2R20844  -0.024   1.835   7.940 -0.5875 -0.3395  2.5211
  182POPC   H2S20845   0.025   1.976   8.037  1.3084 -2.6297 -1.7942
  182POPC    C320846  -0.428   2.227   7.902  0.0446  0.1865  0.6044
  182POPC    HX20847  -0.378   2.326   7.910  0.6758 -0.0029 -0.7138
  182POPC    HY20848  -0.531   2.243   7.940 -0.5104  2.6666 -1.6278
  182POPC   O3120849  -0.448   2.184   7.765 -0.3913  0.1139 -0.0872
  182POPC   C3120850  -0.351   2.218   7.685 -0.6871 -0.4532  0.1591
  182POPC   O3220851  -0.250   2.279   7.716 -0.3570  0.6736  0.2157
  182POPC   C3220852  -0.382   2.163   7.550  0.0797 -0.2490 -0.8337
  182POPC   H2X20853  -0.470   2.096   7.547  0.0210 -0.1695 -0.8693
  182POPC   H2Y20854  -0.300   2.095   7.516  0.3874 -1.9727  2.8553
  182POPC   C2320855   0.001   2.004   7.818  0.1709  0.2738 -0.1353
  182POPC   H3R20856   0.108   1.976   7.809  0.1771  0.3418 -0.2752
  182POPC   H3S20857  -0.004   2.114   7.834  2.2873  0.6309 -1.5904
  182POPC   C2420858  -0.068   1.954   7.695  0.2073  0.8811  0.4493
  182POPC   H4R20859  -0.177   1.950   7.717  0.5504  0.9300  2.2967
  182POPC   H4S20860  -0.036   1.849   7.678  1.5393  1.7520 -3.4172
  182POPC   C2520861  -0.042   2.013   7.559  0.5080 -0.0748 -0.2388
  182POPC   H5R20862   0.066   2.035   7.550  0.6750 -0.8694 -0.2698
  182POPC   H5S20863  -0.083   2.116   7.559 -2.1701 -1.0281  1.1159
  182POPC   C2620864  -0.091   1.921   7.444 -0.3205 -0.0399  0.2614
  182POPC   H6R20865  -0.195   1.887   7.466 -0.8856  1.7675  0.6270
  182POPC   H6S20866  -0.030   1.828   7.447 -2.3689 -1.4780 -0.3676
  182POPC   C2720867  -0.081   1.989   7.310  0.2065 -0.0577 -0.5528
  182POPC   H7R20868   0.022   2.002   7.272 -0.9345  1.5598 -3.4803
  182POPC   H7S20869  -0.122   2.092   7.311 -1.3216 -0.6381 -0.8978
  182POPC   C2820870  -0.166   1.923   7.203 -0.2338 -0.3397  0.3417
  182POPC   H8R20871  -0.209   2.000   7.135 -0.8758 -2.4332 -1.7628
  182POPC   H8S20872  -0.250   1.872   7.256 -0.7283 -0.1659 -0.2679
  182POPC   C2920873  -0.082   1.823   7.121 -0.3145 -0.6892  0.7901
  182POPC   H9120874  -0.040   1.735   7.172  1.0665  0.5339  1.8631
  182POPC  C21020875  -0.062   1.829   6.987 -0.0316  0.2710  0.3020
  182POPC  H10120876   0.006   1.754   6.943  0.9497 -0.1562  2.4289
  182POPC  C21120877  -0.103   1.943   6.894 -0.2625 -0.3863 -0.1459
  182POPC  H11R20878  -0.142   2.027   6.955  3.1026  0.0380  1.6589
  182POPC  H11S20879  -0.195   1.912   6.839 -1.4422  0.3038  1.3474
  182POPC  C21220880   0.008   1.981   6.797  0.1777 -0.1251 -0.2934
  182POPC  H12R20881   0.019   1.897   6.725  1.3778 -1.2820  1.1622
  182POPC  H12S20882   0.104   1.992   6.851  0.7331 -1.3400 -0.9990
  182POPC  C21320883  -0.018   2.106   6.711  0.7487 -0.3929 -0.4094
  182POPC  H13R20884   0.075   2.132   6.658  0.0242  1.6175 -0.8033
  182POPC  H13S20885  -0.049   2.191   6.776 -2.4315 -1.7968  0.1335
  182POPC  C21420886  -0.128   2.095   6.595  0.2974  0.1333 -1.0862
  182POPC  H14R20887  -0.216   2.036   6.628 -0.5141  0.5655 -2.3941
  182POPC  H14S20888  -0.070   2.036   6.521 -0.8565  0.8108 -2.5736
  182POPC  C21520889  -0.182   2.226   6.534 -0.1489 -0.0263  0.7876
  182POPC  H15R20890  -0.100   2.292   6.499 -1.8809  1.7484 -0.0835
  182POPC  H15S20891  -0.245   2.276   6.610  0.2318 -0.8276  1.6550
  182POPC  C21620892  -0.255   2.193   6.407 -0.3776 -0.5138  0.6555
  182POPC  H16R20893  -0.360   2.168   6.434 -2.0665  3.4756 -1.3604
  182POPC  H16S20894  -0.218   2.105   6.349  1.7247  3.0592 -4.0870
  182POPC  C21720895  -0.262   2.309   6.315 -0.1722  0.1245 -0.5297
  182POPC  H17R20896  -0.156   2.334   6.292  0.7371 -2.4233  0.5001
  182POPC  H17S20897  -0.309   2.398   6.361  0.9779  0.3888  0.1917
  182POPC  C21820898  -0.338   2.282   6.185  0.1066 -0.1091 -0.2228
  182POPC  H18R20899  -0.314   2.363   6.113  2.3703  0.0539  0.6443
  182POPC  H18S20900  -0.448   2.280   6.197 -0.0070 -2.1291 -1.1845
  182POPC  H18T20901  -0.314   2.178   6.153 -0.4680 -0.7724  1.3946
  182POPC   C3320902  -0.389   2.275   7.440  0.2669 -0.1434  0.0864
  182POPC   H3X20903  -0.293   2.329   7.450  0.6295 -0.7639 -0.0041
  182POPC   H3Y20904  -0.476   2.342   7.459 -0.1066 -0.4704 -0.4175
  182POPC   C3420905  -0.404   2.212   7.295 -0.5570  0.1307  0.3683
  182POPC   H4X20906  -0.492   2.145   7.307 -0.5459  0.4057  2.1814
  182POPC   H4Y20907  -0.328   2.133   7.275 -0.4351  0.7203 -1.8172
  182POPC   C3520908  -0.425   2.310   7.182  0.5211 -0.1115 -0.4319
  182POPC   H5X20909  -0.338   2.378   7.169  0.2036  0.4846  0.4718
  182POPC   H5Y20910  -0.512   2.377   7.198  0.6142  0.0006 -0.3911
  182POPC   C3620911  -0.433   2.236   7.051  0.1667 -0.6032 -0.9604
  182POPC   H6X20912  -0.523   2.171   7.052 -0.0442 -0.3249  0.4066
  182POPC   H6Y20913  -0.351   2.162   7.045  0.2610 -1.1791  3.7696
  182POPC   C3720914  -0.442   2.331   6.932  0.3625 -0.3151  0.4420
  182POPC   H7X20915  -0.355   2.400   6.938  0.4143 -0.4626  1.6029
  182POPC   H7Y20916  -0.532   2.395   6.940 -1.1022 -1.9098 -1.7564
  182POPC   C3820917  -0.442   2.255   6.792  0.3069 -0.3891 -0.4693
  182POPC   H8X20918  -0.340   2.213   6.794  0.5756  0.2809  0.5905
  182POPC   H8Y20919  -0.466   2.327   6.710 -0.7762  0.3910  0.4893
  182POPC   C3920920  -0.553   2.149   6.787 -0.1131  1.0516 -0.3174
  182POPC   H9X20921  -0.649   2.192   6.820 -0.7881  0.1398 -1.0567
  182POPC   H9Y20922  -0.527   2.069   6.860  0.6291  0.6210 -1.0240
  182POPC  C31020923  -0.579   2.084   6.644 -0.8975 -0.3715 -0.4998
  182POPC  H10X20924  -0.645   1.996   6.659 -2.0238  0.2287 -1.6931
  182POPC  H10Y20925  -0.485   2.047   6.597 -0.0307 -0.3095  1.1189
  182POPC  C31120926  -0.644   2.172   6.539 -0.5699 -0.6265  0.0508
  182POPC  H11X20927  -0.564   2.240   6.501  0.2761 -1.8257 -0.3582
  182POPC  H11Y20928  -0.722   2.243   6.576 -0.9082 -0.7434 -0.4361
  182POPC  C31220929  -0.689   2.096   6.416  0.3354  0.1313 -0.0823
  182POPC  H12X20930  -0.772   2.025   6.433  0.8629 -0.7372 -1.0623
  182POPC  H12Y20931  -0.600   2.037   6.385  0.9395  0.9594  0.0194
  182POPC  C31320932  -0.749   2.184   6.304 -0.1725 -0.0706 -0.0746
  182POPC  H13X20933  -0.673   2.256   6.267 -0.4671  0.3843  0.1946
  182POPC  H13Y20934  -0.838   2.237   6.344  0.8005  0.6542  1.1660
  182POPC  C31420935  -0.797   2.102   6.181 -0.0387  0.2603  0.2096
  182POPC  H14X20936  -0.898   2.058   6.194 -1.5533  2.9972 -1.2089
  182POPC  H14Y20937  -0.726   2.017   6.169  0.7453  1.0778 -1.3634
  182POPC  C31520938  -0.791   2.166   6.041  0.1604  0.4272  0.5321
  182POPC  H15X20939  -0.851   2.259   6.040 -1.3074 -0.4531  1.9382
  182POPC  H15Y20940  -0.835   2.100   5.963  1.6025  0.8030 -0.6319
  182POPC  C31620941  -0.642   2.206   5.999  0.5577 -0.6940 -1.0368
  182POPC  H16X20942  -0.611   2.303   6.044 -1.1155 -1.7784  2.8791
  182POPC  H16Y20943  -0.656   2.215   5.889  0.6909 -0.2682 -1.0226
  182POPC  H16Z20944  -0.576   2.120   6.023 -2.5259 -3.8420 -2.9298
  183POPC     N20945   2.218   2.174   8.349 -0.8495 -0.1063  0.2694
  183POPC   C1220946   2.350   2.193   8.270  0.3610 -0.1535 -0.1499
  183POPC  H12A20947   2.371   2.299   8.261 -1.1921  0.1686 -0.3780
  183POPC  H12B20948   2.328   2.161   8.169 -0.5769 -3.2491  0.9343
  183POPC   C1320949   2.179   2.028   8.355  0.2579 -0.8386  0.4203
  183POPC  H13A20950   2.271   1.977   8.379  1.8831  1.1821 -1.1768
  183POPC  H13B20951   2.108   2.014   8.435 -0.6860 -1.7118 -0.5356
  183POPC  H13C20952   2.145   2.001   8.256 -0.7305  1.4605  0.0718
  183POPC   C1420953   2.246   2.208   8.497  0.4499 -0.5624  0.0443
  183POPC  H14A20954   2.318   2.138   8.536  0.5946  0.0704  0.9455
  183POPC  H14B20955   2.286   2.307   8.515 -1.7356  0.6652 -1.4650
  183POPC  H14C20956   2.157   2.185   8.553  1.0205 -2.1531  0.3481
  183POPC   C1520957   2.116   2.263   8.291  0.1462  0.8000 -0.5579
  183POPC  H15A20958   2.024   2.240   8.342  0.4285 -1.3804 -0.9732
  183POPC  H15B20959   2.101   2.258   8.185 -2.4199  3.0388 -0.4269
  183POPC  H15C20960   2.146   2.367   8.303  0.4024  0.6310  0.4003
  183POPC   C1120961   2.478   2.128   8.316  0.5065  0.0519 -0.0737
  183POPC  H11A20962   2.513   2.153   8.418  2.2206 -0.5196 -0.4890
  183POPC  H11B20963   2.562   2.157   8.249 -0.4980 -1.7856 -2.2806
  183POPC     P20964   2.559   1.883   8.259  0.1514  0.2160  0.4011
  183POPC   O1320965   2.508   1.752   8.305  0.2803  0.4792  0.0704
  183POPC   O1420966   2.698   1.919   8.289 -0.5561  0.2993 -0.0592
  183POPC   O1220967   2.469   1.987   8.319  0.4050  0.8328 -0.2067
  183POPC   O1120968   2.537   1.911   8.106 -0.0220 -0.3907  0.1179
  183POPC    C120969   2.408   1.924   8.043 -0.3631 -0.4202  0.2036
  183POPC    HA20970   2.399   2.029   8.008  0.7946 -0.4241 -0.1281
  183POPC    HB20971   2.319   1.906   8.107  0.6138 -1.2971  1.3591
  183POPC    C220972   2.394   1.817   7.939 -0.3361 -0.7246  0.3061
  183POPC    HS20973   2.425   1.721   7.985 -1.8242 -0.3362  2.2801
  183POPC   O2120974   2.477   1.853   7.825  0.0921 -0.6809 -0.5839
  183POPC   C2120975   2.502   1.754   7.749 -0.6282 -0.4831  0.3276
  183POPC   O2220976   2.478   1.632   7.771 -0.2796 -0.3523  0.0304
  183POPC   C2220977   2.561   1.811   7.625  0.7541  0.6021 -0.4309
  183POPC   H2R20978   2.660   1.855   7.651  0.9200 -0.1445  0.2563
  183POPC   H2S20979   2.498   1.890   7.580 -0.5893  0.0671  0.4510
  183POPC    C320980   2.241   1.796   7.886  0.2329 -0.7732  0.1273
  183POPC    HX20981   2.179   1.764   7.972  0.2384 -0.9738  0.0571
  183POPC    HY20982   2.240   1.712   7.813  0.4455 -0.4546 -0.2449
  183POPC   O3120983   2.191   1.925   7.828  0.1141 -0.4250  0.0552
  183POPC   C3120984   2.122   2.003   7.915  0.4550  0.3006  0.0619
  183POPC   O3220985   2.094   1.982   8.031  0.2328 -0.0718 -0.0566
  183POPC   C3220986   2.091   2.132   7.852  0.2024  0.2457 -0.4830
  183POPC   H2X20987   2.186   2.182   7.821  0.8902  0.6755  2.1027
  183POPC   H2Y20988   2.048   2.195   7.932  0.1209 -0.2312 -0.1488
  183POPC   C2320989   2.591   1.687   7.531 -0.1199 -0.3184  0.1441
  183POPC   H3R20990   2.499   1.628   7.510 -0.7115  1.1894 -1.8555
  183POPC   H3S20991   2.666   1.613   7.566  1.4990  1.8212  1.4649
  183POPC   C2420992   2.633   1.734   7.392  0.1089  0.3933  1.2613
  183POPC   H4R20993   2.712   1.813   7.394 -0.0510  0.5387  1.9055
  183POPC   H4S20994   2.548   1.780   7.336  0.1932  0.8749  1.5184
  183POPC   C2520995   2.678   1.613   7.313 -0.1248 -0.9520  1.0023
  183POPC   H5R20996   2.589   1.547   7.308 -0.2412 -0.7325 -2.2934
  183POPC   H5S20997   2.757   1.559   7.370  1.2111  0.6450  0.7718
  183POPC   C2620998   2.718   1.638   7.165  0.4136  0.4111  0.4407
  183POPC   H6R20999   2.817   1.689   7.162 -0.3442  1.9337  0.7300
  183POPC   H6S21000   2.648   1.693   7.098  1.5062  0.9836 -0.2757
  183POPC   C2721001   2.737   1.496   7.083  0.1784  0.1507  0.6119
  183POPC   H7R21002   2.632   1.462   7.095  0.5651 -0.9444  1.0264
  183POPC   H7S21003   2.796   1.433   7.153 -0.1624 -0.3845  0.4235
  183POPC   C2821004   2.781   1.513   6.939 -0.5893 -0.2546  0.1127
  183POPC   H8R21005   2.881   1.562   6.941 -1.5484  1.7914  0.0225
  183POPC   H8S21006   2.709   1.585   6.896 -1.6916 -2.5811 -2.2275
  183POPC   C2921007   2.785   1.386   6.865 -0.7599  0.1948  0.1656
  183POPC   H9121008   2.779   1.299   6.932 -3.1126  0.2340  0.0803
  183POPC  C21021009   2.797   1.371   6.731  0.5007 -0.7618 -0.4125
  183POPC  H10121010   2.814   1.271   6.687  0.0642 -0.8514 -0.3858
  183POPC  C21121011   2.820   1.485   6.634  0.1843  0.2307 -0.1405
  183POPC  H11R21012   2.901   1.455   6.564  1.3674  0.8087  0.9360
  183POPC  H11S21013   2.843   1.581   6.686  0.6639 -0.0463  0.1658
  183POPC  C21221014   2.688   1.494   6.543  0.2157  0.1785  0.0516
  183POPC  H12R21015   2.653   1.397   6.501  0.8114 -0.0521  0.0744
  183POPC  H12S21016   2.708   1.551   6.449 -1.8478  0.3810 -0.3103
  183POPC  C21321017   2.567   1.551   6.615 -0.4251 -0.3685  0.0463
  183POPC  H13R21018   2.588   1.654   6.648 -2.0004  0.6043 -1.7409
  183POPC  H13S21019   2.557   1.494   6.710 -0.7847  1.0973  0.9064
  183POPC  C21421020   2.441   1.559   6.525 -0.3402  0.3689  0.0032
  183POPC  H14R21021   2.459   1.630   6.441  1.3648 -0.5884 -0.4843
  183POPC  H14S21022   2.361   1.606   6.586 -1.5400  0.6700 -1.7356
  183POPC  C21521023   2.404   1.422   6.462  1.0703 -0.2648  0.0752
  183POPC  H15R21024   2.426   1.342   6.535 -0.0266  0.0596  0.7978
  183POPC  H15S21025   2.459   1.386   6.373  1.5395 -0.4114  0.4188
  183POPC  C21621026   2.255   1.416   6.438  0.4022  0.3292  0.4567
  183POPC  H16R21027   2.231   1.494   6.363 -1.5620  0.8780  1.5791
  183POPC  H16S21028   2.190   1.434   6.526 -2.8646  0.5066 -1.7866
  183POPC  C21721029   2.210   1.287   6.368 -0.4485 -0.2308  0.2638
  183POPC  H17R21030   2.195   1.206   6.443  0.3911 -1.4912 -0.8878
  183POPC  H17S21031   2.282   1.252   6.291 -0.3172  0.0876  0.2421
  183POPC  C21821032   2.074   1.312   6.300  0.6603 -0.7486  0.1985
  183POPC  H18R21033   2.022   1.220   6.268  1.8022 -0.7490 -1.8667
  183POPC  H18S21034   2.094   1.378   6.212 -0.3903  1.7034  1.6979
  183POPC  H18T21035   2.014   1.379   6.365  0.8688 -0.6878  0.3318
  183POPC   C3321036   1.985   2.123   7.732  0.3219 -0.4229 -0.6454
  183POPC   H3X21037   1.950   2.227   7.716 -0.0090 -0.2201  1.1839
  183POPC   H3Y21038   1.901   2.063   7.774  0.8880 -0.8156 -0.0457
  183POPC   C3421039   2.041   2.071   7.608  0.3557 -0.0419 -0.4748
  183POPC   H4X21040   2.098   1.977   7.624 -0.5115 -0.1234  2.7972
  183POPC   H4Y21041   2.103   2.149   7.559  2.7113 -0.0423  2.2881
  183POPC   C3521042   1.923   2.037   7.519  0.4465 -0.1623 -0.1040
  183POPC   H5X21043   1.834   2.102   7.535  2.2796  2.5682 -0.3503
  183POPC   H5Y21044   1.884   1.937   7.548 -0.9623  1.1772  3.0560
  183POPC   C3621045   1.952   2.048   7.366  0.3987  0.3001 -0.2262
  183POPC   H6X21046   2.055   2.011   7.349  0.0800 -0.7739  0.1328
  183POPC   H6Y21047   1.953   2.154   7.333  3.0276  0.6396  0.6948
  183POPC   C3721048   1.838   1.970   7.288 -0.5378  0.1297  0.0154
  183POPC   H7X21049   1.753   2.036   7.314  0.4875  1.5960 -0.2371
  183POPC   H7Y21050   1.825   1.866   7.326 -1.7193  0.0921 -0.4708
  183POPC   C3821051   1.884   1.960   7.142  0.9318 -0.0061 -0.0878
  183POPC   H8X21052   1.814   1.891   7.090  1.9397  0.6904 -2.4953
  183POPC   H8Y21053   1.988   1.922   7.145  0.6839 -0.6816  0.4695
  183POPC   C3921054   1.867   2.096   7.071 -0.4401 -0.2143  0.2155
  183POPC   H9X21055   1.952   2.157   7.109  0.3043 -1.0370 -0.0931
  183POPC   H9Y21056   1.770   2.147   7.089 -1.3103 -1.9345  0.6097
  183POPC  C31021057   1.903   2.095   6.922  0.1177  0.1309 -0.7585
  183POPC  H10X21058   1.832   2.033   6.863  1.3055 -0.7921 -1.2672
  183POPC  H10Y21059   2.002   2.049   6.900  1.3065  1.5346  1.2914
  183POPC  C31121060   1.890   2.234   6.864 -0.1501 -0.1682  0.2578
  183POPC  H11X21061   1.933   2.308   6.934 -0.1302 -0.7552  0.8769
  183POPC  H11Y21062   1.785   2.267   6.845 -0.1659 -0.6252 -0.4760
  183POPC  C31221063   1.961   2.228   6.731 -0.1637  0.2875  0.3311
  183POPC  H12X21064   1.910   2.169   6.652  2.2239  0.7950 -1.7537
  183POPC  H12Y21065   2.061   2.184   6.753 -0.6309 -1.6752 -1.1581
  183POPC  C31321066   1.996   2.374   6.677  0.5833  1.0356 -0.5260
  183POPC  H13X21067   2.071   2.372   6.595  0.4286  1.2693 -0.6721
  183POPC  H13Y21068   2.038   2.427   6.765  0.1892  2.3014 -1.0836
  183POPC  C31421069   1.871   2.448   6.637  0.4891  0.2679 -0.3929
  183POPC  H14X21070   1.901   2.554   6.618 -2.3423  1.1615 -0.3499
  183POPC  H14Y21071   1.797   2.441   6.720  1.6681  0.2926  0.6916
  183POPC  C31521072   1.821   2.383   6.511  0.3467 -1.0453  0.0183
  183POPC  H15X21073   1.755   2.298   6.540 -1.6984  1.4423  3.5074
  183POPC  H15Y21074   1.904   2.352   6.444  0.5846 -0.4385  0.0312
  183POPC  C31621075   1.722   2.475   6.432 -0.4320  0.7888 -0.2790
  183POPC  H16X21076   1.642   2.515   6.497 -0.1415 -1.9306  1.9234
  183POPC  H16Y21077   1.681   2.405   6.356  0.9764 -1.5829  1.0119
  183POPC  H16Z21078   1.774   2.561   6.384 -1.2989  1.8076  0.5677
  184POPC     N21079   3.333   3.013   8.370  0.6046 -1.1035 -0.1137
  184POPC   C1221080   3.255   3.147   8.381  0.0637 -0.6984 -0.0467
  184POPC  H12A21081   3.322   3.231   8.368 -0.6885 -0.0016  0.4572
  184POPC  H12B21082   3.211   3.159   8.479  0.8861  1.9348  0.0911
  184POPC   C1321083   3.238   2.895   8.401  0.6809  0.5267 -0.5870
  184POPC  H13A21084   3.292   2.804   8.422  0.1152  1.0234  4.0457
  184POPC  H13B21085   3.178   2.909   8.489  0.3532 -1.7695 -0.3970
  184POPC  H13C21086   3.166   2.866   8.326  0.0119  1.5201 -0.3450
  184POPC   C1421087   3.395   2.993   8.240  1.2017  0.6958 -0.3996
  184POPC  H14A21088   3.484   3.054   8.233  0.3522  1.7895 -3.6273
  184POPC  H14B21089   3.434   2.892   8.228  1.9530  0.8964  0.2902
  184POPC  H14C21090   3.324   3.030   8.168 -1.4045 -2.6078  0.2273
  184POPC   C1521091   3.441   2.996   8.472 -0.1109 -0.2697  0.2850
  184POPC  H15A21092   3.406   2.995   8.574  0.3861  1.5909  0.5237
  184POPC  H15B21093   3.522   3.068   8.466  1.7062 -2.2339  0.2845
  184POPC  H15C21094   3.472   2.893   8.470 -1.8549 -0.8046 -1.1687
  184POPC   C1121095   3.133   3.153   8.292  0.0863  0.3007  0.2189
  184POPC  H11A21096   3.079   3.244   8.326 -0.3915 -0.1898  0.7993
  184POPC  H11B21097   3.063   3.069   8.316 -0.5300  1.2707  2.0497
  184POPC     P21098   3.200   3.296   8.088  0.0807 -0.0657  0.0066
  184POPC   O1321099   3.296   3.270   7.984  0.1422  0.1111 -0.2178
  184POPC   O1421100   3.240   3.395   8.192  0.3463  0.7519  0.0558
  184POPC   O1221101   3.161   3.157   8.152 -0.4028  0.3644  0.0811
  184POPC   O1121102   3.060   3.344   8.018 -0.1599  0.4174 -0.0364
  184POPC    C121103   2.942   3.261   8.011  0.7672  0.3325  0.2893
  184POPC    HA21104   2.855   3.324   8.038 -0.3075 -1.5626  1.5225
  184POPC    HB21105   2.940   3.165   8.067 -2.1438  0.0111 -0.1911
  184POPC    C221106   2.909   3.236   7.865  0.4062  0.4262  0.2686
  184POPC    HS21107   2.819   3.170   7.868  0.5700  0.2135  0.6923
  184POPC   O2121108   3.017   3.166   7.801  0.2753  0.3452 -0.5912
  184POPC   C2121109   3.031   3.042   7.822 -0.8638 -0.2953 -0.1994
  184POPC   O2221110   2.968   2.967   7.890  0.1530  0.4300 -0.3194
  184POPC   C2221111   3.159   2.999   7.751  0.2857  0.5290  0.3941
  184POPC   H2R21112   3.224   2.948   7.825 -0.5883 -0.3926  0.5564
  184POPC   H2S21113   3.213   3.087   7.711 -0.6087  0.7845 -0.3164
  184POPC    C321114   2.887   3.361   7.790  0.4072  0.1420  0.3410
  184POPC    HX21115   2.985   3.414   7.786 -1.1481  3.1134 -2.2719
  184POPC    HY21116   2.819   3.429   7.844  1.6909  1.2532  0.6160
  184POPC   O3121117   2.850   3.329   7.651  0.4813  0.3776  0.6623
  184POPC   C3121118   2.720   3.326   7.633  0.4801  0.2218 -0.5919
  184POPC   O3221119   2.634   3.357   7.714 -0.2366 -0.1014  0.1697
  184POPC   C3221120   2.675   3.267   7.494 -0.7548  0.0946 -0.0844
  184POPC   H2X21121   2.580   3.313   7.462 -0.3641  0.5352 -0.6250
  184POPC   H2Y21122   2.653   3.159   7.504  0.0440 -0.1404 -0.7149
  184POPC   C2321123   3.122   2.903   7.636  0.0024 -0.8658 -0.0875
  184POPC   H3R21124   3.040   2.830   7.653  0.3730 -1.0147  1.1782
  184POPC   H3S21125   3.210   2.836   7.619 -0.6269 -2.2332  1.7268
  184POPC   C2421126   3.080   2.985   7.511  0.2424  0.2513  0.4721
  184POPC   H4R21127   3.165   3.048   7.477 -1.1712  2.4754  0.9089
  184POPC   H4S21128   2.998   3.059   7.516  0.5690  0.7484 -1.0619
  184POPC   C2521129   3.039   2.886   7.406 -0.2797 -0.4353 -0.0699
  184POPC   H5R21130   2.996   2.798   7.458 -4.1107  1.3293  0.1630
  184POPC   H5S21131   3.126   2.851   7.346 -0.6949 -1.4453 -0.0993
  184POPC   C2621132   2.931   2.942   7.306 -0.2222  0.3902  0.2655
  184POPC   H6R21133   2.970   3.032   7.254  2.2780 -0.4631  0.5308
  184POPC   H6S21134   2.845   2.968   7.371  0.3708 -0.0090  1.2300
  184POPC   C2721135   2.879   2.841   7.195 -1.0692  0.0622 -0.9759
  184POPC   H7R21136   2.835   2.759   7.256 -1.5048  1.9840  1.4425
  184POPC   H7S21137   2.961   2.796   7.135 -1.8884 -1.7130 -0.8359
  184POPC   C2821138   2.767   2.897   7.105  0.0885  0.7627  0.4430
  184POPC   H8R21139   2.797   2.976   7.034  0.3516 -0.0200 -0.3333
  184POPC   H8S21140   2.686   2.940   7.168 -1.5312  0.0569 -1.0623
  184POPC   C2921141   2.724   2.776   7.023  0.3471 -0.3556  0.1101
  184POPC   H9121142   2.685   2.685   7.072  0.7144 -1.1438 -1.0085
  184POPC  C21021143   2.739   2.762   6.888 -0.1861  0.0815 -0.7410
  184POPC  H10121144   2.703   2.675   6.830  5.0000 -0.2772 -4.0396
  184POPC  C21121145   2.776   2.863   6.793  0.2213  0.4816  0.5378
  184POPC  H11R21146   2.845   2.933   6.846 -0.6103 -0.0248  2.3926
  184POPC  H11S21147   2.687   2.923   6.764  0.0365  0.0824  0.2722
  184POPC  C21221148   2.849   2.799   6.676 -0.9619  0.3060  0.8930
  184POPC  H12R21149   2.937   2.742   6.712  0.6810  3.1009  1.5743
  184POPC  H12S21150   2.878   2.880   6.606 -0.1528 -0.2748  0.5315
  184POPC  C21321151   2.769   2.701   6.586 -0.5548  0.9437 -0.0432
  184POPC  H13R21152   2.677   2.761   6.568 -0.7807  1.4066  2.3329
  184POPC  H13S21153   2.746   2.608   6.641 -0.1214  1.0130  0.2598
  184POPC  C21421154   2.836   2.663   6.459  0.2053  0.2458  0.7255
  184POPC  H14R21155   2.934   2.610   6.456  0.3423  0.2902 -4.0212
  184POPC  H14S21156   2.866   2.760   6.413 -0.2768  0.4128  0.7585
  184POPC  C21521157   2.751   2.588   6.352  0.1442 -0.5380  0.4683
  184POPC  H15R21158   2.784   2.608   6.248 -1.1615  0.3231  0.2037
  184POPC  H15S21159   2.645   2.618   6.355  0.1127 -0.6488  0.4851
  184POPC  C21621160   2.744   2.429   6.355 -0.9586 -0.0736 -0.0559
  184POPC  H16R21161   2.686   2.386   6.439 -0.4023  0.2101  0.4820
  184POPC  H16S21162   2.848   2.392   6.364  0.2192  3.2525  2.5931
  184POPC  C21721163   2.650   2.377   6.237  0.1527 -0.3030  1.1102
  184POPC  H17R21164   2.708   2.401   6.145 -1.1322  0.7249  0.5491
  184POPC  H17S21165   2.548   2.420   6.236 -2.2317 -5.2466 -0.3457
  184POPC  C21821166   2.645   2.228   6.254 -0.3380  0.6212  0.1945
  184POPC  H18R21167   2.597   2.177   6.168  0.3070  0.8244 -0.2947
  184POPC  H18S21168   2.584   2.207   6.345  0.3914  0.6010  0.6971
  184POPC  H18T21169   2.745   2.180   6.270 -0.1224  1.0161  0.0368
  184POPC   C3321170   2.787   3.287   7.385  0.1232 -0.5474 -0.2954
  184POPC   H3X21171   2.871   3.214   7.380  2.4557  1.8055  1.3008
  184POPC   H3Y21172   2.833   3.387   7.399  0.4404 -0.7185 -0.0868
  184POPC   C3421173   2.727   3.301   7.244  0.1229  0.2938 -0.0381
  184POPC   H4X21174   2.646   3.376   7.248  0.2561  0.6276 -2.2114
  184POPC   H4Y21175   2.694   3.195   7.232 -1.9281  0.3484  3.7028
  184POPC   C3521176   2.819   3.323   7.131 -0.5465  0.6503 -0.2108
  184POPC   H5X21177   2.895   3.241   7.127 -0.0087  1.1340 -0.0441
  184POPC   H5Y21178   2.861   3.426   7.127 -0.4092  0.5555 -2.5466
  184POPC   C3621179   2.751   3.289   7.001 -0.0709 -0.1744 -0.3078
  184POPC   H6X21180   2.696   3.381   6.972  2.9240  1.4304 -1.2961
  184POPC   H6Y21181   2.682   3.203   7.016 -0.6274  0.2942 -0.1238
  184POPC   C3721182   2.847   3.263   6.886  0.1622 -0.2542  0.1067
  184POPC   H7X21183   2.910   3.175   6.910 -3.5503 -3.4094 -0.6551
  184POPC   H7Y21184   2.910   3.351   6.859 -1.2047  0.3185 -1.3980
  184POPC   C3821185   2.774   3.228   6.754  0.0503  0.8217  0.2794
  184POPC   H8X21186   2.694   3.304   6.738 -0.0162  0.5425 -0.8168
  184POPC   H8Y21187   2.721   3.134   6.780  2.8299 -1.0189 -0.3020
  184POPC   C3921188   2.864   3.206   6.634 -0.8781  0.2868  0.4104
  184POPC   H9X21189   2.843   3.106   6.590  0.9087 -0.5599  1.3371
  184POPC   H9Y21190   2.968   3.206   6.675 -0.6822 -0.2699 -0.0644
  184POPC  C31021191   2.826   3.298   6.516  0.3443 -0.4045 -0.1059
  184POPC  H10X21192   2.724   3.262   6.491 -0.3724 -1.4222  3.6454
  184POPC  H10Y21193   2.896   3.282   6.431 -1.6189  1.7748 -2.2918
  184POPC  C31121194   2.821   3.448   6.559 -0.4419 -0.5935 -0.8063
  184POPC  H11X21195   2.919   3.472   6.604 -1.5119 -0.2372  1.4752
  184POPC  H11Y21196   2.754   3.467   6.645  0.2166 -4.7195  0.8353
  184POPC  C31221197   2.771   3.543   6.448 -0.1651 -0.1218 -0.0745
  184POPC  H12X21198   2.725   3.636   6.489 -0.6856  0.5206 -1.9988
  184POPC  H12Y21199   2.692   3.490   6.392 -0.5946  0.5500 -0.1101
  184POPC  C31321200   2.889   3.582   6.351 -0.0208  0.3747 -0.2467
  184POPC  H13X21201   2.914   3.484   6.305  1.3192 -0.0643  1.3339
  184POPC  H13Y21202   2.981   3.600   6.409  0.7707 -1.8110 -0.7178
  184POPC  C31421203   2.846   3.691   6.251  0.2460  0.6267 -0.4141
  184POPC  H14X21204   2.811   3.770   6.322  2.4566 -0.9394  2.6759
  184POPC  H14Y21205   2.765   3.666   6.179  0.5116 -0.9187 -0.2062
  184POPC  C31521206   2.960   3.770   6.176 -0.4819  0.2303  0.1930
  184POPC  H15X21207   2.917   3.843   6.104  1.5367  0.4036 -0.9202
  184POPC  H15Y21208   3.007   3.688   6.119 -2.2942 -0.3645 -0.4775
  184POPC  C31621209   3.062   3.842   6.258  0.1765 -0.5354  0.4473
  184POPC  H16X21210   3.118   3.774   6.326 -0.5999 -1.0498  0.5745
  184POPC  H16Y21211   3.013   3.924   6.315 -0.2730 -0.4964  0.0046
  184POPC  H16Z21212   3.133   3.896   6.192 -1.7506  1.2828 -0.2374
  185POPC     N21213   5.365   6.223   3.661 -0.0329  0.4755 -0.4159
  185POPC   C1221214   5.467   6.324   3.717  0.4864 -0.0326  0.2289
  185POPC  H12A21215   5.444   6.340   3.821 -1.1975 -1.1702  0.0713
  185POPC  H12B21216   5.451   6.415   3.660 -1.6815 -0.4822  0.0422
  185POPC   C1321217   5.358   6.106   3.758  0.4589  0.4086 -0.3018
  185POPC  H13A21218   5.264   6.108   3.811 -0.9408 -0.9416 -2.5199
  185POPC  H13B21219   5.361   6.012   3.703  2.5625  1.4362 -2.1082
  185POPC  H13C21220   5.440   6.113   3.827  0.9544  0.3706 -0.8712
  185POPC   C1421221   5.233   6.271   3.646 -0.4123 -0.7263 -0.4695
  185POPC  H14A21222   5.226   6.350   3.573 -0.3671  1.4208  1.7336
  185POPC  H14B21223   5.168   6.193   3.609 -0.7694 -1.3754  1.4547
  185POPC  H14C21224   5.188   6.312   3.735  1.5606 -3.1829  1.8108
  185POPC   C1521225   5.420   6.163   3.532 -0.1560  0.5935 -0.0663
  185POPC  H15A21226   5.363   6.083   3.487 -0.7230  1.2117 -0.4646
  185POPC  H15B21227   5.521   6.127   3.537 -0.7619 -1.0521  1.2347
  185POPC  H15C21228   5.423   6.245   3.462 -0.0996 -1.0445 -2.0799
  185POPC   C1121229   5.621   6.287   3.705 -0.1708 -0.0294  0.1582
  185POPC  H11A21230   5.673   6.373   3.753 -2.3463  0.7534  1.2737
  185POPC  H11B21231   5.653   6.296   3.599 -4.0898 -2.2946 -1.4652
  185POPC     P21232   5.720   6.038   3.726  0.0584  0.0354 -0.1031
  185POPC   O1321233   5.717   6.049   3.579  0.2830 -0.7435  0.5779
  185POPC   O1421234   5.647   5.930   3.795 -0.1374 -0.1069 -0.2242
  185POPC   O1221235   5.657   6.171   3.782  0.2338  0.2453  0.2555
  185POPC   O1121236   5.867   6.035   3.779  0.0490 -0.4991 -0.0211
  185POPC    C121237   5.940   6.143   3.838 -0.2153 -0.4157  0.4874
  185POPC    HA21238   5.873   6.224   3.874  1.8353  2.1216 -1.0406
  185POPC    HB21239   6.005   6.191   3.762  1.0665 -0.1727  1.7190
  185POPC    C221240   6.020   6.103   3.966  0.2336 -0.0869  0.2389
  185POPC    HS21241   6.102   6.034   3.938  0.1839  0.6869 -2.0687
  185POPC   O2121242   5.924   6.052   4.061 -0.2957 -0.2048 -0.5164
  185POPC   C2121243   5.980   5.972   4.155  0.8133 -0.1155 -0.3394
  185POPC   O2221244   6.102   5.951   4.166 -0.0504  0.5688 -0.3150
  185POPC   C2221245   5.872   5.929   4.251  0.0298  0.5491 -0.5211
  185POPC   H2R21246   5.792   5.878   4.194 -0.1503 -0.4003  0.5338
  185POPC   H2S21247   5.830   6.022   4.297 -0.1504  0.7226 -1.0342
  185POPC    C321248   6.079   6.241   4.022  0.3042  0.6676 -0.1279
  185POPC    HX21249   5.985   6.292   4.051 -1.9857 -2.7406 -0.8739
  185POPC    HY21250   6.131   6.291   3.937  0.0948  1.4395  0.1962
  185POPC   O3121251   6.174   6.228   4.132 -0.1401  0.0157  0.6276
  185POPC   C3121252   6.141   6.283   4.252  0.3858  0.4357 -0.2820
  185POPC   O3221253   6.041   6.349   4.271  0.1782  0.3524  0.4407
  185POPC   C3221254   6.252   6.238   4.351  0.3168  0.6778  0.3101
  185POPC   H2X21255   6.353   6.252   4.307 -0.3228  0.5340 -1.2601
  185POPC   H2Y21256   6.239   6.129   4.370 -0.4084  1.1722  3.2984
  185POPC   C2321257   5.930   5.831   4.354  0.3925 -0.0230  0.1752
  185POPC   H3R21258   5.998   5.763   4.299 -0.2988  0.1099 -0.8844
  185POPC   H3S21259   5.853   5.757   4.386 -1.6212  2.0712  0.3983
  185POPC   C2421260   5.981   5.902   4.473 -0.3020 -0.4566  0.0535
  185POPC   H4R21261   5.903   5.955   4.531  1.0485  0.5225  1.0396
  185POPC   H4S21262   6.055   5.973   4.431 -0.7719  0.0014 -0.0154
  185POPC   C2521263   6.073   5.817   4.560  0.1596 -0.2885 -0.3573
  185POPC   H5R21264   6.145   5.771   4.489 -0.4059  1.1993 -1.9324
  185POPC   H5S21265   6.018   5.729   4.600 -1.8301  0.7933 -0.6013
  185POPC   C2621266   6.148   5.902   4.661 -0.1351 -0.3343  0.9119
  185POPC   H6R21267   6.190   5.983   4.597 -0.5081 -1.2167 -0.4767
  185POPC   H6S21268   6.237   5.849   4.700 -0.0503 -1.1410 -0.3249
  185POPC   C2721269   6.051   5.960   4.766  0.1180 -0.5606 -0.7044
  185POPC   H7R21270   5.961   6.019   4.738 -0.3747 -0.9068  0.0744
  185POPC   H7S21271   6.126   6.019   4.822  2.5429 -3.4739 -0.6265
  185POPC   C2821272   6.010   5.851   4.876  0.1693 -0.1650 -0.6524
  185POPC   H8R21273   6.101   5.799   4.913 -1.8352 -2.4558  1.4251
  185POPC   H8S21274   5.945   5.778   4.825 -0.3986 -0.3458  0.3136
  185POPC   C2921275   5.936   5.924   4.979 -0.2400 -0.0192 -0.3296
  185POPC   H9121276   5.834   5.957   4.957  0.3186  0.5427 -2.2877
  185POPC  C21021277   5.971   5.937   5.111  1.1366 -0.0584  0.6515
  185POPC  H10121278   5.902   6.003   5.165 -0.6741 -1.4876  0.2044
  185POPC  C21121279   6.072   5.864   5.189  0.7027  0.8192 -0.2934
  185POPC  H11R21280   6.153   5.812   5.132 -0.4232 -3.6612  1.7197
  185POPC  H11S21281   6.024   5.781   5.245  0.8880  2.0814  1.8257
  185POPC  C21221282   6.134   5.948   5.297  0.1944 -0.1623 -0.1236
  185POPC  H12R21283   6.159   6.050   5.260  0.1714 -0.4056 -0.8218
  185POPC  H12S21284   6.224   5.895   5.334  0.0276 -1.1663 -1.1111
  185POPC  C21321285   6.051   5.960   5.423 -0.2470  0.7789  0.0507
  185POPC  H13R21286   6.007   5.860   5.441 -3.4721  1.5307 -2.6398
  185POPC  H13S21287   5.963   6.027   5.410 -0.6001  0.2622 -0.2901
  185POPC  C21421288   6.136   6.001   5.542 -0.6315 -0.4928  0.3688
  185POPC  H14R21289   6.184   6.101   5.537  2.2219 -1.5883  2.7161
  185POPC  H14S21290   6.218   5.929   5.565  1.6153  0.6603 -3.2008
  185POPC  C21521291   6.043   5.991   5.669 -0.0470 -0.2736  0.3318
  185POPC  H15R21292   6.023   5.883   5.683 -0.3595 -0.3284 -0.4801
  185POPC  H15S21293   5.950   6.038   5.629  0.0162 -1.2151 -0.9629
  185POPC  C21621294   6.102   6.073   5.784 -0.1831 -0.6001  0.5748
  185POPC  H16R21295   6.105   6.180   5.751  0.2813 -0.8362 -0.1733
  185POPC  H16S21296   6.209   6.044   5.797 -0.3520 -0.8010  1.6261
  185POPC  C21721297   6.022   6.058   5.916 -0.0779  0.2653 -0.2296
  185POPC  H17R21298   6.028   5.952   5.949  1.8022  0.7542  1.1378
  185POPC  H17S21299   5.918   6.089   5.890 -0.2707  2.3426  2.5483
  185POPC  C21821300   6.067   6.145   6.025  0.4048 -0.4899  0.4530
  185POPC  H18R21301   6.009   6.119   6.116 -1.3192  1.2300 -0.0642
  185POPC  H18S21302   6.036   6.249   5.998 -1.5204 -1.3109 -0.7137
  185POPC  H18T21303   6.175   6.140   6.049 -0.0867  0.5007  3.2670
  185POPC   C3321304   6.223   6.320   4.482 -0.2959 -0.2338 -0.0957
  185POPC   H3X21305   6.116   6.320   4.512 -0.0362  0.9788  0.9274
  185POPC   H3Y21306   6.244   6.427   4.462  3.4762 -0.7071  0.5513
  185POPC   C3421307   6.310   6.285   4.601 -0.0035  0.5901 -1.0440
  185POPC   H4X21308   6.415   6.285   4.565  0.9778 -0.9860  1.5549
  185POPC   H4Y21309   6.300   6.179   4.631 -1.1876  1.0087  0.1203
  185POPC   C3521310   6.286   6.367   4.717 -0.1518 -0.1906 -0.4425
  185POPC   H5X21311   6.180   6.396   4.739 -0.4265 -1.2324 -0.3334
  185POPC   H5Y21312   6.330   6.468   4.702 -0.2312  0.2459  1.8306
  185POPC   C3621313   6.333   6.309   4.856  0.0057  0.3434 -0.5875
  185POPC   H6X21314   6.443   6.291   4.849  0.0852  0.2694  0.6435
  185POPC   H6Y21315   6.280   6.212   4.856  0.2451  0.1691 -2.4872
  185POPC   C3721316   6.289   6.386   4.978 -0.4769  0.0625  0.1113
  185POPC   H7X21317   6.181   6.414   4.971  0.2020  2.6567 -1.6876
  185POPC   H7Y21318   6.346   6.481   4.973 -1.6878  0.7978 -0.2111
  185POPC   C3821319   6.323   6.305   5.105 -0.2109  0.4028  0.6044
  185POPC   H8X21320   6.433   6.286   5.099 -0.3554 -0.2302 -0.3007
  185POPC   H8Y21321   6.271   6.207   5.098 -3.0840  1.9233 -1.2505
  185POPC   C3921322   6.286   6.375   5.232 -0.6642  0.4671  0.3252
  185POPC   H9X21323   6.177   6.395   5.226 -0.4559  1.3637 -0.7743
  185POPC   H9Y21324   6.342   6.472   5.235  0.4249 -0.1471  0.2321
  185POPC  C31021325   6.330   6.301   5.364 -0.0805  0.1177  0.2173
  185POPC  H10X21326   6.436   6.270   5.348 -0.8387 -1.5421 -2.4445
  185POPC  H10Y21327   6.265   6.212   5.378  1.3025 -0.8880  0.5486
  185POPC  C31121328   6.303   6.390   5.487  0.7349  0.2991 -0.3713
  185POPC  H11X21329   6.193   6.404   5.493  0.9071  2.0157 -0.5541
  185POPC  H11Y21330   6.363   6.483   5.474  1.3457  0.1893  1.4540
  185POPC  C31221331   6.353   6.331   5.619  0.3829 -0.2020 -0.2922
  185POPC  H12X21332   6.462   6.312   5.615  0.2799 -0.7073 -0.6604
  185POPC  H12Y21333   6.313   6.231   5.644  1.1716 -0.4389  0.0664
  185POPC  C31321334   6.311   6.419   5.738 -0.0544  0.2558 -0.3533
  185POPC  H13X21335   6.201   6.433   5.738  0.1179  1.7638 -0.0855
  185POPC  H13Y21336   6.364   6.516   5.728  1.7777 -0.4043  2.0714
  185POPC  C31421337   6.356   6.360   5.868  0.3250  0.3362 -0.7022
  185POPC  H14X21338   6.365   6.249   5.861  0.0094  0.2201  0.4215
  185POPC  H14Y21339   6.273   6.365   5.942 -0.4502 -1.1596 -1.4085
  185POPC  C31521340   6.488   6.423   5.925 -0.0425 -0.1148 -0.5588
  185POPC  H15X21341   6.474   6.531   5.947  0.1489 -0.1172 -0.4227
  185POPC  H15Y21342   6.566   6.419   5.847 -0.4939 -0.4642 -0.9986
  185POPC  C31621343   6.551   6.357   6.054 -0.3835  0.6918  0.1981
  185POPC  H16X21344   6.491   6.382   6.144  0.7476  0.8595  0.9344
  185POPC  H16Y21345   6.651   6.402   6.070  1.5179 -2.7258 -0.9137
  185POPC  H16Z21346   6.555   6.246   6.047  0.0377  0.7038  0.2274
  186POPC     N21347   6.426   3.152   3.917 -0.2659  0.6347 -0.1319
  186POPC   C1221348   6.430   3.068   4.045  0.5455  0.5004  0.1076
  186POPC  H12A21349   6.486   3.116   4.124  0.4745  0.4081  0.2139
  186POPC  H12B21350   6.482   2.976   4.021  1.3605  0.3474  2.2567
  186POPC   C1321351   6.391   3.066   3.800 -0.1189  0.1574  0.0642
  186POPC  H13A21352   6.419   3.125   3.714  0.3107 -0.2736 -0.0989
  186POPC  H13B21353   6.447   2.973   3.807 -1.6516 -0.9193 -1.1057
  186POPC  H13C21354   6.286   3.038   3.802  0.6291 -3.3423 -1.3059
  186POPC   C1421355   6.338   3.274   3.924  0.1415  0.1100 -0.3131
  186POPC  H14A21356   6.373   3.344   3.998  1.2380  0.6086 -1.2791
  186POPC  H14B21357   6.343   3.324   3.828 -0.5116  1.0072  0.1074
  186POPC  H14C21358   6.245   3.230   3.956 -0.3610  1.2265 -0.1722
  186POPC   C1521359   6.568   3.197   3.893 -0.0263 -0.0855  0.4959
  186POPC  H15A21360   6.609   3.252   3.977 -0.6345  0.0601  0.7041
  186POPC  H15B21361   6.566   3.265   3.810 -3.2165 -0.1458  0.3960
  186POPC  H15C21362   6.633   3.116   3.864 -1.1663 -1.8457  2.5318
  186POPC   C1121363   6.292   3.026   4.109 -0.0363 -0.3784 -0.3873
  186POPC  H11A21364   6.245   3.117   4.153  0.8057 -0.2511  0.2802
  186POPC  H11B21365   6.324   2.967   4.198  2.3127  0.9859 -0.2444
  186POPC     P21366   6.202   2.812   3.975 -0.6676  0.2106  0.4939
  186POPC   O1321367   6.333   2.778   3.925 -0.4380 -0.0442  0.2332
  186POPC   O1421368   6.095   2.805   3.871 -0.6093  0.1097  0.0005
  186POPC   O1221369   6.203   2.958   4.024  0.6095  0.2342  0.3889
  186POPC   O1121370   6.163   2.728   4.098  0.3209  0.0806  0.4912
  186POPC    C121371   6.058   2.759   4.188 -0.0210  0.0325 -0.4290
  186POPC    HA21372   5.961   2.712   4.160  0.3531 -2.6962  2.2392
  186POPC    HB21373   6.040   2.867   4.206 -0.4152 -0.1153  0.0801
  186POPC    C221374   6.081   2.701   4.333 -0.5520 -0.0298 -0.3395
  186POPC    HS21375   6.180   2.732   4.371 -1.3469  2.5419 -0.1791
  186POPC   O2121376   6.055   2.554   4.320 -0.0681  0.5507 -0.1513
  186POPC   C2121377   6.109   2.479   4.415  0.6071  0.2893 -0.2599
  186POPC   O2221378   6.177   2.506   4.512  0.1648  0.4851 -0.3777
  186POPC   C2221379   6.069   2.342   4.366  0.7872  0.3473 -1.2004
  186POPC   H2R21380   6.122   2.321   4.271 -0.8627 -1.5381 -1.7694
  186POPC   H2S21381   5.960   2.338   4.346  0.2280  1.6679  1.1931
  186POPC    C321382   5.964   2.748   4.430 -1.2164  0.3436  0.5188
  186POPC    HX21383   5.863   2.717   4.397 -0.6788 -2.3920  1.2211
  186POPC    HY21384   5.976   2.857   4.410 -0.2252 -0.1011 -1.6545
  186POPC   O3121385   5.987   2.693   4.565 -0.2960 -0.1743  0.2123
  186POPC   C3121386   6.019   2.787   4.656  0.2614 -0.4063 -0.0663
  186POPC   O3221387   6.053   2.902   4.630  0.4141  0.1697 -0.4825
  186POPC   C3221388   5.986   2.748   4.794 -0.4226 -0.0662 -0.5096
  186POPC   H2X21389   6.021   2.644   4.812  1.0333  0.3385 -0.8897
  186POPC   H2Y21390   5.876   2.756   4.803 -0.3828  0.9258 -0.8518
  186POPC   C2321391   6.097   2.238   4.481  0.1272 -0.0386 -0.2781
  186POPC   H3R21392   6.048   2.142   4.458 -1.9844  0.9156  0.0288
  186POPC   H3S21393   6.058   2.279   4.577 -1.0474  1.7758 -1.4649
  186POPC   C2421394   6.246   2.204   4.476  0.5359 -0.6094  0.1944
  186POPC   H4R21395   6.315   2.284   4.508  0.7479 -0.0322 -1.6144
  186POPC   H4S21396   6.273   2.182   4.371 -0.4756 -2.1472  0.2174
  186POPC   C2521397   6.275   2.084   4.570  0.7813  0.1584  1.3756
  186POPC   H5R21398   6.384   2.064   4.561  0.6681 -0.5057  1.4165
  186POPC   H5S21399   6.212   1.999   4.537 -1.2905  1.8374  0.8036
  186POPC   C2621400   6.240   2.111   4.714 -0.3155 -0.1312  0.9187
  186POPC   H6R21401   6.131   2.131   4.719 -0.6509 -1.3746 -0.6348
  186POPC   H6S21402   6.294   2.206   4.734 -0.6054 -0.2889  2.5615
  186POPC   C2721403   6.313   2.005   4.798  0.7158  0.3980  0.7939
  186POPC   H7R21404   6.407   1.976   4.745 -0.4190  1.8252 -2.2359
  186POPC   H7S21405   6.233   1.929   4.796 -0.4683  1.5412  2.2601
  186POPC   C2821406   6.318   2.052   4.942  0.0810 -0.5497 -0.1992
  186POPC   H8R21407   6.216   2.069   4.982 -0.2200  0.3954 -1.3206
  186POPC   H8S21408   6.367   2.152   4.936 -0.6175 -0.1691  0.2276
  186POPC   C2921409   6.397   1.958   5.028  0.9146  0.2892 -0.1629
  186POPC   H9121410   6.465   1.897   4.967 -0.1055 -1.2783  0.1982
  186POPC  C21021411   6.371   1.911   5.154 -0.2067  0.2284  0.5373
  186POPC  H10121412   6.448   1.846   5.199 -0.4088 -0.8738 -0.6555
  186POPC  C21121413   6.262   1.960   5.246  0.1283  0.1672 -0.0447
  186POPC  H11R21414   6.212   1.872   5.293  0.9751  0.1744  0.9064
  186POPC  H11S21415   6.178   2.017   5.200  0.2438  0.7454  0.4521
  186POPC  C21221416   6.317   2.042   5.364  0.0307  0.0402 -0.5584
  186POPC  H12R21417   6.222   2.056   5.420 -0.3514 -0.7579 -0.9900
  186POPC  H12S21418   6.349   2.142   5.328  0.3187  0.2549  0.2719
  186POPC  C21321419   6.415   1.967   5.453 -0.2032 -0.8375 -0.5772
  186POPC  H13R21420   6.514   1.959   5.403  0.1230 -1.2994  0.1233
  186POPC  H13S21421   6.379   1.862   5.455  0.0064 -0.9491 -1.8329
  186POPC  C21421422   6.431   2.032   5.599  0.4824 -0.3109 -0.1114
  186POPC  H14R21423   6.329   2.069   5.621 -0.7208 -1.2066 -3.4833
  186POPC  H14S21424   6.499   2.119   5.599 -1.9285  1.7374 -1.9131
  186POPC  C21521425   6.476   1.942   5.709  0.2961 -0.1351 -0.3639
  186POPC  H15R21426   6.583   1.917   5.692  1.0528  1.0962  1.9869
  186POPC  H15S21427   6.428   1.843   5.706  1.8600 -0.9578  0.2149
  186POPC  C21621428   6.444   1.981   5.846  0.2828  0.0559 -0.1172
  186POPC  H16R21429   6.340   2.020   5.843 -0.1108 -0.7632  1.5617
  186POPC  H16S21430   6.501   2.068   5.885  0.2282  0.4459 -0.8829
  186POPC  C21721431   6.442   1.861   5.937 -0.4582 -0.1354  0.9703
  186POPC  H17R21432   6.528   1.791   5.928 -2.3280 -2.7297  1.7482
  186POPC  H17S21433   6.344   1.814   5.910 -0.7979  0.7875  0.5691
  186POPC  C21821434   6.427   1.897   6.084 -0.3962  0.1233 -0.1373
  186POPC  H18R21435   6.451   1.813   6.153  3.1067  1.6713  0.7738
  186POPC  H18S21436   6.504   1.974   6.107 -0.5151  0.2592 -0.1932
  186POPC  H18T21437   6.334   1.951   6.109  0.9541  2.0090  1.1303
  186POPC   C3321438   6.052   2.831   4.913  0.0854  0.1675  0.0479
  186POPC   H3X21439   6.028   2.938   4.896 -1.8919 -0.2435 -0.0114
  186POPC   H3Y21440   6.163   2.826   4.914  0.1052 -2.3654 -2.4273
  186POPC   C3421441   6.001   2.772   5.048 -0.4524 -0.2435 -0.3471
  186POPC   H4X21442   6.024   2.664   5.053  1.0880  0.1163  1.5660
  186POPC   H4Y21443   5.890   2.782   5.042 -0.3516  0.2218 -1.7252
  186POPC   C3521444   6.049   2.849   5.167  0.1421  0.2400 -0.0399
  186POPC   H5X21445   6.017   2.955   5.167  1.4521  0.6619 -0.9971
  186POPC   H5Y21446   6.160   2.850   5.157  0.1811 -3.0286 -1.3033
  186POPC   C3621447   6.021   2.781   5.301 -0.3464  0.1208 -0.7717
  186POPC   H6X21448   6.070   2.682   5.287  1.4875  0.9620 -0.5791
  186POPC   H6Y21449   5.912   2.772   5.317 -0.1141 -3.0982 -0.2984
  186POPC   C3721450   6.079   2.866   5.420 -0.1083 -0.7790  0.5410
  186POPC   H7X21451   6.050   2.973   5.412 -0.4050 -0.8274  0.9504
  186POPC   H7Y21452   6.189   2.875   5.405 -0.5565  1.0418 -2.4815
  186POPC   C3821453   6.031   2.818   5.560  0.4293  0.1515 -0.7382
  186POPC   H8X21454   6.053   2.709   5.571  0.8541  0.2971 -0.0642
  186POPC   H8Y21455   5.922   2.842   5.557  0.6104  1.1798  0.2806
  186POPC   C3921456   6.100   2.891   5.675  0.4853  0.8102  0.2414
  186POPC   H9X21457   6.103   3.000   5.653  0.5783  0.9542  0.9286
  186POPC   H9Y21458   6.200   2.842   5.679  0.3781  0.4517 -1.1515
  186POPC  C31021459   6.045   2.854   5.813  0.2657  0.1044 -0.3042
  186POPC  H10X21460   6.085   2.753   5.837  1.6684  0.3501 -1.4503
  186POPC  H10Y21461   5.934   2.852   5.813  0.1796  1.4678 -2.5729
  186POPC  C31121462   6.088   2.947   5.929 -0.4416 -0.0303  0.4410
  186POPC  H11X21463   6.050   3.048   5.902 -1.1002 -0.8301 -1.8500
  186POPC  H11Y21464   6.199   2.938   5.928 -0.4781 -2.4787 -3.3722
  186POPC  C31221465   6.052   2.914   6.068  0.5313 -0.2687  0.3032
  186POPC  H12X21466   6.076   2.808   6.088  0.9185  0.2087  2.6716
  186POPC  H12Y21467   5.942   2.931   6.070  0.4360  0.7232 -3.6493
  186POPC  C31321468   6.123   2.997   6.177 -0.0606  0.4083 -0.5849
  186POPC  H13X21469   6.099   3.105   6.163  1.2486  0.6142 -1.3784
  186POPC  H13Y21470   6.231   2.977   6.166  0.3492  0.3663  2.6238
  186POPC  C31421471   6.070   2.964   6.323 -0.0131  0.7688 -0.0079
  186POPC  H14X21472   6.140   3.015   6.393 -1.2580  0.0567  1.7945
  186POPC  H14Y21473   6.078   2.854   6.336  0.2978  0.7828 -0.0630
  186POPC  C31521474   5.929   3.008   6.347 -0.6023  0.3090 -0.0681
  186POPC  H15X21475   5.868   2.960   6.268 -0.2808  2.2427 -1.5621
  186POPC  H15Y21476   5.912   3.117   6.337 -0.3684  0.4089  0.5305
  186POPC  C31621477   5.881   2.963   6.488 -0.3066 -0.2537 -0.0759
  186POPC  H16X21478   5.773   2.964   6.511 -0.0743  0.5913  1.0581
  186POPC  H16Y21479   5.937   3.029   6.557  0.2767 -0.7581 -0.0583
  186POPC  H16Z21480   5.909   2.856   6.503  0.8389 -0.0867 -0.8614
  187POPC     N21481   0.773   4.565   3.681  0.2585 -0.4106 -0.1649
  187POPC   C1221482   0.852   4.658   3.777 -0.8464  0.0515 -0.4363
  187POPC  H12A21483   0.877   4.593   3.860 -0.8310 -1.1172 -1.3261
  187POPC  H12B21484   0.796   4.734   3.829  0.3091 -1.0599  2.6338
  187POPC   C1321485   0.653   4.506   3.749  0.0153  0.0332  0.4410
  187POPC  H13A21486   0.685   4.435   3.823  0.3358  0.4871  0.7432
  187POPC  H13B21487   0.590   4.573   3.806 -0.8388 -1.5065  1.3881
  187POPC  H13C21488   0.596   4.443   3.682 -0.4005 -1.6301  2.2948
  187POPC   C1421489   0.729   4.641   3.557 -0.0301  0.0902  0.1632
  187POPC  H14A21490   0.659   4.719   3.583 -0.7514 -0.4774 -0.0631
  187POPC  H14B21491   0.806   4.689   3.497 -1.8487  0.8398 -1.7057
  187POPC  H14C21492   0.681   4.579   3.483  0.0209  0.3917 -0.1309
  187POPC   C1521493   0.860   4.452   3.634 -0.2089 -0.2845 -0.3660
  187POPC  H15A21494   0.884   4.391   3.720  0.4932  1.7955  0.9981
  187POPC  H15B21495   0.950   4.499   3.596  0.1864 -1.7530 -1.3418
  187POPC  H15C21496   0.821   4.387   3.557  1.2135 -2.8909  0.9688
  187POPC   C1121497   0.987   4.720   3.727 -0.2643  0.1595  0.1113
  187POPC  H11A21498   1.008   4.801   3.799 -2.1154 -0.4646  1.4193
  187POPC  H11B21499   0.965   4.774   3.632 -2.6826 -1.3703 -0.2808
  187POPC     P21500   1.237   4.670   3.653  0.2068  0.1268  0.2405
  187POPC   O1321501   1.227   4.791   3.569  0.3239  0.2317 -0.3096
  187POPC   O1421502   1.304   4.551   3.598  0.2215 -0.2812 -0.3970
  187POPC   O1221503   1.095   4.630   3.704  0.2736 -0.0948  0.1620
  187POPC   O1121504   1.313   4.708   3.780 -0.0645 -0.3001  0.8595
  187POPC    C121505   1.355   4.609   3.879  0.6596 -0.3150  0.0088
  187POPC    HA21506   1.439   4.652   3.938 -1.2636  0.3550  2.4230
  187POPC    HB21507   1.397   4.513   3.841 -0.8685 -1.0976  0.2457
  187POPC    C221508   1.243   4.569   3.987  0.0520 -0.1369  0.5653
  187POPC    HS21509   1.182   4.507   3.917  0.1952 -0.2805  0.5678
  187POPC   O2121510   1.173   4.676   4.051 -0.2881  0.1039  0.2221
  187POPC   C2121511   1.043   4.653   4.058  0.3741  0.3670 -0.5352
  187POPC   O2221512   0.986   4.547   4.033  0.3399  0.3813  0.4835
  187POPC   C2221513   0.984   4.768   4.128 -0.5221 -1.0053 -0.0832
  187POPC   H2R21514   0.909   4.820   4.065 -0.2492  1.8111  1.7090
  187POPC   H2S21515   1.059   4.847   4.153 -1.4156  0.0399 -0.6322
  187POPC    C321516   1.324   4.485   4.091 -0.1778 -0.0454  0.1024
  187POPC    HX21517   1.405   4.545   4.137  0.3088  1.2072 -2.2331
  187POPC    HY21518   1.381   4.404   4.040 -1.5268 -0.0339 -1.5031
  187POPC   O3121519   1.235   4.431   4.195 -0.1431 -0.5182  0.0579
  187POPC   C3121520   1.161   4.339   4.151 -0.1044 -1.0746 -0.4592
  187POPC   O3221521   1.151   4.294   4.041  0.4604  0.3199 -0.0110
  187POPC   C3221522   1.073   4.283   4.269 -0.0685 -0.7640  0.4551
  187POPC   H2X21523   1.062   4.357   4.351  2.7722 -0.3245  0.5322
  187POPC   H2Y21524   1.123   4.194   4.312  1.3394 -0.3811 -0.3220
  187POPC   C2321525   0.915   4.713   4.262  0.4440 -0.4785  0.2103
  187POPC   H3R21526   0.846   4.628   4.242  1.6641 -0.6813 -4.0948
  187POPC   H3S21527   0.852   4.794   4.306  2.1171  0.2076  1.4489
  187POPC   C2421528   1.007   4.698   4.381  0.5489 -0.0013  0.0505
  187POPC   H4R21529   1.029   4.799   4.420 -0.8020  0.0884  0.6305
  187POPC   H4S21530   1.110   4.664   4.357  0.9428  0.7905  0.5745
  187POPC   C2521531   0.966   4.613   4.496  0.1182  0.1350 -0.2466
  187POPC   H5R21532   1.049   4.606   4.570 -0.4772 -1.3799  0.3174
  187POPC   H5S21533   0.937   4.514   4.455 -0.2503  1.1038 -2.4577
  187POPC   C2621534   0.842   4.663   4.567  1.2417 -0.0158 -0.5421
  187POPC   H6R21535   0.758   4.676   4.496  0.9864 -0.9007 -0.4242
  187POPC   H6S21536   0.858   4.764   4.610  0.1821  0.1743 -0.5719
  187POPC   C2721537   0.794   4.560   4.675  0.2335 -0.6031 -0.1876
  187POPC   H7R21538   0.761   4.472   4.615  1.7068 -1.9233  0.8609
  187POPC   H7S21539   0.700   4.588   4.726 -1.6543 -3.6586 -1.6794
  187POPC   C2821540   0.894   4.530   4.786  0.2334  0.0490 -0.3170
  187POPC   H8R21541   0.986   4.496   4.733 -0.4936 -0.4264 -1.3140
  187POPC   H8S21542   0.856   4.438   4.836  1.2320 -1.1704 -1.6931
  187POPC   C2921543   0.915   4.648   4.879 -0.6391  0.2008 -0.3763
  187POPC   H9121544   1.011   4.693   4.853 -0.1943  0.3768  1.4204
  187POPC  C21021545   0.841   4.681   4.983 -0.4740 -0.4352  0.4267
  187POPC  H10121546   0.874   4.768   5.042 -1.7543  0.6600 -0.4267
  187POPC  C21121547   0.729   4.606   5.048  0.5717  0.0851 -0.2019
  187POPC  H11R21548   0.715   4.514   4.987 -1.3532 -1.3101  2.1614
  187POPC  H11S21549   0.642   4.674   5.037  1.4949  1.2763 -0.3434
  187POPC  C21221550   0.747   4.561   5.197  0.4550  0.4954 -0.0723
  187POPC  H12R21551   0.848   4.514   5.197  1.1806  1.9841 -0.9218
  187POPC  H12S21552   0.667   4.490   5.227  1.6305 -1.1050 -0.5919
  187POPC  C21321553   0.749   4.684   5.299  0.5300  0.6097  0.3232
  187POPC  H13R21554   0.665   4.754   5.281  0.2570  0.0473 -0.7217
  187POPC  H13S21555   0.842   4.738   5.270  1.4871  0.3078  2.6250
  187POPC  C21421556   0.754   4.644   5.448  0.4989 -0.2430 -0.0976
  187POPC  H14R21557   0.674   4.572   5.477 -0.4584  1.2360  1.0796
  187POPC  H14S21558   0.735   4.734   5.511  0.0393  0.6292 -1.4373
  187POPC  C21521559   0.893   4.599   5.496  0.1254  0.2714  0.4683
  187POPC  H15R21560   0.952   4.538   5.424  1.0824  0.3902  1.1301
  187POPC  H15S21561   0.884   4.536   5.588 -0.4121 -1.9940 -1.0637
  187POPC  C21621562   0.977   4.725   5.545 -0.0823 -0.3965  0.0294
  187POPC  H16R21563   0.916   4.794   5.607  0.6681  0.4297 -0.1164
  187POPC  H16S21564   1.009   4.788   5.459 -0.7475 -1.2515 -0.8664
  187POPC  C21721565   1.101   4.684   5.617  0.2334 -0.2170  0.3799
  187POPC  H17R21566   1.084   4.628   5.711  2.4006 -1.1851  0.2620
  187POPC  H17S21567   1.138   4.782   5.654  0.1282 -0.3555  0.8493
  187POPC  C21821568   1.209   4.626   5.534 -0.3214  0.3754  0.3730
  187POPC  H18R21569   1.188   4.522   5.500  1.0801 -0.3005  1.4659
  187POPC  H18S21570   1.302   4.624   5.596 -2.0823  0.9801  3.2357
  187POPC  H18T21571   1.217   4.677   5.436 -1.0080 -2.6893 -1.4176
  187POPC   C3321572   0.932   4.244   4.228  0.1633 -0.6327 -0.0325
  187POPC   H3X21573   0.931   4.193   4.130 -0.8458  0.8665 -0.8588
  187POPC   H3Y21574   0.866   4.334   4.223 -0.5184 -1.0309  1.3548
  187POPC   C3421575   0.875   4.147   4.340 -1.0219 -0.2571 -0.4928
  187POPC   H4X21576   0.926   4.049   4.350 -0.3917  0.2007  1.1012
  187POPC   H4Y21577   0.771   4.125   4.309 -0.6555 -1.6223 -0.8435
  187POPC   C3521578   0.845   4.205   4.477 -0.0908 -0.4775  0.7328
  187POPC   H5X21579   0.799   4.305   4.466 -0.4916 -0.5751  1.4528
  187POPC   H5Y21580   0.942   4.233   4.523  1.0718 -0.3259 -1.6603
  187POPC   C3621581   0.775   4.114   4.579  0.4040  0.0746  0.0956
  187POPC   H6X21582   0.821   4.013   4.586  0.6804  0.2310  0.5879
  187POPC   H6Y21583   0.669   4.104   4.547  0.2837 -0.7113  0.6964
  187POPC   C3721584   0.779   4.182   4.710  0.5282 -0.2303  0.0849
  187POPC   H7X21585   0.735   4.283   4.694  0.5133 -0.3593 -0.7577
  187POPC   H7Y21586   0.882   4.196   4.748  1.0777  1.1015 -1.7608
  187POPC   C3821587   0.698   4.110   4.820 -0.2611  0.4954 -0.0592
  187POPC   H8X21588   0.703   4.000   4.814 -1.3954  0.3937  0.4804
  187POPC   H8Y21589   0.597   4.157   4.810  0.1924  2.2432  2.6432
  187POPC   C3921590   0.733   4.147   4.973  0.2495  0.6338  0.2162
  187POPC   H9X21591   0.739   4.257   4.988 -1.0887  0.7004  0.3881
  187POPC   H9Y21592   0.827   4.099   5.008  0.0031  1.0284  1.4837
  187POPC  C31021593   0.630   4.098   5.071  0.4595 -0.4251  0.2675
  187POPC  H10X21594   0.601   3.994   5.046 -1.4262 -0.0983  0.9330
  187POPC  H10Y21595   0.534   4.151   5.054  1.5899  2.1552  1.3431
  187POPC  C31121596   0.675   4.104   5.216  0.0382 -0.2726 -0.0906
  187POPC  H11X21597   0.701   4.210   5.233  1.5996 -0.7588  0.8105
  187POPC  H11Y21598   0.770   4.046   5.221  0.1923  0.0879  2.0345
  187POPC  C31221599   0.582   4.041   5.317 -0.5718 -0.9961  0.1248
  187POPC  H12X21600   0.566   3.935   5.289  1.6415 -1.2023 -0.5646
  187POPC  H12Y21601   0.486   4.095   5.308  0.7249  1.2568 -1.2216
  187POPC  C31321602   0.627   4.035   5.465 -0.2911 -0.2308 -0.2464
  187POPC  H13X21603   0.729   3.992   5.467 -0.7607 -1.6227 -2.4055
  187POPC  H13Y21604   0.557   3.976   5.527 -1.1261  0.4834 -0.4900
  187POPC  C31421605   0.624   4.171   5.534 -0.0601 -0.2314 -0.3622
  187POPC  H14X21606   0.527   4.225   5.526 -1.0442 -1.7524  0.8049
  187POPC  H14Y21607   0.699   4.242   5.491 -1.7454  2.6848  1.2200
  187POPC  C31521608   0.652   4.152   5.684  0.2187 -0.1459 -0.5447
  187POPC  H15X21609   0.745   4.097   5.710  0.0853 -0.3848 -0.5686
  187POPC  H15Y21610   0.569   4.086   5.717 -0.1035 -0.5746 -2.1229
  187POPC  C31621611   0.652   4.289   5.755 -0.3353  0.7324  0.3703
  187POPC  H16X21612   0.677   4.283   5.863 -0.2160 -0.0618  0.3086
  187POPC  H16Y21613   0.548   4.328   5.751 -0.8170 -0.0151  3.4143
  187POPC  H16Z21614   0.726   4.362   5.714  0.4715  2.1746  4.0414
  188POPC     N21615   0.115   0.319   3.736  0.3936  0.7024 -0.2164
  188POPC   C1221616   0.247   0.340   3.800 -0.2036 -0.4247 -0.4912
  188POPC  H12A21617   0.258   0.265   3.877  2.3633  0.4243  0.0823
  188POPC  H12B21618   0.245   0.434   3.854  1.4839 -1.0880  0.8047
  188POPC   C1321619   0.090   0.186   3.674  0.6056  0.6814 -0.4332
  188POPC  H13A21620   0.070   0.107   3.744  0.7385  0.3696 -0.7492
  188POPC  H13B21621  -0.000   0.189   3.614  0.0465  0.9475  0.3973
  188POPC  H13C21622   0.169   0.160   3.606  0.3876 -0.5979 -0.2213
  188POPC   C1421623   0.012   0.335   3.844  0.0070 -0.5597 -0.6795
  188POPC  H14A21624  -0.085   0.314   3.803  0.6877 -3.6859 -0.9417
  188POPC  H14B21625   0.018   0.269   3.929  1.9443 -0.5464 -0.7524
  188POPC  H14C21626   0.019   0.438   3.876 -0.2836  0.1748 -2.8292
  188POPC   C1521627   0.094   0.426   3.629 -0.2310  0.5278 -0.6022
  188POPC  H15A21628   0.166   0.414   3.549 -2.0741  0.3778 -2.3353
  188POPC  H15B21629   0.114   0.522   3.674 -0.0258  0.8805 -1.4214
  188POPC  H15C21630  -0.008   0.424   3.594 -0.6028 -0.7601  0.4991
  188POPC   C1121631   0.375   0.327   3.713 -0.2737 -0.3540 -0.0706
  188POPC  H11A21632   0.464   0.350   3.776  2.6535 -1.5245 -3.4122
  188POPC  H11B21633   0.372   0.406   3.635 -1.5139 -0.4755 -0.1587
  188POPC     P21634   0.441   0.064   3.742 -0.0003 -0.0037  0.2505
  188POPC   O1321635   0.579   0.033   3.705 -0.1179 -0.1817  1.0047
  188POPC   O1421636   0.349  -0.046   3.725 -0.0683  0.3942  0.2497
  188POPC   O1221637   0.391   0.194   3.653 -0.6395  0.2334 -0.2132
  188POPC   O1121638   0.441   0.130   3.892  0.1821 -0.0902 -0.2846
  188POPC    C121639   0.562   0.173   3.941 -0.2921  0.7869  0.2613
  188POPC    HA21640   0.555   0.264   4.004  2.1899 -0.2732  2.2749
  188POPC    HB21641   0.626   0.217   3.861 -0.6506 -0.3313 -0.6731
  188POPC    C221642   0.640   0.062   4.018 -0.6660 -0.3330  0.4055
  188POPC    HS21643   0.695   0.017   3.933  1.6774 -1.1026  2.2404
  188POPC   O2121644   0.544  -0.028   4.076 -0.5654 -0.3403  0.0479
  188POPC   C2121645   0.573  -0.153   4.055  0.5591 -0.0608  0.4496
  188POPC   O2221646   0.665  -0.200   3.991 -0.1637  0.8188 -0.3858
  188POPC   C2221647   0.461  -0.231   4.124 -0.1509 -0.5154 -1.0956
  188POPC   H2R21648   0.410  -0.287   4.043 -0.6475 -1.0687 -0.4116
  188POPC   H2S21649   0.385  -0.163   4.169 -0.8363 -1.4528 -0.8017
  188POPC    C321650   0.738   0.116   4.119 -0.3041 -0.1104  0.0303
  188POPC    HX21651   0.673   0.179   4.182  0.4372  1.2139 -0.5000
  188POPC    HY21652   0.814   0.180   4.070  1.1288 -2.5667 -1.1520
  188POPC   O3121653   0.801   0.009   4.195  0.4015  0.4030  0.0057
  188POPC   C3121654   0.905  -0.053   4.131  0.4199  0.0651  0.2815
  188POPC   O3221655   0.951  -0.004   4.033 -0.2238  0.3330 -0.1623
  188POPC   C3221656   0.934  -0.184   4.192  0.2780  0.0136  0.4615
  188POPC   H2X21657   0.899  -0.274   4.137  0.6443 -0.9706  1.7844
  188POPC   H2Y21658   0.887  -0.188   4.293 -2.8928 -0.4634 -0.9015
  188POPC   C2321659   0.527  -0.320   4.233 -0.0792 -0.3059  0.0001
  188POPC   H3R21660   0.620  -0.368   4.195 -0.7275 -0.8646 -0.9081
  188POPC   H3S21661   0.460  -0.404   4.261  0.6769 -0.5510  1.1515
  188POPC   C2421662   0.560  -0.236   4.365 -0.2782  0.8044  0.3152
  188POPC   H4R21663   0.470  -0.196   4.415  0.6012  1.6514  1.2765
  188POPC   H4S21664   0.610  -0.139   4.341  2.6741 -0.8251 -0.7871
  188POPC   C2521665   0.652  -0.304   4.471 -1.2449  0.3098  0.4669
  188POPC   H5R21666   0.746  -0.335   4.421 -1.6132 -1.4982  0.8513
  188POPC   H5S21667   0.607  -0.398   4.510  0.3082 -0.0802  1.3857
  188POPC   C2621668   0.678  -0.201   4.587  0.1057  0.3454 -0.0517
  188POPC   H6R21669   0.585  -0.195   4.647  0.8995  0.9130  1.1737
  188POPC   H6S21670   0.704  -0.102   4.545  1.5311  0.1736  0.3464
  188POPC   C2721671   0.794  -0.242   4.682  0.3971 -0.4593 -0.4690
  188POPC   H7R21672   0.835  -0.155   4.738  0.8502  0.7757 -2.6089
  188POPC   H7S21673   0.883  -0.264   4.619  1.4097 -1.0847  1.1087
  188POPC   C2821674   0.770  -0.355   4.787 -0.4124 -0.0479  0.1251
  188POPC   H8R21675   0.867  -0.384   4.834  0.5886  1.3905 -0.9566
  188POPC   H8S21676   0.733  -0.444   4.732 -1.2260  0.2761  0.1383
  188POPC   C2921677   0.659  -0.316   4.892 -0.3086  0.1949 -0.4098
  188POPC   H9121678   0.569  -0.274   4.844  0.7540  0.7161 -2.0312
  188POPC  C21021679   0.654  -0.342   5.026  0.2006 -0.1815 -0.6232
  188POPC  H10121680   0.566  -0.302   5.078 -0.9555  1.5699 -3.7283
  188POPC  C21121681   0.749  -0.413   5.124  0.6660 -0.4062  0.5713
  188POPC  H11R21682   0.846  -0.411   5.070 -0.7853 -0.1866 -2.2240
  188POPC  H11S21683   0.729  -0.522   5.128 -1.5974 -0.0597  0.2481
  188POPC  C21221684   0.754  -0.347   5.260 -0.3566  0.4917  0.6781
  188POPC  H12R21685   0.782  -0.239   5.258 -0.2612  0.4841  1.4654
  188POPC  H12S21686   0.836  -0.401   5.312 -1.0819 -2.4550 -1.0167
  188POPC  C21321687   0.628  -0.369   5.344  0.4296 -0.1990  0.5005
  188POPC  H13R21688   0.596  -0.475   5.350  1.8895 -0.7792 -1.0057
  188POPC  H13S21689   0.550  -0.316   5.286 -0.1726 -0.3321  1.1810
  188POPC  C21421690   0.657  -0.317   5.483  0.1858  0.0293 -0.4633
  188POPC  H14R21691   0.719  -0.225   5.473  2.1752 -1.1354  0.4756
  188POPC  H14S21692   0.730  -0.388   5.528  0.6047  0.5353 -0.3264
  188POPC  C21521693   0.537  -0.314   5.580  0.3342 -0.4983  0.2713
  188POPC  H15R21694   0.497  -0.418   5.575 -0.4023 -0.2468  0.7827
  188POPC  H15S21695   0.460  -0.255   5.527  1.3778 -1.7041 -2.8265
  188POPC  C21621696   0.570  -0.259   5.715  0.1861 -0.3539 -0.3113
  188POPC  H16R21697   0.613  -0.157   5.710  0.2871 -0.3588  0.3699
  188POPC  H16S21698   0.647  -0.322   5.763 -0.1909  0.7268  1.8662
  188POPC  C21721699   0.449  -0.256   5.816 -1.4387  0.3622  0.2888
  188POPC  H17R21700   0.497  -0.238   5.914  0.2274  3.9001 -1.0177
  188POPC  H17S21701   0.406  -0.358   5.807 -2.2970  0.6868  0.6330
  188POPC  C21821702   0.350  -0.151   5.775  0.5950 -0.3541 -0.1056
  188POPC  H18R21703   0.330  -0.155   5.666 -0.1461 -3.7741  0.0696
  188POPC  H18S21704   0.390  -0.050   5.800 -1.3906 -0.0323  2.2547
  188POPC  H18T21705   0.250  -0.164   5.822  0.7257 -2.7856 -0.4203
  188POPC   C3321706   1.081  -0.196   4.217 -0.0276  0.0404  0.2873
  188POPC   H3X21707   1.105  -0.117   4.291  3.2494 -0.5248 -0.0177
  188POPC   H3Y21708   1.138  -0.177   4.123 -1.2378  0.5323 -0.3676
  188POPC   C3421709   1.116  -0.338   4.267  0.3775  0.0638 -0.3308
  188POPC   H4X21710   1.103  -0.419   4.193 -0.6936 -0.4966  0.4592
  188POPC   H4Y21711   1.050  -0.363   4.352  0.4168 -2.8076 -1.0603
  188POPC   C3521712   1.256  -0.334   4.317  0.0017 -0.2650 -0.1667
  188POPC   H5X21713   1.266  -0.294   4.419  0.9780 -0.0530 -0.3324
  188POPC   H5Y21714   1.309  -0.256   4.257 -1.4701  1.1813  0.3634
  188POPC   C3621715   1.326  -0.474   4.307 -0.2688  0.2442 -0.1711
  188POPC   H6X21716   1.430  -0.474   4.344  0.3565 -0.0567 -1.8201
  188POPC   H6Y21717   1.339  -0.512   4.203  0.3547  0.9552 -0.3635
  188POPC   C3721718   1.262  -0.580   4.397  1.1340  0.7208  0.0439
  188POPC   H7X21719   1.336  -0.662   4.390 -0.5546 -0.8447 -0.2889
  188POPC   H7Y21720   1.164  -0.610   4.353 -0.2192  1.1634  2.5641
  188POPC   C3821721   1.245  -0.545   4.542  0.0622 -0.5460 -0.4665
  188POPC   H8X21722   1.141  -0.507   4.552  0.3157 -0.3523  1.9101
  188POPC   H8Y21723   1.323  -0.469   4.565 -0.6670  0.2128 -0.4460
  188POPC   C3921724   1.263  -0.658   4.636  0.8420 -0.4679 -0.7360
  188POPC   H9X21725   1.350  -0.723   4.615  1.1076 -0.4126  0.1596
  188POPC   H9Y21726   1.175  -0.725   4.639  1.0946 -0.8304 -1.3157
  188POPC  C31021727   1.275  -0.613   4.779  0.6232 -0.3710 -1.1430
  188POPC  H10X21728   1.182  -0.555   4.799 -0.4227 -2.0005 -1.0923
  188POPC  H10Y21729   1.360  -0.548   4.810 -0.8832  0.7927  0.8168
  188POPC  C31121730   1.275  -0.730   4.880 -0.4609  0.0557  0.1194
  188POPC  H11X21731   1.351  -0.807   4.853  1.4959  2.1391 -0.5787
  188POPC  H11Y21732   1.176  -0.779   4.887 -1.1400  1.4989  0.8490
  188POPC  C31221733   1.295  -0.678   5.021 -0.1047 -0.1799 -0.3234
  188POPC  H12X21734   1.209  -0.610   5.037 -1.2210 -1.1594 -1.8413
  188POPC  H12Y21735   1.391  -0.624   5.034 -0.8063  2.1519 -3.6542
  188POPC  C31321736   1.277  -0.781   5.134  0.5404 -0.5343 -0.2157
  188POPC  H13X21737   1.340  -0.872   5.125  0.5680 -0.5273 -0.0881
  188POPC  H13Y21738   1.172  -0.819   5.125  1.0235 -2.6588  2.0015
  188POPC  C31421739   1.310  -0.727   5.281 -0.0320 -0.1442  0.5637
  188POPC  H14X21740   1.228  -0.660   5.313  1.1963  2.3651 -1.1813
  188POPC  H14Y21741   1.407  -0.672   5.274 -0.7498  1.0569 -0.2199
  188POPC  C31521742   1.325  -0.839   5.381  0.1714 -0.3763  0.3593
  188POPC  H15X21743   1.407  -0.909   5.352 -0.2207 -1.6252  2.0592
  188POPC  H15Y21744   1.229  -0.894   5.369 -1.4196  2.6105 -1.9811
  188POPC  C31621745   1.357  -0.809   5.527  0.0454  0.1614 -0.2515
  188POPC  H16X21746   1.393  -0.903   5.574 -0.6283  0.5135  1.0057
  188POPC  H16Y21747   1.279  -0.752   5.583  0.3347  1.1975 -0.8742
  188POPC  H16Z21748   1.449  -0.748   5.525  0.3172 -0.2545 -0.7781
  189SAPI   C1221749   2.786   3.641   8.481 -0.3095  0.0011 -0.1002
  189SAPI    H221750   2.831   3.718   8.414  3.3412 -1.1409  0.8233
  189SAPI    O221751   2.879   3.532   8.485  1.3091 -0.0052 -0.0261
  189SAPI   HO221752   2.919   3.522   8.398  1.1488 -3.2091  0.1640
  189SAPI   C1321753   2.773   3.709   8.614  0.0836 -0.4298 -0.2526
  189SAPI    H321754   2.689   3.781   8.604  0.6168  0.7427  2.5214
  189SAPI    O321755   2.893   3.778   8.647  0.0651  0.0031 -0.3989
  189SAPI   HO321756   2.925   3.765   8.737  2.0777  1.8655 -0.7516
  189SAPI   C1421757   2.732   3.615   8.724  0.1121 -0.4581  0.1953
  189SAPI    H421758   2.811   3.539   8.744 -0.1053 -0.9308 -0.7133
  189SAPI    O421759   2.697   3.686   8.844 -0.0996  0.2660  0.4957
  189SAPI   HO421760   2.605   3.711   8.849  0.2105  1.1886  1.9718
  189SAPI   C1521761   2.607   3.529   8.683 -0.6922 -0.5852 -0.5891
  189SAPI    H521762   2.524   3.599   8.704  0.6465  0.8742  0.0261
  189SAPI    O521763   2.587   3.423   8.774  0.0017 -0.5103  0.2299
  189SAPI   HO521764   2.657   3.358   8.771  0.5696  0.0629  0.8101
  189SAPI   C1621765   2.585   3.504   8.529  0.2715  0.4546 -0.4461
  189SAPI    H621766   2.634   3.405   8.517  1.4614  0.9823 -0.0945
  189SAPI    O621767   2.448   3.493   8.491  0.8831  0.2776  0.1723
  189SAPI   HO621768   2.450   3.456   8.402  0.7749  3.2257 -1.1725
  189SAPI   C1121769   2.653   3.593   8.436  0.0761 -0.0173  0.0885
  189SAPI    H121770   2.587   3.682   8.435  0.1284  0.0188 -0.7970
  189SAPI     P21771   2.575   3.584   8.185 -0.1717 -0.1403 -0.0953
  189SAPI   O1321772   2.447   3.509   8.209  0.3943  0.0428  0.0021
  189SAPI   O1421773   2.650   3.552   8.061  0.0207 -0.2829  0.4310
  189SAPI   O1221774   2.671   3.543   8.307 -0.2296 -0.7670  0.7230
  189SAPI   O1121775   2.548   3.742   8.193 -0.6849 -0.2419  0.0997
  189SAPI    C121776   2.665   3.830   8.196  0.2971 -1.3131  1.1517
  189SAPI    HA21777   2.661   3.890   8.290  0.0906  0.4470  0.0610
  189SAPI    HB21778   2.765   3.780   8.195  1.6869  1.2922  0.7261
  189SAPI    C221779   2.659   3.941   8.085  1.0826 -0.2137  0.5476
  189SAPI    HS21780   2.644   4.043   8.127  2.8338  0.3263 -0.0143
  189SAPI   O2121781   2.568   3.901   7.984 -0.6753  0.1320 -0.0956
  189SAPI   C2121782   2.522   3.997   7.913  0.3723 -0.0495  0.1090
  189SAPI   O2221783   2.553   4.114   7.920 -0.5025  0.1025 -0.3739
  189SAPI   C2221784   2.424   3.937   7.806  0.6009  0.1218  0.7502
  189SAPI   H2R21785   2.493   3.921   7.721  0.8898 -0.1885  1.0430
  189SAPI   H2S21786   2.378   3.844   7.845 -1.5838  1.0213  0.4706
  189SAPI    C321787   2.803   3.964   8.017 -0.3120  0.8601  0.5733
  189SAPI    HX21788   2.871   3.990   8.101 -1.4543 -1.6189  2.3952
  189SAPI    HY21789   2.802   4.052   7.949 -1.2469  0.4308  0.0203
  189SAPI   O3121790   2.839   3.838   7.951 -0.5400 -0.2273  0.3762
  189SAPI   C3121791   2.825   3.841   7.824  0.0610  0.0953 -0.3835
  189SAPI   O3221792   2.796   3.935   7.753 -0.2521  0.1365  0.3284
  189SAPI   C3221793   2.832   3.698   7.765  0.5229  0.1474  0.6813
  189SAPI   H2X21794   2.742   3.651   7.810  0.8372 -0.3913  0.7535
  189SAPI   H2Y21795   2.935   3.664   7.786  0.7750  0.0374 -0.6529
  189SAPI   C2321796   2.311   4.041   7.787 -0.3628 -0.8398 -0.8186
  189SAPI   H3R21797   2.358   4.131   7.743  2.2261 -1.3117  0.7800
  189SAPI   H3S21798   2.275   4.069   7.889 -1.4080 -0.8219 -1.1792
  189SAPI   C2421799   2.181   3.987   7.724 -0.1353  0.5471  0.5139
  189SAPI   H4R21800   2.100   4.060   7.744 -0.3377  0.4233  0.1675
  189SAPI   H4S21801   2.156   3.894   7.780  0.8835 -0.6608 -0.9325
  189SAPI   C2521802   2.202   3.981   7.574 -0.0258  0.6556  0.6356
  189SAPI   H5R21803   2.197   4.080   7.527  0.7064  0.2615 -0.3081
  189SAPI   C2621804   2.229   3.872   7.501  0.2351 -0.0417 -0.0672
  189SAPI   H6R21805   2.241   3.878   7.392 -1.9616  0.6285 -0.3190
  189SAPI   C2721806   2.249   3.729   7.546 -0.0334  1.1873  0.3188
  189SAPI   H7R21807   2.234   3.724   7.656  0.6555  0.4481  0.3891
  189SAPI   H7S21808   2.351   3.689   7.530 -0.9481 -1.2087  0.0739
  189SAPI   C2821809   2.147   3.636   7.488 -0.1949  0.3625 -0.5144
  189SAPI   H8R21810   2.041   3.666   7.492 -0.3958 -0.3336 -0.5161
  189SAPI   C2921811   2.172   3.526   7.419  0.4325  1.0797  0.0527
  189SAPI   H9R21812   2.093   3.476   7.362  1.9968 -1.2122 -0.2325
  189SAPI  C21021813   2.312   3.458   7.394 -0.7463 -0.3293 -0.0830
  189SAPI  H10R21814   2.388   3.474   7.473 -0.5384 -0.3925 -0.2702
  189SAPI  H10S21815   2.344   3.499   7.296  1.2367  1.3056  1.1656
  189SAPI  C21121816   2.298   3.314   7.367  0.2547 -0.3650 -0.4643
  189SAPI  H11R21817   2.330   3.244   7.446 -1.6935  1.3269  1.9712
  189SAPI  C21221818   2.275   3.257   7.244  0.4727  0.1059 -0.3521
  189SAPI  H12R21819   2.256   3.149   7.242 -0.5936  0.3012 -1.0725
  189SAPI  C21321820   2.230   3.319   7.122  0.5783 -0.1747 -0.1428
  189SAPI  H13R21821   2.200   3.424   7.136  1.9130  0.3296 -0.8555
  189SAPI  H13S21822   2.137   3.269   7.087  1.0626 -0.2426 -1.4171
  189SAPI  C21421823   2.325   3.314   7.009 -0.2328  0.3723 -0.1824
  189SAPI  H14R21824   2.378   3.218   7.005 -1.2503 -0.2356  0.4919
  189SAPI  C21521825   2.344   3.409   6.919 -0.2670  0.2469  0.5635
  189SAPI  H15R21826   2.423   3.398   6.843 -1.4950 -2.5329 -0.4542
  189SAPI  C21621827   2.275   3.542   6.900  0.4599  0.3929  0.1961
  189SAPI  H16R21828   2.329   3.632   6.936 -1.6312  2.1009 -0.7230
  189SAPI  H16S21829   2.179   3.553   6.956  1.5711  2.8551  1.8104
  189SAPI  C21721830   2.245   3.571   6.747  0.9209 -0.0511  0.3979
  189SAPI  H17R21831   2.176   3.495   6.704  0.2196  0.6304  0.2844
  189SAPI  H17S21832   2.344   3.570   6.698 -0.0529  1.9008 -1.7925
  189SAPI  C21821833   2.178   3.705   6.732 -0.0049  0.1831  0.7696
  189SAPI  H18R21834   2.224   3.785   6.793  2.8168 -0.9221  0.2568
  189SAPI  H18S21835   2.079   3.694   6.781 -1.5883 -1.6098 -2.4549
  189SAPI  C21921836   2.145   3.760   6.591  0.2821 -0.5921 -0.7001
  189SAPI  H19R21837   2.136   3.669   6.527 -1.8182  0.0720 -1.4597
  189SAPI  H19S21838   2.229   3.820   6.550 -0.6846  1.1976 -0.1493
  189SAPI  C22021839   2.013   3.837   6.600 -0.1616  0.1589 -0.4766
  189SAPI  H20R21840   1.991   3.883   6.502  0.5198  2.1807  0.2602
  189SAPI  H20S21841   2.011   3.915   6.680 -2.6636 -1.7522  1.4839
  189SAPI  H20T21842   1.927   3.771   6.623  0.6763 -0.6553  0.3909
  189SAPI   C3321843   2.806   3.707   7.608 -0.5628  0.1952 -0.3012
  189SAPI   H3X21844   2.851   3.619   7.558  1.1112  2.0093 -2.1734
  189SAPI   H3Y21845   2.872   3.790   7.574  2.7681 -1.7623  0.9984
  189SAPI   C3421846   2.665   3.717   7.570 -1.0577 -0.2534  0.1400
  189SAPI   H4X21847   2.619   3.806   7.617  1.2967  1.6453 -0.9272
  189SAPI   H4Y21848   2.608   3.628   7.604 -1.8166 -0.0273 -0.4983
  189SAPI   C3521849   2.638   3.734   7.421  0.5855  0.1819 -0.7951
  189SAPI   H5X21850   2.526   3.734   7.424  0.5117  1.7216  2.9333
  189SAPI   H5Y21851   2.664   3.642   7.367 -1.3721 -1.7147  1.2693
  189SAPI   C3621852   2.689   3.861   7.364  1.1234 -0.9508  0.7003
  189SAPI   H6X21853   2.799   3.872   7.374  1.2908 -2.4058  0.6433
  189SAPI   H6Y21854   2.643   3.948   7.415 -1.5753 -0.9985 -1.4118
  189SAPI   C3721855   2.636   3.880   7.218 -0.3972  0.1374  0.1740
  189SAPI   H7X21856   2.659   3.796   7.149  0.2195  0.3288  0.1380
  189SAPI   H7Y21857   2.686   3.972   7.180 -1.8510  1.9578  2.3929
  189SAPI   C3821858   2.484   3.916   7.211 -0.2634 -0.0015 -0.3055
  189SAPI   H8X21859   2.463   4.009   7.268  0.5986 -0.3471  0.6209
  189SAPI   H8Y21860   2.435   3.827   7.257  1.4582 -1.2062 -0.6616
  189SAPI   C3921861   2.430   3.946   7.068  0.3691 -0.0016 -0.1518
  189SAPI   H9X21862   2.436   4.055   7.049  1.9448 -0.1517 -0.6856
  189SAPI   H9Y21863   2.324   3.912   7.065 -0.1213  1.3209  1.0400
  189SAPI  C31021864   2.506   3.896   6.945  0.5830 -0.3973  0.0359
  189SAPI  H10X21865   2.500   3.785   6.943  3.2926 -0.6143 -1.1728
  189SAPI  H10Y21866   2.610   3.929   6.966 -0.3598  1.4917  2.0945
  189SAPI  C31121867   2.446   3.949   6.809  0.2622 -0.3506 -1.1265
  189SAPI  H11X21868   2.459   4.058   6.794  0.1812 -0.5293 -2.6960
  189SAPI  H11Y21869   2.335   3.944   6.822  0.3911 -2.4449 -0.4413
  189SAPI  C31221870   2.509   3.882   6.687  0.7502 -0.3155 -0.6604
  189SAPI  H12X21871   2.466   3.781   6.669 -0.0755  0.0581 -0.8498
  189SAPI  H12Y21872   2.619   3.882   6.699  0.7818  2.6641 -0.0254
  189SAPI  C31321873   2.466   3.961   6.557  0.2113 -0.2759 -0.5936
  189SAPI  H13X21874   2.534   4.049   6.558 -1.8797  1.4215  0.2900
  189SAPI  H13Y21875   2.358   3.986   6.564  0.3838 -0.1208  2.7501
  189SAPI  C31421876   2.508   3.886   6.431  0.2325 -0.6176 -0.5641
  189SAPI  H14X21877   2.461   3.785   6.437 -2.3917  0.5342 -0.3234
  189SAPI  H14Y21878   2.618   3.880   6.421  0.0670 -1.0420 -2.6136
  189SAPI  C31521879   2.452   3.958   6.308  0.1561 -0.2242  0.0143
  189SAPI  H15X21880   2.499   4.059   6.302  0.6357 -0.3098  1.7091
  189SAPI  H15Y21881   2.342   3.968   6.320  0.0641 -2.0206  0.9277
  189SAPI  C31621882   2.481   3.883   6.176 -0.6729 -0.0834 -0.2148
  189SAPI  H16X21883   2.464   3.774   6.189 -2.0107 -0.1610 -2.0734
  189SAPI  H16Y21884   2.591   3.894   6.173 -0.7074  1.4582  1.8328
  189SAPI  C31721885   2.407   3.943   6.064 -0.4194 -0.5097 -0.5224
  189SAPI  H17X21886   2.302   3.919   6.092  0.1216  0.5783  2.8743
  189SAPI  H17Y21887   2.432   3.899   5.965  1.3700 -0.2537 -0.2172
  189SAPI  C31821888   2.398   4.097   6.058  0.4025  0.0713  0.2977
  189SAPI  H18X21889   2.349   4.119   5.961 -1.6570 -0.6666  1.1142
  189SAPI  H18Y21890   2.491   4.156   6.071  0.9695 -0.5746 -0.7346
  189SAPI  H18Z21891   2.326   4.141   6.131  0.0196 -0.2449  0.1161
  190SAPI   C1221892   2.207   3.166   8.131  0.2937 -0.1291 -0.5050
  190SAPI    H221893   2.200   3.133   8.237 -2.2433 -1.2507 -0.9395
  190SAPI    O221894   2.156   3.301   8.109  0.4068  0.3215 -0.3228
  190SAPI   HO221895   2.168   3.352   8.190 -0.2306 -1.2378  0.8146
  190SAPI   C1321896   2.353   3.160   8.103 -0.2784 -0.0691  0.7032
  190SAPI    H321897   2.405   3.063   8.115  0.9436  0.6831  1.7367
  190SAPI    O321898   2.417   3.238   8.203  0.0993  0.3175  0.5794
  190SAPI   HO321899   2.421   3.327   8.168 -0.9680 -0.1114 -0.6641
  190SAPI   C1421900   2.379   3.199   7.961 -0.1187 -0.2081  0.2094
  190SAPI    H421901   2.353   3.307   7.954 -0.4238 -0.2053  1.2086
  190SAPI    O421902   2.517   3.186   7.930 -0.1643  0.3745  0.1756
  190SAPI   HO421903   2.543   3.234   7.851  0.4312 -2.4111 -1.4434
  190SAPI   C1521904   2.286   3.137   7.855  0.7435  0.2727  0.4914
  190SAPI    H521905   2.335   3.043   7.824  2.4693  0.2086  3.0611
  190SAPI    O521906   2.265   3.230   7.743 -0.0637 -0.3710  0.4883
  190SAPI   HO521907   2.203   3.299   7.768 -0.1224 -1.0520  2.3444
  190SAPI   C1621908   2.146   3.085   7.909 -0.2056  0.2838 -0.2436
  190SAPI    H621909   2.078   3.169   7.884  1.1201  0.6240 -3.1177
  190SAPI    O621910   2.097   2.975   7.836 -0.0670 -0.8252  0.1801
  190SAPI   HO621911   2.018   2.941   7.877  0.3656 -0.0037  1.7834
  190SAPI   C1121912   2.133   3.059   8.054  0.1702 -0.0522 -0.6914
  190SAPI    H121913   2.192   2.966   8.071  1.4872  0.8768 -0.0009
  190SAPI     P21914   1.923   2.913   8.120  0.3263 -0.6012  0.8087
  190SAPI   O1321915   1.796   2.930   8.195 -1.2692 -0.3835 -0.6393
  190SAPI   O1421916   2.026   2.820   8.171  0.3154 -0.4507 -0.0683
  190SAPI   O1221917   1.994   3.051   8.099  0.7398 -0.3429 -0.1886
  190SAPI   O1121918   1.888   2.878   7.970 -0.1771  0.3916 -0.0507
  190SAPI    C121919   1.770   2.933   7.907 -0.0168  0.4190  0.2237
  190SAPI    HA21920   1.746   3.034   7.945  0.7489 -0.5440  3.5525
  190SAPI    HB21921   1.785   2.945   7.797  0.6176 -0.5443  0.1923
  190SAPI    C221922   1.643   2.841   7.930  0.0962 -0.1496  0.5455
  190SAPI    HS21923   1.635   2.821   8.039  0.9259  0.5890  0.7509
  190SAPI   O2121924   1.674   2.718   7.862  0.0417  0.0598  0.0012
  190SAPI   C2121925   1.592   2.618   7.901  0.3531 -0.2805  0.0612
  190SAPI   O2221926   1.513   2.627   7.994  0.0378  0.4820  0.1782
  190SAPI   C2221927   1.605   2.498   7.803 -0.8243  0.2776 -0.4048
  190SAPI   H2R21928   1.650   2.538   7.709  0.2221 -1.9072 -0.8916
  190SAPI   H2S21929   1.688   2.438   7.845  1.2387  2.4603 -1.1568
  190SAPI    C321930   1.506   2.912   7.892  0.2071  0.0664  0.0790
  190SAPI    HX21931   1.493   2.996   7.963 -1.8435  1.1203 -1.4280
  190SAPI    HY21932   1.420   2.844   7.909 -0.9345  1.3544 -0.3892
  190SAPI   O3121933   1.513   2.965   7.760 -0.5770  0.3544 -0.5319
  190SAPI   C3121934   1.389   3.010   7.728 -0.3453 -0.0709 -0.0880
  190SAPI   O3221935   1.287   3.002   7.793  0.0010 -0.3985  0.5009
  190SAPI   C3221936   1.395   3.069   7.585  0.2556 -0.5130 -0.6749
  190SAPI   H2X21937   1.494   3.055   7.536 -0.5092  1.3089 -2.8936
  190SAPI   H2Y21938   1.370   3.177   7.581 -0.3765 -0.5672  0.8473
  190SAPI   C2321939   1.479   2.420   7.796 -1.0111 -0.4775 -0.2380
  190SAPI   H3R21940   1.410   2.464   7.721 -0.2414  0.3724 -0.4699
  190SAPI   H3S21941   1.433   2.408   7.897  3.3766 -1.3221  1.8929
  190SAPI   C2421942   1.511   2.272   7.751 -0.0543 -0.1524 -0.1345
  190SAPI   H4R21943   1.414   2.216   7.749 -1.3711  2.0315 -1.6825
  190SAPI   H4S21944   1.576   2.223   7.826  0.0063  0.2198  0.0599
  190SAPI   C2521945   1.575   2.256   7.622 -0.3911  0.1403  0.5715
  190SAPI   H5R21946   1.679   2.294   7.620 -0.1073 -0.5824  1.0535
  190SAPI   C2621947   1.517   2.214   7.507  0.7867 -0.3013  0.3507
  190SAPI   H6R21948   1.572   2.226   7.412  1.5710  2.2378  1.0510
  190SAPI   C2721949   1.372   2.167   7.502  0.1003 -0.5329  0.3627
  190SAPI   H7R21950   1.330   2.148   7.603 -1.3697  2.1630  0.3850
  190SAPI   H7S21951   1.365   2.072   7.445 -0.7683 -0.4711  0.3434
  190SAPI   C2821952   1.292   2.279   7.436 -0.0966 -1.1452  0.1982
  190SAPI   H8R21953   1.305   2.376   7.487  2.6015 -2.1772  1.7290
  190SAPI   C2921954   1.200   2.283   7.337 -0.0156 -0.1333 -0.0470
  190SAPI   H9R21955   1.150   2.377   7.312 -1.1294 -0.9198 -0.9205
  190SAPI  C21021956   1.169   2.164   7.247 -0.0360 -0.1286  0.4389
  190SAPI  H10R21957   1.070   2.165   7.198 -0.3505 -1.5693  0.9718
  190SAPI  H10S21958   1.151   2.072   7.308 -0.9663 -0.0509  0.2969
  190SAPI  C21121959   1.286   2.132   7.158 -0.5657  0.3283 -0.0166
  190SAPI  H11R21960   1.384   2.150   7.204 -1.2639 -0.5814  1.9563
  190SAPI  C21221961   1.275   2.091   7.026  0.7924  0.4748 -0.4094
  190SAPI  H12R21962   1.365   2.071   6.966  0.2571 -1.1813 -0.7017
  190SAPI  C21321963   1.149   2.070   6.947  0.9158  0.6577  0.0820
  190SAPI  H13R21964   1.071   2.046   7.022  1.9750  0.1132  1.0377
  190SAPI  H13S21965   1.162   1.979   6.884 -2.0400 -0.1375  0.4856
  190SAPI  C21421966   1.094   2.187   6.868 -0.0033 -0.1758  0.5172
  190SAPI  H14R21967   1.134   2.287   6.890 -0.0148  0.7848 -3.0616
  190SAPI  C21521968   1.005   2.168   6.766  0.5060  0.3878  0.0399
  190SAPI  H15R21969   0.971   2.254   6.707 -0.6659 -0.7856 -1.0413
  190SAPI  C21621970   0.944   2.039   6.720  0.0421  0.2399  0.2139
  190SAPI  H16R21971   0.837   2.056   6.697  0.6994  0.1474 -3.6524
  190SAPI  H16S21972   0.946   1.948   6.785 -0.2057  0.1638  0.1173
  190SAPI  C21721973   1.006   2.005   6.579  0.1283  0.4879 -0.5921
  190SAPI  H17R21974   1.113   1.975   6.580  0.0554  0.1646  1.2423
  190SAPI  H17S21975   1.000   2.097   6.517 -0.3420  1.1814  0.4444
  190SAPI  C21821976   0.924   1.889   6.512 -0.1183 -0.2751 -0.5770
  190SAPI  H18R21977   0.818   1.923   6.505  0.0989  0.0760 -3.0826
  190SAPI  H18S21978   0.927   1.797   6.573 -1.7448  0.3212  0.4679
  190SAPI  C21921979   0.971   1.842   6.374  0.1738  0.1398 -0.0994
  190SAPI  H19R21980   0.915   1.755   6.333 -0.9907  0.9248 -0.2401
  190SAPI  H19S21981   1.074   1.806   6.397  0.5073  1.1479  0.0143
  190SAPI  C22021982   0.972   1.949   6.267 -0.0132 -0.5022  0.1058
  190SAPI  H20R21983   0.988   1.906   6.166  0.8414 -1.9652  0.8267
  190SAPI  H20S21984   1.070   2.002   6.269 -0.2425 -0.0984  0.7317
  190SAPI  H20T21985   0.888   2.021   6.274  0.0851 -0.2325 -1.2087
  190SAPI   C3321986   1.297   2.987   7.495  0.2707 -0.6703 -0.1682
  190SAPI   H3X21987   1.203   2.984   7.554  1.1747  4.1838  1.9717
  190SAPI   H3Y21988   1.338   2.884   7.480  1.4913 -0.2390  0.0802
  190SAPI   C3421989   1.283   3.059   7.354  1.0039 -0.5799 -0.3995
  190SAPI   H4X21990   1.381   3.054   7.303  0.5292  0.7429 -1.5333
  190SAPI   H4Y21991   1.258   3.166   7.371  1.3849 -0.8605  2.3465
  190SAPI   C3521992   1.172   2.996   7.259 -0.2571  1.1651  0.0727
  190SAPI   H5X21993   1.080   3.014   7.318 -1.5016  1.1125 -1.7906
  190SAPI   H5Y21994   1.192   2.888   7.248  0.3065  1.4486 -2.0969
  190SAPI   C3621995   1.157   3.058   7.117  0.2331  0.0712  0.1794
  190SAPI   H6X21996   1.257   3.051   7.069  0.4752 -0.7633  0.7961
  190SAPI   H6Y21997   1.134   3.166   7.134  0.0086 -0.1831  1.5956
  190SAPI   C3721998   1.051   2.981   7.032 -0.5084  0.3065  0.1877
  190SAPI   H7X21999   0.950   3.005   7.074  1.2162  0.4207  4.8815
  190SAPI   H7Y22000   1.070   2.872   7.035  2.6277  0.7529 -0.6795
  190SAPI   C3822001   1.064   3.013   6.882  0.1332 -0.5578  0.4422
  190SAPI   H8X22002   1.156   2.976   6.833  1.0486 -0.5673  2.1050
  190SAPI   H8Y22003   1.072   3.122   6.866 -1.3420 -0.4356  0.3289
  190SAPI   C3922004   0.946   2.949   6.800 -0.5017  0.8321  0.0439
  190SAPI   H9X22005   0.853   2.974   6.855  0.4258  1.3825  1.4346
  190SAPI   H9Y22006   0.957   2.838   6.799 -0.8594  0.8004 -0.7549
  190SAPI  C31022007   0.932   3.003   6.654 -0.4114 -1.0213 -0.4774
  190SAPI  H10X22008   1.034   2.999   6.609  1.3210 -0.5048  3.0838
  190SAPI  H10Y22009   0.907   3.110   6.670 -0.1635 -1.3658  2.7348
  190SAPI  C31122010   0.828   2.941   6.561  0.3305  0.4120 -0.2744
  190SAPI  H11X22011   0.734   2.985   6.601  0.2906 -0.7248  0.9753
  190SAPI  H11Y22012   0.821   2.830   6.568 -0.2474  0.4855  0.5932
  190SAPI  C31222013   0.843   2.979   6.405  0.8892  0.1710 -0.2650
  190SAPI  H12X22014   0.942   2.960   6.358  1.2225  0.4628  0.3199
  190SAPI  H12Y22015   0.823   3.088   6.407 -0.3676 -0.0391 -0.8071
  190SAPI  C31322016   0.740   2.899   6.329  1.0655 -0.0767 -0.6828
  190SAPI  H13X22017   0.639   2.931   6.361  1.4855  0.6515 -0.0702
  190SAPI  H13Y22018   0.746   2.791   6.354  0.6785 -0.4361 -2.0520
  190SAPI  C31422019   0.742   2.911   6.178 -0.3595 -0.1041  0.0226
  190SAPI  H14X22020   0.794   3.008   6.160  2.0520 -1.0979  1.1703
  190SAPI  H14Y22021   0.643   2.905   6.129 -0.6992 -0.9380  0.7773
  190SAPI  C31522022   0.839   2.811   6.108 -0.3480 -0.1033  0.5455
  190SAPI  H15X22023   0.809   2.709   6.141  0.1197 -0.7497 -0.9632
  190SAPI  H15Y22024   0.946   2.828   6.134  0.2164 -0.0776 -1.5968
  190SAPI  C31622025   0.821   2.809   5.961 -0.2128 -0.6695 -0.0515
  190SAPI  H16X22026   0.770   2.896   5.915  0.6786 -0.5566 -0.8546
  190SAPI  H16Y22027   0.768   2.718   5.924 -0.9781  0.0596 -0.8108
  190SAPI  C31722028   0.957   2.805   5.880 -1.2928  0.2957  0.9899
  190SAPI  H17X22029   1.027   2.880   5.923 -0.3642 -0.5378  0.9798
  190SAPI  H17Y22030   0.940   2.829   5.773  2.0170 -0.8631  0.0840
  190SAPI  C31822031   1.033   2.668   5.890  0.4540 -0.9006  0.0375
  190SAPI  H18X22032   1.049   2.655   5.999 -3.0109 -1.5008  0.6086
  190SAPI  H18Y22033   1.124   2.678   5.827 -0.3211  0.3043 -0.9546
  190SAPI  H18Z22034   0.975   2.583   5.849  1.0769 -1.4340  0.2463
  191SAPI   C1222035   3.195   3.129   3.787  0.4007 -0.4264  0.2637
  191SAPI    H222036   3.159   3.031   3.823  0.2990 -0.9189 -1.1375
  191SAPI    O222037   3.205   3.111   3.648  0.0462 -0.1775  0.6052
  191SAPI   HO222038   3.258   3.032   3.637 -0.4932 -0.4220 -0.3074
  191SAPI   C1322039   3.098   3.240   3.815  0.4766 -0.3761  0.0763
  191SAPI    H322040   3.085   3.250   3.925  0.1280 -0.2704  0.0273
  191SAPI    O322041   2.970   3.199   3.765  0.4655 -0.0359 -0.0130
  191SAPI   HO322042   2.995   3.150   3.686  1.3186  1.0151 -0.4203
  191SAPI   C1422043   3.145   3.364   3.753  0.0796 -0.3027  0.2231
  191SAPI    H422044   3.150   3.362   3.642 -0.2608  1.4252  0.1447
  191SAPI    O422045   3.053   3.468   3.777 -0.1523 -0.5154 -0.2144
  191SAPI   HO422046   3.005   3.491   3.697  0.0967 -1.4837 -0.6580
  191SAPI   C1522047   3.286   3.401   3.807  0.3002 -0.6001  0.0830
  191SAPI    H522048   3.260   3.436   3.909 -1.1568 -0.5756 -0.2734
  191SAPI    O522049   3.344   3.515   3.736  0.1685 -0.1581  0.2521
  191SAPI   HO522050   3.282   3.586   3.753  0.4064  0.5643 -1.7180
  191SAPI   C1622051   3.389   3.287   3.819  0.0822 -0.5330  0.4572
  191SAPI    H622052   3.436   3.270   3.719  2.4130  0.6547  1.2748
  191SAPI    O622053   3.508   3.310   3.898 -0.0494 -0.2083 -0.4602
  191SAPI   HO622054   3.545   3.397   3.882 -1.4149  0.3964 -0.4498
  191SAPI   C1122055   3.326   3.149   3.861  0.3582 -0.3596  0.0488
  191SAPI    H122056   3.311   3.158   3.971 -2.5069  0.4651 -0.3403
  191SAPI     P22057   3.430   2.919   3.963 -0.5375 -0.0154  0.4700
  191SAPI   O1322058   3.561   2.846   3.937  0.3647  0.1097 -0.2302
  191SAPI   O1422059   3.310   2.832   3.971  0.3834 -0.0979 -0.2972
  191SAPI   O1222060   3.413   3.037   3.844 -0.1404 -0.3754  0.1144
  191SAPI   O1122061   3.436   2.989   4.099  0.5369 -0.0766  0.4254
  191SAPI    C122062   3.555   3.022   4.179  0.4122  0.3903 -0.4895
  191SAPI    HA22063   3.597   2.932   4.228 -0.4120  0.3165  0.1115
  191SAPI    HB22064   3.635   3.055   4.110 -0.9195  3.4672 -0.7124
  191SAPI    C222065   3.520   3.129   4.288 -0.5648 -0.1262 -0.1571
  191SAPI    HS22066   3.605   3.132   4.359 -0.1973 -0.0680 -0.5992
  191SAPI   O2122067   3.398   3.103   4.363  0.3759  0.0491  0.5023
  191SAPI   C2122068   3.392   2.985   4.426  0.5041  0.3896  0.5207
  191SAPI   O2222069   3.490   2.921   4.460 -0.2434  0.1728  0.1915
  191SAPI   C2222070   3.243   2.933   4.439  0.2046  0.2346  0.3199
  191SAPI   H2R22071   3.191   3.029   4.460  0.3653  0.4546 -0.2679
  191SAPI   H2S22072   3.199   2.906   4.341 -0.8447 -1.3003  1.1801
  191SAPI    C322073   3.516   3.270   4.215  0.1806  0.9207  0.0133
  191SAPI    HX22074   3.416   3.270   4.166 -0.8366 -1.3285  1.9224
  191SAPI    HY22075   3.592   3.264   4.134  0.1189 -1.4085  0.0563
  191SAPI   O3122076   3.512   3.391   4.296 -0.4926  0.4115 -0.0792
  191SAPI   C3122077   3.637   3.425   4.323 -0.7306  0.2007  0.7115
  191SAPI   O3222078   3.740   3.383   4.274  0.4487 -0.2111 -0.4619
  191SAPI   C3222079   3.641   3.540   4.427  0.2395  0.0838 -0.1240
  191SAPI   H2X22080   3.563   3.516   4.501  2.5473  1.8272  3.1144
  191SAPI   H2Y22081   3.618   3.641   4.387 -1.1710 -0.0258  0.3849
  191SAPI   C2322082   3.230   2.826   4.550  0.1624  0.6417  0.2502
  191SAPI   H3R22083   3.258   2.873   4.647 -0.6615  0.1411  0.7373
  191SAPI   H3S22084   3.293   2.739   4.523 -2.6099 -1.3320 -0.2226
  191SAPI   C2422085   3.086   2.766   4.562  0.6110  0.0042  0.4129
  191SAPI   H4R22086   3.085   2.711   4.658  0.3999  0.6478  0.7832
  191SAPI   H4S22087   3.061   2.694   4.481 -1.7227 -1.4333  2.2726
  191SAPI   C2522088   2.983   2.873   4.584 -0.1989  0.0539 -1.0071
  191SAPI   H5R22089   2.949   2.925   4.493  0.6807 -1.6413 -2.3579
  191SAPI   C2622090   2.946   2.931   4.696 -0.2742  0.2871  1.1538
  191SAPI   H6R22091   2.861   3.002   4.687 -1.2206 -1.0489 -1.5494
  191SAPI   C2722092   2.995   2.895   4.828  0.3364  0.4576  0.9946
  191SAPI   H7R22093   3.105   2.908   4.829  0.1260  2.7131  1.6829
  191SAPI   H7S22094   2.981   2.786   4.844 -4.3415  0.2492 -2.4101
  191SAPI   C2822095   2.938   2.967   4.951 -0.1710  0.5132  0.6516
  191SAPI   H8R22096   2.828   2.962   4.959 -0.2704  1.7582  0.3240
  191SAPI   C2922097   3.004   3.030   5.044 -0.4504 -0.9674 -0.2787
  191SAPI   H9R22098   2.942   3.074   5.123  2.4982  0.1284  1.5670
  191SAPI  C21022099   3.150   3.043   5.070 -1.1813  0.2819  0.2400
  191SAPI  H10R22100   3.211   3.022   4.980 -0.8341 -1.8203  0.9194
  191SAPI  H10S22101   3.190   2.967   5.141  0.8601 -2.1833 -3.2732
  191SAPI  C21122102   3.183   3.188   5.115  0.7064  0.0773  0.2002
  191SAPI  H11R22103   3.152   3.270   5.048  0.9729  0.2752  0.3189
  191SAPI  C21222104   3.222   3.222   5.239 -0.5083 -0.0384 -0.1385
  191SAPI  H12R22105   3.220   3.330   5.260 -0.6060  0.3765 -2.1255
  191SAPI  C21322106   3.273   3.117   5.337  0.2946 -0.2112 -0.6577
  191SAPI  H13R22107   3.316   3.030   5.282 -0.9840  0.4082 -2.7700
  191SAPI  H13S22108   3.184   3.075   5.389  0.2718 -0.1812 -0.6723
  191SAPI  C21422109   3.375   3.170   5.434  0.1431  0.3486 -0.1914
  191SAPI  H14R22110   3.449   3.229   5.379 -1.5061  0.9236 -1.9078
  191SAPI  C21522111   3.365   3.177   5.568  0.6959  0.4018  0.6848
  191SAPI  H15R22112   3.454   3.220   5.617  1.3294  2.3870 -1.9747
  191SAPI  C21622113   3.245   3.127   5.647  0.3535 -0.7370 -0.3197
  191SAPI  H16R22114   3.152   3.107   5.590 -0.2072  0.8862 -0.0378
  191SAPI  H16S22115   3.213   3.206   5.718 -0.7948 -1.2145 -0.2883
  191SAPI  C21722116   3.288   3.004   5.727  0.6924 -0.0890  0.1140
  191SAPI  H17R22117   3.371   3.019   5.799  1.5929  0.1550 -0.9394
  191SAPI  H17S22118   3.335   2.927   5.663  0.7414 -0.2489  0.3429
  191SAPI  C21822119   3.165   2.937   5.793 -0.7348  0.2263  0.9746
  191SAPI  H18R22120   3.107   2.898   5.706  0.9809  2.3749 -1.2668
  191SAPI  H18S22121   3.106   3.010   5.852  0.3598  0.2511  2.0690
  191SAPI  C21922122   3.187   2.828   5.892  0.8580 -0.3412 -0.9835
  191SAPI  H19R22123   3.233   2.872   5.983  3.4560 -1.8099 -1.4851
  191SAPI  H19S22124   3.261   2.752   5.861  3.1126  0.2482  2.4756
  191SAPI  C22022125   3.060   2.750   5.932  0.4065  0.4291  0.2410
  191SAPI  H20R22126   2.999   2.806   6.005  0.2865 -0.4962  0.8654
  191SAPI  H20S22127   3.101   2.660   5.985  3.2532  1.6618  0.3427
  191SAPI  H20T22128   2.993   2.738   5.845  1.6511  2.8693 -1.1642
  191SAPI   C3322129   3.783   3.555   4.494 -0.4872  0.2180  0.1959
  191SAPI   H3X22130   3.861   3.574   4.418 -0.7122 -0.9706 -0.3462
  191SAPI   H3Y22131   3.813   3.459   4.541  0.8785 -0.0111 -1.0781
  191SAPI   C3422132   3.791   3.669   4.598  0.4049 -0.5979 -0.0192
  191SAPI   H4X22133   3.719   3.660   4.682  0.6808  0.9488  0.4155
  191SAPI   H4Y22134   3.759   3.760   4.542  0.1715  0.0785  1.1802
  191SAPI   C3522135   3.931   3.694   4.654 -0.2709  0.3650  0.3345
  191SAPI   H5X22136   4.006   3.696   4.572  1.0910 -2.4506  1.3698
  191SAPI   H5Y22137   3.962   3.610   4.720  1.0529  1.6089  1.3565
  191SAPI   C3622138   3.954   3.820   4.733 -0.2768 -0.3480 -0.4843
  191SAPI   H6X22139   3.952   3.903   4.660 -1.7416 -0.9290 -1.1524
  191SAPI   H6Y22140   4.055   3.813   4.778 -1.3083  0.0522  2.0791
  191SAPI   C3722141   3.861   3.833   4.853 -0.7944  0.0813 -0.3996
  191SAPI   H7X22142   3.851   3.736   4.905  1.6167  0.3719  0.7350
  191SAPI   H7Y22143   3.762   3.877   4.829 -0.4069  1.1272 -0.1478
  191SAPI   C3822144   3.909   3.941   4.959 -0.0358 -0.1455 -0.0612
  191SAPI   H8X22145   3.961   4.028   4.914  2.8966 -1.7476  0.0379
  191SAPI   H8Y22146   3.993   3.900   5.019  0.5372  0.2050 -0.6048
  191SAPI   C3922147   3.794   3.980   5.049  0.7026  0.4138  0.2218
  191SAPI   H9X22148   3.755   3.884   5.088 -1.8647  1.4260  0.3033
  191SAPI   H9Y22149   3.716   4.026   4.984 -0.8243 -1.3167  0.7597
  191SAPI  C31022150   3.824   4.073   5.169  0.2097  0.1905 -0.2610
  191SAPI  H10X22151   3.727   4.127   5.179  0.7913  1.1822  0.2322
  191SAPI  H10Y22152   3.903   4.147   5.142  1.1622 -0.5986  0.3180
  191SAPI  C31122153   3.848   3.989   5.292  0.3417  0.4930 -0.0969
  191SAPI  H11X22154   3.897   4.058   5.364  2.2219 -0.8737 -0.0007
  191SAPI  H11Y22155   3.914   3.903   5.268 -0.5188 -0.5959  1.2534
  191SAPI  C31222156   3.715   3.922   5.351  0.2568  0.1209  0.3614
  191SAPI  H12X22157   3.642   3.886   5.275  0.7254  0.9357 -0.4948
  191SAPI  H12Y22158   3.651   4.000   5.397  1.3626  1.4870 -0.3658
  191SAPI  C31322159   3.752   3.808   5.447  0.4659 -0.6564 -0.2205
  191SAPI  H13X22160   3.825   3.743   5.394  2.4370  1.3027 -0.0925
  191SAPI  H13Y22161   3.665   3.748   5.479  1.8482 -1.9700  1.2610
  191SAPI  C31422162   3.815   3.862   5.572  0.0364  0.8984  0.4562
  191SAPI  H14X22163   3.756   3.948   5.612 -1.0896  1.1462 -1.6213
  191SAPI  H14Y22164   3.918   3.893   5.546  0.2201  0.5947  0.8068
  191SAPI  C31522165   3.819   3.758   5.688  0.3880  0.5410  0.0849
  191SAPI  H15X22166   3.893   3.780   5.768  1.0525 -3.7199  0.9009
  191SAPI  H15Y22167   3.840   3.663   5.634  0.8831  1.0644 -0.6552
  191SAPI  C31622168   3.675   3.747   5.752  0.7939 -0.0148  0.2503
  191SAPI  H16X22169   3.602   3.720   5.672 -0.1111  1.8997  0.3887
  191SAPI  H16Y22170   3.643   3.849   5.780 -1.4838 -0.5635 -0.1512
  191SAPI  C31722171   3.674   3.659   5.878  0.2392 -0.0757 -0.6229
  191SAPI  H17X22172   3.576   3.681   5.926  0.2577  0.7046 -0.9387
  191SAPI  H17Y22173   3.759   3.694   5.940  1.4614 -1.5129 -1.4162
  191SAPI  C31822174   3.688   3.509   5.854  0.2431 -0.2490 -0.0521
  191SAPI  H18X22175   3.781   3.487   5.797  0.3543  0.0816  0.0008
  191SAPI  H18Y22176   3.609   3.463   5.789  0.2330  0.5551 -0.6231
  191SAPI  H18Z22177   3.696   3.455   5.950  1.9397  1.9502  1.1208
  192SAPI   C1222178   5.289   0.819   4.132  0.6050 -0.0383  0.1363
  192SAPI    H222179   5.249   0.899   4.199 -1.9846 -1.1123 -0.0029
  192SAPI    O222180   5.425   0.826   4.136 -0.3668  0.0467 -0.2801
  192SAPI   HO222181   5.438   0.903   4.081  0.0835 -0.8585 -1.4700
  192SAPI   C1322182   5.237   0.687   4.182  0.3937  0.5145  0.4378
  192SAPI    H322183   5.126   0.691   4.188  0.1108 -3.6841  1.6664
  192SAPI    O322184   5.286   0.654   4.317 -1.1390 -0.1637  0.2060
  192SAPI   HO322185   5.368   0.701   4.332 -0.8082  0.2560 -2.4116
  192SAPI   C1422186   5.255   0.569   4.082  0.5590 -0.2052  0.2015
  192SAPI    H422187   5.357   0.531   4.107  1.1309  0.9957 -0.2493
  192SAPI    O422188   5.162   0.461   4.101 -0.4812  0.6007 -0.0041
  192SAPI   HO422189   5.206   0.377   4.119  2.2608  1.7293 -0.9244
  192SAPI   C1522190   5.268   0.598   3.933 -0.5859 -0.3477 -0.4921
  192SAPI    H522191   5.171   0.569   3.888 -1.6669 -2.3504  2.7669
  192SAPI    O522192   5.357   0.511   3.867 -0.1829 -0.2553  0.3229
  192SAPI   HO522193   5.308   0.445   3.817 -0.6012  1.5886 -1.8552
  192SAPI   C1622194   5.290   0.743   3.891  0.3218 -0.3633 -0.9167
  192SAPI    H622195   5.400   0.756   3.899  0.6369 -2.2980 -1.5093
  192SAPI    O622196   5.247   0.771   3.760  0.9776  0.0877  0.1108
  192SAPI   HO622197   5.155   0.796   3.765  0.8405 -0.0195 -1.4782
  192SAPI   C1122198   5.234   0.842   3.994  0.0553 -0.3825 -0.1675
  192SAPI    H122199   5.123   0.839   4.002  0.0165  0.6807 -0.0921
  192SAPI     P22200   5.155   1.093   3.929 -0.4129 -0.2371  0.1997
  192SAPI   O1322201   5.038   1.040   3.857  0.1161 -0.1925  0.3714
  192SAPI   O1422202   5.216   1.212   3.877  0.2311  0.0561  0.4036
  192SAPI   O1222203   5.272   0.974   3.951 -0.0269 -0.1249  0.6247
  192SAPI   O1122204   5.125   1.131   4.078 -0.4378  0.0494 -0.0565
  192SAPI    C122205   5.160   1.258   4.144  0.4648  0.8191  0.4236
  192SAPI    HA22206   5.183   1.332   4.064  4.5695 -0.9148 -0.2823
  192SAPI    HB22207   5.068   1.287   4.198  1.3907  1.3948  1.7406
  192SAPI    C222208   5.278   1.250   4.240 -0.2528 -0.1444  0.2329
  192SAPI    HS22209   5.363   1.219   4.175 -0.3277 -0.0328  0.0805
  192SAPI   O2122210   5.257   1.153   4.346  0.0263  0.3031 -0.0149
  192SAPI   C2122211   5.368   1.112   4.408 -0.0052 -0.3459 -0.2403
  192SAPI   O2222212   5.480   1.125   4.361 -0.1492 -0.3204  0.6565
  192SAPI   C2222213   5.331   1.034   4.533 -0.0702 -0.3307  0.3815
  192SAPI   H2R22214   5.246   1.090   4.580  1.7826 -0.2773  4.0624
  192SAPI   H2S22215   5.293   0.938   4.492 -2.2721 -0.2626  2.0425
  192SAPI    C322216   5.310   1.397   4.288  0.3695 -0.1704 -0.5425
  192SAPI    HX22217   5.327   1.450   4.192 -1.5385 -1.5378 -1.7313
  192SAPI    HY22218   5.405   1.402   4.345 -1.0422  1.5330  1.8517
  192SAPI   O3122219   5.195   1.450   4.351  0.0955 -0.0316  0.3090
  192SAPI   C3122220   5.186   1.429   4.485  0.1754 -0.2519  0.1216
  192SAPI   O3222221   5.268   1.378   4.555 -0.1868  0.1332 -0.3670
  192SAPI   C3222222   5.054   1.491   4.548 -0.2247 -0.2292  0.1945
  192SAPI   H2X22223   4.968   1.449   4.492 -1.9010  0.8218  1.8456
  192SAPI   H2Y22224   5.058   1.601   4.531  2.9362  0.0526  1.8958
  192SAPI   C2322225   5.444   1.005   4.632  0.3749 -0.1133 -0.1001
  192SAPI   H3R22226   5.530   0.951   4.587  0.9211  0.3871  0.3222
  192SAPI   H3S22227   5.404   0.932   4.706 -0.8626 -0.4918 -1.1206
  192SAPI   C2422228   5.501   1.123   4.712 -0.0835 -0.2322  0.5825
  192SAPI   H4R22229   5.411   1.173   4.754 -1.0796 -0.7612 -0.8354
  192SAPI   H4S22230   5.541   1.188   4.631 -0.8201  0.2852  0.6263
  192SAPI   C2522231   5.598   1.101   4.823  0.6162  0.3723  0.4682
  192SAPI   H5R22232   5.682   1.035   4.796  1.7014  1.8767 -0.0140
  192SAPI   C2622233   5.610   1.165   4.934 -0.0530 -0.4910  0.3987
  192SAPI   H6R22234   5.681   1.128   5.010 -0.1361  1.3972  1.4549
  192SAPI   C2722235   5.517   1.281   4.974  0.3209 -0.0986 -0.6559
  192SAPI   H7R22236   5.470   1.262   5.073 -1.2758  1.2646 -1.1014
  192SAPI   H7S22237   5.426   1.302   4.913  1.2032  1.7503 -1.4232
  192SAPI   C2822238   5.593   1.407   4.978 -0.6523 -0.3438 -0.1333
  192SAPI   H8R22239   5.589   1.457   4.880 -4.3844  0.7187  0.4118
  192SAPI   C2922240   5.614   1.479   5.087 -0.1101  0.4002 -0.5632
  192SAPI   H9R22241   5.661   1.578   5.075 -0.8411  0.9933  1.0343
  192SAPI  C21022242   5.584   1.437   5.231 -0.4665 -0.2002 -0.7498
  192SAPI  H10R22243   5.549   1.332   5.241  1.4503 -0.7742  0.4894
  192SAPI  H10S22244   5.493   1.494   5.258  0.7928  1.4062  0.2742
  192SAPI  C21122245   5.711   1.474   5.310 -0.3762 -0.3756  0.8715
  192SAPI  H11R22246   5.807   1.474   5.256  0.3354 -3.9004  1.8146
  192SAPI  C21222247   5.723   1.496   5.448  0.0476 -0.7213 -0.0165
  192SAPI  H12R22248   5.827   1.512   5.482  0.5854  4.6589 -3.0808
  192SAPI  C21322249   5.619   1.485   5.552 -0.7192  0.4287  0.4508
  192SAPI  H13R22250   5.648   1.426   5.642 -1.6232 -1.2648 -0.3291
  192SAPI  H13S22251   5.542   1.414   5.515 -1.9598 -0.2977  3.9793
  192SAPI  C21422252   5.551   1.608   5.600 -0.1238 -0.0658 -0.2247
  192SAPI  H14R22253   5.573   1.694   5.535 -0.1316 -0.2033 -0.4127
  192SAPI  C21522254   5.478   1.629   5.710  0.1316  0.6476  0.0579
  192SAPI  H15R22255   5.423   1.724   5.715  0.4552  0.7580  2.8225
  192SAPI  C21622256   5.439   1.523   5.807  0.1993 -0.1172 -0.2094
  192SAPI  H16R22257   5.502   1.432   5.796 -0.2727 -0.5150  0.2912
  192SAPI  H16S22258   5.338   1.488   5.778  0.6867 -1.0692 -0.7892
  192SAPI  C21722259   5.445   1.559   5.964 -0.3063 -0.6854 -0.0814
  192SAPI  H17R22260   5.544   1.569   6.012 -0.7170 -1.0354  0.8826
  192SAPI  H17S22261   5.390   1.472   6.006 -1.5312 -0.4762 -1.1732
  192SAPI  C21822262   5.355   1.680   5.999 -0.6401  0.1887  0.1627
  192SAPI  H18R22263   5.256   1.679   5.948 -0.7232  0.6398  0.3164
  192SAPI  H18S22264   5.418   1.767   5.972 -0.5678  0.2343  0.4747
  192SAPI  C21922265   5.319   1.680   6.158 -0.3103 -1.1049  0.4321
  192SAPI  H19R22266   5.276   1.583   6.191 -0.9355 -0.8002  0.5255
  192SAPI  H19S22267   5.246   1.763   6.171  1.0582  0.0205  1.2854
  192SAPI  C22022268   5.440   1.727   6.245  0.2984  0.8400  0.7005
  192SAPI  H20R22269   5.528   1.668   6.210  1.0286  1.7840  0.9073
  192SAPI  H20S22270   5.417   1.705   6.352 -0.4412  1.1616  0.6131
  192SAPI  H20T22271   5.456   1.835   6.224 -1.0565  0.7100 -1.2570
  192SAPI   C3322272   5.050   1.487   4.703 -0.1951 -0.4073  0.2177
  192SAPI   H3X22273   5.090   1.392   4.743  0.3724  0.1474  1.0054
  192SAPI   H3Y22274   4.945   1.473   4.736 -0.4173  2.8724  1.2712
  192SAPI   C3422275   5.082   1.615   4.784  0.9548  0.0911  0.4778
  192SAPI   H4X22276   4.989   1.656   4.830  1.8000  0.0506  2.2872
  192SAPI   H4Y22277   5.126   1.690   4.714  0.5314 -0.2670 -0.1863
  192SAPI   C3522278   5.173   1.606   4.906 -0.1615  0.2797 -0.2292
  192SAPI   H5X22279   5.189   1.695   4.969 -0.5802 -0.1254  0.4688
  192SAPI   H5Y22280   5.274   1.582   4.867 -1.4691 -2.2272 -2.4314
  192SAPI   C3622281   5.124   1.490   5.002 -0.3489 -0.8453  0.1016
  192SAPI   H6X22282   5.162   1.396   4.955  0.4124 -0.5833  0.1864
  192SAPI   H6Y22283   5.013   1.477   5.006 -0.1370 -3.3646 -0.6348
  192SAPI   C3722284   5.188   1.499   5.145  0.3048 -0.3392 -0.2222
  192SAPI   H7X22285   5.290   1.543   5.142  0.4416 -0.5030  1.2700
  192SAPI   H7Y22286   5.212   1.399   5.187 -0.0574 -1.1397 -1.8221
  192SAPI   C3822287   5.088   1.575   5.240 -0.5592  0.9139 -0.1907
  192SAPI   H8X22288   5.007   1.502   5.261  0.5277 -0.0823  0.6078
  192SAPI   H8Y22289   5.043   1.666   5.194 -3.4920 -0.9906 -1.4218
  192SAPI   C3922290   5.151   1.615   5.377  0.5539  0.3701  0.1961
  192SAPI   H9X22291   5.240   1.680   5.366  2.5306 -1.7267  2.3595
  192SAPI   H9Y22292   5.193   1.525   5.428  0.1362  1.3904  2.4734
  192SAPI  C31022293   5.041   1.683   5.461 -0.5818  0.0475 -0.4839
  192SAPI  H10X22294   4.980   1.605   5.511 -0.9783  0.8688  0.3474
  192SAPI  H10Y22295   4.986   1.763   5.406 -0.7138 -0.1800 -0.6850
  192SAPI  C31122296   5.107   1.757   5.576 -0.1990  0.3960  0.1415
  192SAPI  H11X22297   5.197   1.812   5.542 -0.0346 -0.5082 -0.9528
  192SAPI  H11Y22298   5.134   1.679   5.651 -0.5094 -0.7994 -0.9429
  192SAPI  C31222299   5.016   1.856   5.644 -0.2091  0.3293  0.0448
  192SAPI  H12X22300   4.917   1.808   5.664  0.2358 -1.0963 -1.0583
  192SAPI  H12Y22301   4.989   1.945   5.582 -0.8523  0.0597 -0.0675
  192SAPI  C31322302   5.074   1.903   5.782 -0.7744  0.3270  0.2933
  192SAPI  H13X22303   5.164   1.966   5.763 -0.6166 -0.1811 -0.6893
  192SAPI  H13Y22304   5.121   1.824   5.845 -0.4695  1.1044  1.0529
  192SAPI  C31422305   4.975   1.985   5.866 -0.2194  0.6894  0.1580
  192SAPI  H14X22306   4.961   2.086   5.822 -1.7548 -0.5592 -2.4308
  192SAPI  H14Y22307   5.036   2.014   5.955 -1.2446  3.0908  0.1626
  192SAPI  C31522308   4.848   1.919   5.897  0.3704 -0.6058  0.4244
  192SAPI  H15X22309   4.867   1.817   5.935 -0.0974 -0.6891  0.4383
  192SAPI  H15Y22310   4.786   1.910   5.806  0.1018 -1.1697  0.6599
  192SAPI  C31622311   4.761   1.992   6.002  0.2830 -0.2475 -0.4561
  192SAPI  H16X22312   4.675   1.926   6.023  1.3256 -0.9848  1.7981
  192SAPI  H16Y22313   4.722   2.085   5.957 -1.3299 -0.8732 -0.4189
  192SAPI  C31722314   4.827   2.006   6.143  0.1713  0.0893 -0.2784
  192SAPI  H17X22315   4.916   2.071   6.136 -0.9586  1.5575 -1.5352
  192SAPI  H17Y22316   4.856   1.904   6.176 -0.0821  0.8855  2.7753
  192SAPI  C31822317   4.731   2.068   6.250 -0.3647  0.0293 -0.4296
  192SAPI  H18X22318   4.704   2.174   6.229  1.9964  0.6974 -0.3649
  192SAPI  H18Y22319   4.771   2.053   6.352  0.5647  1.5489 -0.5300
  192SAPI  H18Z22320   4.638   2.011   6.228 -1.0811  1.5519 -1.5574
  193SOD    SOD22321   4.419   5.141   2.420 -0.2656  0.5172  0.0491
  194SOD    SOD22322   3.642   0.933   0.184  0.3313 -0.3592  0.0894
  195SOD    SOD22323   2.789   4.033   2.034  0.9024 -0.4527 -0.2279
  196SOD    SOD22324   6.323   0.066   2.897 -0.6722  0.1726 -0.1900
  197SOD    SOD22325   4.873   6.586   1.691 -0.1331 -0.0313  0.2874
  198SOD    SOD22326   4.775   1.929   2.587 -0.0959  0.0373  0.3127
  199SOD    SOD22327   5.280   5.932   8.729  0.3006  0.2462 -0.3997
  200SOD    SOD22328   4.338   3.300   3.267  0.8082  0.3193  0.1733
  201SOD    SOD22329   2.190   1.643   1.093 -0.3791 -0.8663  0.3054
  202SOD    SOD22330   2.995   1.540   3.201  0.3782 -0.5419  0.0544
  203SOD    SOD22331   4.537   2.075   3.521  0.0870  0.3148 -0.0291
  204SOD    SOD22332   4.704   4.615   0.635 -0.3999 -0.3621 -0.0275
  205SOD    SOD22333   1.979   5.313   2.953 -0.3846  0.0580  0.7472
  206SOD    SOD22334   1.862   5.881   3.591  0.3480 -0.2897  0.3456
  207SOD    SOD22335   2.728   0.446   2.697  0.0011 -0.1194  0.1546
  208SOD    SOD22336   2.613   2.240   3.528  0.1669 -0.2602 -0.5962
  209SOD    SOD22337   5.886   2.819   2.155 -0.0862  0.0127 -0.4415
  210SOD    SOD22338   6.062   5.933   2.811 -0.2014  0.0779 -0.3646
  211SOD    SOD22339   2.755   5.194   0.163 -0.2619  0.3528 -0.5248
  212SOD    SOD22340   6.496   6.619   1.492  0.1054 -0.3744  0.2141
  213SOD    SOD22341   2.937   4.894   2.039 -0.3281  0.1577 -0.2928
  214SOD    SOD22342   1.786   0.305   3.990 -0.0448  0.2142  0.4919
  215SOD    SOD22343   2.405   5.250   3.040  0.7277  0.2645  0.2883
  216SOD    SOD22344   3.076   2.226   0.029 -0.5588  0.5667  0.0650
  217SOD    SOD22345   6.635   3.031   3.369 -0.3668  0.0041  0.0267
  218SOD    SOD22346   0.039   5.716   3.079 -0.2965  0.4198  0.3501
  219SOD    SOD22347   6.315   1.516   0.701  0.1487 -1.0780 -0.2212
  220SOD    SOD22348   3.320   2.157   1.694  0.5909 -0.0720  0.4130
  221SOD    SOD22349   0.247   4.637   8.146  0.2005  0.2524  0.2245
  222SOD    SOD22350   6.532   3.108   1.291 -0.1915  0.5288 -0.0453
  223SOD    SOD22351   4.433   1.462   1.922  0.0892 -0.1120 -0.1739
  224SOD    SOD22352   1.904   0.457   0.862 -0.6493  0.1332  0.0887
  225SOD    SOD22353   6.335   1.522   8.178 -0.0947 -0.4871  0.4330
  226SOD    SOD22354   4.007   2.159   8.574 -0.5501  0.3107 -0.1033
  227SOD    SOD22355   1.105   5.320   8.427 -0.3059  0.2995 -0.3878
  228SOD    SOD22356   3.426   3.487   1.460  0.2242  0.2587 -0.1948
  229SOD    SOD22357   1.574   2.629   1.030 -0.1959  0.2715 -0.3599
  230CLA    CLA22358   2.322   4.829   0.595 -0.2926  0.0703 -0.6350
  231CLA    CLA22359   3.780   3.167   0.622  0.2039 -0.0095 -0.2968
  232CLA    CLA22360   3.113   2.332   2.722  0.0284 -0.1411  0.3914
  233CLA    CLA22361   0.141   5.535   8.554 -0.4786 -0.2752  0.1940
  234CLA    CLA22362   5.050   5.724   2.477  0.2226 -0.1342  0.0169
  235CLA    CLA22363   5.624   3.682   2.471  0.0999 -0.0919 -0.1458
  236CLA    CLA22364   4.867   4.914   2.315 -0.3515 -0.1918 -0.2438
  237CLA    CLA22365   3.665   2.676   1.152 -0.2664  0.1843 -0.5208
  238CLA    CLA22366   2.480   1.382   0.952 -0.3239 -0.0066  0.2872
  239CLA    CLA22367   0.230   2.993   2.823 -0.0519  0.2375 -0.2406
  240CLA    CLA22368   4.199   6.794   2.117  0.5463  0.0502  0.0572
  241CLA    CLA22369   3.194   1.623   1.533 -0.1235 -0.4058 -0.2924
  242CLA    CLA22370   4.628   6.002   0.649 -0.3288  0.1642  0.3569
  243CLA    CLA22371   5.818   6.759   3.086 -0.1631  0.2569  0.2038
  244CLA    CLA22372   5.070   3.375   1.358  0.0913 -0.0684 -0.0465
  245CLA    CLA22373   3.673   6.185   1.676 -0.0047 -0.0348  0.1953
  246CLA    CLA22374   1.590   6.558   1.520  0.2712 -0.0087  0.1692
  247TIP3   OH222375   5.017   4.522   1.749 -0.1042 -0.0090 -0.0471
  247TIP3    H122376   5.004   4.579   1.672  1.3459 -0.1290 -0.3984
  247TIP3    H222377   4.974   4.440   1.724 -0.1524  0.1461 -0.4983
  248TIP3   OH222378   0.655   3.321   2.780  0.3844  0.0377 -0.3526
  248TIP3    H122379   0.678   3.256   2.714  1.6240 -1.7623  1.7161
  248TIP3    H222380   0.569   3.292   2.813 -0.0850  0.7502 -0.9096
  249TIP3   OH222381   3.592   3.534   3.199  0.4357  0.0856  0.7948
  249TIP3    H122382   3.539   3.517   3.277  1.0450  0.1548  1.2244
  249TIP3    H222383   3.556   3.615   3.163  1.1564  0.9208  1.8886
  250TIP3   OH222384   6.419   2.069   3.995 -0.0583 -0.2354 -0.6368
  250TIP3    H122385   6.364   2.146   4.009  1.5634  0.6125  1.4812
  250TIP3    H222386   6.508   2.100   4.007  0.9133 -1.7780 -3.0366
  251TIP3   OH222387   1.160   2.923   4.116 -0.2286  0.0454  0.0796
  251TIP3    H122388   1.104   2.846   4.107  1.4450 -1.2116 -0.2276
  251TIP3    H222389   1.249   2.886   4.123  0.4267  1.8245  2.4678
  252TIP3   OH222390   1.362   0.166   1.794 -0.4049 -0.0429  0.0035
  252TIP3    H122391   1.287   0.166   1.736 -1.1699 -1.3719  0.9310
  252TIP3    H222392   1.436   0.145   1.737 -0.7229  1.2244 -0.9073
  253TIP3   OH222393   1.098   4.335   3.390  0.1735  0.2993  0.1856
  253TIP3    H122394   1.092   4.429   3.372 -0.4915  0.4912  1.2890
  253TIP3    H222395   1.135   4.330   3.478  0.5957 -0.4975 -0.0265
  254TIP3   OH222396   1.433   5.457   3.867 -0.3922  0.0300  0.4660
  254TIP3    H122397   1.347   5.450   3.825 -0.8646 -0.8623  1.5391
  254TIP3    H222398   1.457   5.367   3.888  0.1041  0.3976  1.5593
  255TIP3   OH222399   5.972   1.194   1.308  0.4840  0.4953 -0.4199
  255TIP3    H122400   5.881   1.201   1.337  1.0937  1.5065  1.3709
  255TIP3    H222401   5.977   1.250   1.230 -0.1531  1.3865  0.1698
  256TIP3   OH222402   3.346   0.672   4.044  0.4196 -0.5269  0.1123
  256TIP3    H122403   3.259   0.669   4.084  0.1345  1.9465 -0.1364
  256TIP3    H222404   3.372   0.581   4.034 -3.0795 -1.4791 -1.8075
  257TIP3   OH222405   5.468   6.117   1.305  0.3979 -0.2897  0.2057
  257TIP3    H122406   5.525   6.173   1.252 -0.5639  0.4370 -0.0936
  257TIP3    H222407   5.381   6.156   1.296 -0.4181 -2.1401 -0.4536
  258TIP3   OH222408   1.610   2.123   3.548 -0.8343 -0.3545  0.3453
  258TIP3    H122409   1.584   2.207   3.510 -1.1035 -0.5209  0.1623
  258TIP3    H222410   1.657   2.078   3.478  1.0922  0.4527  1.0378
  259TIP3   OH222411   3.010   3.809   2.763 -0.4067  0.4996  0.8415
  259TIP3    H122412   3.103   3.827   2.775 -0.3523  2.7362 -1.9912
  259TIP3    H222413   2.969   3.896   2.757 -2.6378 -0.4249  1.5647
  260TIP3   OH222414   3.068   1.214   1.623  0.1004  0.2909 -0.0774
  260TIP3    H122415   3.089   1.228   1.715  0.1193  0.5577 -0.1235
  260TIP3    H222416   3.152   1.192   1.582  0.2698  1.1779 -0.2266
  261TIP3   OH222417   5.070   1.502   2.150  0.0127  0.0303  0.0230
  261TIP3    H122418   5.152   1.452   2.154  0.4678  0.5973 -1.6999
  261TIP3    H222419   5.016   1.455   2.087 -0.1076  0.9124 -0.5429
  262TIP3   OH222420   5.597   0.099   7.806 -0.1321  0.1324  0.3757
  262TIP3    H122421   5.556   0.181   7.777 -2.1852 -0.5724  1.1148
  262TIP3    H222422   5.683   0.126   7.837 -1.0888  2.2105  1.4998
  263TIP3   OH222423   2.657   1.993   1.231 -0.4249  0.2756  0.0568
  263TIP3    H122424   2.710   1.992   1.151 -0.7965 -1.5014 -0.2127
  263TIP3    H222425   2.651   1.901   1.257  0.4739  0.8527  2.6789
  264TIP3   OH222426   4.739   4.713   2.093 -0.1119  0.2341  0.8756
  264TIP3    H122427   4.762   4.631   2.137 -0.8617 -0.3459  0.2312
  264TIP3    H222428   4.749   4.780   2.161  1.5366 -0.2208  1.1362
  265TIP3   OH222429   3.749   1.473   0.595 -0.0786  0.5676  0.4887
  265TIP3    H122430   3.832   1.522   0.603 -2.0900  5.0963 -2.2361
  265TIP3    H222431   3.719   1.462   0.685  2.8222 -0.1023  1.4834
  266TIP3   OH222432   0.757   2.941   2.657 -0.4975  0.0667  0.2336
  266TIP3    H122433   0.665   2.931   2.682 -0.6059 -0.1183 -0.2444
  266TIP3    H222434   0.773   3.035   2.664 -0.9717  0.2101 -0.5631
  267TIP3   OH222435   6.678   3.135   0.449 -0.5628 -0.5353  0.1958
  267TIP3    H122436   6.706   3.226   0.435 -1.4745 -0.3636 -0.5896
  267TIP3    H222437   6.635   3.137   0.535  1.9112 -0.8546  1.5574
  268TIP3   OH222438   0.738   2.250   3.021  0.1519 -0.6983 -0.3610
  268TIP3    H122439   0.800   2.178   3.007  0.2818 -0.5248 -0.6774
  268TIP3    H222440   0.780   2.305   3.087 -0.7843 -1.8996  1.3405
  269TIP3   OH222441   3.496   0.590   2.671  0.0934  0.0538  0.3309
  269TIP3    H122442   3.496   0.512   2.726 -0.2119  0.4143  0.8538
  269TIP3    H222443   3.585   0.597   2.638  0.0013 -0.7941 -0.1276
  270TIP3   OH222444   4.866   5.257   3.094  0.3663 -0.0169 -0.0735
  270TIP3    H122445   4.897   5.317   3.026  0.5705 -0.9064 -0.7794
  270TIP3    H222446   4.938   5.195   3.105  0.9174  0.8928  1.9456
  271TIP3   OH222447   0.138   0.195   8.869  0.6483  0.6243  0.3690
  271TIP3    H122448   0.125   0.123   8.931 -1.5840  0.8530  0.2631
  271TIP3    H222449   0.165   0.269   8.924  1.0537  0.2104  0.7350
  272TIP3   OH222450   6.230   1.832   2.456 -0.0445  0.1790 -0.1812
  272TIP3    H122451   6.300   1.768   2.466  0.7667  0.9817 -0.6370
  272TIP3    H222452   6.189   1.811   2.372 -0.2424 -0.1756  0.0012
  273TIP3   OH222453   1.457   2.063   0.059  0.1474 -0.0595  0.5262
  273TIP3    H122454   1.505   1.981   0.068 -1.6412 -1.0414  1.6646
  273TIP3    H222455   1.480   2.094  -0.028 -1.7828 -3.6131 -1.5027
  274TIP3   OH222456   3.463   4.891   0.225  0.4212 -0.6780  0.4942
  274TIP3    H122457   3.414   4.836   0.164  3.0158 -2.3066 -0.2578
  274TIP3    H222458   3.513   4.951   0.169  0.1063  0.2620  1.1883
  275TIP3   OH222459   3.979   1.212   3.966  0.2506 -0.2134 -0.4281
  275TIP3    H122460   4.069   1.182   3.954  0.1300 -0.1347 -1.6469
  275TIP3    H222461   3.976   1.296   3.920 -0.0637  0.5276  0.8818
  276TIP3   OH222462   3.605   4.466   3.308 -0.7451 -0.1408  0.2100
  276TIP3    H122463   3.531   4.469   3.247  0.7668 -1.6458 -1.8642
  276TIP3    H222464   3.680   4.444   3.252  0.5971 -2.6480  2.7768
  277TIP3   OH222465   6.763   2.523   2.437 -0.4673 -0.3618  0.2395
  277TIP3    H122466   6.804   2.522   2.524 -1.4975  0.1972  0.7538
  277TIP3    H222467   6.748   2.431   2.416  1.6597 -0.6227 -0.2768
  278TIP3   OH222468   3.636   1.884   3.298  0.2535 -0.0527  0.5435
  278TIP3    H122469   3.619   1.939   3.375 -0.5318  0.5052 -0.0141
  278TIP3    H222470   3.675   1.944   3.234  1.0666 -0.5499  0.5475
  279TIP3   OH222471   0.932   5.973   1.928 -0.6621 -0.3203 -0.0784
  279TIP3    H122472   0.926   6.068   1.925 -2.7460 -0.4085  0.3512
  279TIP3    H222473   0.991   5.951   1.855 -0.9763  1.2289 -0.8406
  280TIP3   OH222474   4.511   0.769   0.596  0.1042 -0.1268 -0.5532
  280TIP3    H122475   4.465   0.776   0.680  2.2849 -1.5842  0.8743
  280TIP3    H222476   4.525   0.859   0.569  1.1211  0.4621  1.7119
  281TIP3   OH222477   0.279   4.211   2.401 -0.3078  0.6975 -0.1521
  281TIP3    H122478   0.323   4.286   2.360  1.5354 -1.2168 -1.9119
  281TIP3    H222479   0.194   4.246   2.428  1.5990  4.2208  2.0783
  282TIP3   OH222480   0.572   1.298   3.309 -0.3340  0.2462 -0.0455
  282TIP3    H122481   0.613   1.254   3.234  0.1484 -1.0464  0.9407
  282TIP3    H222482   0.490   1.250   3.323 -0.7634  0.9287 -0.1561
  283TIP3   OH222483   0.118   6.759   3.144 -0.1583 -0.4681 -0.2005
  283TIP3    H122484   0.069   6.741   3.064 -0.5257  1.2490 -0.4132
  283TIP3    H222485   0.089   6.847   3.169 -0.4184 -1.1487  2.0963
  284TIP3   OH222486   6.374   0.745   2.216 -0.0780  0.2066  0.3152
  284TIP3    H122487   6.465   0.733   2.192  0.0796 -0.4492  1.1964
  284TIP3    H222488   6.375   0.757   2.311 -1.1726 -3.4069  0.9451
  285TIP3   OH222489   0.307   2.707   0.672 -0.3667  0.2652 -0.0105
  285TIP3    H122490   0.359   2.781   0.704  0.9758 -0.6295 -0.0613
  285TIP3    H222491   0.276   2.736   0.586 -2.3250  1.8903  1.1349
  286TIP3   OH222492   5.880   6.505   3.271  0.4141 -0.2647 -0.1168
  286TIP3    H122493   5.916   6.532   3.356  0.4002  0.5810 -0.3748
  286TIP3    H222494   5.880   6.584   3.219  1.8231 -1.0624 -1.4110
  287TIP3   OH222495   5.594   6.310   0.132 -0.8971 -0.3330  0.2299
  287TIP3    H122496   5.654   6.383   0.116  0.1049 -1.0755  0.4592
  287TIP3    H222497   5.513   6.334   0.087 -0.3123  0.5449 -0.3743
  288TIP3   OH222498   3.848   5.230   0.951  0.4284 -0.4328  0.4753
  288TIP3    H122499   3.887   5.198   1.032  1.5818 -1.1730 -0.3433
  288TIP3    H222500   3.755   5.210   0.959  0.5577 -0.6345  1.5497
  289TIP3   OH222501   5.035   2.000   3.841  0.4419  0.1613 -0.9398
  289TIP3    H122502   5.119   2.044   3.834  0.5522  0.6973  2.3547
  289TIP3    H222503   4.971   2.071   3.851  0.0764 -0.2890  0.1053
  290TIP3   OH222504   4.604   1.345   8.654  0.1384  0.5018 -0.4954
  290TIP3    H122505   4.603   1.440   8.641 -0.8122  0.5403 -0.2099
  290TIP3    H222506   4.672   1.331   8.720 -0.0375  1.0386 -0.1899
  291TIP3   OH222507   2.956   0.399   3.045  0.1575  0.0593  0.6501
  291TIP3    H122508   2.893   0.357   3.105 -0.5916  0.4012  0.1205
  291TIP3    H222509   2.905   0.415   2.966  0.7492  0.9381  0.4449
  292TIP3   OH222510   0.513   4.210   0.668 -0.2558 -0.7476  0.2347
  292TIP3    H122511   0.445   4.154   0.631  1.1252 -1.9431 -0.5875
  292TIP3    H222512   0.594   4.159   0.662  1.0192  1.1780 -0.2144
  293TIP3   OH222513   6.382   3.721   8.323  0.6077 -0.7052 -0.3349
  293TIP3    H122514   6.372   3.642   8.376 -0.9490 -1.3702 -1.5423
  293TIP3    H222515   6.409   3.689   8.237  0.4982  0.1196 -0.6873
  294TIP3   OH222516   1.532   4.998   1.899  0.0278  0.3411  0.8066
  294TIP3    H122517   1.586   4.997   1.978 -0.4801  3.8940  1.3244
  294TIP3    H222518   1.591   5.029   1.830  0.1019 -1.4314  0.0115
  295TIP3   OH222519   6.516   0.291   8.675 -0.4798  0.6582  0.4612
  295TIP3    H122520   6.504   0.238   8.754  1.5441  0.6902  0.8293
  295TIP3    H222521   6.551   0.229   8.610  0.5052  1.2097  0.4514
  296TIP3   OH222522   4.927   1.740   8.365  0.3021 -0.1857  0.7965
  296TIP3    H122523   4.906   1.647   8.375  0.8613 -0.3884  0.1640
  296TIP3    H222524   4.971   1.745   8.281  1.3171  0.4728  1.3479
  297TIP3   OH222525   5.159   1.229   0.677  0.0187 -0.1401 -0.2757
  297TIP3    H122526   5.180   1.320   0.694 -0.5001  0.2858 -1.7901
  297TIP3    H222527   5.243   1.189   0.653  0.5264 -0.4582  1.8153
  298TIP3   OH222528   4.260   0.810   8.372  0.3799  0.6777 -0.9525
  298TIP3    H122529   4.203   0.753   8.422  1.8008  0.7255  0.8607
  298TIP3    H222530   4.342   0.762   8.365  1.8027  2.5492  1.0992
  299TIP3   OH222531   3.043   2.285   8.303  0.2320  0.3185  0.2235
  299TIP3    H122532   2.981   2.229   8.351 -0.1845  1.1832  0.7170
  299TIP3    H222533   3.061   2.237   8.222 -0.1400 -0.5094  0.6153
  300TIP3   OH222534   2.801   5.732   2.630 -0.9512  0.6199 -0.2581
  300TIP3    H122535   2.720   5.780   2.645 -1.6929 -0.2911 -1.1913
  300TIP3    H222536   2.784   5.681   2.551  0.0053 -0.7117  0.3593
  301TIP3   OH222537   6.562   0.349   2.443 -0.1926 -0.0816  0.0777
  301TIP3    H122538   6.570   0.391   2.529 -0.7468 -0.7301  0.4641
  301TIP3    H222539   6.634   0.385   2.392 -1.3053  2.2066 -0.0014
  302TIP3   OH222540   0.960   4.542   0.334  0.2803  0.2629 -0.2059
  302TIP3    H122541   1.003   4.496   0.405 -1.2049 -2.1294 -0.7383
  302TIP3    H222542   1.016   4.528   0.258  0.5376  0.5566 -0.0713
  303TIP3   OH222543   2.637   6.145   0.142 -0.2684  0.1481 -0.1685
  303TIP3    H122544   2.667   6.118   0.229  3.2227  0.7249 -1.0473
  303TIP3    H222545   2.618   6.238   0.151  1.5381  0.5589 -0.2900
  304TIP3   OH222546   2.614   6.315   1.298  0.1052 -0.4417 -0.1325
  304TIP3    H122547   2.699   6.355   1.282 -1.4493  2.0414 -3.0366
  304TIP3    H222548   2.569   6.376   1.357 -0.6824 -0.1535 -1.0008
  305TIP3   OH222549   0.371   1.661   0.550 -0.7002  0.5128 -0.4464
  305TIP3    H122550   0.376   1.660   0.646 -1.0026  3.2039 -0.3191
  305TIP3    H222551   0.424   1.586   0.523 -0.7163 -0.4105  1.8174
  306TIP3   OH222552   2.686   1.485   2.944 -0.4718 -0.1627  0.3224
  306TIP3    H122553   2.625   1.536   2.890 -0.7743 -1.5160 -0.6784
  306TIP3    H222554   2.768   1.486   2.895 -0.0397  0.5584  1.0289
  307TIP3   OH222555   3.167   1.824   0.959 -0.1160 -0.4245 -0.0123
  307TIP3    H122556   3.254   1.791   0.980  0.3876  0.6245 -0.3694
  307TIP3    H222557   3.121   1.826   1.043  0.2872 -0.7346  0.2219
  308TIP3   OH222558   5.649   4.860   2.464 -0.1461 -0.1218  0.3326
  308TIP3    H122559   5.591   4.871   2.389 -0.4195  0.8698  0.6768
  308TIP3    H222560   5.603   4.797   2.520 -0.1161 -0.5741 -0.1396
  309TIP3   OH222561   6.627   4.455   2.475 -0.1627 -0.0722  0.0986
  309TIP3    H122562   6.550   4.398   2.471 -0.4650  0.3201  0.3926
  309TIP3    H222563   6.699   4.396   2.498 -0.7277 -0.1036  1.8909
  310TIP3   OH222564   5.514   5.021   0.118  0.0542  0.4005  0.2380
  310TIP3    H122565   5.522   4.994   0.210 -1.5922  1.2853  0.6995
  310TIP3    H222566   5.496   4.940   0.071 -0.8781  0.1429  0.9916
  311TIP3   OH222567   0.146   0.419   2.002 -0.4323  0.3019  0.1415
  311TIP3    H122568   0.214   0.448   2.062 -1.1676  2.1533  0.1574
  311TIP3    H222569   0.179   0.442   1.915 -0.7271  0.5764  0.0989
  312TIP3   OH222570   5.770   2.599   3.904  0.6221 -0.0010 -0.5153
  312TIP3    H122571   5.792   2.608   3.997  0.3235  1.9706 -0.5971
  312TIP3    H222572   5.845   2.636   3.858 -0.1239  0.9765 -0.9756
  313TIP3   OH222573   2.519   2.589   3.944 -0.7667  0.6624  0.3601
  313TIP3    H122574   2.520   2.525   4.016  1.0469 -1.0996 -1.0896
  313TIP3    H222575   2.476   2.542   3.872 -0.5773  1.5726 -0.3582
  314TIP3   OH222576   1.706   1.504   3.172 -0.1664 -0.0485  0.0393
  314TIP3    H122577   1.708   1.424   3.224  1.8341 -1.5083 -2.0776
  314TIP3    H222578   1.646   1.486   3.100  0.3620  0.3200 -0.5041
  315TIP3   OH222579   2.865   0.465   3.527 -0.2969 -0.2259 -0.6281
  315TIP3    H122580   2.926   0.419   3.471 -0.8151  0.4359 -1.7739
  315TIP3    H222581   2.915   0.537   3.565 -0.1640 -0.1718 -0.9118
  316TIP3   OH222582   3.188   6.425   1.839  0.0744  0.0861  0.3153
  316TIP3    H122583   3.198   6.468   1.925 -1.0010  2.0699 -0.4823
  316TIP3    H222584   3.095   6.405   1.834 -0.0725  0.9737 -0.8064
  317TIP3   OH222585   0.081   2.801   3.007 -0.3006  0.4361  1.1373
  317TIP3    H122586   0.100   2.877   2.951 -2.8490  0.1498 -0.3240
  317TIP3    H222587  -0.000   2.765   2.970  1.7146 -4.2012  0.5088
  318TIP3   OH222588   5.244   4.825   1.688  0.3839  0.0999  0.2030
  318TIP3    H122589   5.152   4.845   1.671  0.7007  1.5228  0.0474
  318TIP3    H222590   5.247   4.805   1.782 -0.0817 -0.0150  0.1979
  319TIP3   OH222591   6.153   3.819   2.859  0.2802  0.0582 -0.1180
  319TIP3    H122592   6.197   3.776   2.786 -0.5910  0.1203 -0.6998
  319TIP3    H222593   6.120   3.901   2.823 -1.3502 -0.5315 -0.0562
  320TIP3   OH222594   4.880   1.262   0.615 -0.3227  0.1423 -0.3005
  320TIP3    H122595   4.975   1.264   0.625 -0.3546  0.4561 -0.0207
  320TIP3    H222596   4.850   1.202   0.683 -0.4222  1.0819  0.5025
  321TIP3   OH222597   5.372   2.129   8.458  0.4580 -0.1607 -0.1058
  321TIP3    H122598   5.367   2.109   8.551  2.0727 -2.1580 -0.3580
  321TIP3    H222599   5.417   2.213   8.453 -0.4351  0.3976  0.9127
  322TIP3   OH222600   2.049   4.723   8.533  0.1925  0.2021 -0.1342
  322TIP3    H122601   2.043   4.818   8.541 -1.4298  0.1159 -0.1578
  322TIP3    H222602   1.965   4.696   8.499  0.7241 -1.2370 -0.3691
  323TIP3   OH222603   4.765   1.581   0.256 -0.1873 -0.9496 -0.5015
  323TIP3    H122604   4.835   1.637   0.290 -2.0934  0.2895  1.7268
  323TIP3    H222605   4.776   1.498   0.302 -0.3057 -0.6602  0.0656
  324TIP3   OH222606   3.145   3.208   3.385  0.3103 -0.1870  0.7030
  324TIP3    H122607   3.199   3.235   3.311 -0.3559 -0.1563  0.2174
  324TIP3    H222608   3.206   3.202   3.459  0.8055  0.7775  0.3862
  325TIP3   OH222609   0.036   2.504   2.779 -0.1003  0.2267 -0.2774
  325TIP3    H122610   0.128   2.530   2.790 -0.5317  2.0105 -0.4575
  325TIP3    H222611  -0.008   2.541   2.856 -0.4455 -2.0803  0.7133
  326TIP3   OH222612   3.893   1.630   2.467 -0.1564  0.4966  0.4897
  326TIP3    H122613   3.919   1.671   2.550  1.8287 -2.3161  1.4313
  326TIP3    H222614   3.880   1.538   2.490 -1.6947  0.0086 -1.9873
  327TIP3   OH222615   4.293   6.458   3.263  0.1892  0.0095  0.0670
  327TIP3    H122616   4.259   6.465   3.352  2.3347  2.7491  0.8234
  327TIP3    H222617   4.295   6.364   3.246  0.1943 -0.6704  3.1352
  328TIP3   OH222618   2.565   6.523   1.527  0.2100 -0.4081  0.7782
  328TIP3    H122619   2.658   6.545   1.535  0.1603 -0.4047  1.3766
  328TIP3    H222620   2.520   6.608   1.534  0.2897  0.0388 -2.5765
  329TIP3   OH222621   4.143   4.914   0.289 -0.6851 -0.0627 -0.2060
  329TIP3    H122622   4.058   4.870   0.289 -0.2556 -0.9963 -2.0843
  329TIP3    H222623   4.134   4.985   0.226 -0.2727  0.2848  0.1172
  330TIP3   OH222624   6.107   4.339   1.334 -0.1191 -0.4408  0.0678
  330TIP3    H122625   6.090   4.430   1.357  1.0386  0.0212 -0.8048
  330TIP3    H222626   6.166   4.344   1.259 -0.9152 -1.9074 -0.6965
  331TIP3   OH222627   0.733   1.395   3.556  0.4610 -0.2126  0.3022
  331TIP3    H122628   0.696   1.451   3.488  1.5664 -0.1365 -0.2469
  331TIP3    H222629   0.661   1.384   3.619 -0.0620  1.0525 -0.0469
  332TIP3   OH222630   2.416   1.412   3.283 -0.3334  0.0188  0.7084
  332TIP3    H122631   2.471   1.464   3.342  0.1738  1.7548 -1.2125
  332TIP3    H222632   2.468   1.334   3.265  1.1408  1.1846 -0.3112
  333TIP3   OH222633   6.630   2.906   3.544 -0.3910  0.8220 -0.3016
  333TIP3    H122634   6.578   2.825   3.551  1.8023 -0.7835 -1.4586
  333TIP3    H222635   6.654   2.927   3.634  0.2842 -0.7194 -0.1018
  334TIP3   OH222636   5.233   5.530   8.832 -0.2356 -0.0009  0.6825
  334TIP3    H122637   5.286   5.489   8.764 -1.5034 -2.1669  0.9376
  334TIP3    H222638   5.292   5.538   8.907  0.4860  0.2059  0.1043
  335TIP3   OH222639   4.922   5.367   0.499  0.0021 -0.2947  0.1196
  335TIP3    H122640   4.886   5.318   0.573  0.6514  0.0198  0.6522
  335TIP3    H222641   4.924   5.303   0.427 -0.8048 -0.5508  0.3165
  336TIP3   OH222642   0.358   1.532   1.640 -0.4880  0.1992 -0.0145
  336TIP3    H122643   0.389   1.546   1.550  0.0975  1.3451  0.3514
  336TIP3    H222644   0.430   1.561   1.695 -2.0194  2.5997  0.8635
  337TIP3   OH222645   6.377   5.928   0.794 -0.4544 -0.2416  0.0543
  337TIP3    H122646   6.373   5.863   0.725  1.1446  2.0602 -2.4119
  337TIP3    H222647   6.440   5.894   0.857  1.2646 -0.6127 -1.7848
  338TIP3   OH222648   2.815   1.575   0.935 -0.0259  0.0881  0.8867
  338TIP3    H122649   2.876   1.545   0.867  0.8440  1.0665  1.2044
  338TIP3    H222650   2.737   1.522   0.923  0.4902 -0.4384 -0.2416
  339TIP3   OH222651   1.028   5.373   1.326  0.4512  0.4188 -0.2845
  339TIP3    H122652   0.987   5.316   1.392  0.9837  0.5959  0.2028
  339TIP3    H222653   1.079   5.314   1.271  0.6693  0.3731 -0.0335
  340TIP3   OH222654   4.723   5.076   2.804 -0.4855 -0.3206  0.3421
  340TIP3    H122655   4.699   5.000   2.858 -2.1330 -2.2145 -2.7744
  340TIP3    H222656   4.780   5.041   2.736 -0.8418  1.3523 -0.8834
  341TIP3   OH222657   2.370   3.336   2.351 -0.2163  0.3137 -0.1106
  341TIP3    H122658   2.458   3.373   2.343 -0.3159  0.7312  0.6317
  341TIP3    H222659   2.320   3.378   2.281  0.2120 -0.0645 -0.6554
  342TIP3   OH222660   1.925   0.475   3.051  0.6186  0.6631  0.3799
  342TIP3    H122661   1.997   0.423   3.087  0.6028 -0.4122 -1.0844
  342TIP3    H222662   1.848   0.419   3.060  0.3881  0.8788 -0.1906
  343TIP3   OH222663   2.185   1.398   2.558 -0.1188 -0.0551  0.1174
  343TIP3    H122664   2.120   1.329   2.550 -1.3196  0.7113  2.3723
  343TIP3    H222665   2.178   1.427   2.649  1.0485  2.3484 -0.4706
  344TIP3   OH222666   5.839   6.787   8.891 -0.4798 -0.3002  0.1546
  344TIP3    H122667   5.910   6.787   8.827  0.9475  0.0531  1.6671
  344TIP3    H222668   5.779   6.719   8.860  0.0844 -0.0297 -1.6202
  345TIP3   OH222669   2.934   4.588   1.378  0.2556  0.1722 -0.1036
  345TIP3    H122670   3.004   4.560   1.437 -0.3745 -0.8018  0.2071
  345TIP3    H222671   2.969   4.572   1.290  0.9713  1.0761 -0.0036
  346TIP3   OH222672   2.576   4.256   2.246  0.0547  0.1143  0.0822
  346TIP3    H122673   2.671   4.256   2.237  0.0125  3.2703 -2.0833
  346TIP3    H222674   2.560   4.253   2.340  2.1289 -2.5617  0.4652
  347TIP3   OH222675   2.123   2.771   0.056 -0.3022  0.2505  0.2586
  347TIP3    H122676   2.129   2.722   0.138 -1.2638  0.5767  0.5325
  347TIP3    H222677   2.138   2.706  -0.012  4.5514  0.5592  0.6661
  348TIP3   OH222678   6.376   3.076   8.556 -0.3838 -0.1768  0.1120
  348TIP3    H122679   6.280   3.079   8.558 -0.4232  0.0736  2.8866
  348TIP3    H222680   6.402   3.163   8.589  0.7329 -0.7066  0.6681
  349TIP3   OH222681   1.947   1.436   3.853  0.6513 -0.0524 -0.2455
  349TIP3    H122682   1.912   1.391   3.776  0.3050 -0.2289  0.0140
  349TIP3    H222683   1.992   1.513   3.817  0.5517 -0.1688 -0.6285
  350TIP3   OH222684   5.931   5.708   1.615 -0.2187 -0.6176 -1.2125
  350TIP3    H122685   5.909   5.794   1.653  2.0103  0.0057 -1.2015
  350TIP3    H222686   5.933   5.724   1.520 -1.5892 -1.1480 -1.3618
  351TIP3   OH222687   4.618   2.877   8.733  0.1473  0.0806 -0.2578
  351TIP3    H122688   4.622   2.848   8.824 -1.5707 -0.7641 -0.4066
  351TIP3    H222689   4.691   2.833   8.690 -0.4943 -1.5317  0.2172
  352TIP3   OH222690   6.046   0.770   2.338 -0.2566 -0.8583  0.0287
  352TIP3    H122691   6.126   0.800   2.380  0.0332 -3.7474  1.8411
  352TIP3    H222692   6.048   0.810   2.251  2.6406 -0.0426  0.3691
  353TIP3   OH222693   6.369   1.828   2.043 -0.7009  0.1947  0.8871
  353TIP3    H122694   6.431   1.824   2.115  0.4605  0.9018 -0.0404
  353TIP3    H222695   6.413   1.783   1.970 -1.8478 -0.5212  0.6008
  354TIP3   OH222696   4.237   5.785   0.809  0.1237 -0.3093  0.1189
  354TIP3    H122697   4.329   5.771   0.832  0.1051 -0.3077  0.1930
  354TIP3    H222698   4.203   5.844   0.877 -0.0645 -0.7052  0.3715
  355TIP3   OH222699   3.623   3.789   2.112 -0.1553  0.1949  0.2981
  355TIP3    H122700   3.629   3.883   2.097  1.0455 -0.1638 -1.9006
  355TIP3    H222701   3.682   3.772   2.186 -0.0258  1.1155  0.4127
  356TIP3   OH222702   0.351   2.401   1.576 -0.2737  0.2137  0.1070
  356TIP3    H122703   0.281   2.373   1.636  0.4286  0.8377  1.2534
  356TIP3    H222704   0.310   2.470   1.523  0.1827  2.7961  2.7979
  357TIP3   OH222705   6.682   4.507   4.101 -0.3379  0.2146  0.5446
  357TIP3    H122706   6.669   4.459   4.019 -1.1174  0.4812  0.5039
  357TIP3    H222707   6.669   4.599   4.076  0.2234  0.3736  0.8116
  358TIP3   OH222708   2.460   6.676   8.657 -0.0130 -0.3574  0.2285
  358TIP3    H122709   2.389   6.740   8.650 -1.2672 -1.8365 -1.2108
  358TIP3    H222710   2.535   6.719   8.616  0.0878  1.3450  2.0441
  359TIP3   OH222711   2.751   2.497   1.473  0.4772 -0.2016 -0.4679
  359TIP3    H122712   2.732   2.578   1.426  1.6622  0.1687 -0.3364
  359TIP3    H222713   2.764   2.432   1.404  1.1389  0.0926 -0.6200
  360TIP3   OH222714   5.815   5.771   3.970 -0.2329 -0.1210 -0.1440
  360TIP3    H122715   5.890   5.784   3.912 -0.3151  1.6825  0.1193
  360TIP3    H222716   5.746   5.827   3.935 -0.0488  1.6292  2.0780
  361TIP3   OH222717   1.363   2.183   8.325  0.0160 -0.0302  0.4210
  361TIP3    H122718   1.339   2.128   8.251  1.1177 -0.4857  0.3774
  361TIP3    H222719   1.327   2.138   8.401  0.7102 -0.7178  0.3614
  362TIP3   OH222720   3.584   2.243   2.307  0.3553 -0.0767 -0.0225
  362TIP3    H122721   3.624   2.156   2.298  0.3926  0.1730 -3.3101
  362TIP3    H222722   3.490   2.227   2.292  0.0328  0.2069  1.5086
  363TIP3   OH222723   4.716   3.074   1.242  0.2184 -0.0235 -0.7039
  363TIP3    H122724   4.639   3.020   1.259 -1.0885  1.9289  0.0124
  363TIP3    H222725   4.683   3.164   1.248  2.4372  0.8710 -1.0613
  364TIP3   OH222726   5.695   6.197   1.114 -0.9958  0.0983 -0.0516
  364TIP3    H122727   5.692   6.118   1.060  1.1800 -0.1779  0.1338
  364TIP3    H222728   5.754   6.175   1.186 -0.3199  1.8801 -0.0033
  365TIP3   OH222729   1.451   4.555   3.347  0.5774  0.5899 -0.3668
  365TIP3    H122730   1.497   4.496   3.408  0.1439  0.0817 -0.5327
  365TIP3    H222731   1.368   4.573   3.390  0.5810  0.8392 -0.4643
  366TIP3   OH222732   5.226   3.008   0.645 -0.2181  0.6960 -0.0689
  366TIP3    H122733   5.267   3.037   0.564  2.4546 -0.0699  0.9141
  366TIP3    H222734   5.277   3.048   0.714 -2.6371  1.5950  1.3250
  367TIP3   OH222735   5.203   6.602   8.689 -0.0280 -0.3824 -0.4089
  367TIP3    H122736   5.130   6.593   8.628 -0.0854  1.0327 -0.5992
  367TIP3    H222737   5.278   6.621   8.633 -0.0806  0.9254 -0.0788
  368TIP3   OH222738   2.061   4.840   1.592  0.4017 -0.2330 -0.5094
  368TIP3    H122739   2.010   4.839   1.511  0.0146  0.5869 -0.2935
  368TIP3    H222740   2.003   4.803   1.658  0.1233  0.5387 -0.3002
  369TIP3   OH222741   4.226   0.464   1.967  0.9916  0.2604 -0.2116
  369TIP3    H122742   4.166   0.528   1.929  2.4459  1.3990 -0.7116
  369TIP3    H222743   4.178   0.382   1.967 -0.6262  1.1726 -0.3731
  370TIP3   OH222744   6.506   1.639   0.727  0.2109 -0.1209  0.0989
  370TIP3    H122745   6.562   1.646   0.805 -0.2635 -1.1121  0.5507
  370TIP3    H222746   6.497   1.729   0.696 -0.4173  0.4562  1.7936
  371TIP3   OH222747   0.368   6.625   1.931 -0.3070  0.0458 -0.5334
  371TIP3    H122748   0.314   6.699   1.904 -0.5160 -0.0091 -0.2685
  371TIP3    H222749   0.345   6.611   2.023 -0.4623 -0.5177 -0.6559
  372TIP3   OH222750   4.624   2.427   2.225  0.2092 -0.5278  0.0097
  372TIP3    H122751   4.575   2.487   2.170 -0.7610 -0.6377  0.7254
  372TIP3    H222752   4.605   2.455   2.315  0.5916 -1.2489  0.3265
  373TIP3   OH222753   3.260   2.793   8.032  0.4573  0.2648  0.3553
  373TIP3    H122754   3.185   2.836   8.073 -0.8475 -1.0270 -0.5468
  373TIP3    H222755   3.271   2.712   8.081  3.2077  1.7157  2.3649
  374TIP3   OH222756   1.321   6.442   4.010 -0.2813 -0.2110 -0.2977
  374TIP3    H122757   1.375   6.364   4.029 -0.1142  0.1228  0.6559
  374TIP3    H222758   1.369   6.514   4.050 -1.3437  0.1241  0.3876
  375TIP3   OH222759   5.185   5.912   2.064 -0.2081 -0.0659 -0.0204
  375TIP3    H122760   5.276   5.886   2.079 -0.4922 -0.6965  0.6480
  375TIP3    H222761   5.191   6.000   2.028  0.6797 -0.1913 -0.1921
  376TIP3   OH222762   5.487   4.811   8.772 -0.1983 -0.8152 -0.2802
  376TIP3    H122763   5.427   4.738   8.779 -0.0451 -1.0383 -1.1398
  376TIP3    H222764   5.437   4.880   8.728  0.2145 -1.0689 -1.1746
  377TIP3   OH222765   4.932   0.110   0.020 -0.1491 -0.1565  0.0897
  377TIP3    H122766   4.864   0.125   0.085 -0.1974 -1.0291  0.2554
  377TIP3    H222767   4.914   0.022  -0.013  1.5027 -0.8309  0.8877
  378TIP3   OH222768   0.049   5.773   8.055  0.5234 -0.4901 -0.3697
  378TIP3    H122769   0.107   5.838   8.016  0.6203 -1.6193 -2.2553
  378TIP3    H222770   0.072   5.691   8.010  0.6957 -1.9426  2.1916
  379TIP3   OH222771   4.033   5.733   1.948 -0.5134  0.1994  0.0054
  379TIP3    H122772   4.098   5.693   1.889 -1.2679 -2.6396  0.9442
  379TIP3    H222773   4.013   5.817   1.908 -0.1363 -1.0942 -3.1692
  380TIP3   OH222774   1.212   2.561   3.189  0.0411  0.3090 -0.7517
  380TIP3    H122775   1.248   2.614   3.260  1.2592 -0.2595 -0.9240
  380TIP3    H222776   1.184   2.625   3.123 -0.2683  0.7987 -0.1555
  381TIP3   OH222777   3.681   0.780   1.309 -0.3526 -0.6929  0.9903
  381TIP3    H122778   3.667   0.688   1.329 -0.2502 -0.5741  1.6185
  381TIP3    H222779   3.676   0.785   1.214  0.5877 -1.5100  0.8767
  382TIP3   OH222780   2.655   2.045   3.646 -0.2726 -0.2796 -0.6951
  382TIP3    H122781   2.605   1.964   3.654 -1.0234  0.0719 -1.5885
  382TIP3    H222782   2.651   2.085   3.732 -0.6205 -0.7775 -0.4748
  383TIP3   OH222783   4.480   2.091   1.150  0.3369 -0.2329 -0.0402
  383TIP3    H122784   4.515   2.012   1.109  0.2751  0.7799 -2.1762
  383TIP3    H222785   4.393   2.065   1.182  0.1012 -0.9397 -1.1690
  384TIP3   OH222786   1.034   1.812   0.558  0.2788 -0.0162  0.2900
  384TIP3    H122787   0.943   1.793   0.534 -0.0313  0.4014  1.1250
  384TIP3    H222788   1.079   1.728   0.546 -0.4329 -0.4951  0.8878
  385TIP3   OH222789   6.048   1.363   2.215 -0.8756 -0.1371 -0.1662
  385TIP3    H122790   6.069   1.328   2.128 -0.5128  0.2422 -0.2354
  385TIP3    H222791   5.987   1.300   2.252  1.5780 -2.1518  0.6728
  386TIP3   OH222792   4.259   1.691   3.648 -0.4617 -0.3609  0.0007
  386TIP3    H122793   4.263   1.784   3.672 -1.2740 -0.3586  0.1504
  386TIP3    H222794   4.166   1.668   3.654 -0.1204 -1.5401  1.3086
  387TIP3   OH222795   4.649   1.581   8.538 -0.5124 -0.1344  0.8359
  387TIP3    H122796   4.739   1.549   8.540  0.1982  1.7510  1.9708
  387TIP3    H222797   4.632   1.598   8.445  0.2408 -0.6739  0.5866
  388TIP3   OH222798   5.012   0.484   1.325  0.3326  0.0280  0.0835
  388TIP3    H122799   5.093   0.488   1.376  1.5139 -1.8404 -1.5217
  388TIP3    H222800   4.945   0.460   1.390  1.6384 -1.4851  0.9567
  389TIP3   OH222801   4.204   1.658   2.998 -0.1111  0.0719 -0.2468
  389TIP3    H122802   4.241   1.601   3.066 -0.6342 -0.2037 -0.1892
  389TIP3    H222803   4.228   1.615   2.915  1.5487  1.0219 -0.3026
  390TIP3   OH222804   4.731   0.480   7.939 -0.1187  0.1194 -0.4973
  390TIP3    H122805   4.792   0.420   7.981  3.2078  3.7825  0.4402
  390TIP3    H222806   4.688   0.526   8.012 -0.3059  0.9936 -1.1396
  391TIP3   OH222807   3.204   1.159   0.878  0.5766  0.1616  0.0465
  391TIP3    H122808   3.241   1.074   0.898  2.7175  1.5213  2.5560
  391TIP3    H222809   3.280   1.216   0.866 -0.7742  1.9196 -0.6502
  392TIP3   OH222810   5.191   3.567   1.127 -0.5558 -0.0013  0.0787
  392TIP3    H122811   5.279   3.549   1.161 -0.0106  0.0245 -1.2456
  392TIP3    H222812   5.133   3.516   1.184  0.4610 -1.3119  0.0076
  393TIP3   OH222813   3.407   0.086   1.722  0.2376  0.0788  0.1802
  393TIP3    H122814   3.445   0.021   1.781  1.1371 -0.1411 -0.6189
  393TIP3    H222815   3.346   0.135   1.776  0.5142 -0.5904  1.1137
  394TIP3   OH222816   1.791   6.352   0.654 -0.2575  0.0018 -0.0811
  394TIP3    H122817   1.762   6.427   0.602 -1.6094 -0.9213 -0.7189
  394TIP3    H222818   1.874   6.325   0.614 -0.8940 -0.2181 -1.2715
  395TIP3   OH222819   5.194   5.580   4.142  0.2049  0.6945  0.4878
  395TIP3    H122820   5.099   5.572   4.140  0.2835 -0.3942 -2.1086
  395TIP3    H222821   5.212   5.672   4.123 -0.3130  0.8275  0.6314
  396TIP3   OH222822   2.645   0.202   2.644  0.0212  0.2506 -0.6542
  396TIP3    H122823   2.601   0.159   2.718  0.6356  0.0830 -0.3835
  396TIP3    H222824   2.719   0.145   2.624  0.5808  0.9516 -0.5899
  397TIP3   OH222825   4.746   4.304   0.358 -0.3746  0.0351 -0.1187
  397TIP3    H122826   4.821   4.312   0.417  0.4734  1.1877 -1.3123
  397TIP3    H222827   4.679   4.362   0.395 -0.8299 -1.1946  1.0934
  398TIP3   OH222828   4.696   4.838   1.612 -0.7832  0.6621  0.3543
  398TIP3    H122829   4.686   4.803   1.700  1.9821 -1.1448  0.0659
  398TIP3    H222830   4.649   4.777   1.556  1.7871 -1.3120  0.1459
  399TIP3   OH222831   2.702   4.542   0.131 -0.4205 -0.4176 -0.0936
  399TIP3    H122832   2.774   4.482   0.146  0.5677  1.0038  1.0857
  399TIP3    H222833   2.725   4.589   0.051  1.6132  2.1996  1.8571
  400TIP3   OH222834   4.529   6.545   3.745 -0.7086  0.6374  0.3343
  400TIP3    H122835   4.563   6.461   3.714  0.5238  0.8779  0.9586
  400TIP3    H222836   4.438   6.528   3.768 -0.1955 -0.7850  1.4281
  401TIP3   OH222837   5.036   6.125   0.178 -0.5669 -0.9086  0.2226
  401TIP3    H122838   5.086   6.122   0.260  0.4069 -1.2267 -0.3783
  401TIP3    H222839   4.954   6.079   0.199  0.0325 -1.7561  0.7702
  402TIP3   OH222840   6.175   4.009   0.614  0.2748 -0.1238  0.1794
  402TIP3    H122841   6.117   4.007   0.538 -1.2882  1.7312  1.2398
  402TIP3    H222842   6.239   3.939   0.597 -1.4256 -1.3341 -1.6935
  403TIP3   OH222843   1.646   0.263   3.416  0.3090 -0.0160 -0.1144
  403TIP3    H122844   1.642   0.357   3.399  1.6316  0.3512  1.3333
  403TIP3    H222845   1.633   0.256   3.511 -0.8440 -1.4016 -0.3414
  404TIP3   OH222846   5.632   4.280   3.213  0.1798  0.4856 -0.1243
  404TIP3    H122847   5.544   4.243   3.203  0.2205  0.5313 -0.6776
  404TIP3    H222848   5.683   4.210   3.256 -0.0654  0.3724 -0.0171
  405TIP3   OH222849   2.799   6.725   7.963  0.1744  0.3179  0.4316
  405TIP3    H122850   2.826   6.814   7.987 -0.6482  0.3403  1.3375
  405TIP3    H222851   2.751   6.736   7.881  2.5396  0.3110 -1.0635
  406TIP3   OH222852   5.672   0.152   2.100 -0.7327 -1.1913  0.6818
  406TIP3    H122853   5.676   0.245   2.080 -0.0936 -1.3754 -0.0625
  406TIP3    H222854   5.580   0.129   2.092 -0.9374 -0.5639  1.1757
  407TIP3   OH222855   5.851   5.767   3.243 -0.2123  0.1850 -0.5637
  407TIP3    H122856   5.923   5.784   3.304  0.6969  0.7322 -1.7462
  407TIP3    H222857   5.781   5.825   3.272 -0.1439 -0.2475  0.5167
  408TIP3   OH222858   3.274   3.083   2.226 -0.5246 -0.1967  0.6398
  408TIP3    H122859   3.193   3.091   2.278 -1.0583 -1.3755  0.0518
  408TIP3    H222860   3.289   2.988   2.222 -0.7027 -0.1700 -1.6384
  409TIP3   OH222861   3.963   0.046   3.854  0.3664 -0.1005 -0.0216
  409TIP3    H122862   4.028   0.091   3.800  1.3442  0.1379  1.3126
  409TIP3    H222863   3.892   0.109   3.864  0.5301  0.1409 -0.3477
  410TIP3   OH222864   6.510   6.149   0.981  0.0450  0.5875  0.0756
  410TIP3    H122865   6.463   6.224   0.943  1.3697  0.3740 -2.1700
  410TIP3    H222866   6.522   6.089   0.908  0.6928 -0.9591  1.4072
  411TIP3   OH222867   6.633   3.921   1.681 -0.1798 -0.3198  0.2940
  411TIP3    H122868   6.690   3.974   1.626 -0.7735 -0.2327 -0.2522
  411TIP3    H222869   6.655   3.945   1.771  1.2192 -0.8835  0.1312
  412TIP3   OH222870   6.597   6.614   2.861 -0.0675 -0.2954  0.0017
  412TIP3    H122871   6.533   6.608   2.932  1.3214 -1.5215  1.2235
  412TIP3    H222872   6.550   6.581   2.784 -0.7330 -1.8702  1.0111
  413TIP3   OH222873   4.635   4.373   2.864  0.2757  0.7477  0.4507
  413TIP3    H122874   4.602   4.389   2.953 -1.2318  1.7371 -0.2502
  413TIP3    H222875   4.703   4.439   2.852  1.3501 -0.1622  1.2685
  414TIP3   OH222876   5.198   4.722   8.031 -0.4574 -0.3144  0.1131
  414TIP3    H122877   5.123   4.735   8.089  0.5178  1.7083  1.0156
  414TIP3    H222878   5.193   4.793   7.968  0.2391 -0.6593 -0.3447
  415TIP3   OH222879   6.039   4.609   3.383 -0.2245 -0.1235  0.0731
  415TIP3    H122880   6.029   4.703   3.399 -0.7128 -0.1612 -0.0060
  415TIP3    H222881   5.991   4.567   3.454  0.3239 -0.3216  0.3350
  416TIP3   OH222882   6.794   3.629   8.049  0.2309  0.3192 -0.3657
  416TIP3    H122883   6.845   3.551   8.024  0.2282 -0.4480  1.8174
  416TIP3    H222884   6.859   3.690   8.084  0.0397  0.7146 -0.6911
  417TIP3   OH222885   3.794   6.524   1.569 -0.0371 -0.1750 -0.0707
  417TIP3    H122886   3.889   6.531   1.580  0.2086 -3.2739  0.6646
  417TIP3    H222887   3.776   6.431   1.576 -3.2315  0.3568  0.1926
  418TIP3   OH222888   3.089   3.426   0.726  0.3225 -0.2889 -0.1443
  418TIP3    H122889   3.078   3.353   0.786  0.2929 -0.5199 -0.4311
  418TIP3    H222890   3.184   3.441   0.724  0.6962 -2.2508 -2.3449
  419TIP3   OH222891   0.609   6.773   8.695 -0.9159  0.7454  0.2019
  419TIP3    H122892   0.677   6.826   8.736 -0.4332 -0.9451  1.6992
  419TIP3    H222893   0.534   6.780   8.755  0.2224 -2.8305  2.3882
  420TIP3   OH222894   4.045   6.415   1.883  0.1185  0.2193  0.0265
  420TIP3    H122895   4.019   6.493   1.833  0.8384 -0.6295 -1.7666
  420TIP3    H222896   4.079   6.450   1.965  0.2692  1.7997 -0.6577
  421TIP3   OH222897   1.460   0.466   0.203  0.4932 -0.1152 -0.0771
  421TIP3    H122898   1.423   0.539   0.153 -0.2820 -0.0481  0.5690
  421TIP3    H222899   1.444   0.489   0.294  1.5917 -0.3922  0.2012
  422TIP3   OH222900   1.078   3.449   0.574  0.1559 -0.1515  0.3770
  422TIP3    H122901   1.034   3.366   0.558  1.4924 -1.0199  1.0573
  422TIP3    H222902   1.170   3.432   0.555  0.5487  0.9896  1.1380
  423TIP3   OH222903   2.662   1.039   1.640  0.5034 -0.1383 -0.4156
  423TIP3    H122904   2.578   1.060   1.600 -0.5699 -1.2514  1.1531
  423TIP3    H222905   2.684   1.116   1.693  0.1233 -0.1310 -0.2700
  424TIP3   OH222906   2.591   5.206   1.598 -0.3129  0.3190 -0.1110
  424TIP3    H122907   2.518   5.218   1.538 -0.1182  2.6668  0.0153
  424TIP3    H222908   2.567   5.129   1.650 -1.9730  0.1401 -1.0723
  425TIP3   OH222909   3.337   3.755   7.785  0.0324 -0.4673  0.2962
  425TIP3    H122910   3.253   3.780   7.825  0.3992 -0.0974  0.8365
  425TIP3    H222911   3.328   3.661   7.770 -0.6006 -0.3762  0.0599
  426TIP3   OH222912   1.830   5.400   2.296  0.5049  0.1318  0.0660
  426TIP3    H122913   1.751   5.357   2.329 -0.6576  2.4913  0.6234
  426TIP3    H222914   1.802   5.490   2.279  3.5567  1.7328  2.4910
  427TIP3   OH222915   0.116   1.480   3.115  0.1561  0.2601 -0.0788
  427TIP3    H122916   0.061   1.557   3.101  0.3547  0.4570  0.1988
  427TIP3    H222917   0.076   1.411   3.063 -1.2191 -0.0040  1.2718
  428TIP3   OH222918   3.169   1.125   8.391  0.1019 -0.4897 -0.3165
  428TIP3    H122919   3.110   1.067   8.342 -0.2098 -1.7724  1.5073
  428TIP3    H222920   3.134   1.125   8.480  1.2699  0.9441  0.1716
  429TIP3   OH222921   5.640   4.958   0.635  0.0770  0.0018 -0.3615
  429TIP3    H122922   5.663   4.868   0.609 -0.2506  0.3978 -2.1579
  429TIP3    H222923   5.720   4.993   0.674  1.2866 -0.0446 -2.6119
  430TIP3   OH222924   2.508   2.103   2.989  0.1293  0.5884  0.2368
  430TIP3    H122925   2.427   2.082   2.943 -1.4236 -0.7600  3.2968
  430TIP3    H222926   2.577   2.082   2.927 -1.7923 -0.3902 -1.7059
  431TIP3   OH222927   5.468   4.930   2.247 -0.1637  0.2683  0.1100
  431TIP3    H122928   5.488   5.021   2.269  1.4850  0.0113 -0.1630
  431TIP3    H222929   5.414   4.935   2.169 -0.0277  1.0090  0.0540
  432TIP3   OH222930   4.485   3.972   1.352  0.7243  0.0073  0.3281
  432TIP3    H122931   4.477   3.929   1.437  1.5665  0.6142  0.7195
  432TIP3    H222932   4.464   3.903   1.289  1.1605 -0.7436  0.9833
  433TIP3   OH222933   5.352   5.538   0.170  0.8916  0.4263 -0.3749
  433TIP3    H122934   5.282   5.489   0.212  0.1786 -1.0993 -3.0902
  433TIP3    H222935   5.428   5.480   0.173  1.6518  1.4261  1.1265
  434TIP3   OH222936   1.515   2.201   8.700 -0.1625  0.4226 -0.5837
  434TIP3    H122937   1.467   2.264   8.647  1.9507  2.5107 -0.2072
  434TIP3    H222938   1.602   2.239   8.709  0.4293 -1.2819  1.9378
  435TIP3   OH222939   5.566   1.351   1.247 -0.0460 -0.1106 -0.4194
  435TIP3    H122940   5.628   1.357   1.320 -0.0740 -0.1565 -0.3914
  435TIP3    H222941   5.514   1.431   1.253 -0.6537 -0.5409  0.1681
  436TIP3   OH222942   3.426   1.920   4.106 -0.3746 -0.0710 -0.1126
  436TIP3    H122943   3.416   1.826   4.123  0.3737  0.2683  2.6127
  436TIP3    H222944   3.502   1.925   4.048 -0.0012 -1.1223  0.2597
  437TIP3   OH222945   1.442   0.992   4.467  0.0635 -0.1902  0.6836
  437TIP3    H122946   1.457   1.086   4.456 -0.9179 -0.1861 -1.0222
  437TIP3    H222947   1.373   0.986   4.533  0.4738  0.2404  1.1656
  438TIP3   OH222948   5.722   4.279   2.931  0.2531  0.0367 -0.3144
  438TIP3    H122949   5.659   4.280   3.003 -1.4362  2.4680 -1.7037
  438TIP3    H222950   5.755   4.369   2.926  0.6239 -0.1597 -2.3120
  439TIP3   OH222951   1.865   5.712   8.786 -0.9363 -0.2432  0.6691
  439TIP3    H122952   1.945   5.662   8.778 -0.8052  0.1247 -0.4469
  439TIP3    H222953   1.893   5.797   8.820 -0.5998  0.4817 -1.3251
  440TIP3   OH222954   3.675   2.659   3.231  0.6301  0.3158 -0.0119
  440TIP3    H122955   3.681   2.565   3.251 -0.2508 -0.1513 -1.7340
  440TIP3    H222956   3.581   2.677   3.232  0.7590  1.0190 -0.3611
  441TIP3   OH222957   1.122   0.209   2.673 -0.1705 -0.5455  0.1575
  441TIP3    H122958   1.146   0.237   2.585 -0.6614  0.7220  0.4026
  441TIP3    H222959   1.198   0.230   2.727 -0.1487 -0.6401  0.1636
  442TIP3   OH222960   0.872   6.753   1.738 -0.1431  0.3533 -0.1137
  442TIP3    H122961   0.924   6.753   1.658 -1.1238  2.4344 -0.8454
  442TIP3    H222962   0.922   6.701   1.800  2.3730  1.5006 -1.0509
  443TIP3   OH222963   3.835   3.809   0.831 -0.0529  0.4993  0.2840
  443TIP3    H122964   3.800   3.745   0.769  0.0519  1.3425 -0.6737
  443TIP3    H222965   3.788   3.792   0.912 -1.7250  0.7295 -0.5891
  444TIP3   OH222966   1.171   2.764   3.810 -0.1967  0.1142  0.7431
  444TIP3    H122967   1.213   2.688   3.849  0.0141  0.2005  0.6891
  444TIP3    H222968   1.127   2.730   3.732 -0.6554 -0.0656  1.0756
  445TIP3   OH222969   5.438   0.413   2.695  0.4739  0.1421 -0.5822
  445TIP3    H122970   5.470   0.362   2.769  1.2382  1.6227  0.1362
  445TIP3    H222971   5.348   0.436   2.720  1.0675  1.5300  0.4168
  446TIP3   OH222972   2.157   6.514   1.602 -0.5747  0.1437  0.0642
  446TIP3    H122973   2.132   6.546   1.688 -1.4040  0.7629 -0.3957
  446TIP3    H222974   2.174   6.421   1.615 -2.8604 -0.2706  0.4854
  447TIP3   OH222975   0.521   4.716   1.220  0.0255  0.0366  0.1693
  447TIP3    H122976   0.602   4.668   1.238  0.1642  0.6560  1.2510
  447TIP3    H222977   0.511   4.774   1.295 -0.6984  0.9426 -0.6206
  448TIP3   OH222978   5.321   3.654   2.452  0.6523 -0.1900  0.4007
  448TIP3    H122979   5.278   3.731   2.491  0.1668 -0.7788  1.0430
  448TIP3    H222980   5.414   3.676   2.453  0.5305  0.3491  0.6669
  449TIP3   OH222981   1.767   2.258   8.061 -0.0829  0.7943  0.1317
  449TIP3    H122982   1.800   2.296   7.979 -0.5236  0.3174 -0.2760
  449TIP3    H222983   1.692   2.313   8.085 -4.1986 -2.6173 -3.2738
  450TIP3   OH222984   0.195   3.713   1.173 -0.3841 -0.1221 -0.1574
  450TIP3    H122985   0.205   3.806   1.157 -0.2652 -0.3395 -1.4402
  450TIP3    H222986   0.212   3.703   1.267  3.0768  0.7093 -0.5471
  451TIP3   OH222987   5.654   1.431   0.554  0.2810 -0.4537 -0.2972
  451TIP3    H122988   5.674   1.475   0.471 -0.8794  0.3691 -0.1660
  451TIP3    H222989   5.734   1.440   0.606  1.2341 -1.5029 -1.5315
  452TIP3   OH222990   3.857   1.776   1.954  0.1661 -0.0372 -0.1746
  452TIP3    H122991   3.885   1.694   1.995 -0.0420 -0.4259 -0.7807
  452TIP3    H222992   3.902   1.776   1.869 -0.9027 -0.1997 -0.7594
  453TIP3   OH222993   3.657   2.128   2.771  0.0309  0.6616  0.2525
  453TIP3    H122994   3.584   2.190   2.776  0.0091  0.5411  1.9585
  453TIP3    H222995   3.631   2.055   2.828  1.0631  0.1509  0.1003
  454TIP3   OH222996   1.921   4.628   2.139 -0.4697 -0.3783 -0.4307
  454TIP3    H122997   1.983   4.698   2.157 -0.8808  0.5702 -2.4115
  454TIP3    H222998   1.970   4.547   2.154  0.8188  0.3457 -0.5964
  455TIP3   OH222999   0.540   4.588   3.314 -0.3895 -0.1209  0.1019
  455TIP3    H123000   0.460   4.550   3.277 -0.5802 -2.7650  2.9056
  455TIP3    H223001   0.512   4.672   3.350 -1.4586 -0.1617 -0.5934
  456TIP3   OH223002   6.704   4.163   3.492  0.1635 -0.3992 -0.5806
  456TIP3    H123003   6.720   4.081   3.540  0.9013 -0.0012 -0.1398
  456TIP3    H223004   6.626   4.200   3.533  0.9391  0.0665  0.5026
  457TIP3   OH223005   5.482   6.185   8.338  0.4056 -0.3571  0.3090
  457TIP3    H123006   5.564   6.177   8.289  0.4310 -0.9902  0.4534
  457TIP3    H223007   5.428   6.112   8.308 -1.4539  1.8822 -2.2899
  458TIP3   OH223008   2.975   5.034   2.218 -0.1109 -0.2348 -0.5234
  458TIP3    H123009   3.043   5.072   2.275  0.0633  0.2514 -1.0438
  458TIP3    H223010   2.893   5.071   2.251 -0.0689 -0.3881 -0.2426
  459TIP3   OH223011   5.998   0.282   1.207  0.3437 -0.1924 -0.3097
  459TIP3    H123012   6.031   0.262   1.120 -1.7833  0.4309 -1.3450
  459TIP3    H223013   6.076   0.291   1.261  1.7589 -0.0928 -2.2540
  460TIP3   OH223014   1.976   4.676   8.877  0.0746 -0.7390 -1.4420
  460TIP3    H123015   2.040   4.670   8.948  0.0042 -0.0342 -1.3138
  460TIP3    H223016   2.027   4.664   8.797  0.1352 -1.6626 -1.2689
  461TIP3   OH223017   1.020   0.735   0.624 -0.8172 -0.7002 -0.2884
  461TIP3    H123018   0.932   0.766   0.648 -2.5321 -3.4785 -2.3692
  461TIP3    H223019   1.027   0.752   0.530  0.7483 -0.9078 -0.2362
  462TIP3   OH223020   0.258   2.296   2.921  0.3005  0.2078 -0.5758
  462TIP3    H123021   0.353   2.288   2.908  0.4213  1.3082 -0.5265
  462TIP3    H223022   0.240   2.389   2.904 -0.8952 -0.1487 -1.3316
  463TIP3   OH223023   4.003   2.942   2.154  1.3542 -0.1068 -0.0364
  463TIP3    H123024   3.936   2.885   2.189  0.5933  0.7457 -0.0642
  463TIP3    H223025   3.972   3.031   2.173  3.2877  0.3148  1.4935
  464TIP3   OH223026   2.235   2.343   3.388 -0.3754  0.3176  0.1288
  464TIP3    H123027   2.258   2.294   3.309  0.8006  1.2572 -0.1230
  464TIP3    H223028   2.242   2.435   3.363  0.8178  0.6398  1.5419
  465TIP3   OH223029   0.906   4.270   8.574  0.4402  0.2276 -0.1297
  465TIP3    H123030   0.962   4.299   8.502 -1.6174  2.5388 -0.9502
  465TIP3    H223031   0.874   4.183   8.547 -0.4137  1.1006 -2.1740
  466TIP3   OH223032   5.604   2.936   0.757  0.5741  0.4238 -0.6168
  466TIP3    H123033   5.554   3.000   0.807  0.3361  2.0120 -2.7497
  466TIP3    H223034   5.691   2.935   0.799 -0.1362  0.3077  0.9116
  467TIP3   OH223035   0.011   3.353   0.367  0.2417 -0.4436 -0.0845
  467TIP3    H123036  -0.005   3.413   0.295  0.6827  0.5105  0.5896
  467TIP3    H223037   0.106   3.355   0.380  0.0323  0.8036  1.6578
  468TIP3   OH223038   1.062   1.175   3.517  0.2742 -0.2939 -0.5460
  468TIP3    H123039   1.100   1.220   3.592  0.1070 -0.4414 -0.3711
  468TIP3    H223040   1.132   1.171   3.453  0.2708  0.2820 -0.5908
  469TIP3   OH223041   6.213   1.661   0.548 -0.2060 -0.0850  0.2059
  469TIP3    H123042   6.121   1.685   0.543 -0.6873 -1.9502 -0.9531
  469TIP3    H223043   6.256   1.709   0.478 -0.6098 -0.4323 -0.2801
  470TIP3   OH223044   4.338   4.764   1.719 -0.4710  0.4903  0.0250
  470TIP3    H123045   4.412   4.746   1.776 -1.2355  1.7667  1.4918
  470TIP3    H223046   4.322   4.682   1.673  1.2438 -0.0678  0.3618
  471TIP3   OH223047   5.841   2.830   0.917 -0.0246  0.5080 -0.2035
  471TIP3    H123048   5.882   2.760   0.968 -1.2546  0.0258  0.1690
  471TIP3    H223049   5.843   2.798   0.827  2.5493  1.5508 -0.5980
  472TIP3   OH223050   1.799   4.194   2.494  0.4673  0.1275  0.7005
  472TIP3    H123051   1.772   4.153   2.576  0.9944  1.2183  1.4501
  472TIP3    H223052   1.892   4.170   2.484  0.8442  1.2685  1.2629
  473TIP3   OH223053   6.710   6.345   3.310 -0.1029  0.1152 -0.3399
  473TIP3    H123054   6.787   6.329   3.256 -1.2234 -0.7871 -1.7467
  473TIP3    H223055   6.714   6.439   3.330 -0.3381  0.8227 -3.1745
  474TIP3   OH223056   4.974   3.443   2.994  0.2501 -0.1427 -0.2220
  474TIP3    H123057   4.982   3.514   3.057 -2.1665  1.6256 -1.7549
  474TIP3    H223058   4.983   3.485   2.909 -0.1913 -1.8477 -1.1622
  475TIP3   OH223059   1.711   1.832   1.401 -0.1628 -0.7121 -0.2674
  475TIP3    H123060   1.621   1.859   1.382 -0.3443 -1.4345 -0.4658
  475TIP3    H223061   1.701   1.752   1.453  0.3572 -0.1397  0.7313
  476TIP3   OH223062   6.748   1.267   3.000 -1.0793  0.5030  0.3673
  476TIP3    H123063   6.715   1.177   2.991  0.9300 -0.2097 -0.4771
  476TIP3    H223064   6.670   1.322   2.995 -2.1307 -1.0313 -2.1864
  477TIP3   OH223065   1.482   2.834   2.022  0.6017  0.0793  0.5200
  477TIP3    H123066   1.431   2.754   2.011  2.2157 -0.8544 -0.6741
  477TIP3    H223067   1.569   2.804   2.047  1.4895  1.3625 -0.8065
  478TIP3   OH223068   2.786   5.357   2.923  0.0941 -0.4279  0.3859
  478TIP3    H123069   2.834   5.302   2.862  1.1831 -0.7560  1.4909
  478TIP3    H223070   2.740   5.296   2.980 -1.3538 -0.1208 -0.3979
  479TIP3   OH223071   5.543   0.183   2.525 -0.6103  0.2331 -0.0566
  479TIP3    H123072   5.548   0.265   2.575 -0.6718  0.4364 -0.3808
  479TIP3    H223073   5.634   0.154   2.517 -0.3963  1.1790 -1.4247
  480TIP3   OH223074   1.731   5.528   1.558  0.5852 -0.2573  0.3771
  480TIP3    H123075   1.751   5.534   1.651  1.9004  1.3013  0.0405
  480TIP3    H223076   1.806   5.481   1.521  0.8691  0.5739 -0.1163
  481TIP3   OH223077   0.764   6.346   2.512  0.1310  0.5623 -0.0810
  481TIP3    H123078   0.683   6.382   2.550  0.5906  0.6228  0.8856
  481TIP3    H223079   0.825   6.420   2.512  0.7505  0.0723  0.9201
  482TIP3   OH223080   1.862   2.021   0.237  0.3601  0.3660 -0.2789
  482TIP3    H123081   1.873   1.955   0.168 -0.1145  0.9789 -0.9530
  482TIP3    H223082   1.893   2.102   0.198 -1.0464  0.9626 -0.2084
  483TIP3   OH223083   0.510   2.362   8.565 -0.6871  0.2661 -0.5994
  483TIP3    H123084   0.594   2.396   8.596 -0.5244 -1.6984  1.3923
  483TIP3    H223085   0.488   2.417   8.490  1.1157  2.4876  0.3676
  484TIP3   OH223086   4.402   5.567   1.248 -0.2277  0.4311 -0.2738
  484TIP3    H123087   4.401   5.490   1.191 -0.6247 -1.6097  2.2938
  484TIP3    H223088   4.487   5.564   1.291 -0.5867  0.9250  0.4906
  485TIP3   OH223089   3.638   3.544   1.490  0.0664  0.4181  0.5397
  485TIP3    H123090   3.641   3.587   1.575 -1.5231  0.6529  0.5186
  485TIP3    H223091   3.721   3.566   1.449  0.9647  0.0923  2.1120
  486TIP3   OH223092   5.073   1.147   3.592  0.5390  0.5469  0.0356
  486TIP3    H123093   5.040   1.113   3.675  1.0361 -1.2222 -0.4500
  486TIP3    H223094   5.112   1.232   3.615 -1.3079  1.1457  1.1865
  487TIP3   OH223095   1.744   2.640   0.641  0.1073 -0.0707 -0.0898
  487TIP3    H123096   1.691   2.560   0.640  1.6297 -1.1853 -2.7694
  487TIP3    H223097   1.833   2.610   0.626  1.5811  1.7998  3.5741
  488TIP3   OH223098   0.658   0.272   8.720 -0.0770 -0.2069 -0.5388
  488TIP3    H123099   0.742   0.232   8.743  0.9758  0.9061 -2.2869
  488TIP3    H223100   0.610   0.275   8.803  0.9133 -2.3941  0.1972
  489TIP3   OH223101   0.965   3.209   1.815  0.0184 -0.4638  0.4107
  489TIP3    H123102   0.906   3.251   1.753 -1.4755 -0.6236  1.6535
  489TIP3    H223103   1.036   3.272   1.827  0.1676 -0.3033 -1.1831
  490TIP3   OH223104   3.559   5.989   0.209  0.2303 -0.2672  0.1421
  490TIP3    H123105   3.595   6.070   0.245  1.4109 -0.9852  0.6707
  490TIP3    H223106   3.634   5.928   0.209 -0.6121 -1.3392 -0.2776
  491TIP3   OH223107   6.172   4.805   2.125  0.2496 -0.0124  0.1048
  491TIP3    H123108   6.182   4.867   2.053 -1.3785 -0.8602 -0.9134
  491TIP3    H223109   6.176   4.859   2.204  0.5425  1.1384 -0.6715
  492TIP3   OH223110   5.909   4.616   1.366 -0.1096 -0.6868  0.2383
  492TIP3    H123111   5.909   4.570   1.450  2.5769 -1.1131  0.1152
  492TIP3    H223112   5.825   4.595   1.326 -1.1065 -1.1562  2.4456
  493TIP3   OH223113   6.711   1.707   0.910 -0.3234 -0.2496  0.0143
  493TIP3    H123114   6.757   1.791   0.905 -0.7848 -0.0638 -1.6626
  493TIP3    H223115   6.765   1.647   0.859 -0.5423 -0.7184  0.3275
  494TIP3   OH223116   0.598   1.290   1.048  0.4878 -1.0131  0.8344
  494TIP3    H123117   0.564   1.340   0.974 -0.2531  1.8316  2.9320
  494TIP3    H223118   0.538   1.216   1.057  0.6250 -1.4443 -1.3619
  495TIP3   OH223119   3.267   2.769   0.379  0.1107 -0.4322  0.4593
  495TIP3    H123120   3.262   2.767   0.283  1.1911 -1.2318  0.3981
  495TIP3    H223121   3.333   2.835   0.398 -1.3844  1.0595  0.7585
  496TIP3   OH223122   3.017   0.082   0.220 -0.1060  0.2568 -0.3878
  496TIP3    H123123   2.975   0.156   0.176 -1.9149 -0.2947  0.3141
  496TIP3    H223124   3.045   0.117   0.305  0.3261  0.4692 -0.6125
  497TIP3   OH223125   0.832   1.918   2.652  0.0490  0.2053 -0.2468
  497TIP3    H123126   0.864   1.999   2.691  0.7405 -0.9420  1.7578
  497TIP3    H223127   0.893   1.899   2.581  0.7573  0.7064  0.2115
  498TIP3   OH223128   3.833   0.811   0.172 -0.1693  0.4325  0.1558
  498TIP3    H123129   3.822   0.757   0.094 -0.9063  1.1311 -0.2330
  498TIP3    H223130   3.923   0.794   0.200  0.2496  0.4911 -1.0953
  499TIP3   OH223131   3.246   4.593   0.696  0.4361 -0.3385  0.1774
  499TIP3    H123132   3.223   4.501   0.684  0.7464 -0.4494  0.4132
  499TIP3    H223133   3.332   4.591   0.739 -0.3380  0.0181  1.8511
  500TIP3   OH223134   6.381   3.459   0.718  0.2521 -0.1699  0.5547
  500TIP3    H123135   6.365   3.400   0.792  0.7561 -1.9760 -0.7062
  500TIP3    H223136   6.318   3.431   0.652  0.1622  1.0686  0.1039
  501TIP3   OH223137   6.454   4.994   1.818  0.2536 -0.4062  0.2047
  501TIP3    H123138   6.512   5.051   1.768  0.7509 -1.2486 -0.2013
  501TIP3    H223139   6.380   4.976   1.759  0.8828 -1.4716 -0.2990
  502TIP3   OH223140   1.816   0.302   2.275 -0.4197  0.7026  0.2130
  502TIP3    H123141   1.801   0.343   2.189  0.0818 -0.1573 -0.2958
  502TIP3    H223142   1.897   0.341   2.306  0.6988 -0.7139 -0.8031
  503TIP3   OH223143   1.978   1.797   0.767 -0.0580 -0.0984 -0.3931
  503TIP3    H123144   1.995   1.875   0.714  0.3981 -0.9179 -1.4866
  503TIP3    H223145   2.058   1.745   0.759 -1.4969 -2.1898 -2.3640
  504TIP3   OH223146   4.619   5.707   3.249 -0.6481 -0.2939  0.2537
  504TIP3    H123147   4.617   5.728   3.156  2.1695  0.2778  0.2305
  504TIP3    H223148   4.580   5.784   3.291  2.3101  1.6409 -0.2856
  505TIP3   OH223149   4.630   2.070   1.555  0.0906  0.2779  0.0650
  505TIP3    H123150   4.707   2.098   1.603  0.1014  2.1145 -0.9153
  505TIP3    H223151   4.623   2.132   1.483 -1.4210 -0.7883 -0.7686
  506TIP3   OH223152   3.856   2.303   0.241  0.1465 -0.3647  0.0716
  506TIP3    H123153   3.943   2.285   0.277  0.2644  1.2010  0.6708
  506TIP3    H223154   3.799   2.308   0.318  0.0928  1.3958 -0.0250
  507TIP3   OH223155   2.722   0.645   3.400 -0.4773 -0.0703  0.0500
  507TIP3    H123156   2.759   0.571   3.448  0.0728 -0.0758 -0.3679
  507TIP3    H223157   2.796   0.704   3.385 -0.9009  0.5379  0.3210
  508TIP3   OH223158   2.638   3.492   3.205  0.2467  0.0525 -0.3913
  508TIP3    H123159   2.685   3.537   3.275  0.7982 -0.8766 -0.1398
  508TIP3    H223160   2.654   3.545   3.127 -0.7404  1.3490  0.2442
  509TIP3   OH223161   6.768   1.590   0.492 -0.2928  0.2049  0.1304
  509TIP3    H123162   6.681   1.550   0.493 -0.9124  1.4873  0.1454
  509TIP3    H223163   6.797   1.579   0.402 -0.7037  0.2418 -0.0124
  510TIP3   OH223164   6.165   2.085   2.081 -0.4474  0.3252 -0.0389
  510TIP3    H123165   6.080   2.079   2.125 -0.7841 -0.3023 -0.7568
  510TIP3    H223166   6.223   2.125   2.146 -1.0704 -0.0729  0.7783
  511TIP3   OH223167   6.747   5.650   8.821  0.4337 -0.0850 -0.3673
  511TIP3    H123168   6.820   5.637   8.760  1.4220 -0.9434  0.9308
  511TIP3    H223169   6.711   5.562   8.833 -1.0853  0.3727 -1.2560
  512TIP3   OH223170   4.243   0.463   1.046 -0.2016  0.5478 -0.2568
  512TIP3    H123171   4.234   0.368   1.035  0.8171  0.5725 -1.6286
  512TIP3    H223172   4.201   0.482   1.129 -1.2171 -0.9873 -0.3849
  513TIP3   OH223173   0.160   6.244   8.495 -0.1316 -0.6950  0.4397
  513TIP3    H123174   0.169   6.214   8.586  0.7056 -2.1894 -0.1085
  513TIP3    H223175   0.246   6.228   8.456 -0.9458 -1.6756 -1.0614
  514TIP3   OH223176   2.916   2.781   4.194  1.0122  0.0487  0.2403
  514TIP3    H123177   3.002   2.738   4.194 -0.1675 -2.4983 -1.4100
  514TIP3    H223178   2.854   2.712   4.173 -1.1940  2.3152 -1.3350
  515TIP3   OH223179   6.103   3.429   1.120 -0.2495 -0.5936  0.1845
  515TIP3    H123180   6.181   3.479   1.095 -0.9065 -1.0620 -3.2974
  515TIP3    H223181   6.134   3.369   1.188  1.1423  2.6638  2.7330
  516TIP3   OH223182   3.250   4.329   8.334  0.5211 -0.3874  0.0622
  516TIP3    H123183   3.206   4.253   8.373 -0.7524  0.1245 -0.3579
  516TIP3    H223184   3.226   4.326   8.242 -0.6811  1.2728  0.2754
  517TIP3   OH223185   0.580   6.460   8.374  0.1161  0.1473  0.4875
  517TIP3    H123186   0.496   6.501   8.353 -0.0356 -0.1478  0.5087
  517TIP3    H223187   0.610   6.424   8.291 -0.6667 -1.3533  0.8115
  518TIP3   OH223188   6.191   2.996   0.358 -0.6492 -0.7744  0.6520
  518TIP3    H123189   6.160   2.957   0.277 -1.5703  0.5474  0.3488
  518TIP3    H223190   6.270   3.044   0.334  0.1464 -1.9215  0.9132
  519TIP3   OH223191   6.789   6.276   8.829 -0.0090 -0.2420 -0.3299
  519TIP3    H123192   6.850   6.213   8.791 -0.0408 -1.9733  2.2702
  519TIP3    H223193   6.819   6.288   8.919 -1.7457  1.2233  0.1181
  520TIP3   OH223194   5.083   6.618   0.568 -0.6936 -0.3288 -0.3798
  520TIP3    H123195   5.034   6.650   0.492  0.3251  0.4357 -0.7370
  520TIP3    H223196   5.127   6.539   0.537 -0.0938  0.1092 -0.6785
  521TIP3   OH223197   2.856   2.874   1.950 -0.2654 -0.3076 -0.1618
  521TIP3    H123198   2.936   2.855   1.900 -0.1503  0.2900 -0.2161
  521TIP3    H223199   2.794   2.808   1.921  0.6861 -1.8133  1.0655
  522TIP3   OH223200   4.991   1.432   3.451 -0.0522 -0.3659 -0.2046
  522TIP3    H123201   4.908   1.385   3.439  0.5066 -0.9728 -2.0825
  522TIP3    H223202   5.009   1.425   3.545 -2.6246  0.7192  0.4511
  523TIP3   OH223203   3.911   0.146   1.479  0.1590 -0.4310  0.1387
  523TIP3    H123204   3.905   0.231   1.521  1.4124 -1.2579  2.1664
  523TIP3    H223205   3.828   0.136   1.432  0.2816  2.1585 -0.7293
  524TIP3   OH223206   6.541   0.170   1.455  0.2145 -0.4305  0.0958
  524TIP3    H123207   6.594   0.098   1.490  2.0714  0.6453 -0.3098
  524TIP3    H223208   6.586   0.249   1.486 -1.4707  0.5532  0.1019
  525TIP3   OH223209   0.410   3.803   1.844  0.6761  0.0316 -0.3069
  525TIP3    H123210   0.467   3.874   1.872 -0.5835  0.6471  0.8254
  525TIP3    H223211   0.373   3.834   1.761  0.8133  0.3191 -0.2626
  526TIP3   OH223212   6.584   3.166   3.208 -0.6334 -0.4449  0.0052
  526TIP3    H123213   6.644   3.204   3.144 -0.2972 -1.0998 -0.0868
  526TIP3    H223214   6.503   3.152   3.160 -1.2072  1.3411  0.3811
  527TIP3   OH223215   2.619   6.061   2.240  0.2196 -0.1637 -0.0960
  527TIP3    H123216   2.527   6.075   2.217  0.3295 -0.2180 -0.5793
  527TIP3    H223217   2.627   5.967   2.253  0.4751 -0.3218 -1.2798
  528TIP3   OH223218   1.047   2.536   2.475  0.3689  0.0297 -0.1765
  528TIP3    H123219   1.019   2.533   2.383  0.8329  1.2276 -0.3649
  528TIP3    H223220   1.142   2.541   2.471  0.3734  0.4572  0.3568
  529TIP3   OH223221   2.127   6.235   0.310 -0.4202  0.1271 -0.3247
  529TIP3    H123222   2.213   6.273   0.292 -0.7396 -0.0969 -2.6957
  529TIP3    H223223   2.099   6.200   0.226 -1.2593 -3.0919  1.1430
  530TIP3   OH223224   2.193   1.716   2.916 -0.7777 -0.1621 -0.6120
  530TIP3    H123225   2.287   1.720   2.929 -0.6494 -1.2672 -1.0955
  530TIP3    H223226   2.158   1.685   2.999 -0.6412 -0.4455 -0.6594
  531TIP3   OH223227   1.976   0.927   0.248 -0.8256 -0.0485 -0.3428
  531TIP3    H123228   2.061   0.960   0.219 -0.0753 -1.5419  0.0349
  531TIP3    H223229   1.958   0.854   0.188  0.1350 -2.3664  2.0129
  532TIP3   OH223230   6.645   2.726   8.506 -0.0435  0.4949 -0.2973
  532TIP3    H123231   6.564   2.764   8.471 -1.1007  0.8518  2.3376
  532TIP3    H223232   6.641   2.743   8.600  1.6697 -2.1598  0.3590
  533TIP3   OH223233   3.966   0.125   1.048  0.1763  0.1233 -0.0106
  533TIP3    H123234   4.040   0.162   1.001  0.6096  0.5953  1.0058
  533TIP3    H223235   4.004   0.059   1.106  0.0647  1.4878  1.7083
  534TIP3   OH223236   0.397   3.330   8.736  0.2142  0.1968  0.1683
  534TIP3    H123237   0.408   3.361   8.826  0.1539  1.9586 -0.4026
  534TIP3    H223238   0.432   3.400   8.681 -0.9276 -0.2645 -1.2327
  535TIP3   OH223239   5.355   3.098   1.325 -0.4444  0.4717  0.3037
  535TIP3    H123240   5.445   3.078   1.301 -0.1691 -1.2554  2.4804
  535TIP3    H223241   5.340   3.049   1.406 -4.1333 -1.5034 -1.3033
  536TIP3   OH223242   2.557   2.649   3.535  0.5129 -0.4473  1.0035
  536TIP3    H123243   2.603   2.592   3.597  0.5852 -0.8142  0.6219
  536TIP3    H223244   2.464   2.627   3.546  0.5956 -1.1910  0.3332
  537TIP3   OH223245   2.614   5.439   1.744 -0.0793  0.0765 -0.0931
  537TIP3    H123246   2.563   5.503   1.693 -2.9188 -0.8273  1.3761
  537TIP3    H223247   2.591   5.355   1.706  0.2191 -0.3651  0.6889
  538TIP3   OH223248   0.536   2.319   1.303 -0.1562 -0.7096 -0.0471
  538TIP3    H123249   0.498   2.406   1.295  1.0174 -0.2139 -0.4737
  538TIP3    H223250   0.510   2.274   1.222 -0.8242 -0.7976  0.2065
  539TIP3   OH223251   6.778   0.019   2.902  0.7047 -0.0651 -0.3581
  539TIP3    H123252   6.712  -0.050   2.896 -0.1939  0.6015  1.2694
  539TIP3    H223253   6.805   0.034   2.811 -0.5133 -1.1718 -0.9381
  540TIP3   OH223254   4.645   0.031   2.281  0.5045 -0.0153 -0.0613
  540TIP3    H123255   4.725   0.037   2.230  0.1171  0.5689 -0.6126
  540TIP3    H223256   4.576   0.058   2.221 -0.2545 -1.5505  0.0754
  541TIP3   OH223257   4.832   5.047   1.467 -0.3311  0.2259 -0.0137
  541TIP3    H123258   4.880   5.085   1.540  0.6765 -3.1096  1.2641
  541TIP3    H223259   4.778   4.979   1.507 -2.0528  0.2711 -2.0784
  542TIP3   OH223260   4.199   1.581   0.837 -0.0871 -0.5565  0.4335
  542TIP3    H123261   4.158   1.522   0.899 -0.2007  0.8208  1.7183
  542TIP3    H223262   4.161   1.557   0.752  0.9517 -3.2722  0.6220
  543TIP3   OH223263   0.707   5.893   0.766 -0.6317 -0.0359 -0.5536
  543TIP3    H123264   0.759   5.969   0.739  0.3757 -0.6944 -0.5021
  543TIP3    H223265   0.631   5.931   0.810  0.8598  0.9304  1.2935
  544TIP3   OH223266   0.735   3.259   1.650  0.1161  0.0313 -0.0632
  544TIP3    H123267   0.663   3.287   1.706  0.7921  2.3098 -0.2483
  544TIP3    H223268   0.748   3.332   1.589  2.5314 -0.3386 -0.0904
  545TIP3   OH223269   4.785   4.992   0.873  0.1046  0.4197 -0.1616
  545TIP3    H123270   4.783   4.897   0.858 -0.0401  0.7152 -2.2957
  545TIP3    H223271   4.719   5.007   0.941  0.9657 -1.1225  1.0662
  546TIP3   OH223272   2.787   1.748   1.266 -0.1494 -0.1766  0.0943
  546TIP3    H123273   2.834   1.668   1.247 -1.5347 -0.7014 -1.3114
  546TIP3    H223274   2.774   1.747   1.361  3.3302  0.4451  0.7056
  547TIP3   OH223275   5.029   2.671   2.295  0.3982  0.4264 -0.4145
  547TIP3    H123276   4.967   2.741   2.272  1.7729  1.3027 -1.6168
  547TIP3    H223277   5.006   2.599   2.236 -1.3242 -0.3890  1.1402
  548TIP3   OH223278   3.003   5.969   1.228  0.0767  0.1981  0.1878
  548TIP3    H123279   3.079   5.957   1.285  0.6747  2.2671 -0.0774
  548TIP3    H223280   2.946   6.028   1.276  0.2988  1.4753 -1.0230
  549TIP3   OH223281   5.193   1.545   1.309  0.0087  0.1741  0.6368
  549TIP3    H123282   5.138   1.594   1.370 -0.5863 -1.1974  1.2387
  549TIP3    H223283   5.134   1.480   1.271  1.1789 -1.2767  1.2329
  550TIP3   OH223284   6.098   1.107   8.858 -0.3061 -0.3771  0.0216
  550TIP3    H123285   6.107   1.127   8.951 -1.1732 -1.8793  0.4513
  550TIP3    H223286   6.101   1.011   8.853 -0.3000 -0.3294 -1.4962
  551TIP3   OH223287   2.354   3.288   3.199  0.0056 -0.3149  0.0404
  551TIP3    H123288   2.287   3.263   3.261 -1.0726  0.6225 -0.7031
  551TIP3    H223289   2.331   3.377   3.173  1.4891 -0.0008 -0.2973
  552TIP3   OH223290   5.966   4.182   1.741 -0.3103 -0.4700  0.2018
  552TIP3    H123291   5.914   4.259   1.765 -0.7498 -1.0080  1.0248
  552TIP3    H223292   6.038   4.180   1.805  0.8884  0.3865 -1.0495
  553TIP3   OH223293   4.211   6.358   1.598  0.2331  0.0806 -0.2742
  553TIP3    H123294   4.243   6.392   1.681  1.6697 -4.0965  1.1610
  553TIP3    H223295   4.147   6.291   1.623  1.1710 -1.7609 -2.4009
  554TIP3   OH223296   3.644   5.040   2.087  0.3217  0.1807  0.2765
  554TIP3    H123297   3.706   4.997   2.146  0.3073 -2.3275 -1.3363
  554TIP3    H223298   3.586   4.969   2.058  0.2066  1.2651 -2.5014
  555TIP3   OH223299   3.352   3.486   3.447 -0.4081  0.3972 -0.0659
  555TIP3    H123300   3.351   3.440   3.531 -1.0652 -1.2406 -0.9111
  555TIP3    H223301   3.289   3.557   3.458  0.0018  0.5968  1.0352
  556TIP3   OH223302   4.083   2.304   2.095  0.1421  0.4528 -0.4515
  556TIP3    H123303   4.044   2.241   2.034  0.8759  0.5144 -0.9960
  556TIP3    H223304   4.030   2.296   2.174  1.0449 -1.8260 -0.0019
  557TIP3   OH223305   1.534   3.567   1.369 -0.4780  0.6393 -0.2085
  557TIP3    H123306   1.621   3.543   1.401 -0.2002  0.8526 -0.7980
  557TIP3    H223307   1.548   3.647   1.318 -1.0177  0.6770 -0.3053
  558TIP3   OH223308   6.679   6.491   0.121 -0.1623 -0.3083 -0.1725
  558TIP3    H123309   6.592   6.512   0.153 -0.2962 -0.9854 -0.0695
  558TIP3    H223310   6.680   6.522   0.031 -1.3676 -2.3984 -0.9931
  559TIP3   OH223311   5.754   3.275   3.786 -0.2231 -0.3343 -0.2470
  559TIP3    H123312   5.829   3.277   3.845 -0.0108  1.1224 -0.5149
  559TIP3    H223313   5.735   3.182   3.774  1.5301 -0.7424 -0.1640
  560TIP3   OH223314   2.745   5.791   0.685 -0.8849 -0.8761 -0.3408
  560TIP3    H123315   2.828   5.743   0.673 -0.6937 -0.4955 -0.5619
  560TIP3    H223316   2.746   5.820   0.776  1.8010  3.8004 -1.5576
  561TIP3   OH223317   6.116   5.003   0.333  0.0801 -0.7081 -0.1208
  561TIP3    H123318   6.097   4.910   0.323  1.6987 -1.0677 -0.1467
  561TIP3    H223319   6.069   5.045   0.261  1.3248 -1.8107 -1.6391
  562TIP3   OH223320   6.443   6.325   4.021 -0.1884  0.2696 -0.3227
  562TIP3    H123321   6.417   6.395   3.961 -1.3531 -0.0277 -0.1992
  562TIP3    H223322   6.374   6.324   4.088  1.1083  0.6469  1.0880
  563TIP3   OH223323   0.351   1.005   1.372  0.1212  0.2983 -1.0144
  563TIP3    H123324   0.423   1.069   1.375  0.0934  0.3118 -0.6438
  563TIP3    H223325   0.350   0.975   1.281 -0.4015  1.4356 -1.3934
  564TIP3   OH223326   1.472   2.843   2.931 -0.5117 -0.2144  0.0800
  564TIP3    H123327   1.401   2.863   2.993  0.4230 -1.3202  1.5701
  564TIP3    H223328   1.551   2.876   2.974 -0.0372  0.7975 -1.4574
  565TIP3   OH223329   2.591   3.583   2.444  0.2184  0.5747 -0.2669
  565TIP3    H123330   2.506   3.603   2.483 -0.0517 -0.8520 -0.0726
  565TIP3    H223331   2.636   3.668   2.440 -0.1026  0.9574  2.2428
  566TIP3   OH223332   0.512   2.884   0.716 -0.1096 -0.0762 -0.4709
  566TIP3    H123333   0.596   2.862   0.675  0.7685  3.0876 -0.6917
  566TIP3    H223334   0.530   2.884   0.810  0.0523  0.2255 -0.4997
  567TIP3   OH223335   3.732   0.320   1.058 -0.3013 -0.0622 -0.2259
  567TIP3    H123336   3.788   0.246   1.036 -0.7240 -0.5722  0.3961
  567TIP3    H223337   3.752   0.339   1.149  1.0304  1.6875 -0.8130
  568TIP3   OH223338   4.371   3.197   0.787 -0.5497  0.1122 -0.2087
  568TIP3    H123339   4.444   3.140   0.763  2.0125  2.6988  0.7428
  568TIP3    H223340   4.346   3.169   0.874  2.1683  1.5673  1.1867
  569TIP3   OH223341   0.745   4.180   1.287 -0.0337 -0.0681  0.6154
  569TIP3    H123342   0.787   4.101   1.253  0.4871 -0.4621  2.0905
  569TIP3    H223343   0.809   4.216   1.349 -0.5388  1.1486  0.4599
  570TIP3   OH223344   1.505   3.919   0.397  0.4356 -0.2985 -0.0753
  570TIP3    H123345   1.508   4.001   0.348 -0.1861 -0.5375 -0.5372
  570TIP3    H223346   1.505   3.851   0.330  2.3028 -0.7510  0.3221
  571TIP3   OH223347   5.865   5.326   3.957 -0.6436 -0.0361 -0.2366
  571TIP3    H123348   5.851   5.337   4.051 -0.4731 -0.0774 -0.2052
  571TIP3    H223349   5.777   5.316   3.921 -0.6981 -0.2662 -0.0504
  572TIP3   OH223350   5.297   1.502   2.376 -0.0077  0.1450 -0.0722
  572TIP3    H123351   5.231   1.436   2.356 -0.5672  0.8758 -0.6711
  572TIP3    H223352   5.311   1.494   2.471 -1.3148  0.2984  0.1574
  573TIP3   OH223353   3.761   3.651   0.541 -0.4687  0.6044 -0.1531
  573TIP3    H123354   3.810   3.572   0.565  0.4177  1.0628 -0.4121
  573TIP3    H223355   3.811   3.689   0.469 -2.7082 -0.4008 -2.3819
  574TIP3   OH223356   5.134   1.985   0.066 -0.1485 -0.0486 -0.0242
  574TIP3    H123357   5.128   1.921  -0.004 -0.8906  0.1299 -0.1316
  574TIP3    H223358   5.188   2.055   0.030  1.3831 -0.9767  0.3896
  575TIP3   OH223359   4.048   0.369   2.238 -0.2701  0.1918  0.3958
  575TIP3    H123360   4.132   0.397   2.275 -0.1895  0.8854 -0.2785
  575TIP3    H223361   4.072   0.316   2.162 -0.4398  0.9213 -0.1733
  576TIP3   OH223362   5.907   3.569   2.402 -0.5938 -0.4999 -0.1380
  576TIP3    H123363   5.883   3.499   2.341 -1.4922  0.4999 -0.9684
  576TIP3    H223364   5.825   3.617   2.417  0.1073  0.7021 -0.0202
  577TIP3   OH223365   2.566   4.128   0.700 -0.3594 -0.6252 -0.1024
  577TIP3    H123366   2.510   4.205   0.703 -0.1260 -0.3816 -1.3842
  577TIP3    H223367   2.613   4.135   0.617 -0.9282 -2.5587 -0.6461
  578TIP3   OH223368   5.040   3.378   3.945  0.0752  0.9816 -0.1370
  578TIP3    H123369   5.042   3.326   4.025 -0.4898 -2.0409 -1.9516
  578TIP3    H223370   5.120   3.354   3.898 -0.7723  0.7840 -1.5501
  579TIP3   OH223371   1.060   3.784   8.698  0.5311  0.5464 -0.3717
  579TIP3    H123372   1.121   3.828   8.639  1.0198  1.2765  0.6423
  579TIP3    H223373   1.052   3.695   8.663 -1.2683  1.6382 -3.0986
  580TIP3   OH223374   2.045   3.418   8.861  0.3904  0.2308  0.0433
  580TIP3    H123375   2.139   3.433   8.852  0.9328 -2.2073  0.7782
  580TIP3    H223376   2.039   3.337   8.913 -2.0715 -0.3663 -1.0344
  581TIP3   OH223377   1.198   3.786   3.563  0.0594 -0.3687 -0.2742
  581TIP3    H123378   1.196   3.876   3.593  0.5189 -0.4118 -0.0944
  581TIP3    H223379   1.291   3.769   3.545 -0.2306 -0.1436 -2.3193
  582TIP3   OH223380   2.492   0.611   2.055 -0.3381 -0.0987 -0.0524
  582TIP3    H123381   2.453   0.528   2.025 -2.4141 -0.0727  2.2221
  582TIP3    H223382   2.454   0.677   1.997 -0.5331 -0.4885 -0.3767
  583TIP3   OH223383   5.628   3.807   0.934  0.3186 -0.6380  0.0803
  583TIP3    H123384   5.632   3.887   0.881 -1.6246 -0.0514  0.7345
  583TIP3    H223385   5.683   3.745   0.887  1.9951  1.0999 -0.3803
  584TIP3   OH223386   0.331   0.570   0.984 -0.0793  0.2994 -0.0894
  584TIP3    H123387   0.325   0.580   1.079 -0.0838 -1.5410  0.1314
  584TIP3    H223388   0.347   0.477   0.970  1.6096  0.7895 -1.8360
  585TIP3   OH223389   0.508   4.661   0.095 -0.7074 -0.7723 -0.0527
  585TIP3    H123390   0.557   4.586   0.128 -0.8373 -0.5689  0.6301
  585TIP3    H223391   0.544   4.677   0.008  0.6502 -0.4513  0.5364
  586TIP3   OH223392   4.396   0.157   1.868  0.3140 -0.2802  0.5209
  586TIP3    H123393   4.458   0.222   1.833 -1.2975  0.7387 -0.5609
  586TIP3    H223394   4.413   0.157   1.962  2.2928 -0.4250  0.2147
  587TIP3   OH223395   5.025   5.162   3.479 -0.0445 -0.0497 -0.1100
  587TIP3    H123396   4.966   5.087   3.467 -1.9645  1.3403  0.2751
  587TIP3    H223397   5.029   5.174   3.574  2.8475 -1.5558  0.0783
  588TIP3   OH223398   6.222   0.107   0.708  0.6449 -0.1711 -0.5720
  588TIP3    H123399   6.142   0.058   0.725  0.4829  0.5879  1.1159
  588TIP3    H223400   6.196   0.177   0.648  0.4349 -0.9229 -1.3714
  589TIP3   OH223401   5.090   2.247   0.377 -0.1137 -0.3261 -0.2838
  589TIP3    H123402   5.101   2.327   0.428  1.3773 -0.8423  0.2640
  589TIP3    H223403   5.078   2.277   0.287 -0.7295  0.5339  0.0690
  590TIP3   OH223404   0.198   6.218   0.568  0.3826  0.2764 -0.5085
  590TIP3    H123405   0.128   6.264   0.521 -0.5687  0.2262  0.8062
  590TIP3    H223406   0.181   6.126   0.550  0.6611  0.3107 -0.9416
  591TIP3   OH223407   1.768   3.919   4.224  0.2141 -0.0533  0.6733
  591TIP3    H123408   1.755   3.825   4.222  2.0870 -0.3589 -0.9525
  591TIP3    H223409   1.685   3.956   4.196 -0.8536 -1.1373  2.2649
  592TIP3   OH223410   6.396   6.711   2.218 -0.2193 -0.2867 -0.3787
  592TIP3    H123411   6.307   6.690   2.244 -0.0705 -0.3318  0.1162
  592TIP3    H223412   6.390   6.797   2.176 -0.2975  0.3600  0.9087
  593TIP3   OH223413   3.672   0.173   4.194  0.4446  0.3162 -0.2734
  593TIP3    H123414   3.748   0.122   4.221 -0.6014 -1.6559 -0.8956
  593TIP3    H223415   3.598   0.132   4.239 -0.5801  0.5421 -1.6794
  594TIP3   OH223416   4.549   3.755   3.233  0.7769  0.1106 -0.2716
  594TIP3    H123417   4.484   3.817   3.267  0.6131 -0.2820  0.1301
  594TIP3    H223418   4.629   3.776   3.281  0.2719 -1.1964  1.2445
  595TIP3   OH223419   1.819   4.032   3.352  0.9088 -0.0271 -0.6039
  595TIP3    H123420   1.788   4.097   3.415  3.5400  1.7759 -0.9952
  595TIP3    H223421   1.891   3.988   3.397  1.3937 -0.2438 -1.5696
  596TIP3   OH223422   0.030   1.378   8.779 -0.3894  0.1882  0.4310
  596TIP3    H123423   0.020   1.374   8.684 -0.9187 -0.9567  0.5309
  596TIP3    H223424   0.125   1.372   8.794 -0.3513 -0.2107  0.0114
  597TIP3   OH223425   5.234   3.703   3.772  0.0747  0.2812 -0.0805
  597TIP3    H123426   5.169   3.634   3.782 -1.2124  1.6009  1.3243
  597TIP3    H223427   5.316   3.662   3.799 -0.5200 -0.8867  0.0353
  598TIP3   OH223428   0.717   5.283   1.392  0.2544  0.2510  0.2501
  598TIP3    H123429   0.643   5.259   1.336  1.0828  0.9483 -1.1743
  598TIP3    H223430   0.705   5.376   1.409  0.7232  0.3307  0.1441
  599TIP3   OH223431   6.578   2.331   0.424 -0.0540 -0.1669 -0.4054
  599TIP3    H123432   6.582   2.412   0.475  0.7985  0.6857 -1.7740
  599TIP3    H223433   6.484   2.313   0.416 -0.2275 -0.3817  1.4815
  600TIP3   OH223434   6.685   2.960   1.742 -0.0413  0.3067 -0.0505
  600TIP3    H123435   6.719   3.000   1.822  0.1447  0.3421 -0.1468
  600TIP3    H223436   6.733   3.003   1.671 -1.2281  1.3310 -0.2790
  601TIP3   OH223437   5.049   3.940   3.996  0.1549  0.1613 -0.2453
  601TIP3    H123438   4.955   3.929   4.008  0.3942 -0.1743  1.5984
  601TIP3    H223439   5.088   3.864   4.040  1.3454  1.1745  0.4919
  602TIP3   OH223440   1.333   6.175   2.080  0.1416 -0.2115 -0.8088
  602TIP3    H123441   1.351   6.253   2.133  0.0829  0.6326 -1.9965
  602TIP3    H223442   1.398   6.178   2.010  0.8742 -1.8605 -0.2545
  603TIP3   OH223443   6.700   4.384   0.368  0.4884  0.3971 -0.5465
  603TIP3    H123444   6.756   4.359   0.294  2.0373 -1.0253  1.0043
  603TIP3    H223445   6.760   4.385   0.443 -1.3204  0.2481  0.9587
  604TIP3   OH223446   2.474   6.157   2.506 -0.3456  0.2292 -0.5905
  604TIP3    H123447   2.528   6.221   2.552 -1.0559  0.4594 -0.0710
  604TIP3    H223448   2.388   6.198   2.499 -0.2536  0.2085 -2.1480
  605TIP3   OH223449   1.536   1.560   4.328 -0.3172  0.7285  1.0638
  605TIP3    H123450   1.536   1.656   4.335  1.1808  0.7265  1.6675
  605TIP3    H223451   1.617   1.534   4.373 -1.0898 -0.8734  1.5807
  606TIP3   OH223452   5.378   0.699   2.376 -0.0570 -0.2412 -0.0533
  606TIP3    H123453   5.464   0.680   2.413  0.6748  2.5793 -0.0643
  606TIP3    H223454   5.332   0.744   2.447  0.1493  2.2225 -1.3926
  607TIP3   OH223455   2.342   3.569   2.113  0.2604 -0.0691 -0.1079
  607TIP3    H123456   2.377   3.650   2.149  2.2047 -1.0267  0.2800
  607TIP3    H223457   2.254   3.562   2.150  0.1894  1.6484  0.1366
  608TIP3   OH223458   2.568   5.719   1.854  0.7669 -0.2599  0.2028
  608TIP3    H123459   2.597   5.734   1.764  0.2445 -2.0800 -0.3182
  608TIP3    H223460   2.648   5.696   1.901  0.7686 -1.3880 -0.3155
  609TIP3   OH223461   5.519   3.943   4.169 -0.3045  0.0615 -0.7935
  609TIP3    H123462   5.481   3.960   4.083 -0.7659 -1.9999 -1.0680
  609TIP3    H223463   5.487   4.014   4.224 -1.9378  0.1463 -1.7831
  610TIP3   OH223464   2.140   3.474   3.174  0.2107  1.4234  0.3343
  610TIP3    H123465   2.076   3.470   3.245  0.6106 -0.9047  0.6196
  610TIP3    H223466   2.087   3.471   3.094 -0.1299  1.9539  0.5324
  611TIP3   OH223467   0.466   2.583   1.232  0.1407 -0.2653  0.2023
  611TIP3    H123468   0.460   2.616   1.322  0.3053 -1.1589  0.5512
  611TIP3    H223469   0.388   2.618   1.188  1.1465  2.0170  0.0528
  612TIP3   OH223470   4.851   6.350   3.086 -0.2327  0.1729  0.3434
  612TIP3    H123471   4.936   6.311   3.066 -0.3287  0.7016 -1.3112
  612TIP3    H223472   4.803   6.346   3.003 -1.2789  1.2136  0.8644
  613TIP3   OH223473   6.601   6.367   2.408  0.1422 -0.1765 -0.3544
  613TIP3    H123474   6.588   6.444   2.463  1.6167 -0.8063  0.9266
  613TIP3    H223475   6.671   6.391   2.347  0.9242 -0.6366  0.3480
  614TIP3   OH223476   5.355   0.322   3.531 -0.0741 -0.1914  0.3557
  614TIP3    H123477   5.340   0.416   3.538  0.5964 -0.1571  1.5844
  614TIP3    H223478   5.337   0.288   3.619 -0.1117 -1.1873 -0.0177
  615TIP3   OH223479   2.490   2.664   1.692  0.5118 -0.5661 -0.5650
  615TIP3    H123480   2.412   2.680   1.745  1.8172  0.9915  1.0512
  615TIP3    H223481   2.457   2.633   1.608 -1.8419  0.1908  0.0082
  616TIP3   OH223482   4.307   1.635   2.037 -0.6956 -0.1180  0.4316
  616TIP3    H123483   4.217   1.659   2.059  0.6763  3.0445  3.6746
  616TIP3    H223484   4.330   1.692   1.964 -0.7124  0.7426  1.0777
  617TIP3   OH223485   1.704   3.708   2.903 -0.8350 -0.3673 -0.9404
  617TIP3    H123486   1.719   3.646   2.831  1.3271 -1.5956  0.4831
  617TIP3    H223487   1.609   3.723   2.901 -0.9673 -0.9973 -3.4881
  618TIP3   OH223488   3.004   5.865   0.329  0.0312 -0.3837 -0.4533
  618TIP3    H123489   3.093   5.889   0.301  0.0123 -1.4199 -1.4703
  618TIP3    H223490   3.015   5.833   0.418  0.1821  2.4544  0.6538
  619TIP3   OH223491   0.691   4.424   1.534  0.0506 -0.6363  1.1714
  619TIP3    H123492   0.658   4.502   1.578  1.1829  0.7591 -0.3155
  619TIP3    H223493   0.767   4.397   1.586  0.0445 -0.3582  1.3242
  620TIP3   OH223494   4.494   1.334   3.067  0.3226 -0.0344  0.0273
  620TIP3    H123495   4.577   1.371   3.098  0.9377 -0.4726 -1.0190
  620TIP3    H223496   4.499   1.242   3.092  0.9668 -0.4669 -1.5473
  621TIP3   OH223497   0.989   3.608   3.511  0.6743  0.4447 -0.1441
  621TIP3    H123498   1.054   3.674   3.536  1.8677 -0.7498  0.0283
  621TIP3    H223499   0.946   3.585   3.594  0.5875  0.6471 -0.1308
  622TIP3   OH223500   5.917   4.472   1.589  0.5273 -0.1281  0.1605
  622TIP3    H123501   5.882   4.427   1.666 -1.5633  1.4998  0.2656
  622TIP3    H223502   5.992   4.522   1.622  0.9592 -1.0872  0.6650
  623TIP3   OH223503   5.054   6.570   0.272 -0.1897  0.1802 -0.2974
  623TIP3    H123504   5.055   6.583   0.177  0.1263  0.6879 -0.2296
  623TIP3    H223505   4.997   6.494   0.286 -0.6344  0.4078 -0.8557
  624TIP3   OH223506   2.449   0.130   3.819  0.3417  0.2407 -0.0650
  624TIP3    H123507   2.468   0.116   3.912 -1.4700 -0.8380  0.1905
  624TIP3    H223508   2.372   0.187   3.819  0.2110  0.0717 -0.8906
  625TIP3   OH223509   1.231   5.418   1.012 -0.5519 -0.1797 -0.3257
  625TIP3    H123510   1.300   5.450   0.955 -1.6574  1.8682 -0.6028
  625TIP3    H223511   1.207   5.493   1.067 -0.1796 -1.7898  2.2400
  626TIP3   OH223512   2.569   0.493   0.851  0.4597  0.1548 -0.0571
  626TIP3    H123513   2.550   0.585   0.837 -0.6804  0.0604  0.7572
  626TIP3    H223514   2.536   0.449   0.772 -2.2014  0.0779  1.0090
  627TIP3   OH223515   5.325   6.360   0.054 -0.4992 -0.4345  0.4208
  627TIP3    H123516   5.315   6.455   0.043  2.6774 -0.0035  0.4325
  627TIP3    H223517   5.272   6.322  -0.016 -0.6708  1.3989 -0.4972
  628TIP3   OH223518   4.831   6.364   1.612 -0.4802 -0.4102  0.3533
  628TIP3    H123519   4.752   6.310   1.599 -0.0209 -0.8155 -0.9732
  628TIP3    H223520   4.901   6.313   1.571  0.4044  0.1336  1.1576
  629TIP3   OH223521   4.092   3.864   0.734 -0.0441 -0.1050  0.4364
  629TIP3    H123522   4.119   3.888   0.823 -1.4660 -0.0747  0.8754
  629TIP3    H223523   4.001   3.836   0.743 -0.1514 -0.2799 -0.9890
  630TIP3   OH223524   5.298   5.552   0.528 -0.0048  0.4972 -0.3761
  630TIP3    H123525   5.266   5.476   0.479 -1.0815 -0.3196  1.4848
  630TIP3    H223526   5.253   5.627   0.488  0.4464  0.0860 -1.7004
  631TIP3   OH223527   4.058   0.234   1.993  0.2471 -0.1807 -0.1463
  631TIP3    H123528   3.979   0.201   1.950 -1.2028 -0.0618  2.2112
  631TIP3    H223529   4.101   0.156   2.028 -1.1286 -0.0062  2.1277
  632TIP3   OH223530   0.128   1.662   2.852 -0.0603  0.2292 -0.3051
  632TIP3    H123531   0.115   1.573   2.818 -0.8393  0.4682 -0.6643
  632TIP3    H223532   0.057   1.674   2.915  0.4569  0.3521  0.2644
  633TIP3   OH223533   1.520   1.822   0.582  0.6788  0.5748  0.1979
  633TIP3    H123534   1.551   1.824   0.491 -1.9669  1.7731 -0.7778
  633TIP3    H223535   1.591   1.779   0.630  0.7806 -3.4844 -2.9832
  634TIP3   OH223536   3.751   6.387   3.622  0.0019 -0.2427 -0.0685
  634TIP3    H123537   3.795   6.387   3.707  1.0202 -0.3248 -0.5694
  634TIP3    H223538   3.660   6.369   3.641  0.1725  0.0006  1.0296
  635TIP3   OH223539   5.367   1.670   3.668  0.0708  0.1589 -0.1393
  635TIP3    H123540   5.334   1.701   3.584  0.8256  1.0044 -0.1360
  635TIP3    H223541   5.456   1.704   3.674  1.0665 -2.1931 -0.2096
  636TIP3   OH223542   3.107   0.788   0.549  0.1780 -0.3471 -0.3642
  636TIP3    H123543   3.058   0.779   0.467  1.6457 -1.1900 -1.1850
  636TIP3    H223544   3.088   0.877   0.579 -0.7445 -0.1837 -1.3598
  637TIP3   OH223545   3.783   4.824   1.396  0.0827  0.6517  0.0141
  637TIP3    H123546   3.848   4.888   1.367  0.3617  0.2039 -0.3812
  637TIP3    H223547   3.700   4.857   1.363  0.4578 -0.1538 -1.9351
  638TIP3   OH223548   6.239   2.787   0.816 -0.3932  0.5073 -0.1460
  638TIP3    H123549   6.214   2.842   0.890  0.3629  0.9360 -0.2023
  638TIP3    H223550   6.157   2.747   0.788 -0.5921 -0.2158  1.3544
  639TIP3   OH223551   4.809   1.457   1.215  0.1889  0.2036 -0.2086
  639TIP3    H123552   4.870   1.441   1.144 -0.4135 -3.1829 -0.0946
  639TIP3    H223553   4.739   1.509   1.175  0.8881  0.1714 -1.5245
  640TIP3   OH223554   5.843   1.184   0.181  1.0630 -0.2204 -0.5274
  640TIP3    H123555   5.876   1.134   0.256  2.1221  0.1267 -0.7416
  640TIP3    H223556   5.748   1.175   0.186  1.0357  0.5167  1.3777
  641TIP3   OH223557   3.746   4.033   0.207 -0.0295  0.0002  0.1135
  641TIP3    H123558   3.731   4.126   0.223  0.9674  0.1320  0.3892
  641TIP3    H223559   3.690   3.988   0.270 -0.7126  0.3998 -0.1938
  642TIP3   OH223560   6.392   0.671   0.880  0.5165  0.3098  0.0507
  642TIP3    H123561   6.352   0.602   0.827 -2.4588  1.0090  1.1446
  642TIP3    H223562   6.352   0.752   0.847  1.0369  1.0877  1.2515
  643TIP3   OH223563   3.766   1.987   8.125  0.3475 -0.1006 -0.2272
  643TIP3    H123564   3.861   1.998   8.127  0.1279  2.5004 -0.5968
  643TIP3    H223565   3.732   2.063   8.172 -1.5654 -0.4657 -0.9271
  644TIP3   OH223566   5.907   6.237   0.098  0.3669 -0.7887 -0.0765
  644TIP3    H123567   5.874   6.303   0.037  0.0034 -2.5078 -1.8262
  644TIP3    H223568   5.900   6.154   0.051  0.7782 -2.1209  2.0482
  645TIP3   OH223569   4.377   4.786   0.382  0.3077 -0.2027  0.2158
  645TIP3    H123570   4.291   4.827   0.369  1.8417  3.9562  1.5947
  645TIP3    H223571   4.391   4.733   0.304 -1.7653  2.4203 -2.1529
  646TIP3   OH223572   3.340   4.546   1.982  0.2597 -0.0761  0.3014
  646TIP3    H123573   3.349   4.572   1.890 -2.0021 -2.2889 -0.6742
  646TIP3    H223574   3.416   4.489   1.998  1.2554  1.1781  0.1971
  647TIP3   OH223575   0.994   2.974   1.980  0.3816 -0.3374  0.0030
  647TIP3    H123576   1.022   2.947   1.893  0.1469 -0.0799 -0.1530
  647TIP3    H223577   0.927   3.040   1.965  1.2600  0.6825  0.3722
  648TIP3   OH223578   0.691   2.749   2.119 -0.1035  0.5378  0.1913
  648TIP3    H123579   0.774   2.734   2.075  0.4609 -2.0268  1.8859
  648TIP3    H223580   0.660   2.833   2.085  3.0717  1.5108 -0.5888
  649TIP3   OH223581   6.105   3.026   3.070  0.6249 -0.5467 -0.1392
  649TIP3    H123582   6.012   3.008   3.061  0.6256 -0.4879 -0.2745
  649TIP3    H223583   6.128   3.072   2.989  0.8194 -0.7715 -0.2113
  650TIP3   OH223584   4.030   2.499   3.174  0.1541 -0.2266 -0.2616
  650TIP3    H123585   4.080   2.432   3.127  0.3181 -1.2078  1.2280
  650TIP3    H223586   4.039   2.475   3.266 -0.2480  1.5596  0.2816
  651TIP3   OH223587   3.264   1.040   1.944  0.2876  0.0707 -0.4859
  651TIP3    H123588   3.354   1.010   1.937  0.5497  0.7616 -0.2740
  651TIP3    H223589   3.211   0.974   1.899  0.9474 -0.0982 -1.0149
  652TIP3   OH223590   3.946   6.038   2.573  0.0332  0.2559  0.1714
  652TIP3    H123591   3.946   6.049   2.478 -2.2114 -0.3308  0.0433
  652TIP3    H223592   4.020   5.979   2.590 -0.4751 -0.9060 -1.4030
  653TIP3   OH223593   0.523   6.393   1.316  0.2647 -0.0969  0.3025
  653TIP3    H123594   0.458   6.416   1.383 -1.5083  1.4411 -1.8025
  653TIP3    H223595   0.489   6.312   1.278 -0.4289  0.6584 -0.7348
  654TIP3   OH223596   0.716   1.414   2.144 -0.1611  0.5347  0.2219
  654TIP3    H123597   0.807   1.405   2.116 -0.3091 -0.0680 -0.0888
  654TIP3    H223598   0.714   1.375   2.231 -0.1337  0.5143  0.2134
  655TIP3   OH223599   0.259   6.793   8.142  0.2919 -0.2236  0.2023
  655TIP3    H123600   0.293   6.842   8.217  0.9907 -0.3359 -0.0332
  655TIP3    H223601   0.173   6.831   8.126 -0.5615 -1.2275  2.0294
  656TIP3   OH223602   2.279   3.646   7.941  0.1834  0.8154  0.3844
  656TIP3    H123603   2.304   3.652   8.034 -0.9636 -0.9107  0.8651
  656TIP3    H223604   2.360   3.624   7.896  1.2541  3.8357  0.5748
  657TIP3   OH223605   6.767   2.139   1.929 -0.3729 -0.3302 -1.0067
  657TIP3    H123606   6.860   2.149   1.910 -0.2534 -1.9063 -1.3382
  657TIP3    H223607   6.724   2.141   1.844 -0.7998  1.4521 -0.8046
  658TIP3   OH223608   1.329   5.188   8.456 -0.0887  0.1655 -0.4992
  658TIP3    H123609   1.375   5.127   8.514  1.1478  2.8044  1.5082
  658TIP3    H223610   1.387   5.199   8.381 -1.2566 -2.5305 -1.9469
  659TIP3   OH223611   4.072   5.495   0.527 -0.0343 -0.2692 -0.0728
  659TIP3    H123612   4.096   5.404   0.507  2.5286 -0.1504  1.9299
  659TIP3    H223613   4.003   5.487   0.593 -0.0803 -0.7557 -0.1725
  660TIP3   OH223614   2.259   4.262   8.735 -0.3188  0.3298 -0.4225
  660TIP3    H123615   2.272   4.304   8.819  0.6895 -0.1573 -0.3208
  660TIP3    H223616   2.218   4.329   8.680 -0.7892  0.7145  0.3802
  661TIP3   OH223617   4.296   4.986   8.740 -0.2797 -0.1872  0.7877
  661TIP3    H123618   4.348   4.933   8.680 -2.0074 -1.0931  0.0336
  661TIP3    H223619   4.289   4.933   8.819  0.2789  0.1266  1.0555
  662TIP3   OH223620   0.598   1.691   3.526  0.0020  0.3102 -0.1998
  662TIP3    H123621   0.530   1.751   3.496 -0.3336 -0.1171 -0.2997
  662TIP3    H223622   0.627   1.729   3.609 -1.1039 -0.0695  0.3772
  663TIP3   OH223623   3.206   0.597   2.061 -0.4705  0.6716 -0.5011
  663TIP3    H123624   3.131   0.579   2.004 -1.0386 -2.1502  0.9691
  663TIP3    H223625   3.196   0.535   2.133  3.4170 -0.0007 -0.3479
  664TIP3   OH223626   0.894   3.391   3.375 -0.2423 -0.3137 -0.6491
  664TIP3    H123627   0.871   3.425   3.289 -1.8087  0.1511 -0.0797
  664TIP3    H223628   0.921   3.468   3.425  0.7885 -0.5991 -0.7371
  665TIP3   OH223629   6.310   6.696   8.186 -0.0250 -0.0054 -0.4779
  665TIP3    H123630   6.380   6.644   8.227 -0.9516 -0.7793  0.1653
  665TIP3    H223631   6.347   6.784   8.180  0.8244 -0.2798  0.3265
  666TIP3   OH223632   3.537   1.661   3.840  0.0349  0.3011 -0.3625
  666TIP3    H123633   3.558   1.752   3.863  0.1794  0.8561 -2.5321
  666TIP3    H223634   3.613   1.632   3.789 -0.0249 -1.0581  0.2874
  667TIP3   OH223635   0.119   0.164   1.685  0.2439 -0.1823  0.0321
  667TIP3    H123636   0.179   0.236   1.665  1.4547 -0.5406  2.0253
  667TIP3    H223637   0.129   0.104   1.612 -0.2425  1.2973 -1.3112
  668TIP3   OH223638   2.477   1.041   1.882  0.2739 -0.2824  0.2372
  668TIP3    H123639   2.408   0.980   1.857  0.8843 -1.0068  0.2854
  668TIP3    H223640   2.556   0.988   1.884  0.7879  0.4777  0.4591
  669TIP3   OH223641   1.620   6.754   8.664 -0.0210 -0.4311 -0.2023
  669TIP3    H123642   1.674   6.805   8.604  0.2314 -2.8307 -2.2096
  669TIP3    H223643   1.683   6.698   8.710 -0.4637 -0.5106  0.3082
  670TIP3   OH223644   2.228   6.337   2.596  0.1852 -0.3339  0.2123
  670TIP3    H123645   2.211   6.409   2.536  0.1020 -0.0136  0.6157
  670TIP3    H223646   2.207   6.372   2.683 -1.9143 -1.4952  0.2366
  671TIP3   OH223647   1.544   2.623   8.558 -0.0416  0.3853 -0.1423
  671TIP3    H123648   1.516   2.684   8.626  0.2387  0.7751 -0.3727
  671TIP3    H223649   1.473   2.560   8.552 -1.4257  1.9905 -1.4985
  672TIP3   OH223650   6.549   6.232   1.225  0.0234 -0.0342  0.3033
  672TIP3    H123651   6.520   6.210   1.136  1.9557  2.5770 -1.1159
  672TIP3    H223652   6.618   6.168   1.244  0.7900  0.4169 -0.8333
  673TIP3   OH223653   2.088   6.260   2.258  0.1948 -0.4626 -0.0662
  673TIP3    H123654   2.160   6.209   2.294 -0.5165 -1.1105  0.4858
  673TIP3    H223655   2.130   6.334   2.214  1.2104 -1.1350 -0.2562
  674TIP3   OH223656   5.137   1.065   1.671  0.3930  0.2849 -0.1750
  674TIP3    H123657   5.153   1.147   1.718  1.3723  0.3783 -0.6345
  674TIP3    H223658   5.140   1.090   1.578 -2.4952  0.2914 -0.3439
  675TIP3   OH223659   3.164   3.126   1.431 -0.2378  0.0047 -0.2164
  675TIP3    H123660   3.083   3.153   1.388 -0.2141  1.6623  0.6935
  675TIP3    H223661   3.208   3.069   1.367 -1.1801  0.6944 -1.5100
  676TIP3   OH223662   1.204   1.009   0.510 -0.4303  0.4735  0.1370
  676TIP3    H123663   1.212   0.949   0.436 -0.5767 -0.6577  1.0231
  676TIP3    H223664   1.116   1.045   0.502 -0.5713  0.0959 -0.0433
  677TIP3   OH223665   6.400   3.296   8.882 -0.5732  0.8032 -0.2250
  677TIP3    H123666   6.421   3.321   8.792  0.4851 -1.7527 -0.7774
  677TIP3    H223667   6.341   3.222   8.873  0.7362 -0.4618  1.1154
  678TIP3   OH223668   6.195   4.274   0.037  0.2216 -0.4897 -0.4775
  678TIP3    H123669   6.256   4.264   0.110  1.2798  3.2773 -0.6116
  678TIP3    H223670   6.108   4.278   0.079  0.7185  0.5976  0.5099
  679TIP3   OH223671   2.270   4.359   8.335  0.2842  0.0605  0.4469
  679TIP3    H123672   2.244   4.267   8.339 -2.5926  0.7992  0.6243
  679TIP3    H223673   2.348   4.359   8.279 -0.0813 -2.3818 -0.1816
  680TIP3   OH223674   6.734   3.019   1.200 -0.3693  0.1430  0.0342
  680TIP3    H123675   6.818   3.062   1.217 -0.3464  0.0649  0.1188
  680TIP3    H223676   6.731   3.009   1.105  1.0125 -2.4767  0.1930
  681TIP3   OH223677   1.101   3.191   3.428  0.6813 -0.1738  0.0515
  681TIP3    H123678   1.020   3.226   3.392  0.4053 -1.2894 -0.4615
  681TIP3    H223679   1.094   3.207   3.523 -0.8525 -1.6025  0.2179
  682TIP3   OH223680   3.408   6.489   2.980  0.1324  0.6138  0.4433
  682TIP3    H123681   3.419   6.577   3.015 -0.1982  0.3237  1.3077
  682TIP3    H223682   3.463   6.487   2.902  1.0626  1.2265  1.0613
  683TIP3   OH223683   1.915   1.650   3.057  0.3129 -0.0888  0.1254
  683TIP3    H123684   1.978   1.645   3.128  0.3977 -1.3618 -0.0206
  683TIP3    H223685   1.836   1.609   3.092  0.0337  0.1825 -0.1818
  684TIP3   OH223686   1.248   2.048   8.755  0.5053  0.2527 -0.1294
  684TIP3    H123687   1.179   2.083   8.697  0.7905  2.1482  0.5989
  684TIP3    H223688   1.314   2.015   8.695 -0.2375  0.0329 -0.8581
  685TIP3   OH223689   5.315   2.209   0.798  0.9764 -0.0735 -0.3148
  685TIP3    H123690   5.228   2.179   0.827  1.5319 -0.2420  1.2888
  685TIP3    H223691   5.306   2.304   0.793  0.1627 -0.2071 -2.1173
  686TIP3   OH223692   1.888   2.600   1.385  0.2778 -0.2024 -0.0730
  686TIP3    H123693   1.834   2.523   1.405 -0.4673  0.5045  0.6834
  686TIP3    H223694   1.933   2.620   1.467 -1.2737  1.5126  0.4137
  687TIP3   OH223695   6.514   3.665   8.088 -0.6546  0.6517  0.4380
  687TIP3    H123696   6.454   3.635   8.019  0.2991 -0.5115  0.0914
  687TIP3    H223697   6.601   3.638   8.058 -0.1556  0.6772  1.7983
  688TIP3   OH223698   5.502   5.422   0.966  0.1859 -0.4595 -0.2223
  688TIP3    H123699   5.558   5.498   0.952  2.4125 -1.9853 -0.0347
  688TIP3    H223700   5.536   5.355   0.906  0.6297 -2.4365  2.0989
  689TIP3   OH223701   0.824   5.231   2.063  0.2109 -0.1381 -0.4120
  689TIP3    H123702   0.759   5.299   2.085 -0.2314 -0.9741  0.9743
  689TIP3    H223703   0.907   5.279   2.059 -0.5376  1.1143 -3.0677
  690TIP3   OH223704   6.065   2.482   4.007  0.4653  0.7179 -0.1015
  690TIP3    H123705   5.985   2.462   4.055  0.2847  0.3219 -0.5570
  690TIP3    H223706   6.098   2.563   4.047 -0.4365  1.1737 -0.2485
  691TIP3   OH223707   6.524   2.941   1.454  0.6056  0.2089 -0.2491
  691TIP3    H123708   6.540   2.953   1.548 -1.1407 -2.6405  0.5290
  691TIP3    H223709   6.585   2.872   1.428  0.4878  0.3814 -1.0067
  692TIP3   OH223710   0.378   0.776   1.544 -0.2714 -0.2371 -0.1838
  692TIP3    H123711   0.446   0.724   1.502  1.0771  0.7428  0.6864
  692TIP3    H223712   0.360   0.847   1.482 -0.1506 -0.2187 -0.1963
  693TIP3   OH223713   2.535   3.740   1.762 -0.0956 -0.0468 -0.3173
  693TIP3    H123714   2.500   3.794   1.691  0.8774 -0.6284 -1.2780
  693TIP3    H223715   2.499   3.653   1.747  0.7644 -0.3683 -0.6104
  694TIP3   OH223716   3.154   1.886   0.659  0.3327  0.8443 -0.4987
  694TIP3    H123717   3.220   1.902   0.592  1.4982  0.4707  0.5207
  694TIP3    H223718   3.205   1.861   0.737 -0.9396  1.9626  0.7282
  695TIP3   OH223719   6.396   1.622   2.480  0.1705  0.6351 -0.4284
  695TIP3    H123720   6.451   1.669   2.543 -0.9707  2.2400 -0.5656
  695TIP3    H223721   6.390   1.534   2.515  2.8894  0.3471 -0.4779
  696TIP3   OH223722   1.812   2.388   2.987 -0.1870 -0.4536  0.0966
  696TIP3    H123723   1.881   2.354   2.930  0.6025  0.9051  0.2084
  696TIP3    H223724   1.855   2.455   3.040 -1.3859 -0.2448  0.8413
  697TIP3   OH223725   2.621   0.957   4.060 -0.3443 -0.2091  0.1229
  697TIP3    H123726   2.700   0.999   4.094 -0.9330  0.5347  0.6078
  697TIP3    H223727   2.595   1.011   3.986 -0.8172 -0.0103  0.4302
  698TIP3   OH223728   5.790   5.994   1.644  0.3049 -0.0803 -0.0495
  698TIP3    H123729   5.722   6.046   1.601  1.1736 -1.1994 -3.0613
  698TIP3    H223730   5.756   5.977   1.732 -2.8575  0.2313 -1.0960
  699TIP3   OH223731   4.771   2.904   0.455  0.4994  0.2858  0.4380
  699TIP3    H123732   4.742   2.936   0.369  1.0682  0.9397  0.4791
  699TIP3    H223733   4.704   2.841   0.481 -0.9653  1.8358  0.6047
  700TIP3   OH223734   3.501   5.812   0.499 -0.6738 -0.3842  0.3692
  700TIP3    H123735   3.568   5.804   0.431  0.1998  0.5058  1.0949
  700TIP3    H223736   3.473   5.722   0.516  0.8620 -0.8485  0.5522
  701TIP3   OH223737   4.574   1.877   3.400  0.9068 -0.4575 -0.5748
  701TIP3    H123738   4.521   1.845   3.327  0.3263 -2.1270  0.5038
  701TIP3    H223739   4.643   1.811   3.411  1.8814  0.5307 -0.5291
  702TIP3   OH223740   4.174   6.576   1.416  0.3650  0.7061  0.1487
  702TIP3    H123741   4.194   6.528   1.497 -0.2709 -0.6889 -0.4988
  702TIP3    H223742   4.260   6.607   1.386  1.1452 -1.7423 -0.4403
  703TIP3   OH223743   3.707   2.023   1.420 -0.1398  0.4519  0.2710
  703TIP3    H123744   3.766   2.097   1.407 -0.4429  0.8195  0.9227
  703TIP3    H223745   3.739   1.956   1.360  2.3763 -0.2377  2.2163
  704TIP3   OH223746   4.289   4.820   2.047 -0.1015  0.4789 -0.0070
  704TIP3    H123747   4.332   4.887   1.993  0.1201 -0.7499 -1.4344
  704TIP3    H223748   4.196   4.833   2.031 -0.0102 -0.4568 -1.4844
  705TIP3   OH223749   1.439   6.283   1.847 -0.2779 -0.0865 -0.4587
  705TIP3    H123750   1.465   6.193   1.829 -1.9028 -0.5687 -0.6103
  705TIP3    H223751   1.393   6.311   1.768 -1.1005  0.3353  0.1550
  706TIP3   OH223752   0.673   4.409   2.216  0.6927  0.1290 -0.1245
  706TIP3    H123753   0.743   4.375   2.161  1.5991 -0.3862  1.2719
  706TIP3    H223754   0.593   4.399   2.164  1.4694 -0.5416 -1.2280
  707TIP3   OH223755   5.362   3.790   0.095  0.3987  0.1794  0.4361
  707TIP3    H123756   5.324   3.709   0.129  0.5316 -0.1394 -0.1629
  707TIP3    H223757   5.455   3.771   0.088  0.5862  0.7477  1.3041
  708TIP3   OH223758   1.866   6.216   2.812  0.4507 -0.1265 -0.0801
  708TIP3    H123759   1.946   6.166   2.831 -0.3904 -1.5236 -0.0377
  708TIP3    H223760   1.897   6.296   2.771  1.8798 -0.6465 -0.0809
  709TIP3   OH223761   5.606   6.169   0.720 -0.0196 -0.1210  0.3286
  709TIP3    H123762   5.537   6.231   0.695 -0.3922 -0.2544  1.0032
  709TIP3    H223763   5.595   6.157   0.814 -0.2745 -1.6083  0.1275
  710TIP3   OH223764   2.089   3.392   1.865  0.5761 -0.2127 -0.3789
  710TIP3    H123765   2.008   3.351   1.837  0.4144  0.6848 -1.2834
  710TIP3    H223766   2.112   3.347   1.947  1.1277 -3.0297 -1.9659
  711TIP3   OH223767   6.584   2.100   2.289 -0.2080 -0.0993 -0.2817
  711TIP3    H123768   6.609   2.174   2.234  0.1826 -0.8661 -1.1534
  711TIP3    H223769   6.579   2.137   2.377 -0.0188  0.9613 -0.6960
  712TIP3   OH223770   2.853   5.845   2.921 -0.3287  0.2991  0.3811
  712TIP3    H123771   2.891   5.789   2.989 -0.6004  0.2029  0.4536
  712TIP3    H223772   2.774   5.799   2.893  1.1678 -1.0753 -1.9476
  713TIP3   OH223773   4.463   6.560   0.883 -0.0098 -0.0812  0.0270
  713TIP3    H123774   4.395   6.539   0.819  1.1404  1.1196 -1.6674
  713TIP3    H223775   4.519   6.482   0.884  1.1153  0.6235 -2.0405
  714TIP3   OH223776   3.626   4.522   3.726 -0.2567 -0.0851 -0.2090
  714TIP3    H123777   3.697   4.477   3.680  0.1248  0.7930 -0.5184
  714TIP3    H223778   3.614   4.472   3.806  2.8538  1.3928  1.3750
  715TIP3   OH223779   2.376   2.237   3.600 -0.0230  0.8157  0.2598
  715TIP3    H123780   2.368   2.142   3.595  2.4337  0.6307 -1.7600
  715TIP3    H223781   2.316   2.269   3.532  0.7928  0.5660 -0.5935
  716TIP3   OH223782   5.714   0.832   3.054  0.2201 -0.0974  0.0811
  716TIP3    H123783   5.635   0.880   3.079  0.3731  0.6948 -0.8738
  716TIP3    H223784   5.744   0.789   3.134 -1.2577 -0.5281  0.4239
  717TIP3   OH223785   3.085   4.749   2.831 -0.0863 -0.0429  0.2657
  717TIP3    H123786   3.013   4.802   2.867  0.1525 -0.6022  1.5950
  717TIP3    H223787   3.155   4.812   2.816 -0.6055  0.3961 -0.4072
  718TIP3   OH223788   0.108   0.716   3.751 -0.4757  0.2383  0.5110
  718TIP3    H123789   0.116   0.782   3.820  0.1771  0.1824  0.4935
  718TIP3    H223790   0.044   0.754   3.690  1.6379  1.9974 -0.7366
  719TIP3   OH223791   0.240   5.147   2.139 -0.2583  0.0925 -0.1930
  719TIP3    H123792   0.245   5.181   2.228 -2.9800 -2.1014  0.9140
  719TIP3    H223793   0.189   5.213   2.091 -3.4722 -1.0692  1.3462
  720TIP3   OH223794   3.495   5.694   1.715  0.2155 -0.6879 -0.2574
  720TIP3    H123795   3.497   5.625   1.649 -1.7922 -1.2621  0.2101
  720TIP3    H223796   3.402   5.705   1.735  0.7454 -0.4192  2.3578
  721TIP3   OH223797   5.357   5.811   2.383 -0.4335 -0.5469  0.2604
  721TIP3    H123798   5.387   5.776   2.299 -0.5994 -0.8296  0.3148
  721TIP3    H223799   5.269   5.774   2.394 -0.8799  0.3993  0.0203
  722TIP3   OH223800   0.148   3.182   3.117  0.1472 -0.1552  0.1732
  722TIP3    H123801   0.123   3.159   3.027 -0.6728  0.8594  0.1197
  722TIP3    H223802   0.176   3.273   3.112  1.7928 -0.6062  0.6581
  723TIP3   OH223803   5.791   3.946   3.635 -0.3365 -0.0014  0.2031
  723TIP3    H123804   5.843   4.009   3.684  0.9707 -1.0090  0.1471
  723TIP3    H223805   5.841   3.931   3.555 -1.7731  0.5942 -0.8630
  724TIP3   OH223806   0.523   5.829   1.112 -0.1711  0.2640 -0.0335
  724TIP3    H123807   0.471   5.833   1.032  0.0610 -1.1133 -0.2749
  724TIP3    H223808   0.612   5.850   1.084 -0.1528  0.1367 -0.0697
  725TIP3   OH223809   3.898   5.849   8.586 -0.2350  0.8418 -0.2753
  725TIP3    H123810   3.884   5.767   8.633  2.1035  0.0697 -0.7566
  725TIP3    H223811   3.902   5.823   8.494 -0.4939  1.6741 -0.5346
  726TIP3   OH223812   4.040   5.138   0.781  0.5392 -0.1732  0.8893
  726TIP3    H123813   3.969   5.147   0.845  0.2672  0.3010  0.5251
  726TIP3    H223814   4.016   5.062   0.728 -0.5835  0.9831 -0.3279
  727TIP3   OH223815   1.922   3.571   8.638  0.4281 -0.1147 -0.7431
  727TIP3    H123816   1.940   3.664   8.629 -1.9600  0.8005  2.3157
  727TIP3    H223817   2.008   3.532   8.656  1.0394  2.2331  2.2511
  728TIP3   OH223818   6.165   5.887   0.957 -0.1402 -0.2260 -0.0348
  728TIP3    H123819   6.112   5.836   0.896  1.8430 -2.2567 -0.1785
  728TIP3    H223820   6.252   5.889   0.917  1.0221 -0.9464  2.2950
  729TIP3   OH223821   4.124   3.410   1.561  0.0672  0.1799 -0.6389
  729TIP3    H123822   4.167   3.354   1.627 -1.5852 -0.0437  0.3014
  729TIP3    H223823   4.113   3.353   1.485 -0.5405 -0.4362 -0.1019
  730TIP3   OH223824   0.304   1.798   1.909 -0.1507  0.0538 -0.2514
  730TIP3    H123825   0.348   1.737   1.968 -1.8618 -0.0892  0.9477
  730TIP3    H223826   0.347   1.785   1.824  2.7594  0.6589  1.0132
  731TIP3   OH223827   5.004   5.006   1.863  0.2804 -0.6259  0.1000
  731TIP3    H123828   4.954   5.033   1.940  2.0673  0.1639  1.0456
  731TIP3    H223829   5.025   4.914   1.880  1.7515 -0.1215  1.2307
  732TIP3   OH223830   4.098   1.785   1.751 -0.0931  0.6224 -0.1565
  732TIP3    H123831   4.176   1.741   1.718  0.2678  0.9142  0.2956
  732TIP3    H223832   4.130   1.840   1.823 -0.6328  1.1295 -0.2960
  733TIP3   OH223833   4.674   4.573   1.203  0.3358 -0.0668 -0.0218
  733TIP3    H123834   4.695   4.504   1.141  0.0137  0.2356 -0.4723
  733TIP3    H223835   4.744   4.638   1.191  0.1540  0.0929 -0.2254
  734TIP3   OH223836   2.498   1.802   3.675  0.2144  0.2051 -0.0516
  734TIP3    H123837   2.417   1.841   3.642  0.0357  0.9978  1.2653
  734TIP3    H223838   2.469   1.734   3.736  0.5385  0.1237  0.0140
  735TIP3   OH223839   2.754   2.934   1.099 -0.6966  0.0122 -0.2284
  735TIP3    H123840   2.698   2.933   1.176 -1.3094 -0.1584 -0.6689
  735TIP3    H223841   2.693   2.938   1.025 -0.1161  2.3666 -0.6595
  736TIP3   OH223842   3.904   3.810   0.371 -0.5940  0.5662  0.4871
  736TIP3    H123843   3.889   3.848   0.285 -0.4746  0.2450  0.3210
  736TIP3    H223844   3.913   3.885   0.430  0.0302  0.8021  0.0964
  737TIP3   OH223845   5.518   6.469   4.015 -0.4741  0.3603  0.2764
  737TIP3    H123846   5.515   6.389   4.068  0.8637  1.1956  1.7002
  737TIP3    H223847   5.430   6.475   3.977 -0.3972 -2.1701 -0.5402
  738TIP3   OH223848   5.073   1.979   8.401  0.1955 -0.3346 -0.1563
  738TIP3    H123849   5.035   1.892   8.395  1.6317 -0.9673 -0.4135
  738TIP3    H223850   5.007   2.037   8.362 -0.9151 -1.2358  0.3280
  739TIP3   OH223851   4.009   1.371   1.265  0.2851  0.3191  0.1111
  739TIP3    H123852   4.065   1.370   1.187 -0.3419  1.9216 -0.4052
  739TIP3    H223853   4.030   1.454   1.308 -3.1869  2.1239 -1.2999
  740TIP3   OH223854   2.408   6.267   2.894  0.8492 -0.0212 -0.4782
  740TIP3    H123855   2.497   6.239   2.870  0.4148 -0.3933 -1.7073
  740TIP3    H223856   2.351   6.217   2.836 -0.2219 -0.3351  0.7952
  741TIP3   OH223857   2.708   5.763   8.877  0.0027 -0.3091 -0.0360
  741TIP3    H123858   2.773   5.832   8.867 -1.6926  1.2536 -0.8177
  741TIP3    H223859   2.687   5.737   8.788 -1.2674  0.0352  0.1489
  742TIP3   OH223860   1.548   2.857   8.762  0.3240 -0.5320 -0.2824
  742TIP3    H123861   1.546   2.902   8.846  0.6137 -2.4238  0.7986
  742TIP3    H223862   1.612   2.905   8.710  0.6031  0.2898  0.7842
  743TIP3   OH223863   2.151   1.205   2.238  0.0718  0.5133 -0.0306
  743TIP3    H123864   2.135   1.160   2.155  1.5453  1.2267 -0.7277
  743TIP3    H223865   2.114   1.146   2.304  1.4126 -1.4861 -0.9454
  744TIP3   OH223866   4.246   2.333   0.820  0.0760  0.3636  0.0382
  744TIP3    H123867   4.252   2.416   0.772  1.2597 -0.2835 -0.9783
  744TIP3    H223868   4.330   2.326   0.865 -0.2620  0.0023  0.6232
  745TIP3   OH223869   2.305   2.613   3.665  0.2269  0.6950 -0.0707
  745TIP3    H123870   2.310   2.530   3.712  1.5154  0.9576  0.2963
  745TIP3    H223871   2.264   2.674   3.727  1.7678  0.9972  0.6930
  746TIP3   OH223872   1.671   3.935   0.604  0.0608 -0.4298 -0.1038
  746TIP3    H123873   1.594   3.936   0.548 -1.3481 -1.5324  1.6839
  746TIP3    H223874   1.732   3.875   0.561  0.1907  0.8434 -1.7954
  747TIP3   OH223875   2.334   0.520   8.859 -0.2462  0.3934 -0.1899
  747TIP3    H123876   2.338   0.559   8.947  1.3294 -0.9846  0.4129
  747TIP3    H223877   2.412   0.555   8.814 -0.2675 -0.0035 -0.5375
  748TIP3   OH223878   5.100   1.239   1.449 -0.2692  0.1744 -0.1312
  748TIP3    H123879   5.042   1.202   1.382  0.4324 -0.0207 -0.6392
  748TIP3    H223880   5.186   1.242   1.407  0.2362 -0.2151  0.8635
  749TIP3   OH223881   6.748   4.337   3.062 -0.1469  0.3232  0.0716
  749TIP3    H123882   6.727   4.388   3.140 -1.5331  0.6335 -0.4615
  749TIP3    H223883   6.694   4.258   3.070  0.6431 -0.2279  0.0251
  750TIP3   OH223884   1.865   5.923   1.636  0.1144  0.6766  0.2189
  750TIP3    H123885   1.807   5.973   1.693  0.4360  2.4056 -0.8826
  750TIP3    H223886   1.864   5.971   1.553  1.6422 -0.3107 -0.4238
  751TIP3   OH223887   3.471   6.751   3.051  0.3622  0.1381  0.0957
  751TIP3    H123888   3.453   6.817   3.117  2.3674 -1.7200  2.7215
  751TIP3    H223889   3.563   6.764   3.029  1.1531 -2.3134  1.5349
  752TIP3   OH223890   0.367   6.328   8.844  0.8008 -0.5640  0.3755
  752TIP3    H123891   0.461   6.317   8.860  1.2748  1.0962 -0.8990
  752TIP3    H223892   0.363   6.393   8.774 -1.3075 -0.9718  0.0631
  753TIP3   OH223893   5.166   3.192   2.885  0.0614  0.1626  0.1772
  753TIP3    H123894   5.178   3.267   2.943  0.0799 -0.5860  1.1882
  753TIP3    H223895   5.252   3.149   2.883  0.1524  0.3685 -0.6929
  754TIP3   OH223896   3.448   2.831   2.274 -0.3191  0.0384  0.1960
  754TIP3    H123897   3.494   2.750   2.251 -0.5178  0.0327 -0.1836
  754TIP3    H223898   3.424   2.819   2.366  0.4569  0.0484  0.4076
  755TIP3   OH223899   2.691   2.367   2.077  0.4372 -0.0905  0.2886
  755TIP3    H123900   2.739   2.439   2.036  0.3106  1.2598  2.4098
  755TIP3    H223901   2.651   2.405   2.154 -0.5434 -2.2071  0.8980
  756TIP3   OH223902   3.979   4.723   2.950 -0.1498  0.2926 -0.1163
  756TIP3    H123903   3.960   4.652   2.888  0.2262 -0.1672  0.2847
  756TIP3    H223904   3.893   4.757   2.976 -0.2956  0.9665 -1.4231
  757TIP3   OH223905   2.068   5.743   1.542  0.3772  0.4151  0.5213
  757TIP3    H123906   2.006   5.812   1.567 -1.2897 -1.3317  1.4270
  757TIP3    H223907   2.023   5.693   1.475  0.4872 -1.2846  1.6600
  758TIP3   OH223908   2.120   4.363   2.221  0.1495 -0.8568 -0.3634
  758TIP3    H123909   2.037   4.341   2.179  0.4009 -1.5124 -0.5450
  758TIP3    H223910   2.180   4.294   2.192  1.3581  0.8031 -2.0586
  759TIP3   OH223911   2.544   0.130   8.893 -0.2412 -0.1931 -0.2294
  759TIP3    H123912   2.517   0.115   8.802  0.9503 -0.1865 -0.6030
  759TIP3    H223913   2.623   0.078   8.903 -0.9756 -1.0826  1.1661
  760TIP3   OH223914   4.525   0.341   1.541 -0.3404  0.6206  0.0709
  760TIP3    H123915   4.450   0.381   1.585 -1.0197 -1.1274  0.5918
  760TIP3    H223916   4.507   0.354   1.447 -1.3716  0.1338  0.1832
  761TIP3   OH223917   6.733   3.125   8.526 -0.1208 -0.8407  0.1609
  761TIP3    H123918   6.676   3.056   8.492 -1.7128  0.2251  0.5558
  761TIP3    H223919   6.702   3.205   8.484  1.5172 -0.2876 -0.0925
  762TIP3   OH223920   0.919   6.455   2.162  0.0765  0.3196  0.1353
  762TIP3    H123921   0.878   6.471   2.247  0.7805  1.6548  0.2473
  762TIP3    H223922   0.988   6.391   2.181 -0.6500 -0.4274  0.3027
  763TIP3   OH223923   4.222   5.470   1.749 -0.5681  0.3525  0.0202
  763TIP3    H123924   4.162   5.501   1.681 -1.1565  1.3582  0.9801
  763TIP3    H223925   4.174   5.400   1.793  0.9212 -2.4329 -2.4282
  764TIP3   OH223926   2.123   3.295   8.580  0.5405 -0.7365  0.3939
  764TIP3    H123927   2.135   3.261   8.669 -1.8221 -0.0933  1.0083
  764TIP3    H223928   2.035   3.268   8.555  0.0683  1.5104 -0.6213
  765TIP3   OH223929   6.648   4.787   0.537  0.1047  0.1657 -0.6227
  765TIP3    H123930   6.703   4.863   0.559  0.2104 -0.1573  0.2750
  765TIP3    H223931   6.710   4.722   0.503 -0.1869  1.0472 -3.0449
  766TIP3   OH223932   6.115   1.981   0.345  0.2140 -0.0201 -0.1126
  766TIP3    H123933   6.060   2.001   0.269 -0.1654  1.1360  0.4505
  766TIP3    H223934   6.057   1.933   0.404 -0.1887  1.0663  0.4147
  767TIP3   OH223935   2.750   2.306   0.376  0.6875  0.6500 -0.0337
  767TIP3    H123936   2.752   2.313   0.472  1.6170 -2.6058  0.2911
  767TIP3    H223937   2.678   2.246   0.358  2.3139 -1.0503 -1.1303
  768TIP3   OH223938   1.126   2.036   3.413  0.2234 -0.3274  0.6260
  768TIP3    H123939   1.133   2.130   3.394  1.9543 -0.1781  1.8272
  768TIP3    H223940   1.127   1.995   3.327  0.4199  0.7003  0.1181
  769TIP3   OH223941   5.376   1.008   8.677  0.3130 -0.0699  0.0718
  769TIP3    H123942   5.321   0.934   8.651 -0.3424  0.0028  1.1708
  769TIP3    H223943   5.371   1.069   8.603 -0.0275 -0.6386 -0.3843
  770TIP3   OH223944   4.172   1.755   8.793 -0.4842  0.0896 -0.0245
  770TIP3    H123945   4.232   1.745   8.720 -0.8769 -2.0294 -0.1397
  770TIP3    H223946   4.228   1.772   8.869 -0.1258  3.0697 -0.8675
  771TIP3   OH223947   6.467   1.933   3.317  0.3625 -0.0786  0.5734
  771TIP3    H123948   6.446   1.842   3.336 -0.1350  0.2873  1.9596
  771TIP3    H223949   6.553   1.930   3.275 -0.4615 -1.2943 -1.1018
  772TIP3   OH223950   1.756   2.043   1.612 -0.7897 -0.2445  0.3804
  772TIP3    H123951   1.710   1.970   1.570 -0.1545 -0.1265 -0.5557
  772TIP3    H223952   1.687   2.101   1.644 -1.2923 -1.0495  0.7657
  773TIP3   OH223953   3.873   0.503   1.271  0.3066 -0.2182 -0.8844
  773TIP3    H123954   3.948   0.465   1.317  0.3591 -1.4278 -1.9332
  773TIP3    H223955   3.812   0.528   1.340  1.3002 -0.0166 -0.0604
  774TIP3   OH223956   6.131   6.217   8.729  0.6043 -0.2372 -0.0544
  774TIP3    H123957   6.191   6.208   8.655 -0.0542 -0.5285 -0.5694
  774TIP3    H223958   6.086   6.132   8.734  1.3255 -0.5724  1.2994
  775TIP3   OH223959   6.705   1.373   1.195 -0.2708 -0.4222 -0.0609
  775TIP3    H123960   6.775   1.395   1.133 -0.2576 -0.5729 -0.0987
  775TIP3    H223961   6.751   1.331   1.268 -0.3259 -0.5417 -0.0962
  776TIP3   OH223962   0.657   3.732   2.757  0.1110 -0.1908  0.2588
  776TIP3    H123963   0.710   3.654   2.742  3.1009  1.9491 -1.4700
  776TIP3    H223964   0.580   3.720   2.701  0.7608 -1.6740 -0.3495
  777TIP3   OH223965   0.539   5.779   3.779  0.4263 -0.0276  0.2080
  777TIP3    H123966   0.493   5.695   3.769 -1.8097  1.2442 -1.1370
  777TIP3    H223967   0.535   5.798   3.872 -0.2163 -0.8066  0.3515
  778TIP3   OH223968   5.281   2.292   3.373  0.6436 -0.2001 -0.2582
  778TIP3    H123969   5.241   2.348   3.306  0.5983 -0.1535 -0.1926
  778TIP3    H223970   5.207   2.262   3.426  0.5706 -0.9908 -0.7870
  779TIP3   OH223971   3.045   1.053   0.626  0.0165  0.0189 -0.1095
  779TIP3    H123972   3.080   1.137   0.654 -1.7539  1.2490 -1.3132
  779TIP3    H223973   2.983   1.028   0.695 -0.0870  0.1486 -0.1543
  780TIP3   OH223974   0.900   2.686   1.919  0.1227  0.0117 -0.3588
  780TIP3    H123975   0.840   2.629   1.871  0.0955  0.5566 -0.9836
  780TIP3    H223976   0.910   2.763   1.863  0.1439  0.6327  0.4748
  781TIP3   OH223977   0.877   0.923   4.396 -0.1195  0.0479 -0.0614
  781TIP3    H123978   0.843   0.927   4.306 -3.1112  2.1490  0.9848
  781TIP3    H223979   0.860   0.833   4.424  0.5144 -0.5225 -1.4458
  782TIP3   OH223980   6.318   4.803   8.565  0.0145  0.7380  0.1936
  782TIP3    H123981   6.411   4.819   8.552 -0.2519  0.8386 -1.8845
  782TIP3    H223982   6.306   4.810   8.660  1.7454  2.8075  0.3502
  783TIP3   OH223983   6.069   5.931   8.628  0.1955 -0.3097 -0.2860
  783TIP3    H123984   5.992   5.902   8.677 -0.1816  0.8793 -0.1573
  783TIP3    H223985   6.048   5.908   8.537  0.7266 -2.1516  0.0208
  784TIP3   OH223986   4.613   2.735   3.327 -0.1261 -0.7443  0.3021
  784TIP3    H123987   4.626   2.688   3.244 -0.1027  1.7848 -1.2455
  784TIP3    H223988   4.701   2.763   3.352 -0.2275 -0.8373  0.7702
  785TIP3   OH223989   3.434   1.002   0.788  0.2721 -0.1280  0.5449
  785TIP3    H123990   3.367   0.936   0.770 -2.4988  2.4437  0.6568
  785TIP3    H223991   3.458   1.036   0.702  0.7504 -0.3971  0.5699
  786TIP3   OH223992   3.063   5.708   2.718  0.3074  0.0455 -0.4462
  786TIP3    H123993   2.970   5.705   2.695 -0.4814 -0.1274  2.3940
  786TIP3    H223994   3.092   5.617   2.713 -0.4353 -0.3233  1.2055
  787TIP3   OH223995   3.209   0.874   0.934  0.4297 -0.3667  0.1877
  787TIP3    H123996   3.259   0.797   0.960 -0.4268 -0.6977  0.8987
  787TIP3    H223997   3.131   0.839   0.891 -0.3960  0.0547  1.2896
  788TIP3   OH223998   5.628   6.576   3.269  0.1000 -0.0220  0.0286
  788TIP3    H123999   5.717   6.546   3.289 -0.1572 -0.0354  1.2240
  788TIP3    H224000   5.641   6.647   3.206  0.8952 -0.6420 -0.5316
  789TIP3   OH224001   5.820   3.752   0.747 -0.3763  0.1678 -0.1368
  789TIP3    H124002   5.910   3.749   0.779 -0.2543 -0.7548 -0.5306
  789TIP3    H224003   5.827   3.792   0.660 -0.6443  2.1982  0.7392
  790TIP3   OH224004   3.789   6.505   0.706  0.2627  0.1744 -0.2630
  790TIP3    H124005   3.737   6.524   0.628  0.9008  1.4106 -0.4100
  790TIP3    H224006   3.724   6.483   0.773 -0.3083 -0.5274 -1.0204
  791TIP3   OH224007   4.704   3.698   3.002 -0.0507 -0.0802  0.0326
  791TIP3    H124008   4.635   3.708   3.067  1.4550 -0.9068  1.8721
  791TIP3    H224009   4.727   3.788   2.977 -0.6078  0.2525  0.6907
  792TIP3   OH224010   5.446   4.663   1.913  0.3429 -0.0974  0.3465
  792TIP3    H124011   5.376   4.603   1.942  0.1786 -0.3344 -0.5051
  792TIP3    H224012   5.481   4.622   1.834 -0.4187  1.3986 -0.8156
  793TIP3   OH224013   1.162   4.725   0.515 -0.1428 -0.2848 -0.1413
  793TIP3    H124014   1.080   4.763   0.482 -0.8092  0.4880  2.2248
  793TIP3    H224015   1.134   4.649   0.566  0.5683  0.1168  0.8688
  794TIP3   OH224016   2.924   3.582   8.092 -0.4599 -0.3696 -0.3751
  794TIP3    H124017   2.831   3.604   8.087 -0.4441  0.6295  2.2593
  794TIP3    H224018   2.927   3.488   8.079 -1.7121 -0.3042 -1.3858
  795TIP3   OH224019   4.762   3.535   1.354  0.0951 -0.3328 -0.2817
  795TIP3    H124020   4.758   3.629   1.369 -0.4886 -0.3409 -0.3801
  795TIP3    H224021   4.855   3.516   1.343  0.3134  0.0802  0.7465
  796TIP3   OH224022   2.203   0.915   1.179  0.4323 -0.2809  0.0590
  796TIP3    H124023   2.296   0.938   1.177  0.6026 -0.6497  1.8009
  796TIP3    H224024   2.198   0.841   1.239 -0.8719 -0.9530 -0.8351
  797TIP3   OH224025   1.669   6.765   1.990  0.6861 -0.0540  0.2886
  797TIP3    H124026   1.615   6.761   2.069  1.0520 -1.9052  0.4718
  797TIP3    H224027   1.614   6.728   1.921  0.9436  0.0613  0.0171
  798TIP3   OH224028   2.177   3.442   8.328 -0.6097 -0.1374 -0.0453
  798TIP3    H124029   2.171   3.380   8.400  0.3752  1.3325  1.3673
  798TIP3    H224030   2.263   3.482   8.337 -0.4460  0.0913 -2.0628
  799TIP3   OH224031   0.943   5.167   8.386  0.4566 -0.0024  0.2094
  799TIP3    H124032   0.903   5.141   8.303  0.0521 -2.2562  1.0606
  799TIP3    H224033   0.872   5.207   8.436  0.6213  1.0413 -0.3547
  800TIP3   OH224034   0.531   6.438   0.791 -0.2220  0.2626 -0.3588
  800TIP3    H124035   0.570   6.358   0.826 -0.5951 -0.6711 -1.9607
  800TIP3    H224036   0.581   6.509   0.832 -0.6525 -0.6948  2.0375
  801TIP3   OH224037   4.929   3.060   2.401 -0.2225 -0.8501  0.3637
  801TIP3    H124038   4.979   2.978   2.401 -0.0755 -0.7751 -0.6028
  801TIP3    H224039   4.995   3.128   2.407 -0.2280 -0.7663 -0.3975
  802TIP3   OH224040   1.480   3.592   0.407  0.0432 -0.2662  0.2466
  802TIP3    H124041   1.523   3.546   0.334  0.1426  0.2048 -0.0004
  802TIP3    H224042   1.402   3.541   0.425 -0.5494  0.1985 -0.9191
  803TIP3   OH224043   0.351   4.760   0.437  0.3340  0.4444  0.0922
  803TIP3    H124044   0.315   4.720   0.358  0.6988  0.5812 -0.1468
  803TIP3    H224045   0.297   4.726   0.508  1.3708 -1.4747  0.0493
  804TIP3   OH224046   1.999   1.764   1.043 -0.3694  0.3986 -0.3085
  804TIP3    H124047   1.938   1.767   0.969 -0.5938 -0.7298 -0.1833
  804TIP3    H224048   1.969   1.833   1.102 -1.1857  0.2237 -0.5108
  805TIP3   OH224049   1.908   1.442   0.186  0.1641 -0.4618  0.6637
  805TIP3    H124050   1.891   1.347   0.183 -1.4176 -0.2007 -0.2372
  805TIP3    H224051   1.975   1.456   0.119 -0.6247 -0.8049 -0.2427
  806TIP3   OH224052   5.887   2.613   3.065  0.1492  0.0816  0.0053
  806TIP3    H124053   5.918   2.526   3.040  4.4504  1.0732  1.0532
  806TIP3    H224054   5.859   2.604   3.155  0.5106 -0.2765  0.0860
  807TIP3   OH224055   4.925   4.701   1.547 -0.0767 -0.0410  0.1159
  807TIP3    H124056   4.851   4.759   1.564  0.0871 -0.1737  1.3373
  807TIP3    H224057   4.977   4.749   1.482  1.3690  2.4621  2.8600
  808TIP3   OH224058   0.635   5.369   0.747  0.1660  0.0653 -0.5474
  808TIP3    H124059   0.637   5.462   0.769  0.1628 -0.3196  1.3196
  808TIP3    H224060   0.607   5.327   0.828 -1.4501 -1.4448 -1.8251
  809TIP3   OH224061   4.488   5.960   0.082 -0.2489  0.0999 -0.3991
  809TIP3    H124062   4.491   5.994   0.172 -0.4223  0.4568 -0.5299
  809TIP3    H224063   4.472   5.866   0.094  0.1139  0.0776 -0.0449
  810TIP3   OH224064   1.804   2.909   3.472  0.5290 -0.3038  0.3757
  810TIP3    H124065   1.735   2.961   3.514  1.0459  0.1386  0.6814
  810TIP3    H224066   1.871   2.972   3.448  1.1087 -0.8081  0.6419
  811TIP3   OH224067   2.013   6.715   1.431 -0.2887  0.2725  0.1740
  811TIP3    H124068   2.077   6.656   1.472  1.5389 -0.9274 -3.9479
  811TIP3    H224069   2.024   6.798   1.478  0.3331 -1.3343  3.1367
  812TIP3   OH224070   1.337   2.230   2.610  0.1653  0.1229 -0.2487
  812TIP3    H124071   1.385   2.149   2.626 -1.8780 -1.2143 -0.4458
  812TIP3    H224072   1.364   2.289   2.680  0.8987 -1.1132  0.5427
  813TIP3   OH224073   0.149   1.193   1.303  0.3806 -0.4310 -0.2307
  813TIP3    H124074   0.171   1.253   1.231  0.3637  0.2030  0.2795
  813TIP3    H224075   0.214   1.123   1.297 -0.3050 -0.9937 -1.5549
  814TIP3   OH224076   4.733   1.413   1.470  0.3219  0.3069  0.0342
  814TIP3    H124077   4.744   1.441   1.379 -0.3060 -0.8526 -0.4194
  814TIP3    H224078   4.757   1.489   1.521  0.7700  0.9587 -1.1054
  815TIP3   OH224079   6.449   3.944   2.237 -0.2050 -0.1956  0.3317
  815TIP3    H124080   6.445   3.905   2.150 -0.6678  0.3828  0.0833
  815TIP3    H224081   6.492   4.028   2.223  1.0284 -0.7165  0.9019
  816TIP3   OH224082   0.497   3.166   3.119  0.5879  0.1596 -0.5566
  816TIP3    H124083   0.565   3.233   3.111 -0.4415  1.1803 -1.1615
  816TIP3    H224084   0.544   3.083   3.112  1.5952  0.8364 -2.7390
  817TIP3   OH224085   2.244   1.863   1.169 -0.3223  0.3321 -0.3894
  817TIP3    H124086   2.252   1.920   1.245 -1.5487 -0.0480  0.0496
  817TIP3    H224087   2.285   1.912   1.098 -0.2976  1.2500  0.2414
  818TIP3   OH224088   6.238   5.064   0.902  0.3187 -0.1892  0.5941
  818TIP3    H124089   6.298   5.112   0.844 -0.5597 -0.5389 -0.6398
  818TIP3    H224090   6.262   4.972   0.890 -0.2334 -0.3026  0.3733
  819TIP3   OH224091   5.680   2.157   2.798  0.1946  0.2024 -0.1372
  819TIP3    H124092   5.586   2.178   2.794 -0.1391 -1.2235 -0.3243
  819TIP3    H224093   5.705   2.176   2.888  0.1241  2.0749 -0.4628
  820TIP3   OH224094   6.037   0.386   2.134  0.4017  0.1367  0.0743
  820TIP3    H124095   5.970   0.397   2.066 -0.8675 -0.2296  1.2077
  820TIP3    H224096   5.989   0.348   2.208  1.9532 -0.4450  0.8152
  821TIP3   OH224097   5.426   4.936   1.955  0.1831 -0.0806 -0.2806
  821TIP3    H124098   5.387   4.851   1.934 -1.2026 -0.0196  1.7772
  821TIP3    H224099   5.519   4.925   1.936 -0.0934 -1.7859 -0.8170
  822TIP3   OH224100   4.843   5.344   3.364 -0.9732  0.3542  0.3039
  822TIP3    H124101   4.854   5.331   3.270  1.6520  2.5449  0.1935
  822TIP3    H224102   4.916   5.295   3.404 -1.6077  0.0707  1.1462
  823TIP3   OH224103   3.287   4.459   3.253 -0.2344  0.2980 -0.5714
  823TIP3    H124104   3.289   4.548   3.287  1.1640  0.8023 -1.9003
  823TIP3    H224105   3.259   4.468   3.162  1.1719 -0.4439 -1.1170
  824TIP3   OH224106   3.916   5.825   0.995 -0.0850  0.1806  0.3620
  824TIP3    H124107   3.846   5.879   1.031  0.0223 -0.3909  1.4685
  824TIP3    H224108   3.952   5.779   1.070  0.2401 -0.9592 -0.4584
  825TIP3   OH224109   1.192   4.216   1.097 -0.5206  0.0236 -0.3334
  825TIP3    H124110   1.130   4.143   1.100 -0.5461  0.0142 -1.0631
  825TIP3    H224111   1.193   4.249   1.187 -1.0914 -0.3836 -0.1671
  826TIP3   OH224112   6.174   2.507   8.275  0.7710 -0.0394 -0.2643
  826TIP3    H124113   6.148   2.599   8.268  0.6141 -0.2165 -3.0129
  826TIP3    H224114   6.269   2.510   8.292  1.2248  0.7199 -2.5593
  827TIP3   OH224115   2.978   0.872   2.426  0.5353 -0.2114  0.2132
  827TIP3    H124116   2.956   0.788   2.466  1.2695 -0.4279  0.1871
  827TIP3    H224117   3.036   0.849   2.353 -1.2733  0.1121 -1.4061
  828TIP3   OH224118   0.104   2.957   2.363  0.0353  0.0254  0.3677
  828TIP3    H124119   0.027   3.009   2.343 -0.1508 -0.3006  0.2278
  828TIP3    H224120   0.178   3.017   2.353 -0.2053  0.3553  0.5735
  829TIP3   OH224121   6.035   6.160   2.870 -0.3106 -0.0227  0.4069
  829TIP3    H124122   6.028   6.151   2.965 -1.3348 -1.3892  0.2336
  829TIP3    H224123   5.984   6.239   2.850 -0.7107 -0.1449  0.9212
  830TIP3   OH224124   3.441   2.882   3.245  0.3287 -0.5476 -0.1982
  830TIP3    H124125   3.359   2.883   3.196 -0.0258  2.7928  0.2814
  830TIP3    H224126   3.434   2.804   3.301 -1.0784 -2.0771 -2.3335
  831TIP3   OH224127   5.895   2.534   0.745 -0.6083 -0.4350  0.5463
  831TIP3    H124128   5.822   2.483   0.709 -2.5117  0.6206  2.6383
  831TIP3    H224129   5.872   2.625   0.727  0.3385 -0.0874  1.0184
  832TIP3   OH224130   3.976   1.188   1.471  0.0125  0.2082 -0.3114
  832TIP3    H124131   3.885   1.163   1.458  0.2160 -0.4551 -0.4782
  832TIP3    H224132   4.012   1.193   1.382  0.4070 -0.5646 -0.2044
  833TIP3   OH224133   5.027   1.768   2.098 -0.5189  1.0030  0.0198
  833TIP3    H124134   5.106   1.788   2.147 -0.3966  1.3567 -0.3246
  833TIP3    H224135   5.019   1.673   2.103 -1.0023  1.0918  1.5031
  834TIP3   OH224136   2.707   2.042   7.890  0.4285 -0.3122  0.3672
  834TIP3    H124137   2.634   1.995   7.929 -0.4618 -1.0024 -1.9535
  834TIP3    H224138   2.782   1.984   7.903  0.1974 -0.4427  1.1647
  835TIP3   OH224139   0.192   3.585   1.714 -0.0356  0.6845 -0.2755
  835TIP3    H124140   0.274   3.632   1.704  1.0187 -0.9099  0.5121
  835TIP3    H224141   0.159   3.612   1.799 -0.3984  1.3869 -0.6268
  836TIP3   OH224142   3.248   5.244   3.834 -0.2026 -0.1116  0.4435
  836TIP3    H124143   3.321   5.271   3.890 -0.8540  3.0395 -0.0084
  836TIP3    H224144   3.204   5.174   3.882  0.2039  1.3634  3.1271
  837TIP3   OH224145   3.325   5.486   3.274 -0.3164  0.4001  0.1947
  837TIP3    H124146   3.240   5.455   3.243 -0.6880  1.5109  0.0525
  837TIP3    H224147   3.343   5.564   3.221  1.4936 -0.6239 -0.8080
  838TIP3   OH224148   6.103   6.781   1.545 -0.3081  0.4430  0.7965
  838TIP3    H124149   6.096   6.687   1.527  0.5111  0.5280 -0.0123
  838TIP3    H224150   6.038   6.821   1.486  1.7927  0.6489 -1.5357
  839TIP3   OH224151   0.670   0.707   3.035 -0.0181  0.2276  0.2830
  839TIP3    H124152   0.631   0.697   3.122  0.6934 -1.5460  0.4508
  839TIP3    H224153   0.616   0.653   2.978  1.1530 -0.9152  0.2012
  840TIP3   OH224154   1.464   6.339   3.376 -0.1976 -0.5820  0.0177
  840TIP3    H124155   1.507   6.388   3.306 -1.5374  0.6791  0.0246
  840TIP3    H224156   1.521   6.263   3.391  1.2264  0.2417 -0.9523
  841TIP3   OH224157   5.114   0.778   1.713  0.2243  0.4297  0.1283
  841TIP3    H124158   5.173   0.850   1.691  0.6744  0.6666  1.8839
  841TIP3    H224159   5.158   0.734   1.786 -0.1781 -1.4697 -0.7169
  842TIP3   OH224160   4.837   3.815   1.425  0.1107  0.3481 -0.2051
  842TIP3    H124161   4.915   3.829   1.478 -0.0222 -0.9019  0.3627
  842TIP3    H224162   4.787   3.895   1.434  1.2109  1.0783 -0.3912
  843TIP3   OH224163   2.039   0.144   0.247  0.3495 -0.0792  0.5594
  843TIP3    H124164   2.128   0.114   0.263  0.2545 -1.5899 -1.5037
  843TIP3    H224165   2.019   0.116   0.158 -0.4782  4.4496 -0.9742
  844TIP3   OH224166   2.521   2.223   1.274 -0.3474  0.2370  0.1220
  844TIP3    H124167   2.474   2.226   1.191 -0.0606 -0.3615 -0.0668
  844TIP3    H224168   2.586   2.153   1.263 -2.4986 -2.2363  1.9825
  845TIP3   OH224169   5.440   5.720   1.832  0.4346 -0.0722  0.2896
  845TIP3    H124170   5.515   5.686   1.783  0.0314  0.4756 -0.7237
  845TIP3    H224171   5.366   5.714   1.771 -0.3252 -0.4521  1.2150
  846TIP3   OH224172   0.923   2.649   0.459 -0.5642  0.8560 -0.2694
  846TIP3    H124173   0.886   2.697   0.385 -1.0836  1.8793  0.6265
  846TIP3    H224174   0.987   2.709   0.497 -0.5965  0.5087  0.3530
  847TIP3   OH224175   1.897   1.923   3.103 -0.5055  0.0921  0.5574
  847TIP3    H124176   1.907   1.968   3.019 -1.3358 -1.0960 -0.2045
  847TIP3    H224177   1.900   1.830   3.081  1.5902 -0.3003  2.1367
  848TIP3   OH224178   2.324   4.720   2.010 -0.4218  0.0420 -0.0280
  848TIP3    H124179   2.383   4.727   1.934 -0.1521 -1.5000  0.0135
  848TIP3    H224180   2.271   4.642   1.992 -1.4935  0.6007  0.6125
  849TIP3   OH224181   1.218   3.800   0.037 -0.3168  0.7092  0.1846
  849TIP3    H124182   1.171   3.814   0.120 -0.5542  3.7546 -0.3471
  849TIP3    H224183   1.152   3.815  -0.030 -0.4777 -3.0344 -0.7464
  850TIP3   OH224184   6.794   0.416   0.642  0.2001  0.4731  0.1154
  850TIP3    H124185   6.705   0.386   0.620  0.2486 -1.2272  1.9008
  850TIP3    H224186   6.783   0.508   0.664 -1.6418 -0.1644  2.4254
  851TIP3   OH224187   4.976   3.184   0.033 -0.8872 -0.4337  0.1182
  851TIP3    H124188   4.886   3.208   0.054 -0.9022 -1.0299  0.7965
  851TIP3    H224189   4.970   3.091   0.009 -0.5164 -0.3548 -0.2944
  852TIP3   OH224190   1.808   6.619   1.304 -0.3929 -0.0233  1.1720
  852TIP3    H124191   1.888   6.662   1.333 -1.8394  1.8650  2.5998
  852TIP3    H224192   1.749   6.622   1.379 -1.8374 -1.3662  0.1816
  853TIP3   OH224193   3.887   1.694   8.660 -0.3429  0.0505 -0.0182
  853TIP3    H124194   3.874   1.687   8.565  0.5074  0.2810 -0.1606
  853TIP3    H224195   3.961   1.637   8.678 -0.3498  0.1960  0.4675
  854TIP3   OH224196   5.941   4.900   8.292 -0.4761 -0.3957  0.3815
  854TIP3    H124197   6.009   4.852   8.244 -0.3330 -0.1179  0.3023
  854TIP3    H224198   5.972   4.991   8.293  0.1548 -0.5896  2.0816
  855TIP3   OH224199   6.761   5.601   0.781 -0.1394 -0.0398  0.3053
  855TIP3    H124200   6.704   5.530   0.812  0.5740 -0.4585  0.6780
  855TIP3    H224201   6.738   5.611   0.688 -0.6546 -0.3565  0.3941
  856TIP3   OH224202   3.576   0.097   2.438  0.3863 -0.3591  0.6592
  856TIP3    H124203   3.555   0.191   2.442  0.0031 -0.4546  0.9827
  856TIP3    H224204   3.672   0.094   2.435  0.3814  0.1090 -1.6386
  857TIP3   OH224205   0.566   1.538   8.668 -0.2477  0.4563  0.2225
  857TIP3    H124206   0.561   1.449   8.702  0.0572  1.1821  2.3144
  857TIP3    H224207   0.648   1.540   8.618 -0.2969 -0.4610  0.0978
  858TIP3   OH224208   4.666   5.866   1.273 -0.6909  0.3825 -0.4189
  858TIP3    H124209   4.630   5.851   1.360 -1.4123 -1.1693 -0.9568
  858TIP3    H224210   4.626   5.948   1.245 -2.3232 -0.3016 -0.2127
  859TIP3   OH224211   4.613   0.162   3.343  0.1991 -0.1205 -0.1835
  859TIP3    H124212   4.640   0.253   3.351 -1.0103  0.2078  0.5916
  859TIP3    H224213   4.589   0.137   3.433  0.2094 -1.0912 -0.4460
  860TIP3   OH224214   4.172   4.066   3.782  0.1141 -0.2803  0.3354
  860TIP3    H124215   4.242   4.101   3.726 -0.1372  0.7831  0.6641
  860TIP3    H224216   4.102   4.131   3.776 -0.2977 -0.6433  1.1214
  861TIP3   OH224217   0.733   3.554   0.800 -0.2035  0.1469  0.2603
  861TIP3    H124218   0.702   3.511   0.880 -2.2189  0.5745 -0.2290
  861TIP3    H224219   0.785   3.628   0.830 -0.0190 -0.3351  1.1542
  862TIP3   OH224220   1.154   2.850   0.071 -1.0533 -0.2412  0.8070
  862TIP3    H124221   1.114   2.872  -0.014  0.6581 -1.7930 -0.4901
  862TIP3    H224222   1.090   2.795   0.114 -0.2049 -3.4195 -1.6047
  863TIP3   OH224223   4.230   3.217   2.719 -0.0750 -0.4816  0.3604
  863TIP3    H124224   4.253   3.212   2.626  0.5726  2.5036  0.2377
  863TIP3    H224225   4.186   3.134   2.738  1.2273 -1.8578 -2.1675
  864TIP3   OH224226   3.067   6.654   2.387 -0.1563 -0.0393 -0.0714
  864TIP3    H124227   3.117   6.674   2.466  0.5684  0.7508 -0.7006
  864TIP3    H224228   3.097   6.719   2.323 -2.3853  0.8237 -0.3344
  865TIP3   OH224229   3.827   4.430   3.172 -0.8149 -0.1407 -0.6047
  865TIP3    H124230   3.861   4.375   3.101  0.0460 -0.4452  0.0365
  865TIP3    H224231   3.876   4.403   3.249  0.5191  2.3581 -0.4982
  866TIP3   OH224232   4.417   0.305   2.370 -0.0491  0.4030  0.0560
  866TIP3    H124233   4.398   0.319   2.463 -1.5323  1.2316 -0.3502
  866TIP3    H224234   4.365   0.371   2.324 -1.4269 -1.6555 -1.5205
  867TIP3   OH224235   5.633   5.943   3.026 -0.0547  0.0493 -0.1584
  867TIP3    H124236   5.595   5.893   3.098  1.1837 -1.1324 -0.2847
  867TIP3    H224237   5.591   6.029   3.031  0.1928  0.0848  2.1103
  868TIP3   OH224238   0.850   0.351   3.536 -0.6479 -0.2660  0.0487
  868TIP3    H124239   0.764   0.365   3.495 -0.5361  1.6292  0.3923
  868TIP3    H224240   0.887   0.438   3.545  1.4237 -1.0603 -0.2539
  869TIP3   OH224241   3.944   3.464   2.578  0.0196 -0.5085  0.3495
  869TIP3    H124242   3.921   3.432   2.665  2.1105  0.0474  1.1744
  869TIP3    H224243   4.022   3.519   2.593 -0.4563  0.8091 -1.6721
  870TIP3   OH224244   5.295   4.607   8.874  0.1456  0.1987 -0.4157
  870TIP3    H124245   5.243   4.687   8.883  1.3147  1.0082 -0.5622
  870TIP3    H224246   5.355   4.609   8.949 -0.9182 -1.4209  0.5183
  871TIP3   OH224247   4.560   5.755   2.161  0.2798  0.4722  0.1718
  871TIP3    H124248   4.635   5.708   2.197  0.2474  0.5759  0.3738
  871TIP3    H224249   4.552   5.723   2.071 -0.5617 -0.9409  0.7079
  872TIP3   OH224250   1.631   1.870   0.310 -0.4761  0.2856  0.5191
  872TIP3    H124251   1.665   1.786   0.282 -0.2083  0.3260  0.7227
  872TIP3    H224252   1.693   1.935   0.277 -0.6798  0.4065  0.3639
  873TIP3   OH224253   1.162   4.483   2.034  0.1091 -0.3899  0.1179
  873TIP3    H124254   1.126   4.481   2.123 -1.1584  1.0048 -0.3330
  873TIP3    H224255   1.211   4.565   2.029 -1.5411  0.5869 -1.0627
  874TIP3   OH224256   5.326   2.216   0.070  0.2425 -0.2381  0.1908
  874TIP3    H124257   5.345   2.281   0.138  0.1487  1.2145 -1.1099
  874TIP3    H224258   5.411   2.188   0.038  0.2867  0.6889 -0.5382
  875TIP3   OH224259   5.649   3.125   4.040 -0.5136  0.1385  0.1006
  875TIP3    H124260   5.726   3.180   4.056 -0.3940 -0.2535  0.9588
  875TIP3    H224261   5.681   3.035   4.054 -1.0012 -0.0660 -0.0733
  876TIP3   OH224262   6.793   1.849   1.170  0.1108  0.0730 -0.5078
  876TIP3    H124263   6.819   1.917   1.108 -2.2713  2.7173  1.1644
  876TIP3    H224264   6.709   1.817   1.136 -0.1332 -0.0295  0.1800
  877TIP3   OH224265   0.344   3.150   8.330  0.0414 -0.0060  0.1543
  877TIP3    H124266   0.423   3.161   8.383  1.7021 -0.7541 -2.0141
  877TIP3    H224267   0.362   3.197   8.249 -0.7078 -2.1472 -1.3605
  878TIP3   OH224268   6.374   4.787   0.943  0.5562 -0.5332  0.4408
  878TIP3    H124269   6.415   4.732   0.876 -0.4000  0.4849 -1.0617
  878TIP3    H224270   6.308   4.732   0.984  0.4054 -0.8721 -0.2399
  879TIP3   OH224271   2.686   1.665   2.120  0.9030 -0.3117  0.3178
  879TIP3    H124272   2.747   1.659   2.047  0.2213  1.2414 -0.4175
  879TIP3    H224273   2.739   1.642   2.197  1.7330 -1.5457 -0.5724
  880TIP3   OH224274   0.838   4.627   2.187 -0.0343 -0.8488 -0.1456
  880TIP3    H124275   0.749   4.594   2.199 -1.0226  1.8058  0.5989
  880TIP3    H224276   0.884   4.603   2.268 -0.6580 -0.6444  0.2804
  881TIP3   OH224277   4.846   4.114   0.977 -0.0560 -0.2673  0.3864
  881TIP3    H124278   4.931   4.083   0.946 -0.2482 -0.5913  0.1861
  881TIP3    H224279   4.821   4.052   1.045 -0.9503 -1.2141 -0.7711
  882TIP3   OH224280   0.698   4.937   0.790  0.1031 -0.1117  0.4228
  882TIP3    H124281   0.673   4.973   0.876 -0.7110  0.1610  0.0879
  882TIP3    H224282   0.654   4.995   0.727  1.6209  0.3848 -0.2209
  883TIP3   OH224283   0.744   3.255   3.069 -0.4803  0.8015 -0.0648
  883TIP3    H124284   0.824   3.208   3.092 -0.7212  0.1433 -0.5557
  883TIP3    H224285   0.764   3.296   2.985 -1.3532 -1.1314 -1.2750
  884TIP3   OH224286   5.846   1.795   1.232  0.8308  0.2699 -0.0339
  884TIP3    H124287   5.761   1.835   1.213 -0.1770 -0.3965  2.6150
  884TIP3    H224288   5.904   1.869   1.252  0.6361  0.6818 -0.9696
  885TIP3   OH224289   3.728   2.359   8.870 -0.1467  0.3243 -0.1305
  885TIP3    H124290   3.638   2.392   8.878 -0.7115 -1.2388  0.3172
  885TIP3    H224291   3.758   2.350   8.960  0.2835  0.3437 -0.2700
  886TIP3   OH224292   1.949   5.718   3.117  1.0771 -0.0474 -0.0256
  886TIP3    H124293   2.024   5.773   3.140  0.1575  1.0762  0.3938
  886TIP3    H224294   1.879   5.780   3.099 -0.4617 -1.1063  1.9965
  887TIP3   OH224295   3.838   3.107   3.331  0.8126 -0.4127 -0.2340
  887TIP3    H124296   3.768   3.063   3.282  0.5657 -0.1954 -0.0832
  887TIP3    H224297   3.902   3.038   3.349  0.3169 -0.7670  0.2091
  888TIP3   OH224298   2.419   0.136   4.321  0.0941  0.1279  0.0067
  888TIP3    H124299   2.449   0.202   4.384 -1.6919  2.5997 -1.5558
  888TIP3    H224300   2.470   0.153   4.242  0.3284 -1.0878 -0.1326
  889TIP3   OH224301   3.618   6.532   0.497 -0.1140  0.0942 -0.2047
  889TIP3    H124302   3.611   6.537   0.402 -0.7303 -0.7948 -0.2112
  889TIP3    H224303   3.545   6.477   0.524  0.2250  0.0975  0.7599
  890TIP3   OH224304   0.623   6.320   3.930  0.3298  0.1502  0.4620
  890TIP3    H124305   0.610   6.414   3.917  0.5062 -0.1354 -2.4716
  890TIP3    H224306   0.701   6.299   3.878 -1.0395 -1.9580 -0.9272
  891TIP3   OH224307   1.508   6.115   2.972 -0.0040  0.6740 -0.7547
  891TIP3    H124308   1.579   6.153   3.022 -1.2456 -0.7510  2.3007
  891TIP3    H224309   1.442   6.185   2.968  0.3978  1.0422 -1.1203
  892TIP3   OH224310   4.075   0.244   3.172  0.3350 -0.0510 -0.5268
  892TIP3    H124311   4.127   0.320   3.197 -1.3506  0.6007  1.3061
  892TIP3    H224312   3.988   0.279   3.153 -0.4092 -1.4673  0.0617
  893TIP3   OH224313   4.381   1.782   8.180  0.3469 -0.3120  0.0199
  893TIP3    H124314   4.363   1.744   8.094  1.7621 -1.7618  0.3241
  893TIP3    H224315   4.352   1.716   8.243  1.1332 -0.1018  0.6163
  894TIP3   OH224316   2.314   2.412   1.670  0.5377  0.4556 -0.0196
  894TIP3    H124317   2.260   2.436   1.745  1.5150  1.5673  0.3561
  894TIP3    H224318   2.404   2.416   1.703  0.9802  1.0007 -1.2524
  895TIP3   OH224319   4.769   4.753   3.635 -0.3530 -0.6034  0.4277
  895TIP3    H124320   4.768   4.832   3.688 -0.9783 -0.1605 -0.2294
  895TIP3    H224321   4.684   4.712   3.652 -0.8930 -0.0436 -0.8217
  896TIP3   OH224322   5.440   6.291   2.263  0.6903 -0.4567 -0.0227
  896TIP3    H124323   5.356   6.289   2.216  0.3736  0.9618  0.4385
  896TIP3    H224324   5.436   6.216   2.322  0.3203 -1.1872 -0.9609
  897TIP3   OH224325   6.395   4.176   1.965 -0.2074 -0.2606 -0.4912
  897TIP3    H124326   6.307   4.211   1.982  0.7532  1.5115  1.1809
  897TIP3    H224327   6.438   4.178   2.050  2.5752  2.2068 -1.8148
  898TIP3   OH224328   3.951   6.656   1.839 -0.3355 -0.1148 -0.1596
  898TIP3    H124329   3.896   6.707   1.899  1.1763 -0.4510  1.5978
  898TIP3    H224330   4.030   6.710   1.827  0.0446 -0.7580 -0.5873
  899TIP3   OH224331   0.880   3.778   0.828  0.3442  0.8814  0.5427
  899TIP3    H124332   0.835   3.824   0.757 -1.2009  3.0926  2.7793
  899TIP3    H224333   0.968   3.815   0.828  1.5755 -1.6706 -2.2869
  900TIP3   OH224334   0.070   2.935   8.356  0.2005 -0.8106 -0.0773
  900TIP3    H124335   0.128   2.868   8.391 -0.5306 -1.2018  0.4211
  900TIP3    H224336   0.023   2.969   8.433 -1.2297 -1.4748 -0.6180
  901TIP3   OH224337   5.979   4.762   1.007  0.5074  0.3215 -0.2926
  901TIP3    H124338   5.943   4.768   0.918 -0.4050  0.0684  0.0537
  901TIP3    H224339   5.956   4.674   1.037  0.4342  0.5523  0.3507
  902TIP3   OH224340   3.432   3.597   2.384  0.0830 -0.5841 -0.1429
  902TIP3    H124341   3.475   3.516   2.355  0.6653 -0.1975 -0.3837
  902TIP3    H224342   3.434   3.591   2.479 -1.0193 -1.4370 -0.1566
  903TIP3   OH224343   1.940   6.775   2.449 -0.0518  0.6165 -0.0119
  903TIP3    H124344   1.926   6.703   2.510  0.0970  0.2745 -0.3854
  903TIP3    H224345   1.858   6.825   2.453 -0.8614 -0.5644 -1.0895
  904TIP3   OH224346   4.205   3.605   2.343 -0.0852  0.0249  0.1910
  904TIP3    H124347   4.264   3.537   2.376  0.2731  0.9018  1.4007
  904TIP3    H224348   4.188   3.579   2.252 -0.0885 -1.7619  0.6598
  905TIP3   OH224349   1.073   6.292   0.197 -0.1122 -0.4633 -0.7884
  905TIP3    H124350   1.019   6.233   0.146  0.6011  0.0293 -2.1617
  905TIP3    H224351   1.014   6.363   0.224 -1.2283 -2.1861  1.7229
  906TIP3   OH224352   0.322   2.145   2.140  0.2581  0.3748 -0.1424
  906TIP3    H124353   0.415   2.136   2.163  0.6853  2.1648 -1.0128
  906TIP3    H224354   0.275   2.128   2.221  1.1366 -3.0220 -0.1732
  907TIP3   OH224355   1.252   1.510   8.806 -0.1413  0.2037 -0.2330
  907TIP3    H124356   1.160   1.507   8.778 -0.7689 -4.2181  1.4893
  907TIP3    H224357   1.301   1.525   8.726 -2.2649 -0.0823 -1.6704
  908TIP3   OH224358   2.272   2.435   2.744 -0.2431  0.0273 -0.5550
  908TIP3    H124359   2.350   2.461   2.695 -1.9013  1.9320 -2.3806
  908TIP3    H224360   2.215   2.512   2.741 -1.6579 -0.8293  1.9067
  909TIP3   OH224361   0.238   0.581   4.009 -0.1660  0.3181  0.6579
  909TIP3    H124362   0.211   0.642   3.940  0.0045  0.1071  0.4025
  909TIP3    H224363   0.276   0.636   4.077  0.4755  0.4508  0.1961
  910TIP3   OH224364   0.357   1.841   3.457  0.0121  0.5419  0.1984
  910TIP3    H124365   0.328   1.863   3.369  0.2826  0.8875  0.1940
  910TIP3    H224366   0.325   1.753   3.472 -0.4344  0.6566 -0.0740
  911TIP3   OH224367   3.577   2.744   3.686  0.0592  0.5394  0.2833
  911TIP3    H124368   3.545   2.707   3.769 -0.6125  0.7055  0.1087
  911TIP3    H224369   3.584   2.838   3.703 -1.1108  0.7232 -0.1519
  912TIP3   OH224370   4.235   1.893   7.711  0.5091  0.4330 -0.2075
  912TIP3    H124371   4.312   1.938   7.747  0.9499 -1.2949  1.1185
  912TIP3    H224372   4.171   1.963   7.697  0.8669  1.4564  2.5546
  913TIP3   OH224373   6.529   3.843   3.482  0.3288 -0.2608 -0.3370
  913TIP3    H124374   6.525   3.874   3.573 -0.3661 -1.2080 -0.0315
  913TIP3    H224375   6.452   3.787   3.472 -1.8235  2.7619 -2.6318
  914TIP3   OH224376   4.320   4.041   2.551  0.4912  0.3529 -0.1575
  914TIP3    H124377   4.306   4.056   2.457  1.8695 -0.1932 -0.4734
  914TIP3    H224378   4.369   3.960   2.555  1.5733  1.0344  0.9620
  915TIP3   OH224379   3.645   6.651   8.744 -0.6482  0.2578 -0.8695
  915TIP3    H124380   3.730   6.626   8.780 -1.3736 -1.3086 -0.1390
  915TIP3    H224381   3.601   6.696   8.816 -0.2780  1.5210 -1.4054
  916TIP3   OH224382   1.709   4.054   2.194  0.0524  0.4288  0.0889
  916TIP3    H124383   1.756   4.057   2.277  1.1097  2.3895 -0.5174
  916TIP3    H224384   1.681   3.963   2.186 -0.9478  0.3540  3.0219
  917TIP3   OH224385   2.296   0.260   0.126 -0.5916  0.2629 -0.0341
  917TIP3    H124386   2.323   0.232   0.214  0.9933 -0.6872 -0.7795
  917TIP3    H224387   2.377   0.261   0.075 -1.5915 -0.0683 -1.7226
  918TIP3   OH224388   4.486   2.296   0.961 -0.6011  0.8824  0.1683
  918TIP3    H124389   4.549   2.235   0.922 -1.1056  1.8389 -2.3566
  918TIP3    H224390   4.444   2.246   1.031  0.0823 -1.1551 -0.7927
  919TIP3   OH224391   4.317   3.475   7.900 -0.3256 -0.2900  0.4143
  919TIP3    H124392   4.244   3.461   7.841 -0.0317  1.1024 -0.3072
  919TIP3    H224393   4.367   3.393   7.895  0.0929  0.0404 -1.8650
  920TIP3   OH224394   2.060   6.469   3.452  0.0709 -0.2863  0.2324
  920TIP3    H124395   1.999   6.530   3.493 -1.0645 -0.6102 -0.8775
  920TIP3    H224396   2.056   6.390   3.506 -0.3750 -0.2315  0.2873
  921TIP3   OH224397   3.719   5.118   2.549  0.0799 -0.0574 -0.6640
  921TIP3    H124398   3.647   5.060   2.527  0.4824 -0.5975 -0.5679
  921TIP3    H224399   3.691   5.204   2.518 -0.8330 -0.1569 -0.1335
  922TIP3   OH224400   0.399   4.159   1.189 -0.5094 -0.4580  0.7357
  922TIP3    H124401   0.391   4.211   1.109 -3.3985 -0.4354  0.9533
  922TIP3    H224402   0.421   4.222   1.258  0.8091 -0.3152  0.2279
  923TIP3   OH224403   1.826   1.706   2.805 -0.1893 -0.4147 -0.1593
  923TIP3    H124404   1.834   1.708   2.901  0.3201  1.7029 -0.1789
  923TIP3    H224405   1.757   1.769   2.786  0.0495 -0.4574 -1.2035
  924TIP3   OH224406   2.969   0.699   3.621 -0.0784  0.0488  0.0200
  924TIP3    H124407   2.929   0.767   3.567  3.4694  0.1338 -2.9012
  924TIP3    H224408   3.034   0.745   3.674  0.2358 -0.7119  0.3121
  925TIP3   OH224409   2.552   0.265   0.558 -0.1416 -0.0199 -0.1968
  925TIP3    H124410   2.609   0.210   0.611 -0.1565 -0.1283 -0.2933
  925TIP3    H224411   2.595   0.351   0.558  1.9549 -0.9341 -3.1957
  926TIP3   OH224412   5.448   5.242   2.538  0.1372  0.0224  0.7183
  926TIP3    H124413   5.412   5.289   2.463  0.8471 -0.8225 -0.1783
  926TIP3    H224414   5.527   5.200   2.504  0.3634 -0.5320  1.8926
  927TIP3   OH224415   6.446   2.460   2.963  0.0497  0.7824  0.0386
  927TIP3    H124416   6.531   2.415   2.957 -0.2801  0.3472 -2.9013
  927TIP3    H224417   6.465   2.550   2.933 -0.6338  0.4232 -1.5842
  928TIP3   OH224418   4.257   0.244   8.370 -0.1935  0.1377  0.1733
  928TIP3    H124419   4.288   0.308   8.305 -0.4040 -1.6360 -1.7664
  928TIP3    H224420   4.233   0.167   8.319 -0.5927 -1.2876  2.3666
  929TIP3   OH224421   5.801   3.141   1.677  0.1041 -0.5019  0.1181
  929TIP3    H124422   5.838   3.185   1.754  0.2446  2.5939 -1.5377
  929TIP3    H224423   5.707   3.154   1.686  0.2307  2.7083 -1.5628
  930TIP3   OH224424   1.643   0.587   3.588  0.5053  0.0433 -0.2424
  930TIP3    H124425   1.566   0.556   3.636  0.4435  2.3866  1.3610
  930TIP3    H224426   1.691   0.640   3.652  2.3016  0.4783 -1.8421
  931TIP3   OH224427   2.589   0.783   8.363  0.5785  0.6536  0.0337
  931TIP3    H124428   2.536   0.817   8.291 -0.3977 -0.0256  0.4125
  931TIP3    H224429   2.609   0.693   8.337  1.0258  0.7082  0.1839
  932TIP3   OH224430   1.040   3.176   3.021  0.6074 -0.7440  0.1985
  932TIP3    H124431   1.063   3.252   2.969  0.5300 -0.7108  0.2127
  932TIP3    H224432   1.104   3.109   2.996  0.2086 -0.9195 -0.3726
  933TIP3   OH224433   2.789   1.362   0.154 -0.1527  0.3332 -0.4011
  933TIP3    H124434   2.704   1.406   0.153 -0.7026 -0.7150 -0.7538
  933TIP3    H224435   2.798   1.332   0.245 -0.4247 -0.0620 -0.5045
  934TIP3   OH224436   0.141   5.102   8.771  0.6411 -0.1454  0.5146
  934TIP3    H124437   0.154   5.017   8.812 -0.5498 -0.5122  0.1824
  934TIP3    H224438   0.055   5.130   8.800  0.3127  0.1775 -0.6871
  935TIP3   OH224439   3.595   5.455   0.121 -0.7481 -0.9848 -0.2171
  935TIP3    H124440   3.681   5.432   0.156 -1.1340 -2.1275  0.0426
  935TIP3    H224441   3.611   5.476   0.030  0.2714  1.9920  0.5549
  936TIP3   OH224442   1.330   2.952   3.116  0.5106 -0.0114  0.1827
  936TIP3    H124443   1.249   2.946   3.167 -0.2575  0.7330 -0.9033
  936TIP3    H224444   1.391   3.000   3.172  0.1370 -0.3886  0.9265
  937TIP3   OH224445   3.715   1.122   1.627  0.7210  0.0377 -0.3352
  937TIP3    H124446   3.692   1.156   1.713  1.7815 -0.0253 -0.0168
  937TIP3    H224447   3.633   1.086   1.593  0.0941  0.8498  0.2694
  938TIP3   OH224448   0.514   3.183   8.534 -0.8785  0.7510 -0.4721
  938TIP3    H124449   0.462   3.210   8.610 -0.2071  0.6718  0.0184
  938TIP3    H224450   0.601   3.219   8.550  0.0320 -1.5673  0.1292
  939TIP3   OH224451   5.076   2.847   2.508 -0.6382 -0.6390 -0.2033
  939TIP3    H124452   5.058   2.787   2.581  0.6403 -0.6384  0.1296
  939TIP3    H224453   5.082   2.790   2.431 -1.2020 -0.7273 -0.1865
  940TIP3   OH224454   4.206   2.251   1.405 -0.7589 -0.8112  0.1920
  940TIP3    H124455   4.274   2.305   1.366 -1.2382 -0.5133 -0.2443
  940TIP3    H224456   4.230   2.244   1.497 -0.6014  0.0076  0.2190
  941TIP3   OH224457   6.382   3.609   4.056  0.0027 -0.2813  0.7500
  941TIP3    H124458   6.338   3.550   4.117  0.3215 -0.3441  0.9217
  941TIP3    H224459   6.457   3.642   4.105  0.3549 -0.4580  0.3333
  942TIP3   OH224460   1.702   3.591   8.823 -0.1918 -0.2153 -0.6721
  942TIP3    H124461   1.671   3.679   8.801  1.0038  1.2128  2.6426
  942TIP3    H224462   1.794   3.591   8.797  0.2629  0.1984  0.8342
  943TIP3   OH224463   2.554   2.530   2.275  0.7666 -0.0525 -0.2005
  943TIP3    H124464   2.491   2.472   2.316  1.2818 -0.5179 -0.0556
  943TIP3    H224465   2.520   2.618   2.291  0.7460 -0.2440  0.8665
  944TIP3   OH224466   3.402   4.265   1.119  0.3572  0.2888  0.5317
  944TIP3    H124467   3.425   4.321   1.045  2.3742 -1.8147 -0.5364
  944TIP3    H224468   3.440   4.310   1.195  2.1974  0.2868 -0.3385
  945TIP3   OH224469   5.876   6.169   8.545  0.0265  0.0464  0.4276
  945TIP3    H124470   5.834   6.250   8.515 -0.7311 -0.9507 -1.3553
  945TIP3    H224471   5.969   6.184   8.530 -0.1938  0.1983 -0.9897
  946TIP3   OH224472   2.851   2.178   2.577  0.2707  0.4800  0.2158
  946TIP3    H124473   2.802   2.231   2.514 -1.4278  0.8472  1.7334
  946TIP3    H224474   2.933   2.226   2.590  0.5504  0.5118 -1.4995
  947TIP3   OH224475   1.864   0.214   1.254 -0.0955 -0.0441  0.1678
  947TIP3    H124476   1.926   0.172   1.195  0.2572  0.0632  0.4597
  947TIP3    H224477   1.904   0.206   1.341 -0.4108  0.1715  0.3351
  948TIP3   OH224478   0.453   0.954   1.750  0.0859 -0.2307  0.8478
  948TIP3    H124479   0.381   0.963   1.687  1.1864  0.3257 -0.3747
  948TIP3    H224480   0.501   0.877   1.721  1.8512  1.2463 -0.3694
  949TIP3   OH224481   2.578   1.111   3.852 -0.0544 -0.4111 -0.0074
  949TIP3    H124482   2.607   1.198   3.878 -0.0605  0.1333 -1.6583
  949TIP3    H224483   2.634   1.089   3.777 -0.6971 -1.4123 -0.2115
  950TIP3   OH224484   2.594   3.431   0.548 -0.4540 -0.2315  0.7987
  950TIP3    H124485   2.669   3.488   0.530 -1.0648  0.8577  1.6265
  950TIP3    H224486   2.585   3.378   0.469 -0.3951  1.4024 -0.3439
  951TIP3   OH224487   6.741   3.943   2.802 -0.1265  0.0609  0.1801
  951TIP3    H124488   6.799   3.928   2.728 -0.6061 -3.8958  0.3994
  951TIP3    H224489   6.654   3.922   2.769 -0.8729  1.5718  1.0468
  952TIP3   OH224490   2.640   1.792   0.990 -0.4629 -0.1411 -0.9549
  952TIP3    H124491   2.682   1.868   0.949 -0.1731 -0.2943 -0.9419
  952TIP3    H224492   2.708   1.725   0.994 -0.9596 -0.7176 -1.7925
  953TIP3   OH224493   4.978   6.143   1.767 -0.3100  0.1477 -0.1348
  953TIP3    H124494   4.898   6.093   1.750  0.0770 -0.4878 -0.1205
  953TIP3    H224495   5.025   6.141   1.684  0.6138 -1.1820  0.3896
  954TIP3   OH224496   0.810   4.031   3.645 -0.3776  0.4746 -0.4690
  954TIP3    H124497   0.756   3.954   3.661 -0.2006  0.3032 -0.6788
  954TIP3    H224498   0.774   4.099   3.702  2.6176 -1.1192  3.8990
  955TIP3   OH224499   1.227   1.594   0.552 -0.2772 -1.1046  0.1418
  955TIP3    H124500   1.292   1.605   0.621  0.2181  0.8092 -0.5413
  955TIP3    H224501   1.162   1.535   0.589  0.3979 -0.8083  1.9227
  956TIP3   OH224502   4.994   2.554   1.345  0.2303  0.1142 -0.4414
  956TIP3    H124503   5.018   2.548   1.438 -0.5030 -1.1720 -0.3103
  956TIP3    H224504   4.982   2.648   1.330  1.7043  0.4847  0.3943
  957TIP3   OH224505   5.740   6.637   0.928 -0.2719 -0.3022  0.1905
  957TIP3    H124506   5.748   6.622   0.834 -1.0987 -0.9551  0.2140
  957TIP3    H224507   5.701   6.724   0.935 -2.5423 -1.2140 -0.1694
  958TIP3   OH224508   2.088   1.162   1.186  0.4228 -0.0414  0.0360
  958TIP3    H124509   2.125   1.075   1.172  1.0175  0.3056 -0.6320
  958TIP3    H224510   2.163   1.216   1.212  0.2858  0.5440 -0.7509
  959TIP3   OH224511   1.629   5.620   3.154 -0.8603  0.6432 -0.4431
  959TIP3    H124512   1.545   5.602   3.113 -1.0325 -0.8480  0.5097
  959TIP3    H224513   1.608   5.678   3.227 -1.4678 -1.6235  1.2821
  960TIP3   OH224514   3.802   3.325   3.124  0.2584 -0.2040 -1.0002
  960TIP3    H124515   3.714   3.312   3.087 -0.1652 -0.2997  0.0172
  960TIP3    H224516   3.824   3.241   3.164  1.9447 -1.0784 -3.4686
  961TIP3   OH224517   1.229   2.273   0.464  0.1473  0.1969 -0.3563
  961TIP3    H124518   1.174   2.195   0.463 -1.0014  0.9379 -2.4859
  961TIP3    H224519   1.300   2.252   0.403  2.0201 -0.5220  1.9144
  962TIP3   OH224520   4.322   6.782   4.117 -0.2175 -0.2947 -0.5132
  962TIP3    H124521   4.281   6.849   4.170 -0.4093 -1.4078  0.8075
  962TIP3    H224522   4.249   6.732   4.080 -0.0746 -0.2013 -0.9271
  963TIP3   OH224523   4.591   0.917   1.800 -0.2950  0.5275 -0.1237
  963TIP3    H124524   4.685   0.915   1.816 -0.2147  0.0956 -0.6258
  963TIP3    H224525   4.583   0.910   1.705 -0.8646 -0.4535 -0.0172
  964TIP3   OH224526   0.640   2.726   8.499  0.1518  0.6046  0.3185
  964TIP3    H124527   0.669   2.700   8.587  1.6044  0.3406 -0.2031
  964TIP3    H224528   0.595   2.648   8.465  0.8817  0.1763  0.3000
  965TIP3   OH224529   3.502   3.588   2.700  0.1986 -0.4292  0.1237
  965TIP3    H124530   3.577   3.638   2.734 -0.3800 -0.0923  0.9496
  965TIP3    H224531   3.440   3.585   2.774 -2.0540  2.1497 -1.4704
  966TIP3   OH224532   6.069   2.984   0.600 -0.1278  0.1041  0.0458
  966TIP3    H124533   6.115   2.991   0.517  0.2646 -2.4660 -0.0369
  966TIP3    H224534   6.012   3.061   0.602  0.0355  0.3816 -2.4599
  967TIP3   OH224535   6.037   0.139   3.350  0.4086 -0.5495 -0.3463
  967TIP3    H124536   6.059   0.183   3.432  1.6159  0.0541 -0.9607
  967TIP3    H224537   5.954   0.176   3.323  1.0718  0.8744 -0.5024
  968TIP3   OH224538   3.017   2.294   2.129 -0.3224  0.1826  1.3740
  968TIP3    H124539   3.013   2.271   2.036  0.5729 -2.3379  1.8694
  968TIP3    H224540   3.097   2.346   2.137 -1.4953  2.2376  0.4653
  969TIP3   OH224541   3.620   0.291   0.483  0.1093 -0.0947  0.0765
  969TIP3    H124542   3.572   0.334   0.553 -1.1031 -0.1540 -0.6990
  969TIP3    H224543   3.673   0.361   0.444 -1.5571  0.6582 -0.9296
  970TIP3   OH224544   3.804   6.489   2.168  0.6433  0.3224 -0.4080
  970TIP3    H124545   3.790   6.441   2.250  3.0098 -0.1640 -0.2105
  970TIP3    H224546   3.793   6.422   2.100  0.8017  0.2206 -0.3356
  971TIP3   OH224547   6.303   0.873   2.780  0.1451  0.2741 -0.1833
  971TIP3    H124548   6.395   0.883   2.757  0.7429 -3.0575  0.2536
  971TIP3    H224549   6.303   0.852   2.873 -0.9350 -0.7235 -0.3767
  972TIP3   OH224550   1.204   5.987   3.038  1.1843 -0.5811 -0.8662
  972TIP3    H124551   1.113   6.006   3.018  0.9134 -0.5958  0.2993
  972TIP3    H224552   1.245   6.073   3.045  0.8155 -0.4904  0.5232
  973TIP3   OH224553   3.538   3.262   2.994  0.2113 -0.4221  0.6715
  973TIP3    H124554   3.499   3.176   3.009 -2.5155  0.7109  0.6670
  973TIP3    H224555   3.484   3.322   3.045  0.0963  1.6554 -1.7026
  974TIP3   OH224556   6.154   4.081   2.801  0.0521  0.0596  0.5596
  974TIP3    H124557   6.098   4.134   2.856 -0.2257  0.8133 -0.4267
  974TIP3    H224558   6.152   4.124   2.715  1.2846 -0.4946  0.2258
  975TIP3   OH224559   0.929   6.400   8.360 -0.0313 -0.0608  0.5187
  975TIP3    H124560   0.885   6.431   8.281  1.5285  0.4993 -0.1701
  975TIP3    H224561   0.920   6.305   8.357  1.2163 -0.1705 -1.1188
  976TIP3   OH224562   1.493   5.014   0.794  0.3758 -0.1909  0.7058
  976TIP3    H124563   1.499   5.072   0.718 -0.1866 -1.4473 -0.3282
  976TIP3    H224564   1.570   4.957   0.786 -1.1454 -2.1793 -0.5424
  977TIP3   OH224565   3.939   6.539   8.573  0.3610 -0.0689 -0.2315
  977TIP3    H124566   3.966   6.509   8.487 -1.8923  0.7078 -1.2930
  977TIP3    H224567   3.849   6.507   8.583  0.4114  0.2123  1.6602
  978TIP3   OH224568   1.433   6.606   1.276 -0.5269 -0.2115  0.6666
  978TIP3    H124569   1.474   6.573   1.356 -1.5333 -0.6776  1.0176
  978TIP3    H224570   1.437   6.532   1.215  3.3825  1.1650 -1.0492
  979TIP3   OH224571   1.468   3.850   2.527  0.0445  0.2087  0.7993
  979TIP3    H124572   1.459   3.906   2.604 -2.4315 -0.5946  1.1540
  979TIP3    H224573   1.429   3.900   2.456 -0.0909 -0.1375  0.6288
  980TIP3   OH224574   4.597   2.208   3.340 -0.3682 -0.3665 -0.3580
  980TIP3    H124575   4.624   2.198   3.249  0.3407 -1.5083 -0.0372
  980TIP3    H224576   4.549   2.291   3.341  0.7104  0.3163 -1.5088
  981TIP3   OH224577   2.847   6.673   0.739  0.3733  0.4594  0.3610
  981TIP3    H124578   2.843   6.631   0.825  1.6759 -1.6043 -0.4858
  981TIP3    H224579   2.925   6.729   0.743 -1.0248  2.4384  1.2991
  982TIP3   OH224580   6.483   2.342   8.851 -0.0382 -0.0506  0.5693
  982TIP3    H124581   6.441   2.372   8.770 -0.7551  0.6438  1.1831
  982TIP3    H224582   6.506   2.423   8.897 -1.2876 -0.4032  1.8917
  983TIP3   OH224583   4.925   0.735   3.487 -0.2608 -0.0025 -0.1851
  983TIP3    H124584   4.944   0.641   3.488  2.4176  0.4519  0.6154
  983TIP3    H224585   4.934   0.762   3.579  0.7938  1.2914 -0.6320
  984TIP3   OH224586   2.302   5.003   8.647  0.0863  0.2351 -0.2460
  984TIP3    H124587   2.213   5.001   8.613  0.0166  1.0635 -0.1249
  984TIP3    H224588   2.300   5.068   8.717  0.8811  0.5834 -0.5296
  985TIP3   OH224589   1.349   4.567   2.425 -0.1837 -0.0515 -0.1158
  985TIP3    H124590   1.391   4.524   2.500 -0.7922 -0.8502 -0.2158
  985TIP3    H224591   1.361   4.661   2.442  3.2715 -0.1945 -1.1007
  986TIP3   OH224592   6.730   0.281   1.900  0.2335  0.2815  0.4109
  986TIP3    H124593   6.728   0.229   1.820 -1.2930 -0.0188  0.6071
  986TIP3    H224594   6.822   0.302   1.913  0.5927 -0.3135 -1.0002
  987TIP3   OH224595   5.242   0.262   0.397 -0.4984 -0.1760 -0.2173
  987TIP3    H124596   5.266   0.194   0.460 -0.5107 -0.4614 -0.5179
  987TIP3    H224597   5.154   0.237   0.367 -0.8250  0.3899  0.2358
  988TIP3   OH224598   0.268   5.585   2.635 -0.8613 -0.1183 -0.1484
  988TIP3    H124599   0.288   5.571   2.542  0.4280  3.1774 -0.5196
  988TIP3    H224600   0.344   5.550   2.681 -1.0412 -0.8650 -0.4106
  989TIP3   OH224601   2.700   2.178   2.797  0.4399 -0.1353  0.2528
  989TIP3    H124602   2.753   2.181   2.717 -3.1183  0.4510 -2.3171
  989TIP3    H224603   2.665   2.267   2.805 -1.0541 -0.7646  1.1034
  990TIP3   OH224604   1.561   1.432   1.979  0.3287 -0.7681 -0.5928
  990TIP3    H124605   1.557   1.468   1.891  1.2306  2.0453  0.3919
  990TIP3    H224606   1.651   1.450   2.009  0.4456 -2.8015  0.4862
  991TIP3   OH224607   3.046   2.600   1.222  0.1595  0.6038 -0.6685
  991TIP3    H124608   2.967   2.632   1.179  0.8173  0.1080 -2.2855
  991TIP3    H224609   3.063   2.514   1.183  1.3811  0.6080 -0.2048
  992TIP3   OH224610   3.415   2.369   0.878 -0.0369 -0.3530  0.4762
  992TIP3    H124611   3.505   2.376   0.910  0.8020  1.3237 -1.8849
  992TIP3    H224612   3.402   2.276   0.860  1.6285 -0.5053 -0.0848
  993TIP3   OH224613   2.619   6.117   1.673  0.6257  0.0437  0.7910
  993TIP3    H124614   2.572   6.166   1.605  0.1254  0.2224  1.2641
  993TIP3    H224615   2.710   6.146   1.663  0.5808 -0.0075  0.1333
  994TIP3   OH224616   5.696   3.972   8.750  0.3320 -0.3446  0.4315
  994TIP3    H124617   5.683   3.904   8.816  1.2522 -1.4641 -0.5001
  994TIP3    H224618   5.612   3.978   8.705  0.1299 -0.5854  0.7707
  995TIP3   OH224619   6.415   3.512   1.166  0.4343 -0.0238 -0.3870
  995TIP3    H124620   6.410   3.528   1.260 -0.1554 -1.9331 -0.0506
  995TIP3    H224621   6.416   3.599   1.127  1.9625  0.8441  1.4242
  996TIP3   OH224622   4.352   4.113   8.752 -0.0266  0.2614  0.2504
  996TIP3    H124623   4.371   4.020   8.765 -0.6276  0.1525  0.3862
  996TIP3    H224624   4.375   4.129   8.661 -2.0700 -0.5762 -0.4622
  997TIP3   OH224625   5.678   1.396   0.976 -0.4064 -0.8134 -0.0445
  997TIP3    H124626   5.637   1.403   1.062 -1.4852  0.7689 -0.6520
  997TIP3    H224627   5.633   1.323   0.934 -1.9754  0.2609 -0.3256
  998TIP3   OH224628   0.304   0.016   3.329 -0.2512  0.4466 -0.2263
  998TIP3    H124629   0.266  -0.017   3.411 -1.3082  3.1133  0.4596
  998TIP3    H224630   0.251  -0.025   3.260  0.4960 -1.6377  0.3574
  999TIP3   OH224631   3.059   5.449   3.209  0.5174  0.0260 -0.0348
  999TIP3    H124632   3.023   5.396   3.138  0.3278  0.9561 -0.6539
  999TIP3    H224633   3.000   5.433   3.283 -0.0022  0.0011 -0.4495
 1000TIP3   OH224634   2.000   2.929   0.609  0.0884 -0.0754 -0.0259
 1000TIP3    H124635   1.987   2.999   0.546  0.9208 -0.4748 -0.6507
 1000TIP3    H224636   1.993   2.848   0.558 -1.0221 -0.4752  0.7078
 1001TIP3   OH224637   6.010   4.225   3.004  0.5188  0.4302 -0.0791
 1001TIP3    H124638   5.926   4.257   2.971  0.2268 -0.7407 -0.5102
 1001TIP3    H224639   6.046   4.299   3.053 -0.9496  0.8196  0.4533
 1002TIP3   OH224640   4.807   0.509   2.296 -0.9120 -0.2598  0.2600
 1002TIP3    H124641   4.787   0.448   2.367 -1.4118 -0.7625 -0.2979
 1002TIP3    H224642   4.751   0.480   2.224 -0.1445  0.0129 -0.4546
 1003TIP3   OH224643   6.440   5.468   1.796  0.0472  0.2332 -0.1103
 1003TIP3    H124644   6.387   5.389   1.807  1.8295 -1.2655 -1.6590
 1003TIP3    H224645   6.410   5.506   1.714  0.0711  0.4732 -0.0106
 1004TIP3   OH224646   2.953   6.107   2.961 -0.3144 -0.6271  0.3198
 1004TIP3    H124647   2.896   6.034   2.939 -1.3710  0.2193  0.1791
 1004TIP3    H224648   2.894   6.174   2.997  0.7679 -0.2535  1.4770
 1005TIP3   OH224649   4.350   1.667   2.616 -0.1390  0.0195  0.6554
 1005TIP3    H124650   4.294   1.697   2.544  0.5424  0.3398  0.2452
 1005TIP3    H224651   4.301   1.595   2.656 -1.4551  1.1471  1.1572
 1006TIP3   OH224652   3.594   1.290   1.220  0.0873 -0.2092  0.5017
 1006TIP3    H124653   3.536   1.236   1.166 -0.1530 -1.8911  2.3408
 1006TIP3    H224654   3.659   1.229   1.255  0.4896  0.8909  1.7775
 1007TIP3   OH224655   5.326   5.506   8.560  0.0043 -0.0666 -0.2288
 1007TIP3    H124656   5.340   5.600   8.550 -0.4297 -0.0563 -0.8177
 1007TIP3    H224657   5.412   5.467   8.550  0.1325  0.2430 -0.3324
 1008TIP3   OH224658   1.874   0.587   1.052 -0.2130  0.1837 -0.0936
 1008TIP3    H124659   1.798   0.641   1.029 -0.2942  0.5927  1.0308
 1008TIP3    H224660   1.947   0.649   1.053  0.1452 -0.2112 -1.1771
 1009TIP3   OH224661   1.779   5.406   3.055  0.0201 -0.1705  0.4455
 1009TIP3    H124662   1.751   5.335   3.113  0.5667 -0.1785  0.7122
 1009TIP3    H224663   1.713   5.474   3.066 -0.9838 -0.9568 -0.4543
 1010TIP3   OH224664   5.275   2.896   3.458  0.0574  0.2951 -0.0356
 1010TIP3    H124665   5.364   2.890   3.423 -0.3980 -0.9243 -1.1084
 1010TIP3    H224666   5.243   2.805   3.457 -2.0736  0.9560 -2.1516
 1011TIP3   OH224667   6.772   5.818   0.346 -0.0689  0.3077  0.4075
 1011TIP3    H124668   6.782   5.811   0.441  1.0506 -0.3286  0.2662
 1011TIP3    H224669   6.846   5.769   0.311 -0.0107  1.2157 -0.7986
 1012TIP3   OH224670   4.014   3.189   1.727  0.0373 -0.3490 -0.4988
 1012TIP3    H124671   3.951   3.252   1.694  0.3514  0.1568 -0.1475
 1012TIP3    H224672   3.960   3.117   1.760 -0.3057 -0.4268 -1.2265
 1013TIP3   OH224673   5.853   5.506   3.143 -0.0526  0.0516 -0.0618
 1013TIP3    H124674   5.942   5.485   3.116 -0.1051  0.6517 -0.7087
 1013TIP3    H224675   5.852   5.601   3.154 -0.6110  0.0544 -0.0628
 1014TIP3   OH224676   2.539   0.175   2.375  0.1884 -0.1021  0.1503
 1014TIP3    H124677   2.447   0.176   2.401 -0.0946 -1.3032 -0.7274
 1014TIP3    H224678   2.587   0.176   2.458 -0.6799 -3.0648  0.8123
 1015TIP3   OH224679   1.467   6.362   1.125 -0.4678  0.0274 -0.3693
 1015TIP3    H124680   1.555   6.365   1.087  0.5362 -1.4374  1.6394
 1015TIP3    H224681   1.408   6.358   1.049  1.3246 -1.2425 -1.7736
 1016TIP3   OH224682   5.604   1.860   2.821  0.1353  0.5619  0.2950
 1016TIP3    H124683   5.609   1.794   2.891 -2.5377 -0.0407  0.0441
 1016TIP3    H224684   5.625   1.943   2.864  1.3479 -0.1411  1.1267
 1017TIP3   OH224685   1.947   3.084   2.886 -0.3586  0.1277  1.1317
 1017TIP3    H124686   1.879   3.094   2.953  0.6956 -0.8126  2.3763
 1017TIP3    H224687   1.920   3.006   2.836 -0.7577  0.4010  0.9143
 1018TIP3   OH224688   2.373   1.345   2.187 -0.0959 -0.2878 -0.6806
 1018TIP3    H124689   2.314   1.277   2.218  0.8120 -0.3949  0.9405
 1018TIP3    H224690   2.426   1.302   2.120  1.4783 -1.7134  1.3478
 1019TIP3   OH224691   4.463   5.588   0.390  0.1976 -0.6971 -0.3459
 1019TIP3    H124692   4.547   5.607   0.347  0.0625  0.2086 -0.2244
 1019TIP3    H224693   4.404   5.656   0.358  0.1537  0.1800  1.4614
 1020TIP3   OH224694   0.759   0.915   1.276 -0.4250  0.3233  0.2878
 1020TIP3    H124695   0.701   0.887   1.347  0.1487 -1.5546  0.0822
 1020TIP3    H224696   0.841   0.938   1.319  0.8653 -3.4005  0.1853
 1021TIP3   OH224697   5.603   6.577   8.872 -0.7200 -0.0462 -0.3062
 1021TIP3    H124698   5.577   6.530   8.793  0.8222  0.1219 -0.9281
 1021TIP3    H224699   5.520   6.607   8.910 -1.7517 -2.7779 -0.1567
 1022TIP3   OH224700   5.645   0.451   2.082  0.0883  0.0943  0.6305
 1022TIP3    H124701   5.629   0.526   2.024  0.0306 -0.0658  0.4353
 1022TIP3    H224702   5.722   0.476   2.134  0.5340 -0.0189  0.0356
 1023TIP3   OH224703   4.329   4.827   0.061 -0.0081  0.2993  0.2418
 1023TIP3    H124704   4.413   4.861   0.092  0.8597 -0.2657 -1.3686
 1023TIP3    H224705   4.322   4.740   0.100  1.8500 -1.0903 -2.2150
 1024TIP3   OH224706   0.206   3.491   2.596  0.2330 -0.4096 -0.2320
 1024TIP3    H124707   0.246   3.541   2.525  2.5151  0.7507  1.7219
 1024TIP3    H224708   0.128   3.542   2.620 -1.4438 -1.5955 -2.7264
 1025TIP3   OH224709   4.690   1.065   1.126 -0.1403  0.2700  0.7039
 1025TIP3    H124710   4.712   0.973   1.113  3.5131  1.0263  0.5505
 1025TIP3    H224711   4.600   1.064   1.159 -0.1439 -3.3225  0.9194
 1026TIP3   OH224712   5.027   6.360   0.002 -0.4010  0.1794 -0.1116
 1026TIP3    H124713   5.024   6.286   0.063  1.4259 -0.3797 -0.6188
 1026TIP3    H224714   5.031   6.318  -0.084 -0.8203  0.9173 -0.4943
 1027TIP3   OH224715   5.110   3.340   0.222 -0.3011 -0.1491 -0.1009
 1027TIP3    H124716   5.086   3.299   0.305 -0.6817  0.5247  0.1276
 1027TIP3    H224717   5.057   3.294   0.157  0.4559 -1.1047 -0.0598
 1028TIP3   OH224718   5.145   5.945   1.537 -0.3011 -0.1146 -0.1501
 1028TIP3    H124719   5.075   5.890   1.572 -1.1379  1.3776  0.6426
 1028TIP3    H224720   5.195   5.887   1.479 -0.9816 -1.7414  0.8296
 1029TIP3   OH224721   2.545   6.788   1.005 -0.2893 -0.1821 -0.2143
 1029TIP3    H124722   2.630   6.818   1.037  0.7388 -1.0645 -1.9446
 1029TIP3    H224723   2.521   6.716   1.063  0.0453  0.1947  0.4017
 1030TIP3   OH224724   1.933   0.118   8.870  0.0059  0.2537 -0.0712
 1030TIP3    H124725   1.941   0.155   8.782  0.1633  1.5389  0.4628
 1030TIP3    H224726   1.841   0.128   8.892 -0.0614 -0.1981 -0.1316
 1031TIP3   OH224727   1.521   2.912   3.868 -0.7211 -0.3054 -0.4930
 1031TIP3    H124728   1.438   2.955   3.848 -1.5089 -1.9387 -0.8367
 1031TIP3    H224729   1.500   2.850   3.938  0.4469  0.0180  0.1750
 1032TIP3   OH224730   1.108   0.259   4.069  0.0388  0.4036 -0.3136
 1032TIP3    H124731   1.057   0.179   4.083 -1.3851  1.0951 -1.1972
 1032TIP3    H224732   1.075   0.321   4.134  0.4695  0.5617 -0.2407
 1033TIP3   OH224733   6.343   2.707   3.366  0.3284 -0.1862  0.0638
 1033TIP3    H124734   6.380   2.719   3.453 -0.3278  0.5128  0.2617
 1033TIP3    H224735   6.273   2.642   3.378  1.8389 -1.9895 -0.4256
 1034TIP3   OH224736   0.383   1.098   3.363 -0.3626 -0.0281 -0.0637
 1034TIP3    H124737   0.340   1.027   3.315 -0.7200 -1.3170  2.0349
 1034TIP3    H224738   0.442   1.053   3.423  1.0600  1.5824 -0.2082
 1035TIP3   OH224739   3.486   0.804   3.381 -0.2955  0.5667  0.5317
 1035TIP3    H124740   3.566   0.756   3.364  0.0752  1.5186 -0.5458
 1035TIP3    H224741   3.495   0.885   3.331 -3.2860 -0.6462 -2.3972
 1036TIP3   OH224742   0.723   5.031   0.505 -0.3435 -0.8527 -0.4754
 1036TIP3    H124743   0.753   5.114   0.542 -0.0729 -1.7998  1.5841
 1036TIP3    H224744   0.800   4.996   0.459 -0.6469  0.2983 -1.9120
 1037TIP3   OH224745   3.466   4.799   3.054  0.0471 -0.4199 -0.3038
 1037TIP3    H124746   3.412   4.872   3.027  1.7382  1.1972  0.4799
 1037TIP3    H224747   3.481   4.812   3.148  2.8909  0.0441 -0.7173
 1038TIP3   OH224748   2.091   5.334   3.157  0.3382 -0.2105  0.5088
 1038TIP3    H124749   2.035   5.330   3.234 -0.9025  2.5611 -0.1344
 1038TIP3    H224750   2.180   5.326   3.192 -0.2028  0.7086  2.1964
 1039TIP3   OH224751   0.173   6.620   2.659  0.7522 -0.1070  0.0007
 1039TIP3    H124752   0.258   6.661   2.674  0.8421  0.4773 -1.8288
 1039TIP3    H224753   0.187   6.527   2.680  1.0564  0.4164  2.3496
 1040TIP3   OH224754   4.091   4.100   0.958 -0.5482  0.5409  0.0694
 1040TIP3    H124755   4.181   4.128   0.973 -1.3775  1.8256  3.7425
 1040TIP3    H224756   4.059   4.159   0.889  0.7293  1.7594  0.4563
 1041TIP3   OH224757   0.038   0.782   1.901  0.1725 -0.1222  0.3347
 1041TIP3    H124758  -0.013   0.863   1.906  2.3763  1.2828  1.4348
 1041TIP3    H224759   0.060   0.773   1.808  1.4412  1.5870  0.4411
 1042TIP3   OH224760   1.476   1.889   2.398  0.0589  0.5343 -0.3076
 1042TIP3    H124761   1.560   1.858   2.430  0.5293  2.2429  0.2012
 1042TIP3    H224762   1.494   1.922   2.310 -0.0744  0.9449 -0.1807
 1043TIP3   OH224763   6.731   5.161   0.503 -0.4959 -0.1544  0.0435
 1043TIP3    H124764   6.702   5.112   0.426  0.5418 -1.1354  0.2519
 1043TIP3    H224765   6.826   5.164   0.496 -0.5187  1.9828 -0.0230
 1044TIP3   OH224766   0.080   4.852   0.004  0.0389  0.2325  0.6448
 1044TIP3    H124767  -0.009   4.819  -0.009 -0.1541  0.2244  1.8533
 1044TIP3    H224768   0.113   4.802   0.079  2.6672 -2.8948 -2.2835
 1045TIP3   OH224769   5.346   1.210   1.297  0.1364  0.2111 -0.5595
 1045TIP3    H124770   5.335   1.242   1.207 -0.9265  1.1185 -0.1272
 1045TIP3    H224771   5.438   1.186   1.302  0.0552 -0.5900 -2.1226
 1046TIP3   OH224772   5.904   0.469   2.575 -0.1992  0.5969 -0.3108
 1046TIP3    H124773   5.950   0.545   2.610  1.5451 -0.9761  1.0561
 1046TIP3    H224774   5.845   0.442   2.646  1.0237 -0.7439  0.2391
 1047TIP3   OH224775   2.798   3.539   1.316 -0.0110  0.8060 -0.0136
 1047TIP3    H124776   2.801   3.479   1.390 -0.3608  0.8041 -0.0026
 1047TIP3    H224777   2.731   3.603   1.338  1.3732  2.0906  0.6355
 1048TIP3   OH224778   5.525   6.466   8.612  0.4628  0.3981  0.0420
 1048TIP3    H124779   5.573   6.536   8.568  1.9921 -0.7715 -0.2396
 1048TIP3    H224780   5.457   6.440   8.549 -0.4919  1.9487  0.3740
 1049TIP3   OH224781   6.710   6.506   8.674  0.7298 -0.3115 -0.4650
 1049TIP3    H124782   6.724   6.414   8.692  0.5637 -0.5146 -1.3107
 1049TIP3    H224783   6.788   6.550   8.708  0.0492 -0.5280  1.5214
 1050TIP3   OH224784   2.459   1.689   8.810 -0.5803  0.7379  0.5468
 1050TIP3    H124785   2.436   1.762   8.752  0.9029  1.0442  0.2878
 1050TIP3    H224786   2.421   1.612   8.769 -1.4467  1.2429  0.3713
 1051TIP3   OH224787   6.682   2.339   7.951 -0.1432  0.7855 -0.0559
 1051TIP3    H124788   6.660   2.297   7.869  0.4134  0.3705 -0.0001
 1051TIP3    H224789   6.609   2.318   8.009  0.5727 -1.0074  0.2859
 1052TIP3   OH224790   0.534   2.032   2.297 -0.0520 -0.3570  0.0480
 1052TIP3    H124791   0.602   2.088   2.335 -0.9687  1.2693 -0.5815
 1052TIP3    H224792   0.468   2.024   2.366 -0.9788  1.2932 -0.5758
 1053TIP3   OH224793   2.441   3.063   1.838  0.0703  0.2810 -0.1828
 1053TIP3    H124794   2.427   2.990   1.899 -0.7619 -0.5862 -1.3673
 1053TIP3    H224795   2.382   3.131   1.869 -0.1009 -0.0283  0.1862
 1054TIP3   OH224796   3.833   4.017   8.541  0.0581 -0.4523  0.4252
 1054TIP3    H124797   3.777   3.958   8.491  0.7492 -0.4212 -0.4132
 1054TIP3    H224798   3.892   3.959   8.590  0.7851 -0.4767 -0.4541
 1055TIP3   OH224799   1.466   6.717   0.394 -0.4425 -0.5362 -0.2694
 1055TIP3    H124800   1.429   6.631   0.377 -0.4672 -1.0107  1.8641
 1055TIP3    H224801   1.534   6.729   0.327 -1.0985 -1.7750 -1.1788
 1056TIP3   OH224802   3.152   4.530   2.981 -0.0631  0.1192 -0.2930
 1056TIP3    H124803   3.133   4.593   2.911 -1.3913 -1.5440 -1.5324
 1056TIP3    H224804   3.098   4.453   2.959  1.0033 -1.2157  1.4781
 1057TIP3   OH224805   0.383   4.316   0.230 -0.1273  0.1417 -0.5064
 1057TIP3    H124806   0.330   4.242   0.258 -0.1831 -0.1069 -1.2516
 1057TIP3    H224807   0.413   4.356   0.312 -0.9678 -0.0657 -0.0817
 1058TIP3   OH224808   2.666   0.815   1.902  0.0570 -0.3592  0.5837
 1058TIP3    H124809   2.704   0.737   1.941 -0.0143  0.0468  1.4931
 1058TIP3    H224810   2.687   0.808   1.809  1.8232 -0.4597  0.9484
 1059TIP3   OH224811   3.184   0.927   3.429 -0.1778  0.3683 -0.2705
 1059TIP3    H124812   3.192   0.964   3.341 -0.5844  0.9285 -0.0716
 1059TIP3    H224813   3.093   0.940   3.453 -0.1474 -0.0793  0.1128
 1060TIP3   OH224814   2.819   0.445   2.479  0.4381  0.4797 -0.0752
 1060TIP3    H124815   2.857   0.357   2.471  2.2357  1.0409  1.4374
 1060TIP3    H224816   2.895   0.502   2.486 -0.6838  1.8812  1.4408
 1061TIP3   OH224817   1.037   3.216   3.689 -0.0808 -0.0159  0.3305
 1061TIP3    H124818   0.958   3.180   3.649 -0.0513 -0.4710  0.6725
 1061TIP3    H224819   1.005   3.274   3.757 -0.1303  0.7060 -0.3021
 1062TIP3   OH224820   4.024   5.202   2.234 -0.0941  0.3472  0.0573
 1062TIP3    H124821   4.103   5.149   2.247 -0.5132 -0.7802 -1.7476
 1062TIP3    H224822   4.056   5.285   2.198  0.3845  0.5345  0.8884
 1063TIP3   OH224823   1.868   0.348   0.649 -0.4558  0.2370 -0.1706
 1063TIP3    H124824   1.866   0.420   0.586  1.6158 -0.2689 -0.9103
 1063TIP3    H224825   1.842   0.271   0.598 -0.8417  0.1636  0.1354
 1064TIP3   OH224826   1.423   3.027   2.185 -0.4611 -0.0136  0.1023
 1064TIP3    H124827   1.456   2.965   2.119  0.3669 -0.8873  1.2995
 1064TIP3    H224828   1.347   2.982   2.223 -1.5882  0.9362 -0.9309
 1065TIP3   OH224829   5.966   1.569   2.380  0.2454  0.2156 -0.5932
 1065TIP3    H124830   5.897   1.611   2.329 -1.7678 -0.7780  1.1474
 1065TIP3    H224831   5.998   1.498   2.324 -1.2595 -0.2640 -0.8791
 1066TIP3   OH224832   1.129   5.768   1.700  0.0703 -0.0269 -0.3229
 1066TIP3    H124833   1.086   5.715   1.633  1.8900 -1.0453 -0.7463
 1066TIP3    H224834   1.118   5.858   1.670 -1.1327 -0.3013 -0.7615
 1067TIP3   OH224835   6.373   4.750   2.645 -0.1006 -0.2990  0.3133
 1067TIP3    H124836   6.343   4.757   2.736  0.2763  1.9467  0.3268
 1067TIP3    H224837   6.464   4.719   2.652 -0.1509 -0.3677  0.6873
 1068TIP3   OH224838   3.184   0.389   2.638 -0.2261  0.1220  0.0259
 1068TIP3    H124839   3.186   0.484   2.636 -3.1139  0.3153  0.9891
 1068TIP3    H224840   3.271   0.364   2.670  0.3545  2.4641  0.4938
 1069TIP3   OH224841   4.393   4.401   7.900  0.0344 -0.1917 -0.3623
 1069TIP3    H124842   4.300   4.418   7.918  0.3143  1.1015 -0.0533
 1069TIP3    H224843   4.426   4.484   7.866  0.9877 -0.7733 -0.8840
 1070TIP3   OH224844   4.357   2.033   2.393  0.3235  0.4746 -0.0243
 1070TIP3    H124845   4.332   2.115   2.350 -1.3027 -0.8561 -1.7593
 1070TIP3    H224846   4.278   2.006   2.440  0.0151 -1.2911 -1.4796
 1071TIP3   OH224847   3.354   2.635   1.725 -0.1828 -0.0284  0.6554
 1071TIP3    H124848   3.409   2.608   1.798  0.2648 -1.5904 -0.2310
 1071TIP3    H224849   3.402   2.707   1.684  0.4611 -0.3785  0.7880
 1072TIP3   OH224850   0.675   6.028   8.823 -0.3797 -0.6228 -0.3386
 1072TIP3    H124851   0.580   6.019   8.820 -0.5708  0.9252  0.2812
 1072TIP3    H224852   0.694   6.106   8.770  0.3555  0.0946  0.9156
 1073TIP3   OH224853   5.441   3.561   3.865  0.3344 -0.0255 -0.4893
 1073TIP3    H124854   5.471   3.515   3.943 -0.2720  1.2724  0.5306
 1073TIP3    H224855   5.521   3.580   3.816  0.6594 -1.4766 -0.5701
 1074TIP3   OH224856   6.204   5.870   2.969  0.1128  0.1919 -0.0570
 1074TIP3    H124857   6.175   5.850   3.058 -1.0770 -1.5150 -0.7540
 1074TIP3    H224858   6.285   5.821   2.958 -0.7994 -1.3168 -0.5070
 1075TIP3   OH224859   5.748   6.698   2.014  0.3740 -0.0017 -0.0684
 1075TIP3    H124860   5.720   6.781   2.052  0.3540 -0.3650  0.7564
 1075TIP3    H224861   5.758   6.715   1.921  1.5175  1.2444  0.2406
 1076TIP3   OH224862   0.208   6.407   0.778 -0.2502 -0.1831  0.0784
 1076TIP3    H124863   0.214   6.341   0.709 -1.1914 -1.3262  1.0277
 1076TIP3    H224864   0.115   6.410   0.800  0.1288 -0.6316  1.9632
 1077TIP3   OH224865   5.213   0.924   7.910 -0.3170  0.4679 -0.1412
 1077TIP3    H124866   5.153   0.858   7.945 -1.4940  1.1427 -0.8237
 1077TIP3    H224867   5.262   0.879   7.841  0.3197 -0.2166  0.7408
 1078TIP3   OH224868   4.354   6.753   1.030 -0.7076  0.3830  0.5201
 1078TIP3    H124869   4.376   6.754   1.124  0.3624  2.4846  0.3130
 1078TIP3    H224870   4.402   6.678   0.995  0.6308  0.8352  1.3131
 1079TIP3   OH224871   6.141   1.567   8.724 -0.1833 -0.5491 -0.2972
 1079TIP3    H124872   6.046   1.571   8.733 -0.3806 -0.8542 -1.9055
 1079TIP3    H224873   6.160   1.621   8.648  0.7984 -1.4950 -0.7497
 1080TIP3   OH224874   1.541   5.578   2.781  0.2470  0.0974  0.2150
 1080TIP3    H124875   1.580   5.591   2.695 -0.6516 -0.8539 -0.3677
 1080TIP3    H224876   1.599   5.624   2.842  1.8033 -0.6195 -0.6937
 1081TIP3   OH224877   3.982   0.735   2.502  0.0141 -0.4463  0.2266
 1081TIP3    H124878   4.041   0.810   2.502  0.3303 -0.6133  2.5335
 1081TIP3    H224879   4.032   0.666   2.547 -1.4344 -1.0184  1.0067
 1082TIP3   OH224880   3.229   1.164   3.258  0.4636 -0.1501 -0.4218
 1082TIP3    H124881   3.286   1.222   3.207 -0.2142  1.9850  1.0735
 1082TIP3    H224882   3.258   1.176   3.349 -1.3557 -0.1871  0.2057
 1083TIP3   OH224883   4.079   5.641   7.990  0.0328  0.0933 -0.1096
 1083TIP3    H124884   4.040   5.599   8.067  0.2072 -1.1430 -0.6720
 1083TIP3    H224885   4.005   5.673   7.939 -0.2072 -1.1477 -0.5615
 1084TIP3   OH224886   0.880   3.707   8.432  0.2874  0.0188 -0.3177
 1084TIP3    H124887   0.826   3.628   8.440  0.5170 -0.2706 -1.3832
 1084TIP3    H224888   0.822   3.779   8.455 -0.6868 -0.2486 -1.8011
 1085TIP3   OH224889   5.658   5.130   0.986  0.6470  0.3434  0.6144
 1085TIP3    H124890   5.677   5.180   0.906 -0.2396  2.3417  1.5905
 1085TIP3    H224891   5.614   5.051   0.954 -0.5366  1.5327 -0.8419
 1086TIP3   OH224892   1.671   0.752   0.976 -0.1574  0.5467 -0.2700
 1086TIP3    H124893   1.684   0.846   0.988 -1.7416  0.6416  0.9008
 1086TIP3    H224894   1.577   0.741   0.967 -0.0276 -0.9758 -0.0231
 1087TIP3   OH224895   6.012   5.717   0.775 -0.0405  0.1588  0.1628
 1087TIP3    H124896   5.933   5.759   0.808 -0.1955 -0.8563  1.1156
 1087TIP3    H224897   5.993   5.699   0.683 -0.0042  2.0403 -0.2594
 1088TIP3   OH224898   5.318   5.404   1.731  0.2690 -0.5690 -0.5742
 1088TIP3    H124899   5.345   5.439   1.646 -1.0164 -0.0801 -0.8081
 1088TIP3    H224900   5.318   5.309   1.719 -0.9716 -0.4797 -1.4910
 1089TIP3   OH224901   3.685   5.589   8.281  0.0025 -0.0632 -0.3731
 1089TIP3    H124902   3.608   5.544   8.246  0.2076  0.2380 -1.2482
 1089TIP3    H224903   3.659   5.681   8.284  0.7113  0.1973 -1.7865
 1090TIP3   OH224904   4.118   6.600   0.984 -0.1520 -0.2516 -0.1377
 1090TIP3    H124905   4.167   6.531   1.029  0.6307 -0.3973 -1.1945
 1090TIP3    H224906   4.183   6.669   0.968 -1.2473  1.5415  2.4114
 1091TIP3   OH224907   6.674   0.131   0.213 -0.1083 -0.1641 -0.0881
 1091TIP3    H124908   6.719   0.082   0.282  1.5704  1.1646 -0.1625
 1091TIP3    H224909   6.735   0.202   0.191 -0.1890 -0.9774 -3.4730
 1092TIP3   OH224910   3.578   1.498   8.538 -0.2165 -0.2917  0.2574
 1092TIP3    H124911   3.533   1.566   8.488  0.6309  0.4882  0.5390
 1092TIP3    H224912   3.521   1.421   8.530 -0.2190 -0.1362 -1.7345
 1093TIP3   OH224913   4.605   3.887   0.841 -0.3370  0.8164 -0.2355
 1093TIP3    H124914   4.694   3.869   0.813 -0.1508  1.4864 -0.0802
 1093TIP3    H224915   4.576   3.806   0.882  0.7128  1.0501  1.0282
 1094TIP3   OH224916   5.166   0.865   8.553 -0.2540 -0.2811  0.2424
 1094TIP3    H124917   5.108   0.939   8.571 -0.7348 -0.5375 -0.2338
 1094TIP3    H224918   5.163   0.854   8.458  1.5277  0.4565  0.0570
 1095TIP3   OH224919   5.788   5.081   2.759 -0.2072  0.4381 -0.0325
 1095TIP3    H124920   5.814   5.030   2.682 -0.2066  0.9849 -0.4007
 1095TIP3    H224921   5.870   5.108   2.799 -0.1755  1.6433 -0.8475
 1096TIP3   OH224922   0.598   2.685   0.510  0.0600 -0.2518 -0.1865
 1096TIP3    H124923   0.623   2.768   0.471  1.2721 -0.3088  0.4146
 1096TIP3    H224924   0.510   2.700   0.544  0.4324  0.9398  0.3165
 1097TIP3   OH224925   3.727   6.794   1.712  0.1420  0.0155  0.1354
 1097TIP3    H124926   3.687   6.710   1.734 -0.7375  0.7180  1.3508
 1097TIP3    H224927   3.775   6.777   1.631 -1.5046 -1.1984 -0.6447
 1098TIP3   OH224928   2.043   2.700   1.612 -0.1841  0.2056 -0.5826
 1098TIP3    H124929   2.051   2.791   1.640  1.9129 -0.8066  2.6992
 1098TIP3    H224930   1.968   2.666   1.662  0.8730 -0.5244  0.5867
 1099TIP3   OH224931   1.254   6.430   8.503 -0.3208 -0.4657 -0.3574
 1099TIP3    H124932   1.311   6.507   8.497  0.2361 -0.7641  0.7309
 1099TIP3    H224933   1.171   6.463   8.535 -0.5317 -0.1358 -1.2132
 1100TIP3   OH224934   2.607   0.300   3.431 -0.0794  0.4746 -0.0630
 1100TIP3    H124935   2.653   0.384   3.423 -0.6339  0.7532 -0.3515
 1100TIP3    H224936   2.619   0.276   3.523  1.7190 -0.0894 -0.4167
 1101TIP3   OH224937   1.006   1.211   8.706 -0.3687  0.5177 -0.0861
 1101TIP3    H124938   0.935   1.147   8.705  1.4758 -1.6566  0.6845
 1101TIP3    H224939   1.053   1.195   8.624  0.0906  0.9310  0.0969
 1102TIP3   OH224940   3.525   3.977   4.097  0.3650  0.0636  0.0274
 1102TIP3    H124941   3.578   3.900   4.120 -0.2535 -0.8892 -1.5507
 1102TIP3    H224942   3.530   3.982   4.002 -0.2379  1.5454  0.0487
 1103TIP3   OH224943   6.620   0.754   3.023 -0.3896  0.2606  0.4876
 1103TIP3    H124944   6.629   0.668   3.065  0.7472  0.1046 -0.0455
 1103TIP3    H224945   6.529   0.780   3.042 -1.5440 -2.0839 -1.2863
 1104TIP3   OH224946   0.051   2.570   1.961  0.2590  0.1181 -1.2615
 1104TIP3    H124947   0.056   2.662   1.936  1.7838  0.6514  0.7008
 1104TIP3    H224948   0.111   2.525   1.902 -1.8507 -0.0131 -3.4540
 1105TIP3   OH224949   3.127   2.215   1.326 -0.0333  0.0388 -0.2703
 1105TIP3    H124950   3.044   2.179   1.296 -0.0697  0.9564 -1.3360
 1105TIP3    H224951   3.133   2.188   1.418 -1.3236 -0.3605 -0.2799
 1106TIP3   OH224952   2.753   4.868   2.589  0.5652  0.0837  0.0490
 1106TIP3    H124953   2.688   4.921   2.636  1.0346  0.7917 -0.0809
 1106TIP3    H224954   2.797   4.931   2.531  1.5999 -0.3192  0.3844
 1107TIP3   OH224955   1.867   3.409   7.726  0.7132  0.1916 -0.1805
 1107TIP3    H124956   1.852   3.324   7.686  1.9687  0.3845 -1.1167
 1107TIP3    H224957   1.962   3.415   7.737  0.5424  0.9117  1.1629
 1108TIP3   OH224958   1.984   1.653   1.911  0.1816 -0.4305  0.7984
 1108TIP3    H124959   2.076   1.627   1.909  0.3154 -0.1224  1.9001
 1108TIP3    H224960   1.983   1.732   1.966 -0.3036  1.5119 -1.8022
 1109TIP3   OH224961   0.336   6.688   2.916  0.2083 -0.2713 -0.1753
 1109TIP3    H124962   0.423   6.726   2.925 -0.1690  0.3977  0.7982
 1109TIP3    H224963   0.333   6.618   2.981 -0.8650  1.4490  1.7675
 1110TIP3   OH224964   2.030   6.787   2.806 -0.1727 -0.1111  0.3149
 1110TIP3    H124965   2.010   6.820   2.893  2.3331 -0.8515  1.2709
 1110TIP3    H224966   1.947   6.754   2.772 -1.1127 -0.2792  2.6387
 1111TIP3   OH224967   2.045   6.178   0.066 -0.0123  0.6504 -0.2466
 1111TIP3    H124968   1.971   6.119   0.079  1.5284 -1.1510  0.9072
 1111TIP3    H224969   2.106   6.127   0.013  1.5758  0.9616  1.2087
 1112TIP3   OH224970   6.055   1.217   2.590  0.6314 -0.0879  0.2503
 1112TIP3    H124971   6.063   1.193   2.682  1.2633 -1.8882 -0.2437
 1112TIP3    H224972   5.964   1.245   2.580  0.5675  0.1804  1.4061
 1113TIP3   OH224973   1.233   3.633   0.779  0.3613  0.3307  0.1887
 1113TIP3    H124974   1.148   3.645   0.821 -0.2435 -0.9905 -0.6057
 1113TIP3    H224975   1.215   3.580   0.702  1.4589  2.5551 -1.7264
 1114TIP3   OH224976   3.393   1.296   0.230 -0.1255 -0.3970  0.5046
 1114TIP3    H124977   3.442   1.341   0.161  0.6486  1.0480  1.9344
 1114TIP3    H224978   3.309   1.342   0.233  0.8916  1.5334  2.3883
 1115TIP3   OH224979   4.933   5.625   3.196  0.0603  0.0269  0.0188
 1115TIP3    H124980   4.943   5.530   3.193 -0.1895 -0.0121  0.4145
 1115TIP3    H224981   4.852   5.642   3.147 -0.0574  0.0097  0.2070
 1116TIP3   OH224982   4.690   0.957   3.052 -0.0095 -0.1889 -0.2004
 1116TIP3    H124983   4.675   0.894   2.981  1.3963  0.0139 -0.7067
 1116TIP3    H224984   4.705   0.902   3.130  0.0961 -0.4569 -0.4071
 1117TIP3   OH224985   6.367   2.836   0.533 -0.6320 -0.2170  0.3699
 1117TIP3    H124986   6.330   2.870   0.614 -2.1918 -2.5820  0.7336
 1117TIP3    H224987   6.299   2.851   0.467  0.6327  1.7131 -0.6060
 1118TIP3   OH224988   3.390   2.869   0.667  0.3185 -0.3026 -0.2521
 1118TIP3    H124989   3.372   2.904   0.580  0.3993 -0.4196 -0.3153
 1118TIP3    H224990   3.314   2.896   0.720  0.9070  0.9555 -0.0159
 1119TIP3   OH224991   2.659   0.014   0.316  0.2151  0.7438  0.3652
 1119TIP3    H124992   2.635   0.103   0.290  0.8953  1.2972  1.5810
 1119TIP3    H224993   2.631   0.007   0.407 -0.3455 -0.4914  0.1196
 1120TIP3   OH224994   0.175   0.131   2.617  0.1964  0.1710  0.4630
 1120TIP3    H124995   0.197   0.139   2.710 -0.6215  1.2345  0.5852
 1120TIP3    H224996   0.240   0.070   2.582  1.9562  1.5130  1.2437
 1121TIP3   OH224997   5.154   6.723   2.455  0.2009 -0.7381 -0.2321
 1121TIP3    H124998   5.150   6.649   2.394  1.1887 -0.8550 -0.1745
 1121TIP3    H224999   5.239   6.763   2.439 -0.1979  0.2217 -0.0486
 1122TIP3   OH225000   4.192   0.433   0.492 -0.2494 -0.2171 -0.0708
 1122TIP3    H125001   4.265   0.431   0.431  0.3825  0.1540  0.6489
 1122TIP3    H225002   4.115   0.414   0.439  0.5216 -2.1138 -0.5924
 1123TIP3   OH225003   4.847   6.617   2.099  0.2046  0.1668 -0.1785
 1123TIP3    H125004   4.856   6.611   2.004 -1.8726 -0.3173 -0.3852
 1123TIP3    H225005   4.834   6.710   2.115 -1.4864  0.0356 -0.6203
 1124TIP3   OH225006   2.801   3.552   0.325  0.3622 -0.3719 -0.0437
 1124TIP3    H125007   2.772   3.637   0.293  0.1935 -0.7866 -1.0649
 1124TIP3    H225008   2.890   3.566   0.357  0.3726  0.1666 -0.3028
 1125TIP3   OH225009   1.300   4.283   8.651  0.1450  0.2252  0.2496
 1125TIP3    H125010   1.276   4.294   8.559 -0.6950 -2.8163  0.0056
 1125TIP3    H225011   1.283   4.369   8.690 -3.6777  0.5307 -1.5682
 1126TIP3   OH225012   6.694   1.158   0.297 -0.1200 -0.2610  0.6921
 1126TIP3    H125013   6.683   1.063   0.296  0.0780 -0.3379 -2.5684
 1126TIP3    H225014   6.651   1.188   0.217 -0.0006  2.3980  1.5429
 1127TIP3   OH225015   4.599   2.199   2.896 -0.4269 -0.2282  0.2994
 1127TIP3    H125016   4.577   2.292   2.906 -1.2767 -0.4267  0.3619
 1127TIP3    H225017   4.643   2.176   2.977  0.2542  0.2381  0.0784
 1128TIP3   OH225018   1.228   0.840   0.250 -0.0364 -0.0625  0.1904
 1128TIP3    H125019   1.300   0.793   0.209  0.1332 -0.3733  0.8277
 1128TIP3    H225020   1.182   0.882   0.177 -1.1548 -2.5067 -0.6325
 1129TIP3   OH225021   5.068   2.204   0.905 -0.1162 -0.0470  0.3000
 1129TIP3    H125022   5.076   2.112   0.877  1.2632  0.4776 -1.2087
 1129TIP3    H225023   5.077   2.201   1.000  0.0207 -1.4631  0.2678
 1130TIP3   OH225024   1.279   4.050   7.947  0.0403 -0.7772 -0.3495
 1130TIP3    H125025   1.317   4.102   7.877  2.0756 -1.1841  0.4016
 1130TIP3    H225026   1.252   4.115   8.012 -0.7516 -0.4750 -0.9636
 1131TIP3   OH225027   2.850   4.194   7.714 -0.1826  0.0500 -0.2913
 1131TIP3    H125028   2.857   4.099   7.719  0.1860  0.0483 -0.7705
 1131TIP3    H225029   2.880   4.225   7.799 -0.5427 -0.2743 -0.0458
 1132TIP3   OH225030   1.746   6.220   3.417  0.3971  0.0136 -0.1323
 1132TIP3    H125031   1.690   6.169   3.476 -0.4439  0.4836 -0.5009
 1132TIP3    H225032   1.790   6.283   3.474 -0.5933  0.6245 -0.0117
 1133TIP3   OH225033   6.714   1.006   2.925  0.2439  0.1926  0.2949
 1133TIP3    H125034   6.687   0.916   2.944  1.1220 -0.0731  0.3423
 1133TIP3    H225035   6.714   1.012   2.830  3.0942 -0.8418  0.1197
 1134TIP3   OH225036   6.328   5.008   2.548  0.2458  0.2178  0.1521
 1134TIP3    H125037   6.370   4.935   2.593 -1.5442 -0.4245  0.8400
 1134TIP3    H225038   6.382   5.084   2.570  2.1322 -0.8513 -0.5770
 1135TIP3   OH225039   1.646   1.575   1.502 -0.4652  0.1274  0.2825
 1135TIP3    H125040   1.595   1.504   1.540  1.0257 -0.7880  0.6705
 1135TIP3    H225041   1.723   1.582   1.559  1.3004 -0.5309 -1.8483
 1136TIP3   OH225042   4.465   2.921   1.256 -0.1157 -0.4712 -0.1238
 1136TIP3    H125043   4.437   2.871   1.180 -1.2054 -1.2632  0.7645
 1136TIP3    H225044   4.445   2.865   1.331  0.2287  0.5930  0.8015
 1137TIP3   OH225045   1.673   0.384   0.919  0.2927  0.0203 -0.2876
 1137TIP3    H125046   1.639   0.308   0.873  0.8203  1.0824 -2.5510
 1137TIP3    H225047   1.601   0.447   0.919  0.4397  0.1925 -0.0327
 1138TIP3   OH225048   0.657   1.575   3.275  0.5207 -0.2303 -1.1425
 1138TIP3    H125049   0.614   1.495   3.244 -0.9608  0.5502 -1.2272
 1138TIP3    H225050   0.615   1.593   3.359 -0.4039  1.3297 -1.8856
 1139TIP3   OH225051   6.078   4.087   2.226  0.7231 -0.4428 -0.4413
 1139TIP3    H125052   5.995   4.090   2.273  0.4709 -3.6244 -0.4644
 1139TIP3    H225053   6.123   4.011   2.263  3.9390  1.4753 -0.0374
 1140TIP3   OH225054   3.763   5.384   1.346  0.3430 -0.2401 -0.3848
 1140TIP3    H125055   3.772   5.478   1.364  2.9680 -0.4116 -0.4035
 1140TIP3    H225056   3.774   5.342   1.431  0.4972 -0.5553 -0.5556
 1141TIP3   OH225057   3.953   0.009   8.595  0.4818 -0.5186  0.0878
 1141TIP3    H125058   3.918  -0.074   8.561  0.5124 -0.5897  0.2284
 1141TIP3    H225059   3.944   0.070   8.523 -1.0036 -0.2343  0.4789
 1142TIP3   OH225060   4.874   0.064   0.656 -0.8231 -0.8449  0.4239
 1142TIP3    H125061   4.793   0.090   0.612 -0.7203  0.1325  0.7843
 1142TIP3    H225062   4.872  -0.031   0.655 -0.7396 -0.8774 -1.8585
 1143TIP3   OH225063   6.434   4.245   2.408 -0.3091  0.2658 -0.6433
 1143TIP3    H125064   6.372   4.252   2.336 -0.7716 -2.1526 -0.5794
 1143TIP3    H225065   6.503   4.188   2.375  0.7218  1.0752  0.0491
 1144TIP3   OH225066   4.626   6.308   8.289  0.1291  0.2887 -0.4937
 1144TIP3    H125067   4.644   6.250   8.363  0.7367 -0.6504 -1.3627
 1144TIP3    H225068   4.596   6.250   8.220 -0.6708  1.1899 -0.9284
 1145TIP3   OH225069   6.167   6.601   0.564  0.5681 -0.1375  0.1795
 1145TIP3    H125070   6.166   6.580   0.471  0.8510 -2.2105  0.5995
 1145TIP3    H225071   6.233   6.542   0.601 -0.9523 -0.7958  1.9864
 1146TIP3   OH225072   0.187   1.158   8.623 -0.0963  0.0504 -0.7715
 1146TIP3    H125073   0.184   1.118   8.536  0.1682  0.6085 -1.0395
 1146TIP3    H225074   0.261   1.219   8.619 -2.1037  2.6329 -1.2804
 1147TIP3   OH225075   3.567   6.260   2.618  0.1494 -0.7137  0.0721
 1147TIP3    H125076   3.483   6.280   2.578  0.3829  0.8291  0.2951
 1147TIP3    H225077   3.568   6.164   2.625 -0.8140 -0.8819 -1.5570
 1148TIP3   OH225078   4.958   0.311   1.071 -0.0500 -0.0140 -0.5220
 1148TIP3    H125079   4.875   0.300   1.117 -0.2840  0.7934 -0.7345
 1148TIP3    H225080   5.001   0.384   1.116  1.4766 -1.6761  0.8934
 1149TIP3   OH225081   3.320   1.215   1.563 -0.6221  0.3621  0.5617
 1149TIP3    H125082   3.376   1.145   1.596 -0.1844  0.1636 -0.5795
 1149TIP3    H225083   3.337   1.288   1.623 -0.3287 -0.1830  1.1602
 1150TIP3   OH225084   0.084   0.997   8.808 -0.1319 -0.6719 -0.6098
 1150TIP3    H125085   0.112   1.062   8.744  1.5083  1.4408  2.0044
 1150TIP3    H225086  -0.012   0.999   8.805 -0.1483  2.2188 -0.3992
 1151TIP3   OH225087   3.899   5.990   0.210 -0.0978  0.3567 -0.9347
 1151TIP3    H125088   3.951   6.065   0.181  2.4988 -0.8475  0.2903
 1151TIP3    H225089   3.925   5.918   0.152 -0.1018 -0.3704 -0.0569
 1152TIP3   OH225090   5.943   5.449   0.784  0.3261 -0.0971 -0.3154
 1152TIP3    H125091   5.956   5.542   0.765 -2.6003  0.1529 -1.5774
 1152TIP3    H225092   5.925   5.446   0.878 -0.9507  0.8211 -0.5106
 1153TIP3   OH225093   6.464   0.722   8.120 -0.4350 -0.0318 -0.1870
 1153TIP3    H125094   6.437   0.756   8.206 -0.9921 -0.0958 -0.3357
 1153TIP3    H225095   6.545   0.675   8.138 -0.6938 -0.2816  0.3581
 1154TIP3   OH225096   3.838   2.813   3.896  0.5205  0.3702 -0.6390
 1154TIP3    H125097   3.745   2.801   3.917  1.3748 -1.2346  3.0737
 1154TIP3    H225098   3.847   2.907   3.878 -1.6288  0.7820  0.1288
 1155TIP3   OH225099   3.072   4.416   0.397 -0.3906 -0.6012  0.3499
 1155TIP3    H125100   3.151   4.376   0.362 -0.5513  0.4790 -1.3810
 1155TIP3    H225101   3.065   4.381   0.486 -0.0642 -3.7026 -0.6945
 1156TIP3   OH225102   1.451   6.722   0.659  0.2594  0.7159 -0.1410
 1156TIP3    H125103   1.453   6.714   0.563 -3.2141 -0.8633 -0.2217
 1156TIP3    H225104   1.370   6.770   0.677  0.7689  0.8532  2.0542
 1157TIP3   OH225105   5.616   0.977   8.802  0.4000  0.0069  0.6383
 1157TIP3    H125106   5.595   1.016   8.887 -0.6693 -0.7151  0.7303
 1157TIP3    H225107   5.531   0.972   8.757  0.6061 -1.5666  0.3698
 1158TIP3   OH225108   6.752   1.947   2.748  0.1786  0.0063  0.3124
 1158TIP3    H125109   6.793   2.013   2.804 -0.1983 -0.3112  0.9800
 1158TIP3    H225110   6.664   1.980   2.732  0.4200  0.3012 -0.4582
 1159TIP3   OH225111   6.697   3.539   0.940  0.7774 -0.7373 -0.1384
 1159TIP3    H125112   6.719   3.503   0.854  0.3235 -0.9445 -0.1715
 1159TIP3    H225113   6.609   3.505   0.959  0.9379 -0.8349  0.4829
 1160TIP3   OH225114   6.124   2.377   2.551 -0.1455  0.2844  0.0877
 1160TIP3    H125115   6.179   2.402   2.625  0.0488  0.5520 -0.1477
 1160TIP3    H225116   6.135   2.282   2.545  0.3410  0.3439  0.0026
 1161TIP3   OH225117   1.262   0.810   2.605 -0.2864  0.3743  0.5845
 1161TIP3    H125118   1.226   0.862   2.678  0.3189  2.0461 -0.2508
 1161TIP3    H225119   1.222   0.847   2.527  1.5774  0.8781 -0.2000
 1162TIP3   OH225120   4.383   1.077   0.983 -0.0153  0.0911 -0.1362
 1162TIP3    H125121   4.413   0.992   1.015 -0.7400 -0.3760 -0.6514
 1162TIP3    H225122   4.295   1.086   1.018  0.2048  0.8158  0.2394
 1163TIP3   OH225123   1.452   0.777   3.030  0.0573  0.0878 -0.8767
 1163TIP3    H125124   1.401   0.697   3.044  0.2322 -0.1157 -1.3713
 1163TIP3    H225125   1.472   0.809   3.118 -0.0675 -0.3796 -0.6766
 1164TIP3   OH225126   1.807   0.692   1.913 -0.1279  0.2239 -0.5444
 1164TIP3    H125127   1.730   0.720   1.864 -0.2966 -0.7708 -0.8552
 1164TIP3    H225128   1.776   0.684   2.003 -0.9237 -2.0929 -0.9737
 1165TIP3   OH225129   5.685   5.960   8.491  0.3655  0.4148  0.0451
 1165TIP3    H125130   5.739   6.036   8.514  0.4772 -0.0187  1.3515
 1165TIP3    H225131   5.713   5.936   8.403 -0.6207  2.6641 -0.9414
 1166TIP3   OH225132   0.625   4.653   2.524  0.7349  0.2489  0.1299
 1166TIP3    H125133   0.556   4.672   2.460  1.5083  1.1733 -0.4661
 1166TIP3    H225134   0.619   4.559   2.539 -0.0894  0.1748 -0.5763
 1167TIP3   OH225135   4.455   0.100   2.790  0.7233  0.1680 -0.7983
 1167TIP3    H125136   4.374   0.112   2.741  1.1763  2.5065 -1.0963
 1167TIP3    H225137   4.523   0.096   2.723  1.0068 -0.1877 -0.4905
 1168TIP3   OH225138   0.565   0.925   3.496 -0.0717  0.0557 -0.1591
 1168TIP3    H125139   0.581   0.883   3.581 -1.7469  0.4745  0.3973
 1168TIP3    H225140   0.648   0.967   3.474  0.8766 -1.3871  0.4900
 1169TIP3   OH225141   1.597   5.317   3.364 -0.1827  0.3849 -0.0216
 1169TIP3    H125142   1.571   5.250   3.427 -0.9380  0.0848 -0.6298
 1169TIP3    H225143   1.658   5.272   3.306 -2.7232 -0.6839 -2.1066
 1170TIP3   OH225144   4.208   6.375   2.487 -0.3260 -0.1733 -0.2098
 1170TIP3    H125145   4.194   6.301   2.428 -0.9937 -0.4230  0.2531
 1170TIP3    H225146   4.284   6.350   2.540 -1.6657 -1.3779  1.2357
 1171TIP3   OH225147   2.454   4.411   0.034  0.5359  0.5201 -0.3369
 1171TIP3    H125148   2.494   4.336  -0.011 -0.0644  0.0288 -0.0753
 1171TIP3    H225149   2.526   4.452   0.082  0.5771 -0.8937  0.8733
 1172TIP3   OH225150   5.807   6.165   1.371 -0.1190 -0.4311  0.4050
 1172TIP3    H125151   5.892   6.121   1.384 -0.1856 -1.1371 -1.3664
 1172TIP3    H225152   5.747   6.117   1.428  0.5489 -0.2200  1.3256
 1173TIP3   OH225153   3.838   5.743   2.401 -0.1855  0.1561  0.7554
 1173TIP3    H125154   3.822   5.666   2.347 -0.9371 -0.1137  1.3403
 1173TIP3    H225155   3.778   5.809   2.367 -2.9607 -0.9227  3.0901
 1174TIP3   OH225156   0.680   0.351   1.213  0.1765  0.2233 -0.0052
 1174TIP3    H125157   0.732   0.427   1.186  1.2963 -0.1371  1.0371
 1174TIP3    H225158   0.726   0.276   1.177 -0.7492  0.0056 -0.7610
 1175TIP3   OH225159   3.968   6.039   3.817  0.7197 -0.2332  0.8072
 1175TIP3    H125160   3.968   6.013   3.725 -0.7242 -0.0483  0.7448
 1175TIP3    H225161   3.927   5.966   3.863  1.4097 -0.3129  1.3095
 1176TIP3   OH225162   2.002   5.378   2.087  0.4227  0.1105  0.2412
 1176TIP3    H125163   1.948   5.371   2.165  0.8669 -1.7380  0.4118
 1176TIP3    H225164   1.953   5.332   2.019  1.3874 -0.8866  0.2000
 1177TIP3   OH225165   3.769   1.624   2.230 -0.4394  0.0085  0.2291
 1177TIP3    H125166   3.817   1.621   2.312  0.8467 -0.5625 -0.5190
 1177TIP3    H225167   3.831   1.594   2.164 -2.1178 -1.7279 -0.6564
 1178TIP3   OH225168   1.866   0.585   2.608  0.4604 -0.2828 -0.5762
 1178TIP3    H125169   1.895   0.621   2.692 -0.0055  2.0976 -1.3524
 1178TIP3    H225170   1.845   0.494   2.627  0.0180  0.2644  1.9724
 1179TIP3   OH225171   6.346   6.269   0.135  0.1341 -0.4540 -0.2348
 1179TIP3    H125172   6.372   6.334   0.070 -0.2654  0.5284  0.5692
 1179TIP3    H225173   6.253   6.256   0.120 -0.3400  1.0306  1.1870
 1180TIP3   OH225174   0.401   5.952   8.785 -0.4547  0.4133  0.2623
 1180TIP3    H125175   0.380   6.030   8.734 -3.0757  0.0698  0.6610
 1180TIP3    H225176   0.363   5.880   8.735 -3.4572  0.0955  2.6679
 1181TIP3   OH225177   3.199   2.873   3.120 -0.2517 -0.2824  0.4385
 1181TIP3    H125178   3.150   2.953   3.101  0.2582 -0.1064 -0.1865
 1181TIP3    H225179   3.153   2.804   3.073  0.2138 -0.0798 -0.3340
 1182TIP3   OH225180   2.928   5.612   0.258  0.1749  0.5954  0.3153
 1182TIP3    H125181   2.971   5.671   0.318  1.2917  0.8774 -0.7249
 1182TIP3    H225182   2.960   5.637   0.171  0.1517 -1.0750 -0.2274
 1183TIP3   OH225183   1.928   1.314   4.113  0.0535  0.4732  0.0748
 1183TIP3    H125184   2.016   1.340   4.142  0.5474 -0.0729 -0.8684
 1183TIP3    H225185   1.913   1.364   4.034 -1.3069  1.9923  1.2313
 1184TIP3   OH225186   4.981   6.375   2.480 -0.4327 -0.7737 -0.5886
 1184TIP3    H125187   5.015   6.448   2.429 -0.7894  1.2040  1.8158
 1184TIP3    H225188   5.035   6.300   2.453  1.2197  0.7571 -1.7871
 1185TIP3   OH225189   3.113   4.702   2.035  0.0960 -0.4653 -0.3110
 1185TIP3    H125190   3.187   4.758   2.010  1.0958  0.3087  3.6487
 1185TIP3    H225191   3.145   4.613   2.022  0.2525 -0.1615 -2.2231
 1186TIP3   OH225192   3.791   5.836   0.753 -0.2364  0.3817  0.1870
 1186TIP3    H125193   3.867   5.873   0.708  0.0368  0.1030  0.4132
 1186TIP3    H225194   3.820   5.824   0.844 -0.8087  1.0286  0.4671
 1187TIP3   OH225195   0.174   4.954   0.266  0.3091 -0.0022 -0.4226
 1187TIP3    H125196   0.223   4.960   0.183  0.8712 -0.2768 -0.1141
 1187TIP3    H225197   0.208   5.026   0.319 -0.3177  0.4050 -0.5609
 1188TIP3   OH225198   3.584   1.909   0.813 -0.2102  0.0591 -0.1346
 1188TIP3    H125199   3.663   1.961   0.801 -1.4986  2.4389  0.9821
 1188TIP3    H225200   3.582   1.850   0.738  3.0938 -0.8149  0.3303
 1189TIP3   OH225201   0.297   0.449   8.868  0.8688  0.3892 -0.5976
 1189TIP3    H125202   0.280   0.397   8.789 -0.6153 -0.1057  0.0054
 1189TIP3    H225203   0.363   0.399   8.916  0.2752 -0.3972 -0.5643
 1190TIP3   OH225204   0.943   4.133   2.859  0.5264 -0.1651 -0.4082
 1190TIP3    H125205   0.912   4.055   2.813  0.9637 -0.8375  0.4017
 1190TIP3    H225206   0.946   4.106   2.951  2.1743  0.2979 -0.2929
 1191TIP3   OH225207   4.399   0.867   3.976 -0.6698 -0.3955 -0.4602
 1191TIP3    H125208   4.417   0.919   4.054 -2.0449 -1.6616  0.7717
 1191TIP3    H225209   4.310   0.833   3.991 -0.9963 -0.6167 -2.6176
 1192TIP3   OH225210   3.745   3.048   2.500 -0.4483  0.4659 -0.1207
 1192TIP3    H125211   3.704   3.055   2.413  0.6045 -0.7080 -0.7418
 1192TIP3    H225212   3.817   3.111   2.497  0.6898 -0.8185 -0.7829
 1193TIP3   OH225213   3.184   4.589   1.519 -0.5476 -0.0115 -0.2223
 1193TIP3    H125214   3.202   4.669   1.471 -1.0198  0.1881 -0.0808
 1193TIP3    H225215   3.269   4.558   1.549 -0.5168  1.4093  1.2500
 1194TIP3   OH225216   0.812   3.507   1.507  0.1293  0.4085 -0.1710
 1194TIP3    H125217   0.815   3.596   1.540  2.8288 -0.0684  1.1628
 1194TIP3    H225218   0.897   3.494   1.465  0.1729 -1.7758  0.4631
 1195TIP3   OH225219   5.200   3.222   1.587 -0.2646  0.4645 -0.0467
 1195TIP3    H125220   5.168   3.246   1.500  0.0249  1.0060 -0.0091
 1195TIP3    H225221   5.172   3.294   1.643 -3.9203 -1.6288  1.1514
 1196TIP3   OH225222   1.259   5.673   2.747  0.1933 -0.1759  0.0006
 1196TIP3    H125223   1.343   5.701   2.783 -0.2506  0.3109  0.7035
 1196TIP3    H225224   1.201   5.672   2.823 -0.8681  1.1943 -0.7520
 1197TIP3   OH225225   1.236   1.484   2.511  0.0001  0.4890 -0.1966
 1197TIP3    H125226   1.309   1.429   2.483 -0.9422 -0.6019 -0.5559
 1197TIP3    H225227   1.247   1.493   2.606  0.2541 -0.1829 -0.1596
 1198TIP3   OH225228   6.721   3.727   1.191 -0.1255 -0.2401 -0.1836
 1198TIP3    H125229   6.810   3.693   1.203  0.1399  0.2816 -0.6540
 1198TIP3    H225230   6.700   3.707   1.100  0.1770  1.1579 -0.5892
 1199TIP3   OH225231   1.284   2.251   3.648  0.6953 -0.0105 -0.2745
 1199TIP3    H125232   1.208   2.308   3.638  0.3923 -0.4264 -0.3773
 1199TIP3    H225233   1.336   2.266   3.569  0.5681  0.0505 -0.3462
 1200TIP3   OH225234   0.425   6.782   2.249  0.5876 -0.2546 -0.0205
 1200TIP3    H125235   0.509   6.776   2.204  1.0900 -1.0051  0.9592
 1200TIP3    H225236   0.396   6.691   2.258  0.0028 -0.0495  0.2491
 1201TIP3   OH225237   4.565   2.744   1.888 -0.0422 -0.1093 -0.1964
 1201TIP3    H125238   4.633   2.806   1.861  0.1919 -1.0994 -2.1039
 1201TIP3    H225239   4.585   2.664   1.839 -1.0075 -1.3245  1.3045
 1202TIP3   OH225240   2.301   2.549   7.840 -0.3348 -0.6465  0.1592
 1202TIP3    H125241   2.251   2.577   7.916 -1.5577  2.0464 -1.4714
 1202TIP3    H225242   2.247   2.573   7.765  1.6056 -1.4793 -1.6366
 1203TIP3   OH225243   5.720   6.239   2.774  0.1667 -0.3846  0.5934
 1203TIP3    H125244   5.644   6.230   2.832 -0.5885 -1.5292 -0.5263
 1203TIP3    H225245   5.683   6.274   2.692  1.0276  0.0612  0.3869
 1204TIP3   OH225246   5.362   3.969   0.317 -0.5939  0.0150  0.1016
 1204TIP3    H125247   5.407   3.930   0.242  2.1317  3.1588 -0.1533
 1204TIP3    H225248   5.278   3.998   0.282 -0.1043 -0.1286 -1.2664
 1205TIP3   OH225249   0.520   5.548   1.888  0.2838 -0.0774 -0.0867
 1205TIP3    H125250   0.518   5.635   1.847  2.7353 -0.2690 -0.7740
 1205TIP3    H225251   0.564   5.493   1.823  1.2857 -1.1640  1.4681
 1206TIP3   OH225252   4.544   6.133   2.326  0.5681  0.1585 -0.4246
 1206TIP3    H125253   4.501   6.217   2.310  1.1719  1.3038  3.0533
 1206TIP3    H225254   4.637   6.154   2.334  0.7016 -0.7555  0.7646
 1207TIP3   OH225255   6.596   0.761   1.034 -0.7765  0.1925 -0.2805
 1207TIP3    H125256   6.656   0.689   1.057  0.8645  1.0749 -1.6290
 1207TIP3    H225257   6.528   0.719   0.982  0.3325 -0.3792 -1.3238
 1208TIP3   OH225258   1.461   2.334   3.433  0.0311 -0.6554 -0.1218
 1208TIP3    H125259   1.538   2.377   3.397  0.7098 -1.9983 -0.3117
 1208TIP3    H225260   1.425   2.283   3.360 -0.8730 -0.2957  0.0502
 1209TIP3   OH225261   6.107   4.748   0.365 -0.2566 -0.3366 -0.6635
 1209TIP3    H125262   6.079   4.677   0.422 -1.4095  0.2692 -0.4475
 1209TIP3    H225263   6.188   4.716   0.324 -0.2472 -1.3807  0.1397
 1210TIP3   OH225264   4.819   5.361   4.021  0.5386  0.2084  0.2374
 1210TIP3    H125265   4.837   5.268   4.014  0.7828  0.0414  2.4701
 1210TIP3    H225266   4.753   5.378   3.954  1.7705 -1.1728 -1.4005
 1211TIP3   OH225267   3.308   0.734   0.354 -0.0411  0.0451  0.1781
 1211TIP3    H125268   3.245   0.748   0.425  0.6506 -1.4009  1.1144
 1211TIP3    H225269   3.288   0.646   0.322  0.4829  0.1985 -0.5958
 1212TIP3   OH225270   1.597   4.758   2.418  0.0803 -0.0635  0.1278
 1212TIP3    H125271   1.562   4.737   2.331 -1.1658  0.2809  0.5259
 1212TIP3    H225272   1.609   4.853   2.417 -0.9406  0.0849  0.6659
 1213TIP3   OH225273   4.640   2.489   2.684  0.4057  0.2183 -0.0792
 1213TIP3    H125274   4.595   2.410   2.653  1.9178 -0.4869 -0.5862
 1213TIP3    H225275   4.625   2.554   2.616 -0.0594  0.0899 -0.1046
 1214TIP3   OH225276   2.997   5.909   1.589  0.0251  0.2028 -0.2322
 1214TIP3    H125277   3.054   5.920   1.513  0.7760 -0.7190  0.1709
 1214TIP3    H225278   3.048   5.943   1.663 -0.3681  0.3325 -0.0163
 1215TIP3   OH225279   5.380   6.588   3.595  0.2637  0.6450  0.1555
 1215TIP3    H125280   5.331   6.594   3.513  1.6278 -0.5217 -0.8061
 1215TIP3    H225281   5.337   6.650   3.654 -1.3411  0.8208 -1.1296
 1216TIP3   OH225282   2.932   1.123   3.614 -0.5344 -0.1212 -0.5005
 1216TIP3    H125283   2.861   1.131   3.679  0.2802  0.8151  0.2971
 1216TIP3    H225284   2.998   1.186   3.643  0.8596 -1.3418 -0.9266
 1217TIP3   OH225285   0.533   5.679   8.736  0.3328 -0.1365 -0.3642
 1217TIP3    H125286   0.538   5.774   8.721 -0.6379 -0.1227 -0.6547
 1217TIP3    H225287   0.452   5.667   8.786  1.9820 -0.5151  2.4153
 1218TIP3   OH225288   0.516   2.170   1.529 -0.0120  0.0936  0.3720
 1218TIP3    H125289   0.466   2.249   1.551 -1.4299 -0.5643 -0.3177
 1218TIP3    H225290   0.536   2.180   1.436 -0.3368 -0.4032  0.2404
 1219TIP3   OH225291   6.751   6.312   2.875  0.0576 -0.2155  0.2653
 1219TIP3    H125292   6.710   6.253   2.811 -0.0127  0.8087 -0.6745
 1219TIP3    H225293   6.684   6.379   2.891  0.3575 -0.0508  0.8448
 1220TIP3   OH225294   6.631   4.694   2.588  0.4749  0.2642 -0.5266
 1220TIP3    H125295   6.673   4.654   2.664  0.4401  1.1150 -0.0523
 1220TIP3    H225296   6.627   4.623   2.523  2.7440  0.1402 -0.6407
 1221TIP3   OH225297   1.115   2.959   3.305 -0.5026 -0.2004 -0.2506
 1221TIP3    H125298   1.105   3.044   3.348 -0.6241 -0.1535 -0.3686
 1221TIP3    H225299   1.061   2.899   3.356  0.6271 -0.5002  0.6331
 1222TIP3   OH225300   1.011   6.527   2.808  0.2581  0.2110 -0.9282
 1222TIP3    H125301   1.053   6.446   2.834  1.4190  0.1034 -2.9289
 1222TIP3    H225302   1.054   6.595   2.860  0.1624 -0.3069 -0.1625
 1223TIP3   OH225303   6.562   1.178   2.307 -0.1070  0.7191  0.1104
 1223TIP3    H125304   6.624   1.250   2.294 -0.7529  1.2646 -0.0872
 1223TIP3    H225305   6.480   1.212   2.270 -0.4988 -0.0075  0.3028
 1224TIP3   OH225306   0.190   4.168   0.362  0.4441 -0.2808  0.2622
 1224TIP3    H125307   0.249   4.129   0.426 -0.2586 -0.3065  0.9017
 1224TIP3    H225308   0.127   4.099   0.342 -0.2022  0.1977  0.6332
 1225TIP3   OH225309   1.949   5.553   0.584  1.1342  0.0294  0.3016
 1225TIP3    H125310   2.025   5.571   0.639  1.0214 -0.3687  0.5858
 1225TIP3    H225311   1.969   5.469   0.542 -0.0424 -1.1424  1.9658
 1226TIP3   OH225312   6.728   5.868   3.240 -0.3702  0.1908 -0.0560
 1226TIP3    H125313   6.689   5.946   3.199 -1.6521 -0.5161 -0.2423
 1226TIP3    H225314   6.693   5.868   3.329  1.8666  1.3415  0.8994
 1227TIP3   OH225315   1.601   1.149   1.398  0.4645 -0.0941 -0.1663
 1227TIP3    H125316   1.647   1.122   1.319  1.7521  2.3588 -0.3553
 1227TIP3    H225317   1.551   1.227   1.372 -0.4107 -0.2220  1.0439
 1228TIP3   OH225318   4.476   2.996   2.751  0.2325 -0.3819 -0.3053
 1228TIP3    H125319   4.417   3.039   2.813  0.0946  0.0690 -0.7458
 1228TIP3    H225320   4.445   2.906   2.747 -0.7491 -0.0369 -0.9106
 1229TIP3   OH225321   3.399   6.487   8.662 -0.3748  0.4504 -0.3629
 1229TIP3    H125322   3.453   6.446   8.594 -0.8562 -0.0114 -0.4710
 1229TIP3    H225323   3.361   6.564   8.619  0.5894  1.0806 -0.1366
 1230TIP3   OH225324   1.038   3.937   1.494 -0.0806 -0.0263 -0.0357
 1230TIP3    H125325   1.129   3.909   1.498 -0.1332 -0.0849  1.7342
 1230TIP3    H225326   0.996   3.876   1.433  0.6324 -1.3760  0.7773
 1231TIP3   OH225327   2.528   5.006   2.715 -0.5930  0.0107 -0.5639
 1231TIP3    H125328   2.476   5.002   2.634 -0.5258 -0.3260 -0.5938
 1231TIP3    H225329   2.485   4.942   2.773 -0.1760 -0.3152 -0.6108
 1232TIP3   OH225330   4.952   0.837   2.350  0.1930 -0.0633  0.3548
 1232TIP3    H125331   4.988   0.767   2.404 -1.9191 -0.9152  0.7595
 1232TIP3    H225332   4.993   0.917   2.384  0.0130 -0.7352  2.2786
 1233TIP3   OH225333   2.650   1.113   3.569 -0.2336 -0.0687 -0.0089
 1233TIP3    H125334   2.672   1.187   3.512  0.8783 -0.6091 -0.3188
 1233TIP3    H225335   2.573   1.074   3.530 -1.0731  1.1453  0.3759
 1234TIP3   OH225336   2.383   0.507   3.419  0.9225 -0.9794  0.3531
 1234TIP3    H125337   2.330   0.496   3.498  1.6791 -1.0233  0.8689
 1234TIP3    H225338   2.436   0.427   3.415  1.0605 -0.8688 -0.0710
 1235TIP3   OH225339   5.335   2.080   0.349  0.1958  0.4128 -0.3471
 1235TIP3    H125340   5.393   2.152   0.321  0.1730  1.1112  1.2864
 1235TIP3    H225341   5.252   2.123   0.369  0.0803 -0.1137  0.3338
 1236TIP3   OH225342   5.691   5.607   0.974  0.4076 -0.0817  0.0589
 1236TIP3    H125343   5.749   5.532   0.975 -1.3319 -1.5405 -1.0537
 1236TIP3    H225344   5.721   5.660   0.899  0.5902 -0.5694 -0.2162
 1237TIP3   OH225345   0.273   5.675   0.527 -0.3605  0.4271  0.4059
 1237TIP3    H125346   0.255   5.683   0.620  0.1387  0.5823  0.4944
 1237TIP3    H225347   0.312   5.759   0.503 -1.0700  0.6236 -0.0805
 1238TIP3   OH225348   6.707   6.226   3.761  0.2460  0.4526 -0.2440
 1238TIP3    H125349   6.656   6.225   3.680  1.2255  0.0539 -0.8713
 1238TIP3    H225350   6.659   6.168   3.820 -0.5758  0.8919 -0.4508
 1239TIP3   OH225351   4.649   2.043   0.125  0.4641  0.4268 -0.4078
 1239TIP3    H125352   4.742   2.060   0.142  0.4657 -0.4266  0.5635
 1239TIP3    H225353   4.643   2.033   0.030  1.6416 -0.9610 -0.3839
 1240TIP3   OH225354   5.207   5.309   8.262  0.5036  0.2628 -0.1321
 1240TIP3    H125355   5.166   5.243   8.206  0.8680  0.0807 -0.1910
 1240TIP3    H225356   5.182   5.283   8.351 -0.6111  0.9251 -0.2380
 1241TIP3   OH225357   1.649   3.189   0.033  0.5939 -0.1927 -0.1303
 1241TIP3    H125358   1.697   3.240  -0.032 -0.0899  2.3971  1.2633
 1241TIP3    H225359   1.557   3.197   0.007  0.1172  2.3066  1.9313
 1242TIP3   OH225360   1.104   3.713   1.727  0.0667 -0.3605 -0.2647
 1242TIP3    H125361   1.193   3.738   1.703 -0.2952 -0.0775 -1.4014
 1242TIP3    H225362   1.113   3.626   1.767  0.7855 -0.6360 -1.0023
 1243TIP3   OH225363   0.142   3.096   0.732 -0.2647  0.0887  0.5368
 1243TIP3    H125364   0.193   3.176   0.720  1.6853 -1.0149  1.1295
 1243TIP3    H225365   0.121   3.067   0.643  1.3659 -0.1708  0.2083
 1244TIP3   OH225366   4.338   5.925   0.577  0.0331 -0.2589  0.0741
 1244TIP3    H125367   4.424   5.945   0.613  0.8205 -0.5474 -1.5654
 1244TIP3    H225368   4.292   5.880   0.648  1.2598 -0.2034  0.9316
 1245TIP3   OH225369   2.818   3.419   2.360 -0.2085 -0.1388 -0.1033
 1245TIP3    H125370   2.847   3.486   2.298  1.7085 -1.8073 -1.1334
 1245TIP3    H225371   2.745   3.459   2.407  2.9070  4.0498  1.8255
 1246TIP3   OH225372   3.237   5.852   2.056  0.1330  0.6810 -0.7091
 1246TIP3    H125373   3.327   5.822   2.065 -0.3490 -0.5120  0.4525
 1246TIP3    H225374   3.245   5.944   2.032  1.6568  1.0249  0.9323
 1247TIP3   OH225375   1.142   2.324   1.558  0.3506 -0.4323 -0.5053
 1247TIP3    H125376   1.050   2.303   1.576  0.2526 -1.2101 -1.8306
 1247TIP3    H225377   1.144   2.345   1.465  1.2599  1.1184 -0.1758
 1248TIP3   OH225378   5.840   5.076   3.383 -0.0642  0.6139 -0.0788
 1248TIP3    H125379   5.789   4.997   3.400  2.5236 -1.2536 -0.4053
 1248TIP3    H225380   5.834   5.126   3.465 -0.2362 -0.8325  0.8342
 1249TIP3   OH225381   3.659   6.169   3.469  0.1484  0.6611  0.4198
 1249TIP3    H125382   3.688   6.260   3.476 -0.5257  0.9928 -0.9263
 1249TIP3    H225383   3.736   6.122   3.438  0.9003  0.5027  2.3891
 1250TIP3   OH225384   5.642   3.948   2.321 -0.2427  0.2138 -0.1484
 1250TIP3    H125385   5.557   3.931   2.279  0.8422 -0.2899 -2.3019
 1250TIP3    H225386   5.668   3.863   2.357 -0.1113  0.0839 -0.5494
 1251TIP3   OH225387   0.644   3.756   2.390  0.0688 -0.5514  0.1614
 1251TIP3    H125388   0.615   3.721   2.305 -0.3782  0.7418 -0.2414
 1251TIP3    H225389   0.623   3.687   2.453 -0.9753 -0.9284 -0.5707
 1252TIP3   OH225390   4.926   3.703   0.568 -0.3743  0.0957 -0.4512
 1252TIP3    H125391   4.849   3.647   0.577 -0.5566  0.3055 -0.6917
 1252TIP3    H225392   4.994   3.645   0.533 -0.2365 -0.2425  0.3634
 1253TIP3   OH225393   1.379   3.684   8.372  0.6659 -0.4695  0.2180
 1253TIP3    H125394   1.328   3.747   8.322  0.4057 -1.4279 -0.7481
 1253TIP3    H225395   1.463   3.728   8.388  0.4413  0.1620 -0.3163
 1254TIP3   OH225396   1.505   1.119   1.115  0.2570 -0.0078  0.0220
 1254TIP3    H125397   1.544   1.037   1.145 -1.6484 -0.9311  0.1206
 1254TIP3    H225398   1.563   1.151   1.047  2.1264 -0.3623  1.3866
 1255TIP3   OH225399   4.245   5.138   7.706  0.0415 -0.6028 -0.3408
 1255TIP3    H125400   4.155   5.110   7.689 -0.4454  1.0113 -0.5478
 1255TIP3    H225401   4.261   5.116   7.798 -0.3255 -1.4660 -0.4734
 1256TIP3   OH225402   5.193   2.637   0.501 -0.5487  0.3103  0.0419
 1256TIP3    H125403   5.157   2.607   0.418  0.7371 -0.4562 -0.2610
 1256TIP3    H225404   5.265   2.694   0.476  0.2027 -0.3692  0.6232
 1257TIP3   OH225405   1.972   2.856   8.603 -0.1120  0.8605 -0.2718
 1257TIP3    H125406   1.980   2.794   8.531 -0.6469 -0.7360  0.9900
 1257TIP3    H225407   2.010   2.937   8.568  1.1903 -0.3105 -1.7736
 1258TIP3   OH225408   0.295   5.789   8.236  0.0725 -0.0914  0.5091
 1258TIP3    H125409   0.324   5.840   8.160 -0.6503  1.7527  1.4136
 1258TIP3    H225410   0.200   5.800   8.237 -0.0349 -0.9928  1.0856
 1259TIP3   OH225411   0.787   4.136   0.922 -0.0792 -0.6574  0.2978
 1259TIP3    H125412   0.739   4.214   0.950 -2.1365 -2.0373  0.8883
 1259TIP3    H225413   0.797   4.084   1.002  1.1971 -1.0572 -0.0924
 1260TIP3   OH225414   1.494   6.230   1.580  0.1111  0.1447 -0.1908
 1260TIP3    H125415   1.510   6.322   1.560  0.1821 -0.1013 -1.3159
 1260TIP3    H225416   1.431   6.201   1.514  1.1641 -0.9884 -0.7313
 1261TIP3   OH225417   1.455   6.434   8.736 -0.5553 -0.1074 -0.1422
 1261TIP3    H125418   1.408   6.426   8.653  0.6969  1.1695 -1.0282
 1261TIP3    H225419   1.539   6.392   8.721  0.4683  1.8545 -0.2265
 1262TIP3   OH225420   6.159   4.683   0.714 -0.4133 -0.1312 -0.3267
 1262TIP3    H125421   6.228   4.749   0.716  0.4184 -0.9919  0.5828
 1262TIP3    H225422   6.179   4.629   0.638  0.1936 -0.6432  0.1839
 1263TIP3   OH225423   2.541   3.015   0.292  0.8372  0.6437  0.3476
 1263TIP3    H125424   2.628   3.007   0.253  0.7199  0.2358  0.1694
 1263TIP3    H225425   2.510   3.101   0.262 -0.0911 -0.4774 -2.2042
 1264TIP3   OH225426   2.967   0.188   1.317 -0.5971 -0.1841 -0.0787
 1264TIP3    H125427   3.028   0.200   1.244  1.0117  0.4477  1.2878
 1264TIP3    H225428   2.992   0.103   1.355  1.7706  1.4352  2.4224
 1265TIP3   OH225429   5.284   0.580   3.560 -0.1280  0.1924  0.2458
 1265TIP3    H125430   5.267   0.650   3.623 -0.2195  2.5987 -2.2901
 1265TIP3    H225431   5.378   0.580   3.548  0.1602 -1.7468  1.8380
 1266TIP3   OH225432   6.628   2.681   1.663  0.2492  0.3728 -0.3233
 1266TIP3    H125433   6.704   2.634   1.628 -1.1526 -2.0031 -0.4674
 1266TIP3    H225434   6.654   2.773   1.663  2.4296 -0.1374 -2.1162
 1267TIP3   OH225435   0.136   2.840   0.214  0.2091  0.2267 -0.6675
 1267TIP3    H125436   0.075   2.771   0.242 -0.2165  1.1779  0.8751
 1267TIP3    H225437   0.084   2.894   0.154 -0.6559  1.2417  0.9185
 1268TIP3   OH225438   6.626   5.222   2.095  0.3754 -0.5508 -0.4803
 1268TIP3    H125439   6.633   5.180   2.010  0.6978  0.1172 -0.7906
 1268TIP3    H225440   6.666   5.160   2.156 -0.5160 -1.3586 -0.6915
 1269TIP3   OH225441   3.506   0.781   4.304 -0.0453  0.6340 -0.0814
 1269TIP3    H125442   3.480   0.746   4.219 -1.0312 -0.9299  0.8191
 1269TIP3    H225443   3.424   0.799   4.349  0.4120 -0.4391  1.2602
 1270TIP3   OH225444   0.417   5.673   4.044  0.7217 -0.0348 -0.4917
 1270TIP3    H125445   0.335   5.712   4.073  0.1379 -0.5670 -1.3792
 1270TIP3    H225446   0.395   5.581   4.027  1.5635 -0.2458 -0.4760
 1271TIP3   OH225447   5.989   6.768   0.855 -0.1211  0.3188 -0.4540
 1271TIP3    H125448   5.901   6.733   0.846 -1.1867  1.5675  3.1960
 1271TIP3    H225449   5.978   6.863   0.853  0.7110  0.5528  2.1081
 1272TIP3   OH225450   6.696   2.432   0.741 -0.0802 -0.8962  0.7298
 1272TIP3    H125451   6.738   2.517   0.728  0.9551 -1.4465  0.3085
 1272TIP3    H225452   6.684   2.425   0.836  1.5246 -1.0377  0.9517
 1273TIP3   OH225453   5.042   0.263   1.593 -0.4525 -0.3244 -0.2426
 1273TIP3    H125454   5.098   0.337   1.619 -2.2200  0.8323  0.5126
 1273TIP3    H225455   5.078   0.233   1.510  0.4037  1.3298 -0.5086
 1274TIP3   OH225456   4.810   3.697   2.360  0.3699  0.1745  0.4061
 1274TIP3    H125457   4.801   3.609   2.323 -0.8148  0.5454 -0.2644
 1274TIP3    H225458   4.824   3.753   2.283 -0.6035  0.7718  0.6505
 1275TIP3   OH225459   1.397   2.189   3.200 -0.4489  0.2349 -0.0227
 1275TIP3    H125460   1.434   2.122   3.142 -0.1861  1.1929 -1.0086
 1275TIP3    H225461   1.413   2.272   3.154  2.0891  1.3572  2.5546
 1276TIP3   OH225462   3.718   0.407   8.180 -0.4902 -0.0878 -0.2280
 1276TIP3    H125463   3.714   0.366   8.094 -0.3454 -1.6801  0.4979
 1276TIP3    H225464   3.639   0.461   8.185 -0.2894  0.3534 -1.5071
 1277TIP3   OH225465   6.113   2.870   1.774 -0.3528  0.2045  0.3984
 1277TIP3    H125466   6.034   2.820   1.754  0.8126 -2.0464  1.0358
 1277TIP3    H225467   6.169   2.808   1.822  2.7397  0.9393 -1.9319
 1278TIP3   OH225468   2.914   5.348   0.065  0.1598  0.0618 -0.4174
 1278TIP3    H125469   2.922   5.440   0.090 -0.3124 -0.3259  1.2867
 1278TIP3    H225470   2.976   5.337  -0.007  0.9513  1.4845  0.0171
 1279TIP3   OH225471   2.337   3.423   3.501 -0.8749  0.2307  0.9368
 1279TIP3    H125472   2.279   3.350   3.476 -0.7092  0.2541  0.4598
 1279TIP3    H225473   2.422   3.400   3.462 -0.5903  0.2479  1.5415
 1280TIP3   OH225474   4.226   6.775   8.244  0.4181  0.0355 -0.0564
 1280TIP3    H125475   4.288   6.760   8.173 -0.5539  0.3655 -1.0074
 1280TIP3    H225476   4.164   6.703   8.238  0.8953 -0.4920  1.1182
 1281TIP3   OH225477   6.590   0.475   1.119  0.9698  0.2042  0.2579
 1281TIP3    H125478   6.670   0.430   1.146  0.9106  0.3227  0.6329
 1281TIP3    H225479   6.532   0.469   1.195  0.0994 -1.0780 -0.4633
 1282TIP3   OH225480   4.132   3.894   8.485  0.3106  0.0341 -0.3700
 1282TIP3    H125481   4.193   3.962   8.455 -0.1278  1.2593  1.3608
 1282TIP3    H225482   4.088   3.865   8.406  0.2893  2.0183 -1.1454
 1283TIP3   OH225483   2.082   1.782   2.675 -0.5644  0.4324  0.2055
 1283TIP3    H125484   2.145   1.765   2.744 -0.0084 -1.0254 -0.6257
 1283TIP3    H225485   2.000   1.745   2.708 -0.9728  2.1006  1.1755
 1284TIP3   OH225486   6.668   0.985   1.870  0.6402  0.2519  0.1610
 1284TIP3    H125487   6.624   0.981   1.785  0.3192  0.3752  0.3224
 1284TIP3    H225488   6.738   1.050   1.858 -0.0845  1.0705  0.3022
 1285TIP3   OH225489   2.960   0.769   3.923 -0.1929  0.3774  0.1766
 1285TIP3    H125490   2.996   0.760   4.011 -0.0607  1.2023  0.2104
 1285TIP3    H225491   3.033   0.751   3.864  0.1499  1.4892  0.2446
 1286TIP3   OH225492   1.691   5.685   2.556  0.6706  0.2637 -0.1379
 1286TIP3    H125493   1.715   5.732   2.636  1.6227 -0.0056 -0.2457
 1286TIP3    H225494   1.600   5.710   2.539  0.8996  1.4432  0.2513
 1287TIP3   OH225495   3.978   0.370   1.651  0.3125 -0.0958 -0.1251
 1287TIP3    H125496   3.948   0.455   1.683 -0.4959 -0.7219  0.8212
 1287TIP3    H225497   3.953   0.308   1.720  1.8230 -0.9614 -0.3075
 1288TIP3   OH225498   2.289   4.783   8.241 -0.1992  0.3920  0.6281
 1288TIP3    H125499   2.368   4.823   8.205  0.6590 -1.0839  0.7838
 1288TIP3    H225500   2.298   4.690   8.220 -0.6957 -0.1950  2.7958
 1289TIP3   OH225501   5.624   2.367   1.294 -0.2958 -0.7078  0.3918
 1289TIP3    H125502   5.696   2.427   1.277  0.0613 -0.9093  1.1769
 1289TIP3    H225503   5.546   2.422   1.290 -0.1424 -0.5481 -0.7817
 1290TIP3   OH225504   2.641   4.066   0.093 -0.6288 -0.2580 -0.3561
 1290TIP3    H125505   2.621   4.138   0.033  0.1399  2.1374  2.0542
 1290TIP3    H225506   2.566   4.062   0.152  0.1546 -0.1065  0.6846
 1291TIP3   OH225507   4.679   5.041   0.037 -0.0493 -0.4186  0.3169
 1291TIP3    H125508   4.658   4.953   0.007  1.3670 -0.6146 -0.1869
 1291TIP3    H225509   4.617   5.058   0.108 -0.4967 -1.7185  0.2595
 1292TIP3   OH225510   0.908   6.574   2.541 -0.3453  0.3840 -0.0543
 1292TIP3    H125511   0.894   6.629   2.618 -0.9153 -0.8726  0.7692
 1292TIP3    H225512   0.997   6.539   2.552 -1.0541 -1.2210  1.0214
 1293TIP3   OH225513   5.875   3.927   1.403 -0.5993  0.5139  0.1932
 1293TIP3    H125514   5.919   3.855   1.448  0.5697  0.1932 -1.3719
 1293TIP3    H225515   5.869   3.897   1.312 -1.4784  1.7734 -0.1787
 1294TIP3   OH225516   6.485   1.339   8.224 -0.2054 -0.0335 -0.3344
 1294TIP3    H125517   6.580   1.331   8.218  0.0121  0.3858  1.6047
 1294TIP3    H225518   6.452   1.249   8.221  0.7247 -0.7159  3.6592
 1295TIP3   OH225519   0.754   5.182   3.085  0.3144  0.2298 -0.6123
 1295TIP3    H125520   0.756   5.242   3.159  2.0387 -1.2106  0.5977
 1295TIP3    H225521   0.829   5.206   3.031 -0.1615  0.4244 -1.2002
 1296TIP3   OH225522   3.374   3.620   1.275  0.2026  0.1451 -0.3265
 1296TIP3    H125523   3.380   3.585   1.186 -0.6140  1.4021 -0.9108
 1296TIP3    H225524   3.305   3.687   1.269  1.5610  1.7222  0.7574
 1297TIP3   OH225525   6.316   2.194   2.289 -0.9536 -0.4662 -0.1022
 1297TIP3    H125526   6.292   2.167   2.377 -0.8776 -0.3620 -0.0497
 1297TIP3    H225527   6.405   2.160   2.276 -1.3178 -1.2896 -0.4838
 1298TIP3   OH225528   5.586   4.148   1.840  0.5640  0.2208 -0.7391
 1298TIP3    H125529   5.496   4.163   1.811 -0.5120 -1.2428  1.5536
 1298TIP3    H225530   5.622   4.089   1.773 -0.2926  0.5302 -1.4974
 1299TIP3   OH225531   1.024   3.059   0.897 -0.5091  0.7242  0.0895
 1299TIP3    H125532   1.080   3.007   0.954 -1.2196 -1.5658 -1.1713
 1299TIP3    H225533   1.078   3.079   0.821 -0.8648 -0.1043 -0.4017
 1300TIP3   OH225534   0.715   6.613   0.915  0.4401 -0.2252  0.0923
 1300TIP3    H125535   0.783   6.611   0.982 -0.2772  1.3845  0.9283
 1300TIP3    H225536   0.759   6.586   0.835  2.0053  0.4986  0.6776
 1301TIP3   OH225537   3.782   5.527   1.113 -0.0641 -0.2646 -0.2161
 1301TIP3    H125538   3.784   5.474   1.193 -0.3381 -0.6964 -0.4900
 1301TIP3    H225539   3.865   5.507   1.069  0.0773 -0.0431 -0.0494
 1302TIP3   OH225540   0.788   3.476   0.523 -0.1493 -0.6609  0.1706
 1302TIP3    H125541   0.774   3.502   0.614 -0.8410  2.5401 -0.7049
 1302TIP3    H225542   0.883   3.481   0.511  0.0215 -1.8664  0.8689
 1303TIP3   OH225543   5.561   2.986   1.502  0.3075  0.2884 -0.1682
 1303TIP3    H125544   5.568   2.892   1.484 -0.5189  0.4318 -1.4159
 1303TIP3    H225545   5.579   3.028   1.417 -0.9227  1.1664 -0.0226
 1304TIP3   OH225546   2.382   5.436   1.067  0.0580  0.2805  0.3979
 1304TIP3    H125547   2.427   5.441   1.152  0.1066 -0.1087  0.3932
 1304TIP3    H225548   2.289   5.444   1.089  0.1270  1.2624  0.3939
 1305TIP3   OH225549   1.919   2.259   0.921 -0.1230  1.0462  0.0409
 1305TIP3    H125550   1.978   2.193   0.959 -2.3306 -0.5023  1.0143
 1305TIP3    H225551   1.894   2.314   0.995 -0.6135  1.0777 -0.1439
 1306TIP3   OH225552   4.181   5.156   0.181  0.6549  0.6847  0.2984
 1306TIP3    H125553   4.145   5.238   0.145 -1.6453 -0.6521 -0.7063
 1306TIP3    H225554   4.190   5.099   0.105 -0.3776 -0.8602  1.2838
 1307TIP3   OH225555   0.137   6.773   1.473 -0.2946 -0.2486 -0.0708
 1307TIP3    H125556   0.222   6.735   1.494  1.0227  1.0949 -2.5256
 1307TIP3    H225557   0.114   6.738   1.387 -0.7445  1.6435 -0.7868
 1308TIP3   OH225558   2.149   0.039   2.273 -0.0100  0.0225 -0.3149
 1308TIP3    H125559   2.112   0.018   2.358  0.1642 -1.2244 -0.5279
 1308TIP3    H225560   2.099  -0.015   2.211 -0.1000  0.8720 -1.0057
 1309TIP3   OH225561   2.086   1.055   2.463  0.0350 -0.3061  0.5131
 1309TIP3    H125562   2.026   0.988   2.494  0.2596 -0.0162  1.6208
 1309TIP3    H225563   2.166   1.007   2.440 -0.6464 -0.7171 -1.1556
 1310TIP3   OH225564   3.093   0.999   1.171 -0.0957 -0.0084  0.1007
 1310TIP3    H125565   3.154   0.963   1.108 -0.5223  1.5611 -1.2618
 1310TIP3    H225566   3.038   0.924   1.196  0.3651 -0.7529 -1.0416
 1311TIP3   OH225567   2.857   2.923   2.852  0.0431  0.0323 -0.3032
 1311TIP3    H125568   2.846   2.910   2.946  0.2988  0.4292 -0.2171
 1311TIP3    H225569   2.951   2.938   2.840  0.1328 -0.7667 -0.7157
 1312TIP3   OH225570   1.311   1.902   4.168 -0.3554  0.1482 -0.1082
 1312TIP3    H125571   1.342   1.984   4.131 -0.6151  0.6314  0.7049
 1312TIP3    H225572   1.218   1.900   4.148 -0.2457 -0.2243 -0.6073
 1313TIP3   OH225573   2.862   0.936   3.012  0.3589 -0.0312  0.0034
 1313TIP3    H125574   2.943   0.988   3.011 -0.3596  1.2059  1.9759
 1313TIP3    H225575   2.858   0.899   2.924  3.5661 -0.9673  0.0992
 1314TIP3   OH225576   0.450   6.505   3.666 -0.5710  1.0892  0.3656
 1314TIP3    H125577   0.532   6.489   3.712 -1.7304 -1.3487  1.7377
 1314TIP3    H225578   0.426   6.594   3.692  0.9721  1.3594  0.9782
 1315TIP3   OH225579   5.929   5.513   3.654 -0.1006  0.6127 -0.6856
 1315TIP3    H125580   5.880   5.577   3.602  0.0278  1.4247  0.1533
 1315TIP3    H225581   6.005   5.563   3.686  1.4263 -0.6567 -2.1313
 1316TIP3   OH225582   1.945   3.601   3.745  0.1430 -0.0059  0.0559
 1316TIP3    H125583   1.995   3.680   3.767 -0.5960  1.4625 -2.9741
 1316TIP3    H225584   2.007   3.546   3.696 -0.4518  0.7412 -1.6192
 1317TIP3   OH225585   2.022   1.388   1.653  0.0816  0.2585  0.2513
 1317TIP3    H125586   2.118   1.386   1.655  0.2322  0.9300 -2.3604
 1317TIP3    H225587   1.997   1.296   1.645  0.4660  0.0636  1.1235
 1318TIP3   OH225588   0.852   3.758   1.617 -0.3435  0.1736  0.3025
 1318TIP3    H125589   0.886   3.840   1.581  1.1129 -0.1118  0.9371
 1318TIP3    H225590   0.911   3.738   1.690  0.0209 -1.9846 -0.4974
 1319TIP3   OH225591   3.255   3.384   0.421  0.2352 -0.0650  0.0854
 1319TIP3    H125592   3.217   3.320   0.482  1.5897 -1.0626 -0.0788
 1319TIP3    H225593   3.322   3.429   0.472  2.6197 -2.1139 -1.0395
 1320TIP3   OH225594   1.102   6.264   1.042 -0.7990  0.5318  0.0171
 1320TIP3    H125595   1.136   6.176   1.027 -0.8124  0.1995  1.7638
 1320TIP3    H225596   1.162   6.321   0.995  0.2372 -0.2856  0.3209
 1321TIP3   OH225597   1.206   0.287   8.805  0.1467  0.1677 -0.4789
 1321TIP3    H125598   1.183   0.213   8.750 -0.1471 -0.1023 -0.0033
 1321TIP3    H225599   1.281   0.328   8.761  1.3526 -1.3508  0.0812
 1322TIP3   OH225600   5.679   4.776   2.166 -0.1798  0.2025  0.2241
 1322TIP3    H125601   5.596   4.824   2.166  0.1694  0.9346 -2.0888
 1322TIP3    H225602   5.744   4.840   2.193 -0.1227  0.1682  0.1699
 1323TIP3   OH225603   2.170   2.099   0.928 -0.0985  0.6269  0.5348
 1323TIP3    H125604   2.158   2.107   1.023 -2.5327 -1.4095  0.5125
 1323TIP3    H225605   2.232   2.027   0.918  0.3647  1.0164  0.5581
 1324TIP3   OH225606   4.118   4.582   0.551  0.1469 -0.4055  0.1898
 1324TIP3    H125607   4.198   4.529   0.540 -0.4116 -1.4647  1.0536
 1324TIP3    H225608   4.150   4.665   0.587  1.0416 -0.1159 -1.1824
 1325TIP3   OH225609   1.682   2.103   0.815 -0.2786 -0.2721 -0.2374
 1325TIP3    H125610   1.664   2.076   0.725  1.9067 -0.4019 -0.6870
 1325TIP3    H225611   1.749   2.170   0.807 -0.8938  0.5618  1.2584
 1326TIP3   OH225612   6.771   3.720   3.547  0.3888 -0.0970 -0.6924
 1326TIP3    H125613   6.691   3.770   3.533  0.4118  0.3255  0.5824
 1326TIP3    H225614   6.821   3.771   3.611  1.6751 -0.3639 -1.4373
 1327TIP3   OH225615   2.569   5.510   2.235 -0.1455  0.0271 -0.1328
 1327TIP3    H125616   2.529   5.451   2.299 -1.0457  0.1689 -0.5537
 1327TIP3    H225617   2.545   5.473   2.150 -0.3421  0.7495 -0.3990
 1328TIP3   OH225618   1.391   5.540   8.780 -0.0228 -1.1456 -0.1294
 1328TIP3    H125619   1.319   5.577   8.830 -0.6109 -1.8124 -0.4538
 1328TIP3    H225620   1.432   5.615   8.738 -0.4354 -0.7382  0.1814
 1329TIP3   OH225621   3.096   1.901   4.188  0.0596 -0.2122  0.5228
 1329TIP3    H125622   3.174   1.955   4.173 -0.5789  0.0193 -2.5989
 1329TIP3    H225623   3.023   1.961   4.179 -0.5577 -0.8334  1.2860
 1330TIP3   OH225624   2.232   2.675   1.807 -0.2006 -0.0605  0.9179
 1330TIP3    H125625   2.186   2.657   1.725 -0.0373  0.6180  0.6713
 1330TIP3    H225626   2.215   2.767   1.825  0.3507 -0.0187  1.2768
 1331TIP3   OH225627   1.206   2.725   1.379 -0.4476  0.4330  0.0637
 1331TIP3    H125628   1.126   2.766   1.412 -0.5646 -0.3565  0.8153
 1331TIP3    H225629   1.188   2.631   1.382 -0.0223  0.2972 -1.1743
 1332TIP3   OH225630   0.171   1.251   3.286 -0.3004  0.3669 -0.3953
 1332TIP3    H125631   0.241   1.187   3.275 -0.7530 -0.4847  1.3380
 1332TIP3    H225632   0.189   1.318   3.220  2.0712  0.1328 -0.0733
 1333TIP3   OH225633   3.436   2.320   2.745 -0.4894  0.5633  0.5369
 1333TIP3    H125634   3.440   2.375   2.823  0.2657  0.4819  0.5643
 1333TIP3    H225635   3.343   2.316   2.723 -0.5304  2.1651  0.2964
 1334TIP3   OH225636   3.707   2.923   3.169  0.5604 -0.1835  0.5425
 1334TIP3    H125637   3.612   2.906   3.175  0.6236 -0.4601  0.8116
 1334TIP3    H225638   3.747   2.844   3.204  0.9344 -0.7088 -0.9968
 1335TIP3   OH225639   2.417   3.805   0.652  0.2426 -0.1032 -0.5045
 1335TIP3    H125640   2.361   3.729   0.633 -0.8968 -0.0194  2.0464
 1335TIP3    H225641   2.454   3.829   0.567 -0.7804 -2.3791 -1.7075
 1336TIP3   OH225642   6.715   6.720   0.793 -0.1839  0.0863  0.0701
 1336TIP3    H125643   6.689   6.630   0.772  0.7802 -0.4693  1.1274
 1336TIP3    H225644   6.659   6.775   0.738  0.1643 -1.1817 -1.6229
 1337TIP3   OH225645   1.113   0.181   1.657  0.1972  0.5669  0.2299
 1337TIP3    H125646   1.139   0.238   1.584 -1.0046  1.4124  0.4253
 1337TIP3    H225647   1.070   0.107   1.615 -0.6890  1.1579  0.0664
 1338TIP3   OH225648   6.307   1.701   0.290  0.1036  0.3084 -0.0010
 1338TIP3    H125649   6.353   1.784   0.300  2.1407 -0.8416  1.1358
 1338TIP3    H225650   6.322   1.675   0.199  2.3394 -0.2843  0.4632
 1339TIP3   OH225651   5.381   5.164   2.784  0.1340 -0.4204  0.0728
 1339TIP3    H125652   5.386   5.239   2.843 -1.1496 -0.0859 -0.2012
 1339TIP3    H225653   5.436   5.188   2.710  1.3885 -0.6502  0.9004
 1340TIP3   OH225654   0.623   0.708   3.307  0.0914 -0.1057  0.5432
 1340TIP3    H125655   0.699   0.662   3.343  0.3754  0.6601  0.9308
 1340TIP3    H225656   0.612   0.785   3.363 -0.2621  0.4066 -0.2139
 1341TIP3   OH225657   6.109   0.314   0.539 -0.2082  0.0118 -0.1407
 1341TIP3    H125658   6.148   0.334   0.454  0.4453 -1.6477 -0.2810
 1341TIP3    H225659   6.048   0.242   0.521 -1.1646  0.6234  0.5660
 1342TIP3   OH225660   4.897   4.306   1.641  0.0587 -0.1660  0.3005
 1342TIP3    H125661   4.925   4.239   1.578  0.0432  0.1012  0.0022
 1342TIP3    H225662   4.809   4.331   1.612  0.4748  0.7462 -0.2487
 1343TIP3   OH225663   3.945   1.730   2.724  0.1326  0.3788  0.3034
 1343TIP3    H125664   3.972   1.811   2.767 -0.7232  1.0429 -0.3805
 1343TIP3    H225665   3.958   1.662   2.790  2.2909  0.8320  0.4002
 1344TIP3   OH225666   3.669   5.053   0.611  0.2408 -0.0092  0.3049
 1344TIP3    H125667   3.697   5.144   0.601 -2.3966  0.8336 -0.1181
 1344TIP3    H225668   3.745   5.002   0.584  1.9680  2.0166  1.0102
 1345TIP3   OH225669   2.417   5.162   1.233 -0.0093  0.3228 -0.3963
 1345TIP3    H125670   2.512   5.154   1.222 -0.1864 -1.5129 -0.9544
 1345TIP3    H225671   2.383   5.167   1.144 -0.6128 -2.2520 -0.3887
 1346TIP3   OH225672   0.106   6.424   1.424 -0.0659  0.1964  0.6285
 1346TIP3    H125673   0.190   6.462   1.448  0.2991 -0.2187  0.0269
 1346TIP3    H225674   0.087   6.461   1.338  0.0931 -0.6513  0.2188
 1347TIP3   OH225675   2.308   2.380   0.605  0.7080 -0.1098 -0.3405
 1347TIP3    H125676   2.322   2.470   0.634 -0.5339  0.1330 -0.4495
 1347TIP3    H225677   2.313   2.384   0.510  2.4494 -0.5017 -0.3121
 1348TIP3   OH225678   3.526   5.811   0.957  0.3721  0.5116 -0.0738
 1348TIP3    H125679   3.572   5.872   1.014 -1.1754  1.4603  0.2242
 1348TIP3    H225680   3.478   5.867   0.896 -1.6696 -0.3105  0.6688
 1349TIP3   OH225681   1.539   4.426   1.371 -0.5492  0.1259  0.3483
 1349TIP3    H125682   1.538   4.467   1.285 -1.8380 -1.8246 -0.6567
 1349TIP3    H225683   1.631   4.428   1.397 -0.4318  2.7939  0.0221
 1350TIP3   OH225684   5.136   6.107   2.454  0.4475  0.5738  0.4034
 1350TIP3    H125685   5.196   6.036   2.431 -0.4724 -0.0186 -0.2684
 1350TIP3    H225686   5.075   6.067   2.517 -0.4458  0.5653 -0.4401
 1351TIP3   OH225687   2.144   2.401   0.882  0.2711 -0.0070  0.1304
 1351TIP3    H125688   2.061   2.356   0.866  0.3070  0.2494 -0.8407
 1351TIP3    H225689   2.188   2.347   0.947 -0.8305  0.0831  0.9727
 1352TIP3   OH225690   0.392   3.154   1.023 -0.1263 -0.3017  0.1353
 1352TIP3    H125691   0.396   3.237   0.977  1.2389  0.0096  0.7573
 1352TIP3    H225692   0.455   3.163   1.094  1.2524 -2.4302 -0.7215
 1353TIP3   OH225693   5.959   5.084   2.045 -0.5400 -0.1237  0.2597
 1353TIP3    H125694   6.049   5.056   2.025 -0.8148 -1.2933  0.5787
 1353TIP3    H225695   5.962   5.179   2.038  0.7175 -0.1411  0.2171
 1354TIP3   OH225696   2.126   3.423   7.838 -0.0579 -0.3012  0.3021
 1354TIP3    H125697   2.128   3.378   7.922  2.4871 -1.2911 -0.1917
 1354TIP3    H225698   2.167   3.508   7.854 -0.0002 -0.3048  0.1778
 1355TIP3   OH225699   0.117   0.324   0.888  0.8857  0.3104 -0.5245
 1355TIP3    H125700   0.129   0.230   0.874  0.8876  0.4777 -1.8222
 1355TIP3    H225701   0.103   0.359   0.800  1.2439  1.5781 -0.0962
 1356TIP3   OH225702   6.321   2.109   0.166 -0.0133 -0.2694 -0.0192
 1356TIP3    H125703   6.320   2.025   0.213  1.2989 -0.5291 -0.4323
 1356TIP3    H225704   6.408   2.114   0.127  0.0556  1.4639  0.3017
 1357TIP3   OH225705   1.014   2.481   8.849 -0.1143 -0.4438  0.0688
 1357TIP3    H125706   1.006   2.521   8.763  0.3834 -0.0770  0.1917
 1357TIP3    H225707   1.085   2.418   8.841  0.7451  0.4471  0.5235
 1358TIP3   OH225708   2.266   6.690   0.415  0.2473 -0.4319  0.0547
 1358TIP3    H125709   2.218   6.628   0.361 -0.6523  1.3252 -1.2466
 1358TIP3    H225710   2.234   6.675   0.504 -1.6312 -0.3275 -0.5719
 1359TIP3   OH225711   6.244   5.300   3.279 -0.0611 -0.0280 -0.2092
 1359TIP3    H125712   6.197   5.298   3.195  0.3849  0.8039 -0.4882
 1359TIP3    H225713   6.196   5.365   3.331  0.3999  0.3553 -0.2641
 1360TIP3   OH225714   1.278   0.741   1.288 -0.9109 -0.0431 -0.0675
 1360TIP3    H125715   1.335   0.665   1.274  1.1384  1.3269  0.3179
 1360TIP3    H225716   1.199   0.705   1.328 -1.6222 -2.4082 -3.2519
 1361TIP3   OH225717   0.469   5.117   2.499 -0.0693 -0.3211  0.0841
 1361TIP3    H125718   0.511   5.075   2.424 -0.6962 -1.1340  0.1735
 1361TIP3    H225719   0.383   5.142   2.467  0.5592  1.6119 -0.1884
 1362TIP3   OH225720   4.618   6.469   1.386  0.0957 -0.0357  0.3787
 1362TIP3    H125721   4.687   6.523   1.426  0.3318 -0.7774  1.0076
 1362TIP3    H225722   4.642   6.464   1.294  0.8047 -0.1507  0.5605
 1363TIP3   OH225723   1.082   6.074   2.181  0.0197  0.1522  0.0291
 1363TIP3    H125724   1.021   6.041   2.115 -2.6548  1.8011  1.5012
 1363TIP3    H225725   1.163   6.091   2.132 -0.7439 -1.8234 -2.0931
 1364TIP3   OH225726   0.454   4.706   2.330 -0.4113  0.4304  0.0064
 1364TIP3    H125727   0.423   4.624   2.292  1.3918  0.2292 -1.1896
 1364TIP3    H225728   0.412   4.774   2.277  1.2063  0.1615 -1.7318
 1365TIP3   OH225729   6.586   5.687   8.163 -0.1023 -0.1444 -0.3130
 1365TIP3    H125730   6.662   5.744   8.152 -0.3556  0.6211  1.5269
 1365TIP3    H225731   6.601   5.615   8.102  1.1938  0.8987 -1.2889
 1366TIP3   OH225732   5.060   6.550   2.271 -0.1258 -0.1344  0.1419
 1366TIP3    H125733   4.998   6.585   2.207 -0.5053 -1.6125 -0.3442
 1366TIP3    H225734   5.051   6.455   2.264  1.1931 -0.3638  1.0670
 1367TIP3   OH225735   3.169   0.012   2.189 -0.1480  0.0677  0.1875
 1367TIP3    H125736   3.255   0.041   2.158  0.1174 -1.1441 -0.2686
 1367TIP3    H225737   3.120   0.093   2.205  1.0213  0.7729  0.3075
 1368TIP3   OH225738   5.333   5.242   8.655  0.4517  0.6780 -0.8254
 1368TIP3    H125739   5.271   5.310   8.628  0.5818  1.0593 -0.1673
 1368TIP3    H225740   5.399   5.288   8.706  0.7498  0.1169 -0.6981
 1369TIP3   OH225741   4.129   3.265   2.331 -0.2194  0.3901  0.0906
 1369TIP3    H125742   4.037   3.239   2.318  0.3217 -0.5627 -2.6748
 1369TIP3    H225743   4.125   3.358   2.349 -1.7871  0.0997  1.5748
 1370TIP3   OH225744   0.715   6.488   3.454 -0.6499  0.1468 -0.6356
 1370TIP3    H125745   0.796   6.437   3.459 -0.9464 -0.3838 -1.2344
 1370TIP3    H225746   0.686   6.495   3.545 -0.1989 -0.0829 -0.4727
 1371TIP3   OH225747   3.318   0.619   2.462  0.1737 -0.3108  0.4219
 1371TIP3    H125748   3.394   0.604   2.519 -0.5591  0.6543  1.7119
 1371TIP3    H225749   3.340   0.574   2.380  1.9070 -0.4877  0.9409
 1372TIP3   OH225750   2.875   2.510   2.531  0.4885 -0.3583 -0.6544
 1372TIP3    H125751   2.949   2.494   2.590  0.7035 -0.8116 -1.0442
 1372TIP3    H225752   2.816   2.566   2.582  0.1581 -1.6255  0.3924
 1373TIP3   OH225753   0.033   3.911   2.298 -0.8259 -0.0970  0.1757
 1373TIP3    H125754   0.035   3.848   2.226 -0.6079 -0.3301  0.3806
 1373TIP3    H225755   0.068   3.992   2.261 -0.7637 -0.2018  0.0076
 1374TIP3   OH225756   3.167   2.879   1.309 -0.2314  0.6134  0.3708
 1374TIP3    H125757   3.094   2.913   1.257 -1.0309  0.6028  1.4341
 1374TIP3    H225758   3.186   2.793   1.271  0.8046  1.5652 -1.3914
 1375TIP3   OH225759   3.471   5.651   2.601 -0.0991  0.3317 -0.0236
 1375TIP3    H125760   3.417   5.695   2.534  1.9793  1.5029 -1.0165
 1375TIP3    H225761   3.434   5.562   2.606 -1.9693  1.0072 -0.7860
 1376TIP3   OH225762   4.548   5.089   2.020  0.0280  0.5801 -1.0844
 1376TIP3    H125763   4.549   5.154   2.090 -0.1155 -1.6083  1.0973
 1376TIP3    H225764   4.456   5.068   2.007  0.1376 -0.0349 -0.9040
 1377TIP3   OH225765   0.749   1.629   1.380 -0.1039  0.5566  0.2960
 1377TIP3    H125766   0.789   1.578   1.450 -0.6343 -1.5127 -0.8116
 1377TIP3    H225767   0.656   1.627   1.398 -0.3050 -0.4844 -0.7132
 1378TIP3   OH225768   4.220   4.201   4.012 -0.2719 -0.0049 -0.0610
 1378TIP3    H125769   4.207   4.158   3.928 -0.8628  0.4427 -0.1999
 1378TIP3    H225770   4.293   4.261   3.998  0.3928 -0.7586  0.0659
 1379TIP3   OH225771   5.710   6.213   1.836  0.0082 -0.3116 -0.4323
 1379TIP3    H125772   5.684   6.251   1.920  0.4991  0.5706 -0.6610
 1379TIP3    H225773   5.668   6.127   1.834  1.4908 -1.1609  1.5513
 1380TIP3   OH225774   4.916   0.502   3.941 -0.2993  0.6198  0.7215
 1380TIP3    H125775   4.991   0.460   3.984  0.0587  0.2239 -0.2711
 1380TIP3    H225776   4.847   0.435   3.944  0.1280  0.1004 -0.4465
 1381TIP3   OH225777   4.317   6.108   2.049  0.5105 -0.2099 -0.5955
 1381TIP3    H125778   4.259   6.130   2.122  1.1659  1.4579 -0.5244
 1381TIP3    H225779   4.404   6.136   2.079  0.9168 -0.2290 -1.7099
 1382TIP3   OH225780   2.907   1.908   2.536 -0.2048 -0.7542 -0.0522
 1382TIP3    H125781   2.877   1.997   2.550  0.3844 -0.6622  0.7427
 1382TIP3    H225782   2.832   1.853   2.558 -1.0173 -0.4365 -1.9009
 1383TIP3   OH225783   2.906   4.714   3.073  0.4517  0.4381 -0.0500
 1383TIP3    H125784   2.907   4.637   3.016 -0.6461  1.1828 -1.1313
 1383TIP3    H225785   2.996   4.747   3.069  0.9254 -0.7386  0.4007
 1384TIP3   OH225786   3.217   5.605   8.662 -0.1807  0.3279 -0.2031
 1384TIP3    H125787   3.302   5.643   8.641  0.5005 -1.3880 -0.6418
 1384TIP3    H225788   3.237   5.524   8.708 -1.5982  0.1750  0.1973
 1385TIP3   OH225789   5.119   4.762   2.376  0.2282 -0.0897  0.3111
 1385TIP3    H125790   5.066   4.801   2.306  0.7070 -0.0279 -0.0157
 1385TIP3    H225791   5.054   4.724   2.435 -0.2551  1.0845  0.5730
 1386TIP3   OH225792   4.722   1.956   8.109  0.0306  0.7847 -0.0479
 1386TIP3    H125793   4.688   1.911   8.186  0.0021  0.2617 -0.3674
 1386TIP3    H225794   4.645   1.973   8.055  0.1432  0.4965 -0.3027
 1387TIP3   OH225795   4.311   5.900   3.775  0.0820  0.1385 -0.4789
 1387TIP3    H125796   4.221   5.885   3.802  0.4782 -1.8517 -0.0774
 1387TIP3    H225797   4.305   5.961   3.701 -1.3829  1.8687  0.9922
 1388TIP3   OH225798   0.464   3.399   0.087  0.0476 -0.3275  0.1499
 1388TIP3    H125799   0.456   3.492   0.068 -2.2541 -0.6493 -0.6907
 1388TIP3    H225800   0.397   3.381   0.153 -1.8273 -1.9217 -2.0259
 1389TIP3   OH225801   0.449   2.758   1.857  0.5759 -0.2119  0.3468
 1389TIP3    H125802   0.405   2.714   1.930 -1.1756  0.4194 -0.2615
 1389TIP3    H225803   0.533   2.786   1.892  0.8317 -2.1251  1.3730
 1390TIP3   OH225804   3.899   0.950   4.000  0.0993  0.5191 -0.1102
 1390TIP3    H125805   3.983   0.905   4.003 -0.7664 -1.5663 -2.7961
 1390TIP3    H225806   3.920   1.043   4.012  2.2634 -0.2537  3.0544
 1391TIP3   OH225807   0.843   1.050   2.034  0.4342  0.1968 -0.3700
 1391TIP3    H125808   0.867   1.007   2.116 -0.6162 -1.6606 -0.9864
 1391TIP3    H225809   0.765   1.003   2.004 -0.9956  2.7522 -0.9542
 1392TIP3   OH225810   6.675   2.805   2.711 -0.0313 -0.7745  0.3108
 1392TIP3    H125811   6.765   2.790   2.681 -0.3045 -2.0002  0.0698
 1392TIP3    H225812   6.679   2.890   2.756  1.4884 -1.2990  1.2565
 1393TIP3   OH225813   4.844   4.692   3.127  1.0516  0.0470  0.1003
 1393TIP3    H125814   4.831   4.657   3.215  0.1240  0.7710  0.2699
 1393TIP3    H225815   4.934   4.723   3.126  0.5431  1.7535  1.4574
 1394TIP3   OH225816   3.031   4.147   0.940  0.0878 -0.2587 -0.3920
 1394TIP3    H125817   2.957   4.183   0.989  0.9850  0.5698  0.3975
 1394TIP3    H225818   2.991   4.095   0.871 -1.2507  1.0423 -0.6421
 1395TIP3   OH225819   0.257   2.841   2.157  0.0311  0.0027  0.1317
 1395TIP3    H125820   0.191   2.850   2.226 -0.0107  1.9338 -0.0977
 1395TIP3    H225821   0.320   2.910   2.176  0.9554 -0.5725 -0.7743
 1396TIP3   OH225822   2.755   3.216   8.787 -0.4481  0.3481  0.0540
 1396TIP3    H125823   2.758   3.154   8.860 -0.1167  0.4929  0.1639
 1396TIP3    H225824   2.809   3.175   8.719  1.0633  1.2078  0.6720
 1397TIP3   OH225825   4.183   2.116   3.039  0.1743  0.1179 -0.0042
 1397TIP3    H125826   4.190   2.135   3.133  0.6183 -1.5832  0.3489
 1397TIP3    H225827   4.102   2.159   3.011 -0.6167 -0.3757  1.4361
 1398TIP3   OH225828   0.591   5.034   1.199 -0.1166  0.1790 -0.0317
 1398TIP3    H125829   0.531   4.963   1.178  0.1631  0.3468 -1.4885
 1398TIP3    H225830   0.663   4.993   1.247 -0.2017 -0.4375 -0.4272
 1399TIP3   OH225831   3.629   1.929   0.322  0.4911  0.0979 -0.1299
 1399TIP3    H125832   3.645   1.948   0.230  0.3344  2.5054  0.2720
 1399TIP3    H225833   3.608   1.836   0.324  1.3890 -0.2279 -2.3842
 1400TIP3   OH225834   0.512   4.421   0.848 -0.4513  0.4309  0.2868
 1400TIP3    H125835   0.539   4.358   0.780 -1.7858  0.0504  0.0910
 1400TIP3    H225836   0.547   4.384   0.929  0.2178  0.3216 -0.0413
 1401TIP3   OH225837   3.464   5.763   7.853  0.3756  0.3317  0.8207
 1401TIP3    H125838   3.439   5.810   7.774  0.4471  1.8409  1.6713
 1401TIP3    H225839   3.551   5.796   7.873  0.6854 -0.6289  1.1119
 1402TIP3   OH225840   1.031   6.508   8.890 -0.0635 -0.2232  0.1425
 1402TIP3    H125841   1.021   6.556   8.972 -1.6560 -1.0390  0.4687
 1402TIP3    H225842   0.964   6.545   8.832  0.4635 -0.2554 -0.4988
 1403TIP3   OH225843   6.054   1.243   3.607  0.8775 -0.0077  0.2955
 1403TIP3    H125844   5.965   1.279   3.603  0.7326 -0.1665  1.6950
 1403TIP3    H225845   6.111   1.319   3.593  0.5401  0.4396  1.2323
 1404TIP3   OH225846   1.766   6.600   0.519 -0.2998 -0.6493  0.4071
 1404TIP3    H125847   1.814   6.554   0.450  0.0560 -0.1517  0.3155
 1404TIP3    H225848   1.728   6.676   0.475 -2.2756 -1.7016  0.1812
 1405TIP3   OH225849   4.247   6.029   0.243 -0.1972 -0.3482  0.2170
 1405TIP3    H125850   4.272   6.120   0.257  0.5355 -0.5749  0.4394
 1405TIP3    H225851   4.218   6.025   0.152  1.0468 -0.1622 -0.2047
 1406TIP3   OH225852   2.779   6.179   3.949 -0.2448 -0.2430 -0.3537
 1406TIP3    H125853   2.738   6.099   3.915 -1.2421  0.3798 -0.6762
 1406TIP3    H225854   2.722   6.249   3.918  0.3559  0.5581  0.3235
 1407TIP3   OH225855   3.311   3.651   1.615  0.0839  0.5390 -0.0583
 1407TIP3    H125856   3.216   3.652   1.611  0.0691  2.9979 -0.3982
 1407TIP3    H225857   3.334   3.724   1.673  1.7617 -0.7266  0.9884
 1408TIP3   OH225858   5.712   2.035   1.075 -0.0797  0.2426 -0.4418
 1408TIP3    H125859   5.708   2.026   0.979  0.5112  0.7744 -0.5262
 1408TIP3    H225860   5.801   2.068   1.091  0.1330 -0.6679  0.3600
 1409TIP3   OH225861   3.094   1.058   2.968 -0.8354  0.2341  0.1649
 1409TIP3    H125862   3.127   1.057   2.878 -4.2917 -1.2472 -1.2608
 1409TIP3    H225863   3.167   1.027   3.021  0.5270 -1.4504 -2.4987
 1410TIP3   OH225864   1.065   1.997   1.727  0.7750 -0.3743  0.2300
 1410TIP3    H125865   1.121   1.923   1.749 -0.9231 -1.5127  0.9217
 1410TIP3    H225866   1.092   2.067   1.787  0.4887 -1.3704  1.5529
 1411TIP3   OH225867   1.576   3.348   1.791 -0.0065 -0.8643 -0.4534
 1411TIP3    H125868   1.591   3.254   1.803 -0.8342 -1.2775 -2.3386
 1411TIP3    H225869   1.526   3.354   1.711 -0.5070  1.1789 -0.0365
 1412TIP3   OH225870   2.638   0.289   0.177 -0.0026  0.0871 -0.0301
 1412TIP3    H125871   2.595   0.222   0.123  2.7484 -1.4871 -0.4316
 1412TIP3    H225872   2.685   0.344   0.116  0.6541  0.1883  0.5568
 1413TIP3   OH225873   5.126   1.931   0.909 -0.4794 -0.0928  0.4623
 1413TIP3    H125874   5.165   1.886   0.834 -0.9558  1.2294 -0.6277
 1413TIP3    H225875   5.166   1.891   0.985  0.3323 -1.1986 -0.5160
 1414TIP3   OH225876   3.084   5.231   8.757  0.0865 -0.5225  0.0314
 1414TIP3    H125877   3.073   5.147   8.712  0.2321 -0.6887  0.3058
 1414TIP3    H225878   3.177   5.252   8.747 -0.1860  0.2128 -1.1011
 1415TIP3   OH225879   1.781   4.395   0.580 -0.3556 -0.3198 -0.2538
 1415TIP3    H125880   1.833   4.347   0.515 -1.0749 -0.7206 -0.5429
 1415TIP3    H225881   1.746   4.470   0.531 -0.1108 -0.0852 -0.0751
 1416TIP3   OH225882   3.253   1.431   2.183 -0.4887 -0.1736  0.1288
 1416TIP3    H125883   3.202   1.510   2.167 -0.3589 -0.3449 -1.2440
 1416TIP3    H225884   3.188   1.362   2.191 -0.5387 -0.7644 -3.7181
 1417TIP3   OH225885   0.861   1.258   0.082 -0.9253 -0.1282 -0.1627
 1417TIP3    H125886   0.935   1.258   0.142 -1.4308 -0.2981  0.4762
 1417TIP3    H225887   0.900   1.259  -0.005 -0.0829  4.4471  0.0092
 1418TIP3   OH225888   2.483   4.669   3.272 -0.0389  0.6870 -0.4860
 1418TIP3    H125889   2.493   4.742   3.212  2.5867  2.0814  1.4386
 1418TIP3    H225890   2.532   4.695   3.350 -3.1398 -1.0093  2.3300
 1419TIP3   OH225891   1.596   1.072   2.616  0.2803 -0.0530 -0.5252
 1419TIP3    H125892   1.545   1.054   2.695 -1.1988  2.4179 -0.8245
 1419TIP3    H225893   1.674   1.117   2.648 -0.0457  0.4422 -0.4193
 1420TIP3   OH225894   1.424   1.280   3.299  0.1511 -0.0201  0.1977
 1420TIP3    H125895   1.371   1.354   3.330 -0.8128 -0.2350 -0.8574
 1420TIP3    H225896   1.391   1.205   3.347 -0.6609 -0.1840 -0.5849
 1421TIP3   OH225897   3.868   6.070   3.040  0.3743 -0.5676 -0.0307
 1421TIP3    H125898   3.828   6.033   2.962 -0.1110 -0.8179  0.3333
 1421TIP3    H225899   3.891   5.995   3.094 -0.2722 -0.3655  0.5416
 1422TIP3   OH225900   0.038   4.734   2.245 -0.2934 -0.0276 -0.0329
 1422TIP3    H125901   0.089   4.652   2.246  0.8692  0.6293 -1.5267
 1422TIP3    H225902   0.054   4.772   2.331  2.6964  0.6517 -0.7792
 1423TIP3   OH225903   5.945   4.013   3.407  0.3445 -0.1012  0.0840
 1423TIP3    H125904   5.916   4.021   3.317 -0.2948  1.7515  0.4142
 1423TIP3    H225905   5.947   4.103   3.440  1.1656 -0.6773  1.7299
 1424TIP3   OH225906   2.695   0.189   2.135 -0.0658 -0.2847  0.0918
 1424TIP3    H125907   2.765   0.146   2.184  0.0006  0.8302  1.0143
 1424TIP3    H225908   2.625   0.201   2.199 -0.6090 -0.2231 -0.4992
 1425TIP3   OH225909   5.745   4.813   8.890  0.0645  0.1635 -0.3229
 1425TIP3    H125910   5.674   4.852   8.839 -0.4464 -0.1693  0.1337
 1425TIP3    H225911   5.785   4.750   8.830 -0.7520 -0.4740 -0.2173
 1426TIP3   OH225912   4.415   1.955   8.756 -0.2008  0.1749  0.2754
 1426TIP3    H125913   4.375   1.911   8.831  1.0677 -0.5365  0.5650
 1426TIP3    H225914   4.440   1.884   8.697  0.6933  0.5791  0.1484
 1427TIP3   OH225915   4.894   6.223   1.245 -0.0434 -0.0278 -0.1942
 1427TIP3    H125916   4.909   6.170   1.166  0.5365 -1.6134  0.9312
 1427TIP3    H225917   4.808   6.263   1.231 -0.1727 -0.6773 -1.4221
 1428TIP3   OH225918   2.435   6.411   1.754  0.3183  0.3341  0.4149
 1428TIP3    H125919   2.378   6.341   1.722  0.0297  0.7297  0.0418
 1428TIP3    H225920   2.505   6.416   1.688  0.1176  0.6624  0.2210
 1429TIP3   OH225921   1.825   2.921   0.851 -1.1368 -0.0096 -0.2488
 1429TIP3    H125922   1.758   2.965   0.800 -1.6100 -1.3299 -0.8123
 1429TIP3    H225923   1.901   2.918   0.793 -1.0591  0.1641 -0.1588
 1430TIP3   OH225924   0.731   2.454   0.454  0.2205 -0.0389  0.0865
 1430TIP3    H125925   0.657   2.490   0.502  0.4877  0.2690  0.2743
 1430TIP3    H225926   0.801   2.519   0.465  0.4252 -0.1815 -0.3377
 1431TIP3   OH225927   4.605   4.206   0.873  0.4037  0.0840  0.3773
 1431TIP3    H125928   4.559   4.122   0.862 -0.9836  0.8887 -0.2953
 1431TIP3    H225929   4.692   4.182   0.905  0.3699 -1.6704 -0.7075
 1432TIP3   OH225930   4.871   2.589   0.033 -0.1398 -0.3249  0.9563
 1432TIP3    H125931   4.863   2.646   0.110 -1.0050  0.1121  0.5586
 1432TIP3    H225932   4.785   2.593  -0.009  1.1087  2.0093 -1.8025
 1433TIP3   OH225933   1.178   3.480   0.213 -0.1779 -0.3526  0.8778
 1433TIP3    H125934   1.185   3.575   0.221 -0.2908 -0.0244 -1.9421
 1433TIP3    H225935   1.119   3.466   0.138  0.9358 -2.5982  0.3155
 1434TIP3   OH225936   2.074   4.103   8.605  0.1439  0.0632  0.0347
 1434TIP3    H125937   2.092   4.120   8.512  0.6156  3.2299  0.5889
 1434TIP3    H225938   2.151   4.138   8.651 -0.9808  0.4393  1.7090
 1435TIP3   OH225939   3.276   1.053   2.758  0.5186 -0.4515 -0.2497
 1435TIP3    H125940   3.343   1.116   2.731  1.3629 -1.6266 -1.0426
 1435TIP3    H225941   3.287   0.980   2.697 -0.1838 -1.5140  0.8565
 1436TIP3   OH225942   6.016   5.223   8.652 -0.2463  0.0646  0.5403
 1436TIP3    H125943   5.969   5.306   8.652 -0.4955 -0.0695 -0.2407
 1436TIP3    H225944   6.013   5.193   8.561 -0.1243 -0.7766  0.8010
 1437TIP3   OH225945   1.489   3.702   1.624 -0.0505  0.0109 -0.0304
 1437TIP3    H125946   1.506   3.610   1.604  2.2683  0.0731  1.3042
 1437TIP3    H225947   1.550   3.751   1.569 -0.7794  0.7263 -0.2257
 1438TIP3   OH225948   4.878   4.729   1.179 -0.4958  1.3329 -0.1065
 1438TIP3    H125949   4.874   4.816   1.137 -0.1488  0.3085 -2.4267
 1438TIP3    H225950   4.970   4.720   1.206 -0.3466  1.3893 -0.5804
 1439TIP3   OH225951   3.899   4.284   1.609  0.5586  0.5200 -0.1726
 1439TIP3    H125952   3.858   4.292   1.522  0.3661  0.4227 -0.0921
 1439TIP3    H225953   3.935   4.195   1.610  1.8822  1.0258 -0.7169
 1440TIP3   OH225954   2.396   4.024   8.805 -0.0967  0.1377  0.0061
 1440TIP3    H125955   2.364   4.115   8.803 -1.4921 -0.2461  1.8184
 1440TIP3    H225956   2.462   4.020   8.735 -1.2286  2.0678 -1.2750
 1441TIP3   OH225957   0.059   3.760   2.557  0.2234  0.7455  0.0171
 1441TIP3    H125958   0.132   3.820   2.547  0.6497  0.1294 -0.6667
 1441TIP3    H225959  -0.006   3.789   2.493  1.5348 -1.1038 -2.3046
 1442TIP3   OH225960   0.624   0.021   2.997 -0.1624 -0.2576 -0.2441
 1442TIP3    H125961   0.604   0.114   3.007 -3.4851 -0.9782  0.7838
 1442TIP3    H225962   0.619  -0.015   3.085  1.0881 -1.4812 -0.6233
 1443TIP3   OH225963   0.260   0.904   3.234  0.2485 -0.3598 -0.3318
 1443TIP3    H125964   0.275   0.816   3.271 -0.8672 -1.3957 -2.1748
 1443TIP3    H225965   0.166   0.907   3.217  0.6744  0.0246 -2.9740
 1444TIP3   OH225966   6.371   1.731   3.935  0.1618 -0.1502 -0.6259
 1444TIP3    H125967   6.322   1.762   4.011 -0.3207 -0.7205 -0.6944
 1444TIP3    H225968   6.307   1.678   3.886  0.6835 -0.4162 -1.0226
 1445TIP3   OH225969   4.009   4.395   2.249 -0.2340 -0.4592 -0.7345
 1445TIP3    H125970   4.071   4.431   2.313  1.2638 -2.1448 -1.1531
 1445TIP3    H225971   3.933   4.371   2.301 -0.4462  1.3351 -0.1434
 1446TIP3   OH225972   1.282   5.045   3.347 -0.0804  0.2879  0.4103
 1446TIP3    H125973   1.220   4.972   3.348 -0.4294  0.5715  0.0081
 1446TIP3    H225974   1.364   5.008   3.378 -0.3429 -0.1970  0.5274
 1447TIP3   OH225975   1.097   0.962   1.957 -0.0547  0.0303 -0.0975
 1447TIP3    H125976   1.136   1.048   1.974  1.1322 -0.5274  0.0690
 1447TIP3    H225977   1.005   0.981   1.937  0.1979  1.3369 -0.0884
 1448TIP3   OH225978   0.496   4.700   2.961  0.0607 -0.2390  0.3786
 1448TIP3    H125979   0.444   4.661   2.890 -0.0546 -1.4345  1.0957
 1448TIP3    H225980   0.568   4.744   2.916 -0.7495  0.1829 -0.5468
 1449TIP3   OH225981   1.138   3.908   2.512  0.4412  0.4356 -0.2154
 1449TIP3    H125982   1.043   3.921   2.518  0.2835  0.3958 -2.0038
 1449TIP3    H225983   1.169   3.912   2.603 -1.4399 -0.9894  0.5438
 1450TIP3   OH225984   5.610   0.594   4.139 -0.9358 -0.1013 -1.0173
 1450TIP3    H125985   5.661   0.671   4.167 -0.8044  0.8438 -3.5992
 1450TIP3    H225986   5.521   0.627   4.131 -1.3162 -0.8316 -0.0162
 1451TIP3   OH225987   0.581   5.867   1.500 -0.1462  0.1529  0.3738
 1451TIP3    H125988   0.547   5.956   1.486 -0.6471 -0.2027 -0.8829
 1451TIP3    H225989   0.575   5.854   1.594  0.5917  1.7047  0.6719
 1452TIP3   OH225990   0.957   6.602   1.940  0.0765 -0.1400 -0.8106
 1452TIP3    H125991   1.043   6.587   1.977 -0.5496  0.7545  1.1575
 1452TIP3    H225992   0.896   6.583   2.011 -1.3077  0.2233 -1.8343
 1453TIP3   OH225993   6.070   3.301   3.696 -0.0314 -0.6148 -0.3914
 1453TIP3    H125994   6.039   3.269   3.780  0.6613 -1.3190 -0.3968
 1453TIP3    H225995   5.995   3.289   3.637 -1.0250  1.2539  0.4238
 1454TIP3   OH225996   3.114   1.486   3.956  0.5321 -0.0044 -0.0993
 1454TIP3    H125997   3.178   1.499   3.887 -0.3176 -0.5829 -1.0140
 1454TIP3    H225998   3.166   1.466   4.034  1.4460 -0.7385 -0.8868
 1455TIP3   OH225999   3.582   6.766   3.675  0.3393 -0.6905 -0.1372
 1455TIP3    H126000   3.538   6.787   3.593  0.0579  4.1457  0.9515
 1455TIP3    H226001   3.672   6.795   3.662  0.3008  0.1070  1.2329
 1456TIP3   OH226002   4.970   0.814   3.749 -0.3805 -0.6299 -0.0266
 1456TIP3    H126003   4.960   0.906   3.771  1.1792 -0.6597  0.9806
 1456TIP3    H226004   4.932   0.767   3.823 -3.1386 -0.8802 -1.4950
 1457TIP3   OH226005   2.084   2.782   2.513 -0.7611 -0.2850  0.1854
 1457TIP3    H126006   2.031   2.749   2.585  0.0601  0.1991  1.0431
 1457TIP3    H226007   2.169   2.802   2.554  0.3207 -1.6552 -1.2517
 1458TIP3   OH226008   0.967   2.096   3.034 -0.3651  0.2447 -0.1006
 1458TIP3    H126009   0.996   2.069   2.947 -1.2550 -0.5537 -0.1702
 1458TIP3    H226010   1.008   2.033   3.093 -0.5367  0.1908 -0.0375
 1459TIP3   OH226011   4.338   3.081   0.286 -0.0365 -0.3054  0.2096
 1459TIP3    H126012   4.258   3.083   0.338 -0.2776  2.0011 -0.1528
 1459TIP3    H226013   4.399   3.138   0.332  1.3189 -1.7181  0.2736
 1460TIP3   OH226014   4.893   1.159   3.020 -0.2639  0.2314  0.0497
 1460TIP3    H126015   4.934   1.157   3.107 -1.1003 -0.5275  0.4442
 1460TIP3    H226016   4.826   1.090   3.024 -0.6947  0.5754 -1.0113
 1461TIP3   OH226017   0.823   3.219   0.763 -0.0641 -0.1299 -0.1704
 1461TIP3    H126018   0.895   3.170   0.805 -0.3848 -0.6695 -0.2436
 1461TIP3    H226019   0.812   3.296   0.819 -0.0742 -0.5344  0.3961
 1462TIP3   OH226020   1.531   0.736   4.008 -0.5349  0.4078  0.3702
 1462TIP3    H126021   1.456   0.743   3.949 -0.9069 -0.5576  0.7002
 1462TIP3    H226022   1.509   0.793   4.082 -1.3710 -0.5238  0.8762
 1463TIP3   OH226023   2.226   1.417   3.088 -0.3939 -0.4144  0.0829
 1463TIP3    H126024   2.256   1.392   3.001  0.1649 -2.2037  0.7366
 1463TIP3    H226025   2.304   1.411   3.143 -0.7315  0.7445  0.7145
 1464TIP3   OH226026   5.393   5.432   2.341 -0.7514 -0.2116  0.4062
 1464TIP3    H126027   5.409   5.373   2.266 -0.1215 -0.9064  1.0708
 1464TIP3    H226028   5.346   5.506   2.303  0.2930 -0.1520 -0.8433
 1465TIP3   OH226029   2.561   0.781   0.415  0.2770 -0.0343 -0.4342
 1465TIP3    H126030   2.548   0.717   0.346 -2.5387  0.7687 -0.7551
 1465TIP3    H226031   2.582   0.862   0.369  0.2904  0.0706 -0.2440
 1466TIP3   OH226032   3.294   1.745   0.090 -0.3960 -0.0870  0.0047
 1466TIP3    H126033   3.386   1.754   0.117 -0.3080  1.9728 -0.7867
 1466TIP3    H226034   3.253   1.697   0.162  1.1862 -0.5586  0.6335
 1467TIP3   OH226035   0.644   0.620   2.019 -0.5360 -0.4309 -0.2606
 1467TIP3    H126036   0.702   0.626   2.095 -0.3102  2.2986 -0.5601
 1467TIP3    H226037   0.558   0.605   2.056 -0.3212  0.1821  0.5229
 1468TIP3   OH226038   3.350   3.880   2.387 -0.1582 -0.9738 -0.5294
 1468TIP3    H126039   3.380   3.800   2.343  1.8765 -1.0444  0.8695
 1468TIP3    H226040   3.402   3.950   2.347  0.2586 -0.7738  0.3474
 1469TIP3   OH226041   4.822   1.512   2.919 -0.0887  0.4364 -0.2522
 1469TIP3    H126042   4.750   1.572   2.897 -0.3852 -0.4438 -1.8093
 1469TIP3    H226043   4.806   1.490   3.011 -0.6622  1.7867  0.0056
 1470TIP3   OH226044   2.520   0.842   2.648 -0.4160 -0.0697 -0.0743
 1470TIP3    H126045   2.531   0.773   2.583  1.0381  0.8183 -0.8454
 1470TIP3    H226046   2.610   0.871   2.667 -0.8882  0.5576  1.3960
 1471TIP3   OH226047   4.433   0.754   3.599 -0.0816  0.9927 -0.1008
 1471TIP3    H126048   4.378   0.820   3.642  0.6369  0.8759  1.0452
 1471TIP3    H226049   4.508   0.744   3.658  0.0179 -0.5601 -0.4591
 1472TIP3   OH226050   2.442   3.523   0.159  0.3218  0.3103 -0.2618
 1472TIP3    H126051   2.492   3.590   0.205 -0.1458 -0.2700  1.1388
 1472TIP3    H226052   2.469   3.531   0.067  1.3423  1.4349  0.1211
 1473TIP3   OH226053   5.303   0.747   1.034 -0.3519 -0.0514 -0.1896
 1473TIP3    H126054   5.228   0.712   1.083 -1.5069  0.0684 -1.7909
 1473TIP3    H226055   5.302   0.841   1.054  1.4753 -0.5015  2.4444
 1474TIP3   OH226056   3.428   2.675   2.529  0.0945 -0.2038  0.1952
 1474TIP3    H126057   3.410   2.769   2.527  1.2380  0.0458  0.7922
 1474TIP3    H226058   3.365   2.640   2.592 -0.5700  0.1037 -0.2926
 1475TIP3   OH226059   5.266   6.737   1.284 -0.1284 -0.2733  0.3241
 1475TIP3    H126060   5.233   6.706   1.200  0.0863 -0.4015  0.2866
 1475TIP3    H226061   5.312   6.662   1.322 -0.4909 -0.3096  0.6959
 1476TIP3   OH226062   1.397   4.809   0.988  0.3801  0.2816 -0.1587
 1476TIP3    H126063   1.304   4.809   0.968  0.0130 -0.9495  1.3799
 1476TIP3    H226064   1.430   4.891   0.951 -0.4457 -1.0716 -4.4926
 1477TIP3   OH226065   5.015   5.049   3.175  0.1936 -0.1592  0.1648
 1477TIP3    H126066   4.949   5.011   3.232 -0.5412  0.3702 -0.3204
 1477TIP3    H226067   5.092   5.060   3.231 -0.1297 -0.7473  0.7400
 1478TIP3   OH226068   2.114   6.106   2.784  0.2613 -0.2232 -0.6413
 1478TIP3    H126069   2.189   6.057   2.816  0.6576  1.0022  0.4336
 1478TIP3    H226070   2.150   6.165   2.717  0.9864  2.5163  1.9171
 1479TIP3   OH226071   2.628   5.251   3.135  0.2478  0.3810 -0.3991
 1479TIP3    H126072   2.671   5.326   3.174 -2.1628  0.3225  2.7551
 1479TIP3    H226073   2.651   5.177   3.192 -1.0427 -0.3522 -0.7844
 1480TIP3   OH226074   5.704   0.604   0.868 -0.0682  0.1022 -0.5955
 1480TIP3    H126075   5.727   0.649   0.950  0.6489  0.9490 -1.2376
 1480TIP3    H226076   5.727   0.512   0.884 -3.4754 -0.5586  1.4692
 1481TIP3   OH226077   1.031   5.837   8.338 -0.3000  0.8207  0.3131
 1481TIP3    H126078   1.095   5.791   8.393 -0.1336 -0.5638 -0.9801
 1481TIP3    H226079   0.951   5.840   8.391 -0.2171 -0.7011  0.5505
 1482TIP3   OH226080   3.800   0.167   3.593  0.2998 -0.3160  0.2380
 1482TIP3    H126081   3.841   0.084   3.619  2.0099  0.9378  1.8464
 1482TIP3    H226082   3.874   0.227   3.581 -0.8557  0.8311 -1.5889
 1483TIP3   OH226083   2.215   0.420   3.632 -1.0126  0.1724 -0.6817
 1483TIP3    H126084   2.196   0.437   3.724 -0.3374 -2.2801 -0.0030
 1483TIP3    H226085   2.140   0.370   3.601 -1.0675  0.6742 -1.3604
 1484TIP3   OH226086   2.539   3.998   8.545 -0.1960  0.6229 -0.4899
 1484TIP3    H126087   2.595   4.012   8.468  1.7964 -1.7925  0.4059
 1484TIP3    H226088   2.477   3.931   8.516 -0.0384  0.3864 -0.2803
 1485TIP3   OH226089   2.456   1.091   3.348 -0.1141  0.0008 -0.0326
 1485TIP3    H126090   2.443   1.001   3.377 -0.6353  0.6031  1.7539
 1485TIP3    H226091   2.534   1.088   3.293 -1.3687 -1.8903 -1.8294
 1486TIP3   OH226092   5.744   6.618   4.019 -0.5837  0.1151  0.1544
 1486TIP3    H126093   5.671   6.556   4.015 -0.3176 -0.1702 -0.3062
 1486TIP3    H226094   5.752   6.640   4.112 -0.2687 -1.0392  0.4100
 1487TIP3   OH226095   5.938   1.402   0.046 -0.4826 -0.3184  0.6398
 1487TIP3    H126096   6.028   1.412   0.077 -0.9281  1.8840  1.3823
 1487TIP3    H226097   5.904   1.327   0.095  0.5414 -0.3432  1.3436
 1488TIP3   OH226098   1.181   6.615   2.101 -0.1587 -0.3842 -0.0832
 1488TIP3    H126099   1.264   6.663   2.104 -0.8631  0.8272  0.9188
 1488TIP3    H226100   1.156   6.604   2.192 -1.6790  0.3513 -0.3724
 1489TIP3   OH226101   2.676   4.838   0.364 -0.1640 -0.0215  0.0860
 1489TIP3    H126102   2.594   4.792   0.346  0.6191 -1.4667  0.0320
 1489TIP3    H226103   2.713   4.794   0.440  0.2373  1.0738  0.5494
 1490TIP3   OH226104   4.814   5.996   0.264 -0.8898  0.1674  0.0599
 1490TIP3    H126105   4.826   5.966   0.354 -0.7155  0.7976  0.2566
 1490TIP3    H226106   4.736   6.051   0.267 -2.8086 -2.3572 -0.8307
 1491TIP3   OH226107   1.340   5.285   8.755 -0.2822 -0.2268 -0.1329
 1491TIP3    H126108   1.315   5.283   8.663  1.3267  0.7119 -0.6304
 1491TIP3    H226109   1.349   5.378   8.776  1.5938 -0.4651  0.2945
 1492TIP3   OH226110   1.302   0.379   3.923  0.2336  0.4313  0.1689
 1492TIP3    H126111   1.245   0.335   3.986  0.4748 -0.3055 -0.1104
 1492TIP3    H226112   1.244   0.397   3.849  0.2908 -0.0838 -0.0098
 1493TIP3   OH226113   4.783   1.268   0.925 -0.4673 -0.2665 -0.7261
 1493TIP3    H126114   4.746   1.205   0.986 -1.2532  1.7169  0.9616
 1493TIP3    H226115   4.707   1.317   0.892  0.2463  1.0526 -0.4877
 1494TIP3   OH226116   1.125   2.813   2.591 -0.0221  0.4413 -0.3139
 1494TIP3    H126117   1.110   2.867   2.669 -0.3481 -1.5681  1.1141
 1494TIP3    H226118   1.154   2.729   2.626  2.2275  0.1804 -2.5085
 1495TIP3   OH226119   0.187   5.411   1.557  0.2030 -0.3681  0.2878
 1495TIP3    H126120   0.255   5.417   1.490 -1.9293  0.5890 -1.9449
 1495TIP3    H226121   0.194   5.322   1.591  2.1182 -0.4961 -0.3116
 1496TIP3   OH226122   0.826   4.631   3.127  0.0639  0.2257  0.1073
 1496TIP3    H126123   0.755   4.693   3.144  0.0856  0.4915 -0.7441
 1496TIP3    H226124   0.788   4.567   3.067  0.1535 -0.3885  0.6892
 1497TIP3   OH226125   5.044   4.658   3.619 -0.1868 -0.2756  0.0060
 1497TIP3    H126126   4.953   4.685   3.627 -0.2342 -0.7690  1.3571
 1497TIP3    H226127   5.050   4.575   3.666  0.5970 -1.1731 -1.5733
 1498TIP3   OH226128   3.453   0.173   3.207 -0.1492  0.5075 -0.7784
 1498TIP3    H126129   3.417   0.259   3.190 -1.3140 -0.1742 -1.9147
 1498TIP3    H226130   3.418   0.148   3.292 -0.1304  0.9836 -0.6292
 1499TIP3   OH226131   4.719   5.916   3.829 -0.4219  0.1168 -0.2845
 1499TIP3    H126132   4.769   5.989   3.866  0.6357 -1.1561  0.9074
 1499TIP3    H226133   4.652   5.897   3.894  0.5693 -1.2404  0.3741
 1500TIP3   OH226134   4.897   4.741   0.710 -0.5226  0.1597 -0.1738
 1500TIP3    H126135   4.963   4.763   0.776 -0.4415 -2.1916  0.6015
 1500TIP3    H226136   4.948   4.720   0.632 -0.5480  1.3060 -0.5258
 1501TIP3   OH226137   3.239   6.229   0.683  0.0696 -0.2423 -0.3996
 1501TIP3    H126138   3.201   6.312   0.713 -0.7909 -1.3465  1.8013
 1501TIP3    H226139   3.168   6.186   0.634 -0.0511 -0.4112 -0.0765
 1502TIP3   OH226140   1.510   4.779   8.803 -0.8009 -0.1706  0.1170
 1502TIP3    H126141   1.429   4.733   8.828 -1.6961  0.3556 -1.6667
 1502TIP3    H226142   1.485   4.871   8.798 -0.0019  0.0367 -0.1308
 1503TIP3   OH226143   1.946   6.358   1.315  1.4563  0.7218 -0.1318
 1503TIP3    H126144   1.871   6.301   1.296  1.9928  0.0187 -0.1843
 1503TIP3    H226145   1.914   6.446   1.297  0.4004  0.5089  0.5807
 1504TIP3   OH226146   0.820   6.155   8.606  0.7127 -0.0621  0.5151
 1504TIP3    H126147   0.805   6.075   8.555  0.4742  0.0811  0.3607
 1504TIP3    H226148   0.916   6.163   8.608  0.7288 -0.1235  0.1751
 1505TIP3   OH226149   2.824   1.093   0.814  0.3483 -0.1141 -0.0069
 1505TIP3    H126150   2.827   1.149   0.891 -0.5391 -3.1506  2.4330
 1505TIP3    H226151   2.810   1.005   0.849 -5.4861 -1.2275 -3.6838
 1506TIP3   OH226152   5.476   3.162   3.611  0.1340 -0.2068 -0.3028
 1506TIP3    H126153   5.488   3.201   3.525  0.8944 -0.8164 -0.4879
 1506TIP3    H226154   5.451   3.235   3.667  0.6895  0.3932 -0.8206
 1507TIP3   OH226155   2.045   0.552   2.011  0.0713  0.1671 -0.4740
 1507TIP3    H126156   2.072   0.464   1.984  1.4980  0.7977 -1.2141
 1507TIP3    H226157   1.971   0.572   1.954  0.2381 -0.2533 -0.8531
 1508TIP3   OH226158   6.244   2.672   2.696 -0.3257 -0.2359  0.3322
 1508TIP3    H126159   6.299   2.637   2.626  0.2064  0.2704  0.4852
 1508TIP3    H226160   6.302   2.680   2.771 -1.4864 -3.3650  1.7469
 1509TIP3   OH226161   6.426   4.069   1.423  0.0893 -0.2589  0.0042
 1509TIP3    H126162   6.347   4.055   1.476  0.2142 -0.9481  0.0186
 1509TIP3    H226163   6.481   3.993   1.441 -0.4604 -1.2540 -2.1913
 1510TIP3   OH226164   5.055   3.679   8.702  0.2649 -0.3115  0.1149
 1510TIP3    H126165   5.012   3.708   8.622 -0.2594 -0.0392  0.4927
 1510TIP3    H226166   5.108   3.754   8.730  1.7606 -0.9636 -0.8642
 1511TIP3   OH226167   3.488   2.479   2.981 -0.1196 -0.7099  0.0685
 1511TIP3    H126168   3.473   2.452   3.071 -0.9414 -1.2672 -0.2252
 1511TIP3    H226169   3.445   2.564   2.973  0.4008 -0.4189  0.3389
 1512TIP3   OH226170   5.504   6.274   2.569  0.0175  0.1225 -0.3516
 1512TIP3    H126171   5.427   6.301   2.619  1.4254  0.3719  1.8084
 1512TIP3    H226172   5.491   6.181   2.551  0.2039 -0.4060  2.0144
 1513TIP3   OH226173   5.165   5.402   0.331  0.3027  0.1539 -0.4627
 1513TIP3    H126174   5.091   5.396   0.392  0.9389 -0.0275  0.3151
 1513TIP3    H226175   5.202   5.314   0.331  1.3617  0.5807  0.2526
 1514TIP3   OH226176   5.812   0.081   0.254 -0.2555  0.3962 -0.0311
 1514TIP3    H126177   5.816   0.072   0.159  2.1678 -2.1517  0.1959
 1514TIP3    H226178   5.775  -0.002   0.285  3.1562 -0.7988  1.3426
 1515TIP3   OH226179   0.156   5.295   2.726  0.1916  0.2444  0.3872
 1515TIP3    H126180   0.175   5.231   2.795 -0.2466 -0.1563  0.1421
 1515TIP3    H226181   0.222   5.278   2.659  0.6914  0.7135  0.7588
 1516TIP3   OH226182   4.671   6.062   2.713  0.0951 -0.0008 -0.2604
 1516TIP3    H126183   4.676   5.969   2.735 -2.0153  0.3280  1.9751
 1516TIP3    H226184   4.735   6.072   2.642 -0.0070 -3.2285 -0.9972
 1517TIP3   OH226185   3.734   3.555   3.808 -0.7560  0.0261 -1.0453
 1517TIP3    H126186   3.813   3.535   3.858  0.5342  2.4927 -1.8905
 1517TIP3    H226187   3.739   3.498   3.732 -0.0259 -0.1839 -0.8535
 1518TIP3   OH226188   3.540   4.597   1.064 -0.1123  0.1954 -0.4332
 1518TIP3    H126189   3.457   4.627   1.100 -0.3104  0.2830 -0.9666
 1518TIP3    H226190   3.602   4.608   1.137 -0.9577 -1.8245  0.6584
 1519TIP3   OH226191   0.180   3.271   3.542  0.3149 -0.3433  0.3149
 1519TIP3    H126192   0.176   3.242   3.450  1.9686  0.1761  0.0470
 1519TIP3    H226193   0.147   3.196   3.592  0.2378 -0.9763 -0.6530
 1520TIP3   OH226194   2.246   3.170   2.526  0.2196  0.5569 -0.5822
 1520TIP3    H126195   2.256   3.078   2.502  0.1062  0.3246  0.2318
 1520TIP3    H226196   2.317   3.215   2.480 -0.5290  0.2844 -2.0868
 1521TIP3   OH226197   3.681   2.607   2.568  0.6659  0.6142 -0.0444
 1521TIP3    H126198   3.600   2.647   2.538  1.1105  1.8746  0.3717
 1521TIP3    H226199   3.670   2.598   2.663  1.0971  0.9984  0.0450
 1522TIP3   OH226200   1.139   2.013   2.827 -0.3817 -0.1496  0.0073
 1522TIP3    H126201   1.232   2.016   2.802  0.1875 -2.2094  1.6334
 1522TIP3    H226202   1.112   1.923   2.807 -1.7223  0.1110  0.5835
 1523TIP3   OH226203   2.110   2.956   2.257  0.1658  0.7267 -1.1440
 1523TIP3    H126204   2.113   2.865   2.288 -0.6004  0.9989 -0.2349
 1523TIP3    H226205   2.017   2.972   2.238  0.2604  1.3941 -1.0687
 1524TIP3   OH226206   3.718   1.395   3.333  0.3003  0.1722 -0.4785
 1524TIP3    H126207   3.659   1.389   3.408  3.9574 -1.3493  2.6482
 1524TIP3    H226208   3.717   1.307   3.295  1.7802 -0.4236  0.7617
 1525TIP3   OH226209   0.510   1.206   0.257 -0.1967  0.9661 -0.1881
 1525TIP3    H126210   0.540   1.129   0.306  0.5482  1.6126  0.4054
 1525TIP3    H226211   0.417   1.190   0.242  0.5033 -1.5537 -2.8905
 1526TIP3   OH226212   4.522   6.187   8.806 -0.0727  0.0794 -0.0742
 1526TIP3    H126213   4.498   6.158   8.718  0.9477 -0.2663 -0.2500
 1526TIP3    H226214   4.518   6.108   8.860 -1.6131  0.4536  0.4202
 1527TIP3   OH226215   1.925   2.363   3.466 -0.0313 -0.2216  0.0795
 1527TIP3    H126216   1.937   2.457   3.480  1.9267 -0.5760  1.1469
 1527TIP3    H226217   2.011   2.332   3.437  0.2027 -2.1110  2.4707
 1528TIP3   OH226218   2.358   2.974   0.945 -0.4104 -0.2454  0.7440
 1528TIP3    H126219   2.314   3.007   1.023 -0.2850  1.3149  0.1818
 1528TIP3    H226220   2.315   3.019   0.872  0.2296 -0.8241 -0.0098
 1529TIP3   OH226221   1.195   5.162   0.082  0.1604 -0.2214 -0.1757
 1529TIP3    H126222   1.210   5.225   0.152 -0.5727  0.3727 -0.5335
 1529TIP3    H226223   1.243   5.199   0.007 -1.7609  0.9331 -0.9160
 1530TIP3   OH226224   4.980   4.002   8.855  0.3714  0.2922 -0.0913
 1530TIP3    H126225   4.934   3.980   8.774  1.3374 -0.0452 -0.5754
 1530TIP3    H226226   4.934   4.078   8.890  1.4953  2.1443 -2.3701
 1531TIP3   OH226227   6.374   3.606   3.774  0.4990 -0.1720 -0.4698
 1531TIP3    H126228   6.285   3.604   3.739  0.7783 -0.3871 -1.1779
 1531TIP3    H226229   6.362   3.610   3.869 -0.2850  1.5086 -0.6088
 1532TIP3   OH226230   2.330   1.834   3.938 -0.0607 -0.0489 -0.1043
 1532TIP3    H126231   2.239   1.822   3.967  0.1949 -2.5016 -0.0973
 1532TIP3    H226232   2.358   1.747   3.909  2.5686  0.4519  0.6571
 1533TIP3   OH226233   0.889   3.245   8.774  0.6163  0.4401 -0.1445
 1533TIP3    H126234   0.834   3.235   8.696  0.2050 -0.2429  0.2317
 1533TIP3    H226235   0.972   3.205   8.750  0.7321  0.8802 -0.4835
 1534TIP3   OH226236   5.734   4.027   1.651 -0.2472 -0.1645 -0.1020
 1534TIP3    H126237   5.758   3.993   1.565  1.2653  0.5205  0.0349
 1534TIP3    H226238   5.816   4.056   1.690 -0.8259 -0.8688  1.7699
 1535TIP3   OH226239   6.501   1.337   3.130 -0.6267 -0.0737 -0.3814
 1535TIP3    H126240   6.440   1.407   3.107 -1.1716 -0.5951 -0.5405
 1535TIP3    H226241   6.483   1.317   3.221 -1.4774 -0.9892 -0.7332
 1536TIP3   OH226242   0.365   6.511   8.624  0.0792 -0.1603 -0.0313
 1536TIP3    H126243   0.313   6.469   8.556 -1.2024  0.9874  0.1891
 1536TIP3    H226244   0.455   6.497   8.596 -0.0893 -4.5727  0.9704
 1537TIP3   OH226245   2.678   0.498   8.286  0.4417 -0.3314 -0.0673
 1537TIP3    H126246   2.739   0.424   8.279  1.3158  0.3805 -0.0782
 1537TIP3    H226247   2.680   0.538   8.199  1.7243  1.0583  0.5741
 1538TIP3   OH226248   1.883   2.827   0.213  0.1957 -0.3618 -0.4150
 1538TIP3    H126249   1.958   2.802   0.266  0.0009  0.1200  0.1068
 1538TIP3    H226250   1.919   2.839   0.125  1.1659  1.8158  0.2033
 1539TIP3   OH226251   2.684   5.635   2.877 -0.1695  0.6339  0.0917
 1539TIP3    H126252   2.659   5.549   2.910 -0.6717  1.1168  1.0443
 1539TIP3    H226253   2.752   5.618   2.812  1.4702 -0.3768  1.9281
 1540TIP3   OH226254   2.505   0.652   0.160 -0.2688  0.1036  0.2212
 1540TIP3    H126255   2.545   0.614   0.082 -0.9788  0.7848 -0.4925
 1540TIP3    H226256   2.497   0.745   0.141 -1.4041  0.1218  0.6782
 1541TIP3   OH226257   0.187   2.561   2.240 -0.0732 -0.5426  0.0289
 1541TIP3    H126258   0.107   2.533   2.284 -0.2596  1.0416  0.7827
 1541TIP3    H226259   0.156   2.616   2.168  0.2988 -1.5684 -0.9489
 1542TIP3   OH226260   4.367   6.670   8.461  0.5466 -0.8144 -0.6617
 1542TIP3    H126261   4.372   6.602   8.393 -0.3413 -0.5886 -0.9594
 1542TIP3    H226262   4.325   6.744   8.417  2.2402  0.2446 -0.5886
 1543TIP3   OH226263   4.533   5.345   0.543 -0.1071 -0.2575 -0.2995
 1543TIP3    H126264   4.509   5.438   0.546  1.0596  0.0402  0.2759
 1543TIP3    H226265   4.471   5.303   0.603  0.1068  0.3293  0.3519
 1544TIP3   OH226266   3.648   0.772   1.015 -0.0984  0.0256 -0.0501
 1544TIP3    H126267   3.574   0.719   0.986 -0.7837 -0.2910  2.1280
 1544TIP3    H226268   3.723   0.713   1.011 -0.5763 -0.6608  0.8847
 1545TIP3   OH226269   6.449   5.580   0.472  0.2858 -0.0442 -0.4834
 1545TIP3    H126270   6.399   5.502   0.495  1.1947 -0.4375  0.2426
 1545TIP3    H226271   6.404   5.651   0.517 -0.3265 -0.2027 -0.8375
 1546TIP3   OH226272   2.415   5.681   8.788 -0.0331  0.0894 -0.7527
 1546TIP3    H126273   2.486   5.632   8.747  0.3759  0.2930 -0.2953
 1546TIP3    H226274   2.411   5.763   8.740 -1.2757 -0.6940 -2.0783
 1547TIP3   OH226275   1.946   3.122   8.412 -0.5725  0.0123 -0.7989
 1547TIP3    H126276   1.933   3.137   8.318 -0.0841 -1.9629 -1.2367
 1547TIP3    H226277   2.015   3.055   8.416 -0.5329  0.1102  0.9832
 1548TIP3   OH226278   6.238   6.728   8.618  0.1207  0.5558  0.4225
 1548TIP3    H126279   6.318   6.691   8.580 -0.7765 -0.9058 -0.1158
 1548TIP3    H226280   6.244   6.705   8.711 -1.0227 -2.2889 -0.0827
 1549TIP3   OH226281   4.104   2.207   3.615  0.2554  0.6432 -0.4353
 1549TIP3    H126282   4.155   2.285   3.637  0.2323  0.3068  0.9148
 1549TIP3    H226283   4.028   2.241   3.567  1.4128  1.1984 -1.9658
 1550TIP3   OH226284   5.263   1.297   2.114  0.0747  0.1943  0.1258
 1550TIP3    H126285   5.205   1.230   2.077 -0.6469  1.7212 -1.6468
 1550TIP3    H226286   5.343   1.249   2.136 -0.5187 -1.3066 -0.8044
 1551TIP3   OH226287   4.198   2.373   8.782 -0.4911  0.3623  0.1575
 1551TIP3    H126288   4.268   2.308   8.791 -0.7785  0.2095  1.5362
 1551TIP3    H226289   4.121   2.321   8.758 -0.0123  0.6213 -2.2206
 1552TIP3   OH226290   2.266   2.632   0.750 -0.3631  0.2522 -1.1116
 1552TIP3    H126291   2.224   2.701   0.800 -1.0490 -0.3381 -0.8749
 1552TIP3    H226292   2.268   2.557   0.808 -0.8664 -0.3402 -1.8376
 1553TIP3   OH226293   5.247   1.978   3.565 -0.0593  0.4176 -0.2970
 1553TIP3    H126294   5.188   2.039   3.611 -1.3518 -0.9554 -0.0648
 1553TIP3    H226295   5.300   1.939   3.635 -0.9727 -0.5443 -0.1150
 1554TIP3   OH226296   1.141   1.186   0.162 -0.1505  0.0328  0.1319
 1554TIP3    H126297   1.206   1.206   0.230 -0.9276  1.2230  0.5549
 1554TIP3    H226298   1.180   1.222   0.082 -0.7167  1.6966  0.5688
 1555TIP3   OH226299   2.552   4.667   1.847 -0.0862 -0.4331 -0.2793
 1555TIP3    H126300   2.535   4.573   1.836 -1.7436 -0.4713  2.1231
 1555TIP3    H226301   2.644   4.671   1.872  0.0032 -1.3969 -0.3973
 1556TIP3   OH226302   5.871   0.294   2.329  0.2189 -0.5318 -0.4153
 1556TIP3    H126303   5.876   0.342   2.411  1.9612 -1.1776 -0.1125
 1556TIP3    H226304   5.777   0.287   2.311 -0.2259 -0.7720  1.7409
 1557TIP3   OH226305   2.094   5.092   4.009  0.0345 -0.3395  0.6067
 1557TIP3    H126306   2.147   5.172   4.012  2.0891 -1.5707 -0.2465
 1557TIP3    H226307   2.013   5.119   3.967  0.2321  1.5084  1.3228
 1558TIP3   OH226308   4.906   2.165   8.820  0.2300  0.9165 -0.1936
 1558TIP3    H126309   4.956   2.143   8.899  0.7594  3.5921  0.3302
 1558TIP3    H226310   4.819   2.127   8.835  0.6366  0.4697  1.1895
 1559TIP3   OH226311   3.746   3.874   1.416 -0.0252 -0.0594 -0.2447
 1559TIP3    H126312   3.731   3.864   1.511 -0.9940  0.5164 -0.3196
 1559TIP3    H226313   3.723   3.965   1.398  0.9955  0.0783 -0.8989
 1560TIP3   OH226314   0.589   3.954   0.250  0.4451  0.0149 -0.1670
 1560TIP3    H126315   0.632   4.033   0.283  2.3350 -1.1021  0.1813
 1560TIP3    H226316   0.635   3.882   0.292 -0.7793 -1.3132 -1.0067
 1561TIP3   OH226317   1.759   4.164   0.750  0.0299 -0.1430  0.3524
 1561TIP3    H126318   1.721   4.084   0.712  0.0508  0.2656 -0.5535
 1561TIP3    H226319   1.708   4.235   0.710  0.6963  0.3402  0.3594
 1562TIP3   OH226320   5.871   0.332   1.874  0.3156 -0.3656  0.4677
 1562TIP3    H126321   5.910   0.244   1.872  2.0041  0.3295  1.0376
 1562TIP3    H226322   5.776   0.316   1.881  0.6089 -2.1389  0.9312
 1563TIP3   OH226323   4.803   3.384   0.853 -0.6640 -0.5486 -0.1680
 1563TIP3    H126324   4.780   3.385   0.946  0.1296  0.9617  0.0462
 1563TIP3    H226325   4.888   3.340   0.850 -0.3619  0.0159 -0.0746
 1564TIP3   OH226326   6.178   2.760   3.008 -0.0622 -0.2471  0.3341
 1564TIP3    H126327   6.165   2.854   3.026 -1.8917 -0.1223 -1.3474
 1564TIP3    H226328   6.259   2.756   2.958 -0.2418  0.4947 -0.0272
 1565TIP3   OH226329   0.176   5.164   1.761  0.0388  0.0172 -0.3524
 1565TIP3    H126330   0.180   5.090   1.700  0.4531 -0.7543  0.5978
 1565TIP3    H226331   0.265   5.171   1.795 -0.2041  0.4167  0.2053
 1566TIP3   OH226332   0.376   3.212   1.738 -0.4637  0.3616 -0.4579
 1566TIP3    H126333   0.322   3.246   1.667 -0.7479 -0.2580 -0.5493
 1566TIP3    H226334   0.325   3.228   1.817 -0.9192 -0.4610 -0.5702
 1567TIP3   OH226335   3.580   0.001   8.525  0.3928 -0.3715  0.2107
 1567TIP3    H126336   3.644  -0.025   8.458  0.8702 -1.2648  0.9992
 1567TIP3    H226337   3.607  -0.045   8.604 -0.7255 -0.0788  0.7889
 1568TIP3   OH226338   4.988   2.211   2.294 -0.1527 -0.1842  0.1825
 1568TIP3    H126339   5.081   2.232   2.301 -0.0602  0.1835 -1.6198
 1568TIP3    H226340   4.944   2.297   2.289 -0.4959 -0.3625  0.0901
 1569TIP3   OH226341   0.346   3.019   3.302 -0.8426  0.5213  0.0749
 1569TIP3    H126342   0.399   3.081   3.252  1.6837 -0.1939  1.7039
 1569TIP3    H226343   0.328   2.948   3.241 -0.3342  0.9988 -0.6415
 1570TIP3   OH226344   0.959   2.395   2.872 -0.1894  0.5761 -0.0685
 1570TIP3    H126345   0.914   2.479   2.859 -2.0957 -0.6159 -1.7310
 1570TIP3    H226346   0.938   2.371   2.962 -1.2573  0.9856 -0.1892
 1571TIP3   OH226347   1.367   5.335   1.949  0.2765  0.0347  0.3242
 1571TIP3    H126348   1.377   5.258   1.893 -0.6771  0.1363  0.0024
 1571TIP3    H226349   1.275   5.358   1.942  0.7091  1.7273 -0.2565
 1572TIP3   OH226350   0.399   0.499   2.533 -0.7216 -0.3387 -0.2871
 1572TIP3    H126351   0.378   0.464   2.619 -1.3032  0.0583 -0.2574
 1572TIP3    H226352   0.451   0.431   2.491  0.6693 -0.0182  0.8415
 1573TIP3   OH226353   5.756   5.812   0.769 -0.2456 -0.1002  0.1207
 1573TIP3    H126354   5.807   5.892   0.756 -0.8671  0.2277 -0.3743
 1573TIP3    H226355   5.697   5.810   0.694  0.9343 -1.9378 -0.8360
 1574TIP3   OH226356   4.494   6.396   8.597  0.1649  0.6212 -0.1126
 1574TIP3    H126357   4.429   6.333   8.566  1.5276 -0.9634  0.1299
 1574TIP3    H226358   4.457   6.429   8.679 -0.6620  0.3079 -0.3411
 1575TIP3   OH226359   0.993   5.903   3.376 -0.5442 -0.1054  0.1499
 1575TIP3    H126360   1.052   5.913   3.451 -0.2148  1.2433 -0.2531
 1575TIP3    H226361   0.972   5.993   3.350  0.7089 -0.4440 -2.4026
 1576TIP3   OH226362   2.285   4.749   3.053 -0.4656  0.6349 -0.4271
 1576TIP3    H126363   2.266   4.691   2.979 -2.6276  0.1815  0.4120
 1576TIP3    H226364   2.202   4.759   3.098  0.6130  1.5481  1.5082
 1577TIP3   OH226365   0.206   4.975   1.368 -0.4618 -0.3657  0.9775
 1577TIP3    H126366   0.156   5.046   1.329  0.7944  0.0264  0.0095
 1577TIP3    H226367   0.168   4.895   1.333  0.8576 -0.0229 -1.4537
 1578TIP3   OH226368   4.850   5.839   8.246  0.6271  0.1175  0.3672
 1578TIP3    H126369   4.895   5.919   8.220  0.5276  0.0096 -0.1465
 1578TIP3    H226370   4.804   5.810   8.167  0.4623 -0.3111  0.6141
 1579TIP3   OH226371   4.599   6.363   2.547  0.0933  0.1164  0.2182
 1579TIP3    H126372   4.633   6.276   2.528  1.6672  0.3967  1.5105
 1579TIP3    H226373   4.634   6.418   2.477 -1.3115 -0.3260 -0.8849
 1580TIP3   OH226374   6.376   3.752   0.708 -0.2303  0.1016 -0.2497
 1580TIP3    H126375   6.443   3.817   0.731  0.6881 -0.4079 -1.3812
 1580TIP3    H226376   6.399   3.674   0.758  0.7582 -0.4521 -1.4974
 1581TIP3   OH226377   5.493   6.175   3.228 -0.0009 -0.8828  0.5386
 1581TIP3    H126378   5.431   6.109   3.198  0.0972 -0.7421  0.0035
 1581TIP3    H226379   5.439   6.250   3.252 -0.0464 -0.7847  0.1372
 1582TIP3   OH226380   3.423   0.826   3.651  0.9390 -0.1017 -0.3647
 1582TIP3    H126381   3.436   0.824   3.556  0.0820  0.5388 -0.5169
 1582TIP3    H226382   3.492   0.884   3.684 -0.2130  1.6848 -0.9146
 1583TIP3   OH226383   3.390   4.148   2.410 -0.3126 -0.2269  0.1600
 1583TIP3    H126384   3.474   4.159   2.366 -0.0572  0.6811  0.8684
 1583TIP3    H226385   3.411   4.102   2.491 -0.8066 -2.0653 -0.6842
 1584TIP3   OH226386   5.112   5.667   1.555 -0.0712  0.0078  0.0346
 1584TIP3    H126387   5.107   5.664   1.651  0.1704 -0.6121  0.0343
 1584TIP3    H226388   5.198   5.706   1.537 -0.0450 -0.0301  0.0765
 1585TIP3   OH226389   0.731   5.265   8.532 -0.1202 -0.6093 -0.3312
 1585TIP3    H126390   0.717   5.346   8.582  0.0095 -0.5597 -0.3746
 1585TIP3    H226391   0.643   5.231   8.516 -0.1417 -1.1686  0.8155
 1586TIP3   OH226392   4.365   4.573   0.170 -0.6342 -0.0212  0.0394
 1586TIP3    H126393   4.441   4.524   0.137  1.5870  0.3371  3.9336
 1586TIP3    H226394   4.298   4.506   0.183  0.3811 -1.0834  0.0249
 1587TIP3   OH226395   5.772   2.260   3.067 -0.3277 -0.0404 -0.2673
 1587TIP3    H126396   5.800   2.231   3.154  0.4179  2.1940  0.2956
 1587TIP3    H226397   5.850   2.298   3.027 -1.4430  2.3744 -0.3738
 1588TIP3   OH226398   2.193   2.401   0.095  0.1642 -0.3008 -0.5902
 1588TIP3    H126399   2.210   2.487   0.057  1.8292 -0.1351  0.4322
 1588TIP3    H226400   2.230   2.339   0.032  0.8842 -0.1440 -0.3296
 1589TIP3   OH226401   4.582   5.722   2.493  0.0300  0.2605 -0.4703
 1589TIP3    H126402   4.520   5.654   2.519  1.3749 -1.6396 -1.9466
 1589TIP3    H226403   4.528   5.793   2.459 -1.3891 -0.7633 -0.4183
 1590TIP3   OH226404   0.441   0.181   3.176 -0.2636  0.4090  0.4141
 1590TIP3    H126405   0.393   0.129   3.240  0.1511 -1.1077 -0.4522
 1590TIP3    H226406   0.473   0.257   3.225  1.2371 -1.4023  2.3909
 1591TIP3   OH226407   0.484   1.587   1.122 -0.2499  0.6660  0.0952
 1591TIP3    H126408   0.565   1.630   1.146 -0.0949  1.1821 -1.2423
 1591TIP3    H226409   0.416   1.635   1.169  0.2619 -0.4607  2.1040
 1592TIP3   OH226410   5.979   2.612   2.795 -0.4414 -0.0681  0.7704
 1592TIP3    H126411   5.971   2.618   2.890  0.2125  0.6223  0.7915
 1592TIP3    H226412   6.071   2.632   2.777 -0.1333 -1.8965  0.1117
 1593TIP3   OH226413   5.078   6.455   1.269  0.9133 -0.0442  0.7792
 1593TIP3    H126414   5.012   6.388   1.289 -0.3644  1.5699  2.3285
 1593TIP3    H226415   5.042   6.503   1.195  1.1937 -0.2157  0.5274
 1594TIP3   OH226416   0.205   6.661   3.534  0.0927 -0.7042 -0.3201
 1594TIP3    H126417   0.272   6.687   3.597  0.2759  0.8533 -1.1059
 1594TIP3    H226418   0.124   6.657   3.585  0.1059  1.2504 -0.0617
 1595TIP3   OH226419   1.618   6.233   0.431 -0.3090  0.2066 -0.3137
 1595TIP3    H126420   1.605   6.200   0.520 -1.1884  1.7713  0.1824
 1595TIP3    H226421   1.693   6.184   0.397  0.8127  0.4191  1.7218
 1596TIP3   OH226422   4.011   6.255   3.515 -0.2381 -0.0641 -0.0084
 1596TIP3    H126423   3.941   6.296   3.566 -0.3028  0.6963 -0.6814
 1596TIP3    H226424   4.022   6.313   3.439  0.7456 -0.4683 -0.1877
 1597TIP3   OH226425   1.411   4.357   1.951 -0.4693 -0.2840  0.1907
 1597TIP3    H126426   1.319   4.372   1.973  0.1945  1.9776  1.8559
 1597TIP3    H226427   1.450   4.326   2.033  0.6942  1.2440  0.2538
 1598TIP3   OH226428   3.982   2.217   8.795 -0.6737 -0.4092  0.1452
 1598TIP3    H126429   3.937   2.283   8.848  0.2869 -0.6852  1.3690
 1598TIP3    H226430   3.989   2.141   8.853  1.7627 -0.2179  0.2122
 1599TIP3   OH226431   5.527   3.933   2.627 -0.2216  0.5669 -0.0157
 1599TIP3    H126432   5.562   3.852   2.590  0.3290 -0.0851  1.8280
 1599TIP3    H226433   5.596   3.998   2.610 -0.2895  0.4645 -0.7282
 1600TIP3   OH226434   2.701   6.243   8.602  0.2360  0.1011  0.8881
 1600TIP3    H126435   2.668   6.235   8.513  0.8068  0.0156  0.6786
 1600TIP3    H226436   2.789   6.279   8.592  0.4584 -0.2834  1.3929
 1601TIP3   OH226437   4.845   3.935   2.922 -0.3975 -0.1010  0.7370
 1601TIP3    H126438   4.918   3.939   2.983 -0.1514  0.0398  0.4398
 1601TIP3    H226439   4.875   3.985   2.846 -0.4736 -0.7743  0.2611
 1602TIP3   OH226440   5.572   1.692   2.369  0.0278  0.0128 -0.2852
 1602TIP3    H126441   5.589   1.610   2.324  0.3081 -0.5521  0.8127
 1602TIP3    H226442   5.525   1.667   2.448  0.3033  0.8881  0.1741
 1603TIP3   OH226443   2.944   0.616   8.018  0.2013 -0.5984 -0.5205
 1603TIP3    H126444   3.016   0.673   8.044 -1.3352  0.5625  1.5147
 1603TIP3    H226445   2.965   0.532   8.057  0.1476 -0.0694  0.7012
 1604TIP3   OH226446   0.526   5.142   8.810 -0.3128 -0.4058  0.0484
 1604TIP3    H126447   0.487   5.106   8.730  1.9300  0.8267 -1.7496
 1604TIP3    H226448   0.512   5.237   8.802 -0.3384 -0.2905  1.3025
 1605TIP3   OH226449   5.227   1.793   8.785  0.2083 -0.0456  0.7970
 1605TIP3    H126450   5.303   1.839   8.821  0.3798 -1.9352  3.1368
 1605TIP3    H226451   5.244   1.788   8.691  2.9313 -0.2455  1.2083
 1606TIP3   OH226452   2.919   4.750   2.375  0.3414  0.7732 -0.2156
 1606TIP3    H126453   2.882   4.762   2.463 -0.1075  0.3969 -0.3528
 1606TIP3    H226454   3.006   4.790   2.381  0.1430  1.1516  0.2723
 1607TIP3   OH226455   0.055   1.646   2.460 -0.5078 -0.1530  0.5545
 1607TIP3    H126456   0.002   1.708   2.410 -1.9226 -0.3517  1.7298
 1607TIP3    H226457   0.100   1.700   2.525  1.1730  0.0785 -0.7333
 1608TIP3   OH226458   3.542   6.009   8.472 -0.3892 -0.8025  0.6121
 1608TIP3    H126459   3.611   6.067   8.505  0.2448 -2.5119  2.4959
 1608TIP3    H226460   3.465   6.032   8.525 -0.3427 -1.1452  0.8303
 1609TIP3   OH226461   6.413   1.515   7.952 -0.2692  0.1072  0.0548
 1609TIP3    H126462   6.501   1.548   7.933 -0.2170  0.8241  1.3980
 1609TIP3    H226463   6.413   1.426   7.918  1.1808 -0.1022  0.5120
 1610TIP3   OH226464   2.942   0.310   2.731  0.1470  0.0862  0.8128
 1610TIP3    H126465   3.031   0.343   2.718  0.2190 -0.9026 -1.6821
 1610TIP3    H226466   2.953   0.220   2.761  0.0826 -0.6940 -1.3324
 1611TIP3   OH226467   1.168   3.666   2.677  0.2208  0.2868 -0.1992
 1611TIP3    H126468   1.189   3.635   2.589  0.7602 -1.1602  0.4194
 1611TIP3    H226469   1.252   3.670   2.722 -0.1226  0.4415  0.4432
 1612TIP3   OH226470   1.133   3.546   8.026 -0.0921  0.2596  0.5343
 1612TIP3    H126471   1.171   3.624   7.984  1.6077  0.3976  2.1919
 1612TIP3    H226472   1.060   3.580   8.078  0.3474  0.6980  0.8759
 1613TIP3   OH226473   4.782   0.797   3.248 -0.3153 -0.2302  1.0518
 1613TIP3    H126474   4.820   0.830   3.330 -0.7593 -1.8329  1.9408
 1613TIP3    H226475   4.812   0.707   3.242 -0.1699 -0.1122 -0.6622
 1614TIP3   OH226476   3.429   1.515   0.420 -0.2283  0.1201 -0.9274
 1614TIP3    H126477   3.420   1.431   0.465  0.5352 -0.1464 -1.2399
 1614TIP3    H226478   3.348   1.525   0.370 -0.5108 -0.2164 -0.5436
 1615TIP3   OH226479   0.088   4.357   0.191 -0.3861  0.0063  0.4183
 1615TIP3    H126480   0.129   4.283   0.236 -1.8094 -0.9930  0.1649
 1615TIP3    H226481   0.133   4.360   0.106 -0.8219 -1.0944  0.1243
 1616TIP3   OH226482   4.092   2.055   8.370 -0.0573 -0.2694 -0.2231
 1616TIP3    H126483   4.185   2.074   8.355  0.3374 -1.7362  0.2399
 1616TIP3    H226484   4.057   2.037   8.282 -0.3544  1.9558 -0.6337
 1617TIP3   OH226485   0.804   4.105   2.036 -0.1719 -0.0168  0.5076
 1617TIP3    H126486   0.858   4.118   2.113 -0.4862 -0.5374  0.8239
 1617TIP3    H226487   0.851   4.039   1.984 -0.7097 -0.7997  0.9963
 1618TIP3   OH226488   5.643   5.170   8.460 -0.4241  0.1663 -0.3012
 1618TIP3    H126489   5.722   5.207   8.420 -1.5620  0.5074 -2.3554
 1618TIP3    H226490   5.590   5.246   8.483  0.0244 -0.0466  1.5474
 1619TIP3   OH226491   2.627   0.269   1.011  0.1809 -0.0159 -0.1578
 1619TIP3    H126492   2.656   0.214   0.938 -1.2623  0.2922 -0.9891
 1619TIP3    H226493   2.591   0.347   0.970 -2.8640 -0.8396  0.6863
 1620TIP3   OH226494   6.558   6.553   4.185  0.0830  0.5147 -0.2920
 1620TIP3    H126495   6.492   6.619   4.204  1.0740  1.4760 -0.1359
 1620TIP3    H226496   6.635   6.602   4.156  1.2098 -0.4802  0.8906
 1621TIP3   OH226497   2.938   1.440   1.548 -0.2526  0.0212 -0.1378
 1621TIP3    H126498   3.011   1.501   1.542  0.5944 -1.0959 -2.1124
 1621TIP3    H226499   2.978   1.355   1.567 -1.4133 -0.0005  2.6501
 1622TIP3   OH226500   2.121   0.431   3.248  0.0216  0.2959 -0.0087
 1622TIP3    H126501   2.138   0.337   3.255 -1.1065 -0.0247 -1.2298
 1622TIP3    H226502   2.055   0.449   3.315  0.0990  0.1804  0.0981
 1623TIP3   OH226503   0.879   6.758   2.342  0.1125  0.0413 -0.1795
 1623TIP3    H126504   0.848   6.709   2.418 -0.5727  0.7736  0.0238
 1623TIP3    H226505   0.969   6.728   2.329 -0.1384 -0.9211  0.2198
 1624TIP3   OH226506   0.718   4.871   0.189 -0.3858 -0.5248  0.0830
 1624TIP3    H126507   0.668   4.949   0.210  1.3179  1.4611 -2.5583
 1624TIP3    H226508   0.653   4.807   0.160 -1.6431  0.6833  0.1857
 1625TIP3   OH226509   2.762   5.213   2.216  0.2648 -0.4394 -0.3739
 1625TIP3    H126510   2.746   5.284   2.278 -1.8005 -1.6653  0.5763
 1625TIP3    H226511   2.773   5.258   2.132 -3.1939  0.9964 -0.2157
 1626TIP3   OH226512   6.290   1.412   0.432 -0.0208  0.0372  0.0829
 1626TIP3    H126513   6.195   1.408   0.442 -0.0103  0.7951  0.5585
 1626TIP3    H226514   6.308   1.502   0.407  0.6722  0.2155  1.1533
 1627TIP3   OH226515   1.617   4.237   0.362  0.4300 -0.1721 -0.5110
 1627TIP3    H126516   1.711   4.225   0.376  0.7098  0.6610 -1.5225
 1627TIP3    H226517   1.582   4.253   0.449  1.4677  0.9468 -0.2615
 1628TIP3   OH226518   1.815   4.601   8.217 -0.7767  0.4600 -0.4074
 1628TIP3    H126519   1.875   4.675   8.222 -0.5711  0.4643 -2.1612
 1628TIP3    H226520   1.872   4.525   8.204 -1.0848  0.3512 -1.2173
 1629TIP3   OH226521   3.329   1.160   3.518  0.5656 -0.6493 -0.2864
 1629TIP3    H126522   3.306   1.080   3.471 -0.9286  0.4680 -1.5912
 1629TIP3    H226523   3.246   1.191   3.554  0.5280  1.7205 -2.1617
 1630TIP3   OH226524   6.237   1.890   4.100 -0.1374 -0.1675  0.5414
 1630TIP3    H126525   6.296   1.942   4.047 -1.1144  1.2466  0.7867
 1630TIP3    H226526   6.175   1.953   4.136 -0.5218 -1.3160  1.9912
 1631TIP3   OH226527   2.225   0.057   8.644 -0.2731  0.8280 -0.1954
 1631TIP3    H126528   2.182  -0.014   8.690 -1.8036  0.8798 -1.4607
 1631TIP3    H226529   2.201   0.136   8.693  2.2400  0.4974  1.8061
 1632TIP3   OH226530   2.383   3.437   2.720 -0.2908  0.1921 -0.4317
 1632TIP3    H126531   2.325   3.384   2.775 -2.0034  2.1737 -0.1795
 1632TIP3    H226532   2.463   3.446   2.771 -1.2769  0.7005  1.1116
 1633TIP3   OH226533   5.047   1.442   0.443  0.0531 -0.3557 -0.2085
 1633TIP3    H126534   5.098   1.365   0.466 -0.8513 -0.6186  1.0438
 1633TIP3    H226535   4.991   1.413   0.372  2.0930  0.1419 -2.1193
 1634TIP3   OH226536   0.200   2.243   0.313  0.0640 -0.3933  0.0495
 1634TIP3    H126537   0.168   2.192   0.387  0.4901 -1.6699 -0.6079
 1634TIP3    H226538   0.223   2.328   0.350  1.9670 -1.5713  1.7700
 1635TIP3   OH226539   5.185   2.980   1.715 -0.0302  0.5092 -0.4019
 1635TIP3    H126540   5.199   2.907   1.654  2.2392  1.6116 -1.3124
 1635TIP3    H226541   5.183   3.058   1.659  3.7005  1.7470  0.8352
 1636TIP3   OH226542   2.834   4.958   0.140  0.1791  0.0315  0.1489
 1636TIP3    H126543   2.816   4.923   0.228 -0.7107 -2.3807 -0.9097
 1636TIP3    H226544   2.926   4.984   0.143  0.6150 -1.4821  1.3594
 1637TIP3   OH226545   3.248   2.769   1.990 -0.3755  0.2512  0.5540
 1637TIP3    H126546   3.331   2.766   1.943 -0.3305 -0.5735  0.6714
 1637TIP3    H226547   3.272   2.759   2.082 -0.6115 -0.1275  0.5770
 1638TIP3   OH226548   3.144   5.673   1.649  0.5626 -0.0433 -0.2061
 1638TIP3    H126549   3.180   5.684   1.561 -0.5360 -0.8954 -0.7872
 1638TIP3    H226550   3.055   5.708   1.642  1.1209  1.7885  1.1300
 1639TIP3   OH226551   1.776   5.621   0.865 -0.4690 -0.0906  0.5846
 1639TIP3    H126552   1.703   5.606   0.927 -1.6580  1.9455 -0.2374
 1639TIP3    H226553   1.733   5.636   0.781  0.9932 -0.0280 -0.1811
 1640TIP3   OH226554   6.144   0.844   8.846 -0.3828 -0.3288  0.0445
 1640TIP3    H126555   6.176   0.773   8.791 -1.0350 -0.8614  0.3395
 1640TIP3    H226556   6.086   0.801   8.909 -2.4057  0.7016 -1.0141
 1641TIP3   OH226557   3.846   1.687   0.799 -0.3738 -0.4738  0.2928
 1641TIP3    H126558   3.919   1.671   0.739 -1.0630  0.8453 -0.9730
 1641TIP3    H226559   3.875   1.762   0.851 -0.3434 -0.7304  0.6485
 1642TIP3   OH226560   3.899   1.001   3.666  0.5604  0.4011  0.0017
 1642TIP3    H126561   3.976   0.951   3.696  0.4124  0.0021 -0.2746
 1642TIP3    H226562   3.824   0.952   3.702  0.3951  0.1243 -0.7109
 1643TIP3   OH226563   2.551   5.900   2.613 -0.2035 -0.1949  0.3032
 1643TIP3    H126564   2.478   5.861   2.565 -0.7930 -1.2536  1.9509
 1643TIP3    H226565   2.554   5.991   2.583 -1.2529 -0.5169 -0.8666
 1644TIP3   OH226566   2.969   1.316   3.134 -0.0361  0.0690  0.5336
 1644TIP3    H126567   3.020   1.238   3.157 -0.1939 -1.1100 -2.6975
 1644TIP3    H226568   2.882   1.282   3.113 -0.0843  1.0862 -0.9866
 1645TIP3   OH226569   2.263   0.815   8.361 -0.9242  0.1678 -0.4053
 1645TIP3    H126570   2.314   0.878   8.310  0.7881 -0.5386  0.3398
 1645TIP3    H226571   2.262   0.736   8.307 -1.0256  0.1148 -0.3255
 1646TIP3   OH226572   3.573   4.702   1.752  0.0128  0.0155  0.1258
 1646TIP3    H126573   3.613   4.781   1.716  0.0641  0.1603  0.4997
 1646TIP3    H226574   3.637   4.669   1.814 -0.0969 -0.2079  0.1193
 1647TIP3   OH226575   2.040   2.476   2.423  0.1225 -0.0714  0.9363
 1647TIP3    H126576   2.029   2.526   2.504  0.5612  0.5127  0.6337
 1647TIP3    H226577   2.124   2.431   2.433  2.3201  3.2852 -0.9051
 1648TIP3   OH226578   5.738   1.284   1.706 -0.2324 -0.0584  0.1360
 1648TIP3    H126579   5.824   1.249   1.731  0.0003 -0.5791 -1.3538
 1648TIP3    H226580   5.682   1.208   1.699 -0.1838  0.0119 -1.3107
 1649TIP3   OH226581   1.088   4.409   0.112  0.4792  0.1537 -0.0003
 1649TIP3    H126582   1.145   4.420   0.036 -0.9426  1.0670 -0.9831
 1649TIP3    H226583   1.132   4.344   0.166  1.6693 -0.3186 -1.4771
 1650TIP3   OH226584   1.096   1.529   2.282  0.2759 -0.3712 -0.0561
 1650TIP3    H126585   1.015   1.528   2.333  0.0309  1.4964 -0.3209
 1650TIP3    H226586   1.166   1.525   2.348  0.0614 -3.3316  0.1237
 1651TIP3   OH226587   2.148   0.692   3.226 -0.7325 -0.1735 -0.3678
 1651TIP3    H126588   2.151   0.596   3.223  0.1569 -0.3337  2.5503
 1651TIP3    H226589   2.145   0.719   3.134 -1.3509 -2.9829 -1.2686
 1652TIP3   OH226590   6.138   3.878   1.332  0.5507 -0.1938 -0.5037
 1652TIP3    H126591   6.154   3.910   1.243 -0.7418  0.4697 -0.5334
 1652TIP3    H226592   6.156   3.953   1.388 -0.7996  0.1074 -0.4237
 1653TIP3   OH226593   5.273   1.805   8.528  0.1577 -0.1887 -0.1768
 1653TIP3    H126594   5.343   1.755   8.486 -0.8920 -0.6627 -1.4428
 1653TIP3    H226595   5.222   1.841   8.455 -1.4212 -0.5639  0.6893
 1654TIP3   OH226596   0.475   6.381   2.569  0.5331 -0.5118  0.5158
 1654TIP3    H126597   0.415   6.310   2.593  0.7009 -0.6150  0.6360
 1654TIP3    H226598   0.420   6.446   2.526  0.0475  0.1007  1.9967
 1655TIP3   OH226599   6.469   5.384   8.157  0.1801 -0.1067  0.1261
 1655TIP3    H126600   6.416   5.317   8.114  0.4438 -1.0401  1.1809
 1655TIP3    H226601   6.516   5.428   8.086 -0.4840 -0.6192 -0.6442
 1656TIP3   OH226602   6.404   0.490   8.849  0.4992 -0.1306 -0.7360
 1656TIP3    H126603   6.428   0.419   8.790  2.1527 -0.0287 -0.2358
 1656TIP3    H226604   6.463   0.480   8.924  0.6471  1.6413 -0.5695
 1657TIP3   OH226605   2.546   6.560   0.268  0.1546 -0.3544  0.5929
 1657TIP3    H126606   2.611   6.497   0.238 -0.3443 -0.1245 -1.0673
 1657TIP3    H226607   2.596   6.640   0.286  0.2597  0.0865 -1.4897
 1658TIP3   OH226608   5.488   6.209   2.901 -0.0663 -0.1117  0.3597
 1658TIP3    H126609   5.432   6.261   2.960 -0.7498 -1.0295  0.5356
 1658TIP3    H226610   5.427   6.171   2.837  0.6368  0.7126 -0.8530
 1659TIP3   OH226611   2.204   0.146   1.734 -0.4054  0.3837  0.0718
 1659TIP3    H126612   2.260   0.212   1.692  0.1082  0.3864  0.7386
 1659TIP3    H226613   2.252   0.121   1.813 -1.3944  0.4464  0.7072
 1660TIP3   OH226614   0.217   4.523   2.276  0.2069  0.1156 -0.0564
 1660TIP3    H126615   0.283   4.521   2.207  1.7767  0.7240  1.3404
 1660TIP3    H226616   0.268   4.515   2.357 -1.7307 -3.7341  1.0263
 1661TIP3   OH226617   6.601   1.399   0.059 -0.1772 -0.3998  0.6820
 1661TIP3    H126618   6.688   1.413   0.022  0.1344 -1.1556  1.0871
 1661TIP3    H226619   6.542   1.407  -0.015  0.5094 -2.8247 -0.2418
 1662TIP3   OH226620   6.654   5.400   8.566 -0.1062  0.5575 -0.6181
 1662TIP3    H126621   6.728   5.450   8.601  1.3440 -2.6438  1.3725
 1662TIP3    H226622   6.687   5.360   8.486  0.6754 -1.4169  0.6230
 1663TIP3   OH226623   0.707   6.616   0.118  0.2178  0.1281 -0.7274
 1663TIP3    H126624   0.710   6.706   0.151  0.4174  0.2886 -1.1686
 1663TIP3    H226625   0.754   6.620   0.034 -0.6708 -0.1704 -1.2454
 1664TIP3   OH226626   6.507   6.293   0.362  0.4303 -0.1763  0.7924
 1664TIP3    H126627   6.461   6.266   0.282  2.4303 -1.2502 -0.0771
 1664TIP3    H226628   6.497   6.218   0.421  0.3227 -0.0482  0.9373
 1665TIP3   OH226629   1.372   0.266   2.805 -0.2607 -0.0817 -0.1098
 1665TIP3    H126630   1.460   0.230   2.801 -1.4930 -3.5684  0.4879
 1665TIP3    H226631   1.359   0.288   2.897  0.1392  0.9915 -0.2973
 1666TIP3   OH226632   5.650   1.386   2.408 -0.7808 -0.3364  0.1450
 1666TIP3    H126633   5.685   1.429   2.486  1.0003 -0.9543 -0.2576
 1666TIP3    H226634   5.646   1.293   2.431 -1.4752 -0.3638 -0.0735
 1667TIP3   OH226635   0.900   4.452   1.073 -0.0691 -0.1555  0.4106
 1667TIP3    H126636   0.973   4.424   1.128 -0.2344 -1.4873 -0.0099
 1667TIP3    H226637   0.939   4.510   1.009  0.3337  0.4405  1.1791
 1668TIP3   OH226638   4.578   5.012   1.048  0.8316  0.1327  0.2853
 1668TIP3    H126639   4.570   5.092   1.101 -1.5162  0.1058  0.0573
 1668TIP3    H226640   4.544   4.943   1.105  0.4240 -0.2731 -0.4435
 1669TIP3   OH226641   0.217   5.988   7.959  0.1351 -0.1965  0.3538
 1669TIP3    H126642   0.281   6.050   7.991  0.6461 -0.8447  0.6102
 1669TIP3    H226643   0.133   6.035   7.964  0.3165  0.0142  1.8399
 1670TIP3   OH226644   6.411   6.476   1.666  0.0292  0.3073 -0.6507
 1670TIP3    H126645   6.395   6.384   1.687  0.3442  0.0444 -1.5491
 1670TIP3    H226646   6.383   6.523   1.745  0.9589 -0.6328  0.2852
 1671TIP3   OH226647   3.694   5.745   0.257  0.5653 -0.0127  0.1237
 1671TIP3    H126648   3.757   5.742   0.185 -0.5967  2.6546 -1.1278
 1671TIP3    H226649   3.634   5.673   0.239  0.5608  0.3299 -1.3559
 1672TIP3   OH226650   4.513   1.486   2.308 -0.1543 -0.1722 -0.0880
 1672TIP3    H126651   4.493   1.579   2.294 -0.7695 -0.2238  0.4191
 1672TIP3    H226652   4.529   1.452   2.220  1.1734  0.6508 -0.1840
 1673TIP3   OH226653   0.907   0.787   3.173 -0.8316 -0.0183 -0.3815
 1673TIP3    H126654   0.823   0.785   3.128 -1.8849 -0.7535  1.5225
 1673TIP3    H226655   0.886   0.772   3.265  1.5057 -1.8129 -0.0394
 1674TIP3   OH226656   5.473   4.197   1.449 -0.6018  0.2927  0.0896
 1674TIP3    H126657   5.557   4.243   1.446 -1.0136  1.0255 -0.4873
 1674TIP3    H226658   5.438   4.218   1.536  0.2281 -0.8133  0.7274
 1675TIP3   OH226659   5.713   1.008   1.794 -0.0844  0.3686 -0.0727
 1675TIP3    H126660   5.626   0.991   1.830  0.0081 -0.7548 -0.3553
 1675TIP3    H226661   5.746   0.922   1.770  0.9310  0.8362 -0.3816
 1676TIP3   OH226662   0.698   5.629   0.778 -1.0429  0.2509 -0.3538
 1676TIP3    H126663   0.690   5.725   0.771 -0.7263  0.2718 -0.4132
 1676TIP3    H226664   0.683   5.612   0.871  0.4582  0.5125 -0.0449
 1677TIP3   OH226665   4.679   6.770   1.115  0.3445  0.4302  0.3381
 1677TIP3    H126666   4.722   6.837   1.168 -1.5477  2.1443 -0.1839
 1677TIP3    H226667   4.646   6.817   1.039  0.0508 -1.3579 -0.6970
 1678TIP3   OH226668   4.645   5.356   3.789 -0.6929 -0.2971 -0.0510
 1678TIP3    H126669   4.552   5.360   3.812 -1.4382 -0.0390 -2.6793
 1678TIP3    H226670   4.655   5.272   3.743  1.5943 -2.7512  4.2684
 1679TIP3   OH226671   3.438   3.005   0.418 -0.1752 -0.1815  0.9439
 1679TIP3    H126672   3.507   2.946   0.448  0.0598 -0.5306 -0.2273
 1679TIP3    H226673   3.479   3.092   0.418 -0.5722  0.0499  2.8354
 1680TIP3   OH226674   6.070   3.788   2.297  0.0389 -0.1935  0.5219
 1680TIP3    H126675   6.029   3.780   2.211  1.8980 -1.5502 -0.3063
 1680TIP3    H226676   6.055   3.703   2.339  1.2835 -0.4543  0.4879
 1681TIP3   OH226677   0.413   0.047   1.212  0.2005 -0.3949  0.4551
 1681TIP3    H126678   0.418  -0.004   1.131 -1.9598 -1.0390  0.6542
 1681TIP3    H226679   0.321   0.075   1.217  0.9099  2.0231  1.2775
 1682TIP3   OH226680   3.653   4.184   2.311  0.3321  0.0248 -0.3621
 1682TIP3    H126681   3.734   4.161   2.356  0.3575 -0.1506 -0.4951
 1682TIP3    H226682   3.667   4.155   2.221  0.4823  0.8248 -0.6079
 1683TIP3   OH226683   1.183   6.509   0.704 -0.2035  0.5067  0.4080
 1683TIP3    H126684   1.205   6.467   0.621  1.3674 -0.8454  1.4472
 1683TIP3    H226685   1.234   6.590   0.704  0.2605  0.2206  0.2931
 1684TIP3   OH226686   1.829   0.427   8.341  0.4949 -0.3494  0.4212
 1684TIP3    H126687   1.799   0.486   8.410  0.5317  1.4072 -0.9775
 1684TIP3    H226688   1.757   0.364   8.331 -0.5808  0.8155  0.4732
 1685TIP3   OH226689   1.503   6.010   1.872 -0.3637 -0.3478 -0.8760
 1685TIP3    H126690   1.581   6.063   1.853 -0.3569 -0.6399 -1.6812
 1685TIP3    H226691   1.511   5.934   1.815 -1.3573 -0.2689 -1.1296
 1686TIP3   OH226692   1.143   4.758   1.627 -0.1887 -0.4044  0.1915
 1686TIP3    H126693   1.194   4.677   1.622  0.0636 -0.3469  1.3863
 1686TIP3    H226694   1.194   4.815   1.685 -0.6523  0.3887 -0.1642
 1687TIP3   OH226695   6.287   2.926   0.082  0.3080  0.1338  0.2612
 1687TIP3    H126696   6.261   2.999   0.025 -2.2901 -0.0335  1.1184
 1687TIP3    H226697   6.362   2.887   0.036  1.2298  2.7407 -0.6757
 1688TIP3   OH226698   2.001   4.771   3.858 -0.1242  0.3827 -0.0761
 1688TIP3    H126699   2.047   4.812   3.931 -0.1787 -1.8765  1.3100
 1688TIP3    H226700   1.931   4.720   3.898  0.8202 -2.2171 -1.5003
 1689TIP3   OH226701   6.141   1.940   1.848  0.0864  0.1556  0.1903
 1689TIP3    H126702   6.170   1.849   1.856  0.2506  0.3127  1.7508
 1689TIP3    H226703   6.170   1.981   1.930 -1.7864  1.0930  0.4220
 1690TIP3   OH226704   3.840   0.233   2.388  0.2247 -0.5482 -0.2799
 1690TIP3    H126705   3.885   0.149   2.398  1.7451  0.2366 -0.2342
 1690TIP3    H226706   3.906   0.292   2.352 -0.1897  1.1586  1.5357
 1691TIP3   OH226707   2.912   0.886   3.447  0.2530  0.0462  0.1987
 1691TIP3    H126708   2.897   0.979   3.466  2.1494  0.1197  1.5746
 1691TIP3    H226709   2.945   0.884   3.357 -1.8646  0.4400 -0.6429
 1692TIP3   OH226710   3.890   6.596   1.167  0.3951  0.5556  0.4980
 1692TIP3    H126711   3.887   6.681   1.211 -1.8005  1.3610 -1.0325
 1692TIP3    H226712   3.955   6.607   1.098 -0.9645  1.5559 -0.6676
 1693TIP3   OH226713   2.010   1.446   0.485 -0.0839 -0.0541  0.5421
 1693TIP3    H126714   1.915   1.436   0.487 -0.3428  1.6085 -0.9559
 1693TIP3    H226715   2.037   1.400   0.405  0.3901 -0.5985  1.0113
 1694TIP3   OH226716   0.853   3.991   8.281 -0.5317 -0.1671  0.0082
 1694TIP3    H126717   0.834   4.079   8.250  0.2063  0.9646  2.5222
 1694TIP3    H226718   0.942   3.973   8.250 -0.5992  0.0619 -0.3176
 1695TIP3   OH226719   0.346   2.473   0.347  0.4560  0.0126 -0.1551
 1695TIP3    H126720   0.424   2.444   0.301  0.1117 -0.3649 -0.5072
 1695TIP3    H226721   0.357   2.568   0.355  1.4414 -0.1531  0.7278
 1696TIP3   OH226722   6.481   4.324   1.321 -0.4084  0.1474  0.5136
 1696TIP3    H126723   6.464   4.231   1.336 -1.8870  0.4865  1.0787
 1696TIP3    H226724   6.444   4.368   1.398  0.4480  1.1906  0.3434
 1697TIP3   OH226725   5.230   6.149   1.929  0.0770  0.3280  0.3565
 1697TIP3    H126726   5.155   6.137   1.870  0.3408  0.4762 -0.0125
 1697TIP3    H226727   5.231   6.243   1.947  0.0788  0.3021  0.4931
 1698TIP3   OH226728   2.683   6.520   2.433  0.1118  0.5305  0.1008
 1698TIP3    H126729   2.736   6.473   2.498  1.7447  1.0829 -0.8030
 1698TIP3    H226730   2.660   6.453   2.368 -0.0999  0.3492  0.3576
 1699TIP3   OH226731   0.593   2.929   0.353 -0.1766  0.5959 -0.2650
 1699TIP3    H126732   0.687   2.946   0.368 -0.5174  0.0877  3.3079
 1699TIP3    H226733   0.559   3.014   0.323  1.2275  1.0345 -0.7589
 1700TIP3   OH226734   5.258   5.562   1.014  1.0191 -0.4475 -0.4254
 1700TIP3    H126735   5.318   5.495   0.984 -1.2384 -3.8077  1.8332
 1700TIP3    H226736   5.173   5.537   0.978  0.1032  1.3139  0.3483
 1701TIP3   OH226737   1.627   0.669   1.662 -0.2066  0.0762 -0.0132
 1701TIP3    H126738   1.573   0.591   1.651 -1.4377  0.9379 -0.2936
 1701TIP3    H226739   1.682   0.673   1.584  0.1107 -0.6952  0.1704
 1702TIP3   OH226740   2.401   3.706   1.217  0.5537  0.7506  0.1674
 1702TIP3    H126741   2.343   3.630   1.223  1.9156 -0.2733  1.4018
 1702TIP3    H226742   2.347   3.775   1.178 -0.0321 -1.4954 -3.4322
 1703TIP3   OH226743   5.412   0.410   0.747  0.4184 -0.0374  0.1454
 1703TIP3    H126744   5.353   0.410   0.822  0.8618 -0.4898  0.5021
 1703TIP3    H226745   5.357   0.388   0.672 -0.2130  1.3108  0.1761
 1704TIP3   OH226746   3.314   2.236   0.397 -0.6051 -0.2024 -0.1806
 1704TIP3    H126747   3.364   2.261   0.474  2.2426 -0.5390 -1.7852
 1704TIP3    H226748   3.317   2.313   0.340  0.5188 -1.1252 -1.4338
 1705TIP3   OH226749   3.477   1.684   0.654  0.1229  0.1605 -0.3002
 1705TIP3    H126750   3.447   1.601   0.617 -1.9513  0.6849  0.0354
 1705TIP3    H226751   3.548   1.660   0.712 -0.6749 -1.4533  0.0802
 1706TIP3   OH226752   1.860   1.317   3.631 -0.1097 -0.1687 -0.1059
 1706TIP3    H126753   1.858   1.222   3.620 -1.8107 -0.4659  2.1578
 1706TIP3    H226754   1.854   1.351   3.541 -0.3331 -2.1958 -0.9108
 1707TIP3   OH226755   5.499   2.317   3.124 -0.2944 -0.0318  0.0105
 1707TIP3    H126756   5.474   2.317   3.216  0.4204  1.7099  0.2538
 1707TIP3    H226757   5.595   2.314   3.125 -0.2708  0.2242 -0.6579
 1708TIP3   OH226758   5.558   3.334   0.909  0.1413  0.3248  0.1605
 1708TIP3    H126759   5.555   3.420   0.866  0.2532 -1.5368 -4.0265
 1708TIP3    H226760   5.649   3.305   0.897 -0.2550 -0.9817  0.2097
 1709TIP3   OH226761   0.944   0.096   3.256 -0.4040  0.2901 -0.0238
 1709TIP3    H126762   0.949   0.005   3.225 -0.6892 -0.3832  1.7945
 1709TIP3    H226763   0.892   0.091   3.336 -0.8351  2.1432 -0.1450
 1710TIP3   OH226764   1.931   0.894   1.403 -0.3431  0.2282 -0.1654
 1710TIP3    H126765   1.878   0.961   1.359  0.2236 -0.0565 -1.3137
 1710TIP3    H226766   2.018   0.933   1.411 -0.4905  0.3701  0.9604
 1711TIP3   OH226767   4.919   5.213   7.975 -0.5013 -0.0020  0.1671
 1711TIP3    H126768   4.921   5.293   7.923 -0.0843  0.0387  0.2372
 1711TIP3    H226769   4.826   5.190   7.982 -0.7887  1.3627  1.4872
 1712TIP3   OH226770   6.613   0.922   8.539 -0.0229 -0.0260 -0.0024
 1712TIP3    H126771   6.539   0.893   8.592 -0.4775  0.9721 -0.0657
 1712TIP3    H226772   6.609   1.018   8.543  1.0152  0.0434 -0.3535
 1713TIP3   OH226773   2.127   5.784   8.881  0.5621  0.0395 -0.1762
 1713TIP3    H126774   2.115   5.732   8.960  0.1055  1.2727  0.6048
 1713TIP3    H226775   2.177   5.728   8.822 -0.0444 -1.3222  0.5607
 1714TIP3   OH226776   2.984   3.666   0.009  0.4981 -0.4821 -0.6260
 1714TIP3    H126777   2.994   3.574   0.034  0.0238 -1.4307 -3.5403
 1714TIP3    H226778   2.889   3.679   0.003  0.5516  0.3246  0.1373
 1715TIP3   OH226779   0.765   0.043   3.455  0.0753 -0.3554  1.1946
 1715TIP3    H126780   0.696  -0.005   3.409  0.8344 -0.5126  0.1748
 1715TIP3    H226781   0.726   0.066   3.539 -2.3134  2.1367 -0.3944
 1716TIP3   OH226782   2.308   4.005   1.671  0.0890 -0.2421  0.4326
 1716TIP3    H126783   2.335   3.922   1.631  0.9369  0.3925 -0.3689
 1716TIP3    H226784   2.213   4.000   1.675  0.1365 -1.3826  0.7079
 1717TIP3   OH226785   2.132   0.364   4.152 -0.0876  0.1630  0.1927
 1717TIP3    H126786   2.205   0.409   4.108 -1.0100 -1.2671 -3.1490
 1717TIP3    H226787   2.054   0.398   4.109 -0.9539 -2.6235 -0.6480
 1718TIP3   OH226788   6.461   0.032   0.376  0.0833  0.2612 -0.0658
 1718TIP3    H126789   6.480  -0.048   0.327 -1.1453 -0.7377  1.0084
 1718TIP3    H226790   6.514   0.099   0.333 -0.7142 -0.5861 -2.5836
 1719TIP3   OH226791   3.818   3.016   1.744  0.3090 -0.2174  0.1346
 1719TIP3    H126792   3.790   2.928   1.768 -0.1232  0.1709  1.0871
 1719TIP3    H226793   3.736   3.064   1.730  0.4681  0.7093  2.1425
 1720TIP3   OH226794   5.280   6.307   1.174 -0.2820 -0.1578 -0.0722
 1720TIP3    H126795   5.214   6.358   1.220 -0.2972 -0.5211  0.3210
 1720TIP3    H226796   5.329   6.371   1.123  0.2071  0.3747  1.0209
 1721TIP3   OH226797   5.884   4.176   1.275 -0.0701 -0.5908  0.3099
 1721TIP3    H126798   5.970   4.217   1.260  0.7943 -2.0985  0.8915
 1721TIP3    H226799   5.904   4.097   1.325 -2.0061  0.0175  2.1974
 1722TIP3   OH226800   4.806   2.354   0.337  0.2612 -0.0386 -0.9265
 1722TIP3    H126801   4.752   2.416   0.287 -0.7007 -0.3238 -0.2695
 1722TIP3    H226802   4.852   2.304   0.270  0.5039  0.8951 -1.4819
 1723TIP3   OH226803   0.380   4.913   0.079  0.3984  0.1563  0.1070
 1723TIP3    H126804   0.404   4.822   0.094 -1.7698 -0.2804  1.2487
 1723TIP3    H226805   0.436   4.940   0.006  0.1503 -2.4785 -1.1734
 1724TIP3   OH226806   3.133   5.717   3.001 -0.8148 -0.3636  0.2430
 1724TIP3    H126807   3.087   5.743   2.921  0.1258  1.3930  0.2243
 1724TIP3    H226808   3.063   5.699   3.064 -1.5546 -1.0706 -0.7416
 1725TIP3   OH226809   6.406   1.418   8.751  0.7047 -0.8595  0.2298
 1725TIP3    H126810   6.322   1.464   8.745  0.7588 -0.4785  2.0002
 1725TIP3    H226811   6.456   1.450   8.676 -0.5473 -0.7323 -0.5814
 1726TIP3   OH226812   2.230   6.053   7.986  0.7748  0.6559 -0.0762
 1726TIP3    H126813   2.216   6.140   7.949  2.9615  2.0775  2.1032
 1726TIP3    H226814   2.317   6.028   7.954  0.7971 -0.0617  0.5317
 1727TIP3   OH226815   5.181   1.383   3.241  0.1716  0.4576  0.4062
 1727TIP3    H126816   5.271   1.382   3.274 -0.0261  0.6351  0.9632
 1727TIP3    H226817   5.128   1.404   3.318 -0.4454 -0.7159  0.3264
 1728TIP3   OH226818   4.508   5.765   0.863  0.0358 -0.0242  0.3447
 1728TIP3    H126819   4.549   5.839   0.819 -1.1191  0.9856  0.8816
 1728TIP3    H226820   4.568   5.692   0.851 -0.0493  0.2808 -2.5766
 1729TIP3   OH226821   6.644   1.017   4.170  0.0753 -0.3069  0.2624
 1729TIP3    H126822   6.644   0.966   4.089  1.1942 -1.0841  0.7252
 1729TIP3    H226823   6.735   1.045   4.181 -0.5750  2.2631 -0.2317
 1730TIP3   OH226824   5.005   0.251   0.804 -0.9281 -0.0673  0.1894
 1730TIP3    H126825   4.950   0.182   0.766 -1.1184  0.8674 -1.2987
 1730TIP3    H226826   4.958   0.279   0.882 -1.4785 -0.7705  0.1192
 1731TIP3   OH226827   5.248   3.116   1.936  0.7109 -0.4032  0.1220
 1731TIP3    H126828   5.219   3.098   1.846  0.8188  0.4797 -0.0979
 1731TIP3    H226829   5.257   3.029   1.976  0.2128 -0.7898 -0.5761
 1732TIP3   OH226830   1.475   3.058   3.324 -0.8631 -0.0581 -0.1166
 1732TIP3    H126831   1.442   3.121   3.388 -0.6061  0.5756 -0.6035
 1732TIP3    H226832   1.568   3.050   3.344 -0.9990 -0.7217  0.3039
 1733TIP3   OH226833   2.549   5.067   2.070 -0.1492  0.4032 -0.0694
 1733TIP3    H126834   2.568   5.152   2.110 -0.1619 -0.2002  1.2719
 1733TIP3    H226835   2.475   5.084   2.012  0.3354  1.4527 -0.4128
 1734TIP3   OH226836   0.839   2.148   2.314  0.3445 -0.5996 -0.4169
 1734TIP3    H126837   0.837   2.122   2.222  1.5203 -2.9181  0.1220
 1734TIP3    H226838   0.929   2.130   2.342 -0.1033 -0.3893  1.2994
 1735TIP3   OH226839   3.236   4.009   0.378  0.5416 -0.0023 -0.2032
 1735TIP3    H126840   3.231   4.030   0.472 -4.6294  1.6409 -0.5396
 1735TIP3    H226841   3.155   3.962   0.359  1.8855 -1.2072 -3.7355
 1736TIP3   OH226842   5.925   6.381   1.806  0.3684 -0.2522 -0.0800
 1736TIP3    H126843   5.950   6.362   1.896  0.6932  0.8882  0.0864
 1736TIP3    H226844   5.857   6.317   1.786 -1.2197  0.7662  1.6969
 1737TIP3   OH226845   5.034   2.591   1.624  0.0283  0.3370  0.0954
 1737TIP3    H126846   4.982   2.541   1.687 -0.0703 -1.0904 -1.0454
 1737TIP3    H226847   5.124   2.585   1.655 -0.1792  0.7582  0.7865
 1738TIP3   OH226848   3.686   4.873   2.755  0.2752 -0.5254  0.2638
 1738TIP3    H126849   3.734   4.952   2.729 -1.0842  0.0792 -0.4751
 1738TIP3    H226850   3.634   4.900   2.831  0.6793 -1.0367  0.7346
 1739TIP3   OH226851   4.758   1.272   0.198  0.1477  0.1060 -0.1842
 1739TIP3    H126852   4.726   1.243   0.112  1.0012  0.7438 -0.7380
 1739TIP3    H226853   4.844   1.310   0.180 -0.1186  1.2344  0.7904
 1740TIP3   OH226854   4.314   3.686   8.092  0.5469 -0.2276 -0.4151
 1740TIP3    H126855   4.227   3.678   8.130  0.8776  1.4095  0.8305
 1740TIP3    H226856   4.319   3.617   8.026 -0.6498 -2.2010  1.4338
 1741TIP3   OH226857   1.802   3.615   3.155  0.6670  0.5087 -0.0095
 1741TIP3    H126858   1.733   3.659   3.105  0.9240 -0.5382 -1.3667
 1741TIP3    H226859   1.804   3.661   3.239 -2.0930  0.2230  0.3255
 1742TIP3   OH226860   1.498   4.614   2.189  0.6337  0.6037  0.2414
 1742TIP3    H126861   1.419   4.624   2.136  2.3073 -0.7571 -2.7504
 1742TIP3    H226862   1.467   4.581   2.273 -2.1475  2.5898  0.1179
 1743TIP3   OH226863   4.291   6.316   0.305 -0.2008  0.7480 -0.2894
 1743TIP3    H126864   4.294   6.295   0.398  3.4812  2.0330  0.0235
 1743TIP3    H226865   4.217   6.376   0.296 -0.2825  1.0485  1.9131
 1744TIP3   OH226866   3.192   5.931   2.613 -0.0123  0.5645 -0.9561
 1744TIP3    H126867   3.155   5.936   2.525 -0.7573  2.3792 -0.5858
 1744TIP3    H226868   3.159   5.848   2.648 -0.6999  0.4004 -1.9409
 1745TIP3   OH226869   5.651   4.267   0.403 -0.4533  0.4149  0.3941
 1745TIP3    H126870   5.594   4.333   0.362 -0.9760 -0.8050 -0.9296
 1745TIP3    H226871   5.614   4.184   0.375  0.6960 -0.4419  1.3514
 1746TIP3   OH226872   1.173   2.148   1.947 -0.1692 -0.5334  0.4034
 1746TIP3    H126873   1.167   2.244   1.953 -0.1794 -0.5077 -0.0019
 1746TIP3    H226874   1.192   2.120   2.037  0.2844 -0.1163  0.4418
 1747TIP3   OH226875   6.588   2.987   2.895  0.1785 -0.0516 -0.4966
 1747TIP3    H126876   6.519   2.994   2.960  1.5446  0.1459  0.9997
 1747TIP3    H226877   6.620   3.076   2.884  2.0431 -0.4573  0.9977
 1748TIP3   OH226878   4.798   0.820   1.090  0.1410  0.3249 -0.5859
 1748TIP3    H126879   4.890   0.798   1.103 -0.1184 -0.1729  0.5996
 1748TIP3    H226880   4.756   0.736   1.069 -0.0444  0.5531 -1.1521
 1749TIP3   OH226881   3.119   3.757   8.006 -0.0727  0.0224 -0.2382
 1749TIP3    H126882   3.069   3.827   7.964  0.1171 -1.1387 -2.5245
 1749TIP3    H226883   3.056   3.687   8.018  0.1934 -0.1411  0.2233
 1750TIP3   OH226884   3.881   5.694   2.869 -0.1837 -1.0303  0.2158
 1750TIP3    H126885   3.840   5.730   2.791  0.6665 -1.0541 -0.2529
 1750TIP3    H226886   3.819   5.628   2.901 -1.2127  0.0068  0.4181
 1751TIP3   OH226887   4.036   1.059   8.810 -0.2682  0.9701 -0.2147
 1751TIP3    H126888   4.089   1.086   8.734  0.3248  1.0360  0.2155
 1751TIP3    H226889   3.957   1.113   8.805 -0.0038  1.3313 -0.5019
 1752TIP3   OH226890   4.496   3.080   8.575  0.5678 -0.0859  0.0408
 1752TIP3    H126891   4.564   3.035   8.626  0.8751  1.3075  0.9122
 1752TIP3    H226892   4.516   3.059   8.484  1.1753 -1.0330  0.3820
 1753TIP3   OH226893   0.789   5.604   1.622  0.5442  0.0951  0.0637
 1753TIP3    H126894   0.883   5.593   1.608  0.1768 -2.0376 -0.9964
 1753TIP3    H226895   0.771   5.551   1.700 -0.2428 -2.2235 -1.5827
 1754TIP3   OH226896   1.636   3.818   8.447 -0.3786 -0.2828  0.3198
 1754TIP3    H126897   1.723   3.838   8.412 -1.6942  3.4040 -1.3316
 1754TIP3    H226898   1.649   3.810   8.541  1.6994  0.5624  0.1575
 1755TIP3   OH226899   4.064   1.256   1.907  0.4173 -0.0440  0.5135
 1755TIP3    H126900   4.031   1.187   1.849  1.1729 -0.1313  0.1753
 1755TIP3    H226901   4.048   1.223   1.995 -0.0892 -0.2293  0.3554
 1756TIP3   OH226902   5.631   1.416   0.015  0.1173 -0.1658  0.1901
 1756TIP3    H126903   5.602   1.413  -0.076  2.3159 -0.4038 -0.5840
 1756TIP3    H226904   5.711   1.362   0.015  0.2410 -0.0369  2.2319
 1757TIP3   OH226905   4.734   6.382   0.378 -0.0154 -0.0404 -0.1311
 1757TIP3    H126906   4.798   6.312   0.387  0.9312  0.9662  1.6120
 1757TIP3    H226907   4.654   6.347   0.418  0.2437 -0.3777  0.0941
 1758TIP3   OH226908   2.097   0.395   0.364  0.1916 -0.1275 -0.0241
 1758TIP3    H126909   2.063   0.317   0.320  1.4744 -0.2170 -0.9322
 1758TIP3    H226910   2.192   0.390   0.351  0.3676  1.1722  0.6012
 1759TIP3   OH226911   5.681   1.039   8.378 -0.6593 -0.1977  0.3960
 1759TIP3    H126912   5.690   1.043   8.473 -0.0055  0.0068  0.3284
 1759TIP3    H226913   5.735   1.111   8.345  0.0544 -0.9741 -0.1797
 1760TIP3   OH226914   5.097   3.519   2.518 -0.4399 -0.2431  0.2070
 1760TIP3    H126915   5.063   3.534   2.430  1.0257 -0.5464 -0.4478
 1760TIP3    H226916   5.181   3.565   2.520 -0.4695 -0.1981  1.4632
 1761TIP3   OH226917   2.152   6.336   7.869  0.3582 -0.1025 -0.4069
 1761TIP3    H126918   2.148   6.396   7.794 -0.2889 -1.0486 -1.1636
 1761TIP3    H226919   2.106   6.383   7.939  1.2966  0.9513 -0.4657
 1762TIP3   OH226920   2.582   1.496   8.403 -0.2077  0.3567  0.3583
 1762TIP3    H126921   2.548   1.563   8.344  1.5372  0.5177 -0.5307
 1762TIP3    H226922   2.523   1.422   8.392 -0.3721  0.6733 -0.9929
 1763TIP3   OH226923   2.985   4.764   1.111  0.2417  0.3907  0.5095
 1763TIP3    H126924   2.993   4.759   1.016 -0.9405  0.7775  0.3665
 1763TIP3    H226925   3.020   4.681   1.143 -1.3130 -0.6777 -0.4287
 1764TIP3   OH226926   2.101   4.109   2.506 -0.2139 -1.4948 -0.0053
 1764TIP3    H126927   2.116   4.050   2.433  1.3099 -1.2537  0.0797
 1764TIP3    H226928   2.160   4.078   2.575  1.5767  0.7870 -0.3800
 1765TIP3   OH226929   0.367   5.463   2.085  0.0911 -0.1756  0.2857
 1765TIP3    H126930   0.431   5.486   2.017  1.5273 -1.1160  1.2657
 1765TIP3    H226931   0.285   5.454   2.038  0.6895  0.9021 -1.0510
 1766TIP3   OH226932   0.043   3.825   0.905 -0.0784 -0.1057 -0.7741
 1766TIP3    H126933   0.054   3.854   0.996 -0.3441  0.6244 -0.9618
 1766TIP3    H226934   0.048   3.730   0.909 -0.7910 -0.1229  0.1139
 1767TIP3   OH226935   1.950   6.451   8.061 -0.2611  0.3510  0.0618
 1767TIP3    H126936   1.897   6.377   8.092 -1.2277  0.9201 -0.2186
 1767TIP3    H226937   1.919   6.526   8.111 -0.7728  0.9807 -1.1496
 1768TIP3   OH226938   2.301   3.772   1.552  0.0165  0.0863 -0.3785
 1768TIP3    H126939   2.319   3.679   1.539 -1.2163  0.0200 -2.0522
 1768TIP3    H226940   2.214   3.784   1.513 -0.4946  1.6601  1.1462
 1769TIP3   OH226941   5.133   5.396   0.764  0.0763  0.7178  0.3729
 1769TIP3    H126942   5.201   5.357   0.710 -0.4210 -0.8029  0.7867
 1769TIP3    H226943   5.067   5.327   0.772  0.4562  0.6074  3.5129
 1770TIP3   OH226944   5.869   2.459   1.794  0.1144 -0.7663 -0.1105
 1770TIP3    H126945   5.914   2.387   1.839  4.1979  1.3092 -0.3977
 1770TIP3    H226946   5.868   2.434   1.702 -0.2439 -1.2348  0.0155
 1771TIP3   OH226947   2.288   5.673   2.767 -0.0558 -0.0561 -0.4226
 1771TIP3    H126948   2.361   5.645   2.713 -0.3826 -0.2016 -0.7919
 1771TIP3    H226949   2.211   5.666   2.710 -0.4451 -0.5111  0.1441
 1772TIP3   OH226950   4.383   3.352   1.347  0.3180  0.2437 -0.3031
 1772TIP3    H126951   4.470   3.342   1.385  2.1245  0.8878 -3.8583
 1772TIP3    H226952   4.372   3.276   1.290 -2.1078 -0.5321  1.0458
 1773TIP3   OH226953   2.819   0.278   0.411 -0.6151  0.1390 -0.2730
 1773TIP3    H126954   2.802   0.366   0.443 -0.6405 -0.0385  0.2097
 1773TIP3    H226955   2.777   0.275   0.325  1.0229  1.2257 -1.1785
 1774TIP3   OH226956   0.684   3.536   2.974  0.2127  0.2910 -0.1283
 1774TIP3    H126957   0.618   3.603   2.953 -0.5205  0.2526  1.8491
 1774TIP3    H226958   0.675   3.472   2.903 -0.8709  1.0128 -0.6812
 1775TIP3   OH226959   2.554   1.290   1.967  0.5578 -0.5766  0.4401
 1775TIP3    H126960   2.648   1.289   1.950  0.2877  0.0397 -1.2988
 1775TIP3    H226961   2.521   1.210   1.926  0.0046  0.4761 -1.2496
 1776TIP3   OH226962   4.696   5.703   0.184 -0.1248 -0.1376  0.3970
 1776TIP3    H126963   4.782   5.674   0.156 -0.6416 -1.1921 -0.1713
 1776TIP3    H226964   4.710   5.739   0.272  0.5028 -2.7367  1.4548
 1777TIP3   OH226965   5.436   0.683   3.008  0.2947 -0.2945 -0.5236
 1777TIP3    H126966   5.496   0.655   3.077  0.3087  1.1559  0.0801
 1777TIP3    H226967   5.349   0.664   3.043  0.2470  1.4374  0.4113
 1778TIP3   OH226968   2.098   3.782   1.155 -0.5224  0.1618 -0.5139
 1778TIP3    H126969   2.045   3.844   1.105 -0.5621  0.7317  0.2168
 1778TIP3    H226970   2.091   3.699   1.107 -2.0411  0.2264 -0.4526
 1779TIP3   OH226971   3.928   2.830   2.415 -0.0182 -0.1810 -0.2871
 1779TIP3    H126972   3.875   2.880   2.477 -0.5239 -1.6071  0.4624
 1779TIP3    H226973   4.016   2.831   2.453  0.0343  0.3144 -0.4034
 1780TIP3   OH226974   4.291   6.795   2.978  0.3575  0.0936 -0.2903
 1780TIP3    H126975   4.354   6.842   2.924  0.4566  0.5058  0.1757
 1780TIP3    H226976   4.317   6.815   3.068  0.2645 -0.6761 -0.0832
 1781TIP3   OH226977   3.378   1.446   8.809  0.1687 -0.3345  0.2389
 1781TIP3    H126978   3.344   1.381   8.748  1.9287 -1.1718  0.0716
 1781TIP3    H226979   3.312   1.515   8.811 -0.3899 -0.7428 -1.8773
 1782TIP3   OH226980   5.044   4.862   0.244  0.2122 -0.2243  0.5389
 1782TIP3    H126981   5.036   4.774   0.281 -0.1864 -0.5713 -0.3277
 1782TIP3    H226982   4.991   4.917   0.302  0.6846 -0.4976  1.2462
 1783TIP3   OH226983   1.113   5.042   2.011  0.5629  0.8264 -0.0432
 1783TIP3    H126984   1.064   4.968   2.048  1.0627  0.5818  0.1473
 1783TIP3    H226985   1.105   5.111   2.077 -1.3520  1.5610 -0.9814
 1784TIP3   OH226986   1.494   5.160   3.540 -0.3917 -0.0075  0.0380
 1784TIP3    H126987   1.468   5.068   3.539 -0.3978  0.0026 -0.6448
 1784TIP3    H226988   1.413   5.208   3.557 -0.5379 -0.0794 -0.4449
 1785TIP3   OH226989   1.040   1.234   0.467  0.1978  0.0212 -0.1165
 1785TIP3    H126990   0.996   1.298   0.411 -0.3706 -0.3329 -0.0776
 1785TIP3    H226991   1.124   1.275   0.489 -1.0731  1.8082  1.8186
 1786TIP3   OH226992   3.838   5.567   8.517 -0.0149 -0.5670 -0.2126
 1786TIP3    H126993   3.919   5.576   8.467 -0.3270 -0.7276 -0.7543
 1786TIP3    H226994   3.769   5.567   8.450 -0.5284  0.4693  0.2932
 1787TIP3   OH226995   0.344   4.760   1.780 -0.5343  0.2731  0.2258
 1787TIP3    H126996   0.284   4.788   1.712 -0.7816  1.2997  0.8380
 1787TIP3    H226997   0.294   4.769   1.861  0.1346  0.2397  0.6528
 1788TIP3   OH226998   6.608   3.998   1.138  0.2296  0.8579  0.0633
 1788TIP3    H126999   6.671   3.941   1.181 -0.1277 -0.3126 -0.8934
 1788TIP3    H227000   6.651   4.084   1.134  0.6388  0.7695  1.8383
 1789TIP3   OH227001   2.276   1.970   3.571  0.2469  0.1663  0.4230
 1789TIP3    H127002   2.235   1.984   3.485  0.1016  0.8141  0.5890
 1789TIP3    H227003   2.202   1.960   3.632  0.3446 -1.3389  0.3302
 1790TIP3   OH227004   2.783   1.803   8.510  0.3630 -0.1230 -0.0815
 1790TIP3    H127005   2.735   1.875   8.552 -0.0283 -0.6042  0.2940
 1790TIP3    H227006   2.744   1.797   8.423  0.0299 -0.2387  0.0765
 1791TIP3   OH227007   2.842   3.745   3.202 -0.2324  0.6302 -0.3463
 1791TIP3    H127008   2.780   3.712   3.267  1.1892 -0.4664  0.5126
 1791TIP3    H227009   2.885   3.818   3.246  0.5348  0.0615 -0.1203
 1792TIP3   OH227010   2.753   1.855   1.749 -0.2791 -0.0011 -0.0716
 1792TIP3    H127011   2.776   1.943   1.721 -2.1083  0.0361 -1.7135
 1792TIP3    H227012   2.676   1.867   1.805  0.4270 -0.4710  1.0401
 1793TIP3   OH227013   5.725   6.496   2.623 -0.0433 -0.4661  0.5313
 1793TIP3    H127014   5.677   6.524   2.701  0.8505  1.1794  0.5520
 1793TIP3    H227015   5.811   6.538   2.632  0.5678 -1.4106 -0.6424
 1794TIP3   OH227016   0.579   3.994   1.908  0.5254 -0.7132  0.3861
 1794TIP3    H127017   0.644   4.016   1.974  0.0600 -0.4018  0.7525
 1794TIP3    H227018   0.563   4.076   1.861  0.5817 -0.8466  0.1319
 1795TIP3   OH227019   4.174   3.028   0.952  0.2236 -0.0717  0.0121
 1795TIP3    H127020   4.081   3.037   0.972  0.5035  1.0241  0.9716
 1795TIP3    H227021   4.196   2.939   0.979 -0.7949 -0.7764 -1.3866
 1796TIP3   OH227022   1.054   0.234   1.033 -0.2395 -0.0296  0.1259
 1796TIP3    H127023   1.088   0.315   1.071 -1.4582  1.5470 -1.9220
 1796TIP3    H227024   1.093   0.165   1.086  0.7180  1.8748  2.0870
 1797TIP3   OH227025   3.988   6.261   0.160 -0.0801  0.1402 -0.2342
 1797TIP3    H127026   3.966   6.282   0.069  0.2835  0.1609 -0.3218
 1797TIP3    H227027   4.053   6.327   0.184  1.1983 -0.9386 -0.5597
 1798TIP3   OH227028   5.493   4.631   3.810 -0.1283  0.0143  0.7101
 1798TIP3    H127029   5.579   4.593   3.794  0.3672  1.1771  0.4920
 1798TIP3    H227030   5.432   4.559   3.797  0.5812 -0.1963 -2.0087
 1799TIP3   OH227031   3.613   1.216   1.859  0.2424  0.2743  0.5333
 1799TIP3    H127032   3.635   1.308   1.849 -0.0626  0.4924  1.7663
 1799TIP3    H227033   3.563   1.211   1.940  0.2202 -0.9687  0.4701
 1800TIP3   OH227034   0.418   0.525   3.310  0.5017  0.5200  0.1442
 1800TIP3    H127035   0.486   0.591   3.300  0.3387  0.5214 -1.1155
 1800TIP3    H227036   0.375   0.521   3.224 -0.0678 -0.5832  0.4561
 1801TIP3   OH227037   3.006   6.137   0.583  0.2674 -0.1582  0.1320
 1801TIP3    H127038   3.019   6.095   0.668 -0.8561 -0.7119  0.0488
 1801TIP3    H227039   2.912   6.149   0.576  0.4444  1.0778 -0.4902
 1802TIP3   OH227040   1.940   5.877   0.625 -0.0762  0.0164  0.4493
 1802TIP3    H127041   1.964   5.795   0.668  0.1044  0.0112  0.3384
 1802TIP3    H227042   2.019   5.930   0.628  0.9759 -1.1774 -2.7180
 1803TIP3   OH227043   3.084   4.712   8.524  0.0709  0.1963 -0.3766
 1803TIP3    H127044   3.000   4.668   8.536 -0.1781  0.7516 -0.0203
 1803TIP3    H227045   3.138   4.683   8.597  0.9686 -1.8851 -1.7879
 1804TIP3   OH227046   4.623   4.765   8.881 -0.1237 -0.3433 -0.1092
 1804TIP3    H127047   4.699   4.740   8.828  1.6218  0.1923  1.9697
 1804TIP3    H227048   4.595   4.685   8.924 -0.2629 -0.4105 -0.3281
 1805TIP3   OH227049   5.451   3.835   1.167  0.0350  0.0509  0.7451
 1805TIP3    H127050   5.408   3.750   1.152 -1.1173  0.8110 -0.4559
 1805TIP3    H227051   5.520   3.839   1.101  0.8177 -0.3970  1.5134
 1806TIP3   OH227052   3.971   0.765   0.597 -0.1063  0.3982 -0.6061
 1806TIP3    H127053   3.876   0.776   0.598 -0.0792  0.6242 -0.4486
 1806TIP3    H227054   3.999   0.809   0.516 -0.1259  0.4185 -0.6021
 1807TIP3   OH227055   6.521   5.748   2.184 -0.0493 -0.2611 -0.5054
 1807TIP3    H127056   6.564   5.721   2.266 -2.3724  1.9280  1.6025
 1807TIP3    H227057   6.539   5.676   2.124  3.1122 -1.2718  1.3775
 1808TIP3   OH227058   0.951   4.609   8.065  0.8205 -0.5633  0.3120
 1808TIP3    H127059   0.936   4.526   8.020 -0.0043 -0.0197 -0.4459
 1808TIP3    H227060   0.903   4.600   8.148  2.1422 -1.4719  1.0018
 1809TIP3   OH227061   3.003   1.232   1.244 -0.7123  0.6049 -0.0380
 1809TIP3    H127062   3.035   1.143   1.231 -0.9500  0.5988 -0.6060
 1809TIP3    H227063   3.074   1.277   1.288 -0.5142  0.1863  0.0714
 1810TIP3   OH227064   0.229   5.217   1.000  0.7906  0.2121 -0.0113
 1810TIP3    H127065   0.143   5.182   0.975  0.5163 -1.1170  2.4428
 1810TIP3    H227066   0.292   5.160   0.956  0.3680 -0.5871  0.3938
 1811TIP3   OH227067   5.675   3.210   8.524  0.6245 -0.6647 -0.2153
 1811TIP3    H127068   5.679   3.250   8.611 -1.2501 -1.9096  0.4785
 1811TIP3    H227069   5.700   3.281   8.465  0.8851  0.5057  1.2336
 1812TIP3   OH227070   5.806   0.937   1.250 -0.2249 -0.0555 -0.1061
 1812TIP3    H127071   5.757   0.951   1.331 -0.7141  0.3336 -0.4625
 1812TIP3    H227072   5.887   0.986   1.262 -0.6232  0.6209 -0.1478
 1813TIP3   OH227073   3.140   2.635   0.568 -0.4975 -0.5197 -0.3561
 1813TIP3    H127074   3.189   2.666   0.644 -3.3313 -0.5749  1.6736
 1813TIP3    H227075   3.164   2.695   0.497 -0.0826  1.5526  1.4277
 1814TIP3   OH227076   2.984   0.696   0.313 -0.1170  0.3095 -0.3913
 1814TIP3    H127077   3.000   0.699   0.219  0.2957 -0.6795 -0.3624
 1814TIP3    H227078   2.889   0.705   0.322 -0.0783  1.2971 -0.8423
 1815TIP3   OH227079   3.991   3.997   1.177 -0.0127  0.0145  0.0823
 1815TIP3    H127080   3.955   3.908   1.165 -0.5410  0.2197  0.1153
 1815TIP3    H227081   3.999   4.031   1.088  2.2699 -0.8551 -0.1033
 1816TIP3   OH227082   2.414   3.705   2.626 -0.0849 -0.6702  0.8510
 1816TIP3    H127083   2.337   3.712   2.570 -1.4896  1.0612  2.8542
 1816TIP3    H227084   2.391   3.638   2.691 -0.9223  1.3195  2.7595
 1817TIP3   OH227085   1.298   2.911   0.874  0.0786 -0.4478 -0.1502
 1817TIP3    H127086   1.390   2.908   0.898  0.2324  2.1303 -0.2345
 1817TIP3    H227087   1.298   2.923   0.779 -0.1876  2.3915  0.1217
 1818TIP3   OH227088   6.640   0.676   1.601 -0.1623  0.2813  0.0143
 1818TIP3    H127089   6.561   0.723   1.628 -1.0258 -0.7150 -0.6752
 1818TIP3    H227090   6.683   0.736   1.540 -1.3142  0.1780 -0.9534
 1819TIP3   OH227091   6.241   1.036   2.447  0.0370 -0.2824 -0.5189
 1819TIP3    H127092   6.257   1.123   2.409  1.3136 -0.6374 -0.8442
 1819TIP3    H227093   6.216   1.054   2.537  1.1057  0.4137 -0.3412
 1820TIP3   OH227094   2.103   1.564   1.324  0.2232  0.0744 -0.3981
 1820TIP3    H127095   2.111   1.533   1.414 -1.5177  3.2091  1.0154
 1820TIP3    H227096   2.016   1.535   1.296  0.2731  0.1384 -0.6216
 1821TIP3   OH227097   3.585   6.775   3.349  0.3812 -0.1209  0.4802
 1821TIP3    H127098   3.603   6.854   3.299  0.9873 -0.2057  0.5506
 1821TIP3    H227099   3.663   6.720   3.336  0.1055 -0.5725  0.6829
 1822TIP3   OH227100   4.367   4.850   3.371 -0.2442 -0.4910 -0.3828
 1822TIP3    H127101   4.343   4.942   3.368 -0.5966 -0.5719 -3.5502
 1822TIP3    H227102   4.311   4.812   3.439 -1.2280  1.3195 -0.1293
 1823TIP3   OH227103   5.052   1.083   2.442  0.0052  0.2792  0.0664
 1823TIP3    H127104   5.142   1.115   2.449 -0.0984  0.8531 -1.0259
 1823TIP3    H227105   4.999   1.152   2.482 -0.0642  0.6353 -0.6265
 1824TIP3   OH227106   0.504   3.169   0.671  0.3543  0.5192  0.1925
 1824TIP3    H127107   0.597   3.170   0.650  0.0356 -3.3437 -2.5030
 1824TIP3    H227108   0.483   3.076   0.683 -3.0113  1.3216  1.6476
 1825TIP3   OH227109   6.563   3.290   1.151  0.0847  0.0219  0.1667
 1825TIP3    H127110   6.493   3.352   1.132 -0.4984 -0.5061  0.5558
 1825TIP3    H227111   6.593   3.260   1.065  0.2512  0.6890 -0.0202
 1826TIP3   OH227112   2.829   3.825   0.501 -0.6847  0.5070 -0.1052
 1826TIP3    H127113   2.781   3.826   0.418  0.0671 -0.1152 -0.5537
 1826TIP3    H227114   2.827   3.734   0.529 -0.2679  0.5812  0.1729
 1827TIP3   OH227115   4.931   5.016   1.214  0.4792 -0.4043  0.1811
 1827TIP3    H127116   4.945   5.097   1.165  0.8806 -2.1471 -2.8300
 1827TIP3    H227117   4.886   5.043   1.294 -2.3194  2.4668 -2.1525
 1828TIP3   OH227118   2.264   1.463   0.168  0.5386 -0.4327  0.2214
 1828TIP3    H127119   2.249   1.370   0.183 -2.2786 -0.1177 -0.0158
 1828TIP3    H227120   2.287   1.498   0.254  2.0686 -1.3973  0.2200
 1829TIP3   OH227121   2.320   3.998   1.335  0.4377  0.0886 -0.6864
 1829TIP3    H127122   2.349   3.915   1.373 -0.2464 -0.0784 -0.5193
 1829TIP3    H227123   2.351   4.065   1.396 -1.4209 -0.2236  0.6960
 1830TIP3   OH227124   6.373   6.778   1.599 -0.4285 -0.2245  0.3033
 1830TIP3    H127125   6.375   6.832   1.678 -0.0186  0.2819 -0.0456
 1830TIP3    H227126   6.280   6.758   1.586 -0.5903  0.4473  0.4057
 1831TIP3   OH227127   5.007   0.443   0.568 -0.4606 -0.5039  0.3863
 1831TIP3    H127128   5.032   0.357   0.533  1.2882  0.2268 -0.2797
 1831TIP3    H227129   5.007   0.431   0.663  2.2028 -0.7043  0.4433
 1832TIP3   OH227130   1.956   4.702   0.483  0.0539  0.1949 -0.0270
 1832TIP3    H127131   1.970   4.768   0.550  0.9518 -1.5282  1.5622
 1832TIP3    H227132   2.038   4.700   0.434 -0.5827  1.4155 -1.2029
 1833TIP3   OH227133   6.007   0.054   0.491  0.0812  0.5104  0.2309
 1833TIP3    H127134   5.949   0.035   0.418  0.4911  2.8247 -0.7477
 1833TIP3    H227135   6.034  -0.033   0.523 -1.6841 -0.5647 -1.0335
 1834TIP3   OH227136   1.415   5.728   2.533 -0.1623  0.5736 -0.5413
 1834TIP3    H127137   1.358   5.772   2.469 -2.6899  0.7043  1.6361
 1834TIP3    H227138   1.354   5.690   2.596  2.1155 -2.3065  0.0977
 1835TIP3   OH227139   5.193   1.752   2.366 -0.4399  0.3353  0.7396
 1835TIP3    H127140   5.252   1.680   2.343 -1.8667 -1.5346  2.5707
 1835TIP3    H227141   5.245   1.808   2.423  0.3784  0.1880  0.1520
 1836TIP3   OH227142   0.871   4.830   2.015 -0.1708 -0.0427  0.5471
 1836TIP3    H127143   0.923   4.775   1.957  1.4709  1.0925  0.8645
 1836TIP3    H227144   0.841   4.771   2.084 -0.2599 -0.9390 -0.2331
 1837TIP3   OH227145   5.892   2.085   1.511 -0.2838 -0.0268 -0.4846
 1837TIP3    H127146   5.867   2.079   1.603  1.1018 -1.5712 -0.1559
 1837TIP3    H227147   5.810   2.094   1.464 -0.9790  1.5681  0.9229
 1838TIP3   OH227148   0.908   1.696   3.332  0.1541  0.2382  0.3944
 1838TIP3    H127149   0.925   1.624   3.391 -0.2904 -0.6051 -0.4845
 1838TIP3    H227150   0.814   1.691   3.313  0.0327  1.3010  0.6413
 1839TIP3   OH227151   1.273   2.305   8.866  0.2411  0.0308  0.0276
 1839TIP3    H127152   1.318   2.350   8.794 -0.4789 -0.0797 -0.5096
 1839TIP3    H227153   1.277   2.212   8.841  0.9146 -0.1276  0.6713
 1840TIP3   OH227154   5.685   0.129   0.891  0.1333  0.4103  0.5993
 1840TIP3    H127155   5.642   0.165   0.814  0.9412  1.2050  0.4973
 1840TIP3    H227156   5.776   0.118   0.865 -0.1513 -2.2359  0.4807
 1841TIP3   OH227157   1.717   1.376   2.197  0.1440  1.1116 -0.2826
 1841TIP3    H127158   1.630   1.336   2.199 -0.0199  1.4862  0.4256
 1841TIP3    H227159   1.776   1.304   2.217  0.0294  0.7949 -1.0459
 1842TIP3   OH227160   6.742   4.035   1.430 -0.2009 -0.2567 -0.3624
 1842TIP3    H127161   6.682   3.963   1.409  0.2088 -0.7997  0.3147
 1842TIP3    H227162   6.719   4.104   1.367 -2.9290  0.3483  1.0924
 1843TIP3   OH227163   6.480   6.465   2.166  0.2187 -0.2876 -0.3928
 1843TIP3    H127164   6.519   6.419   2.241  1.8669  1.2340 -0.2529
 1843TIP3    H227165   6.460   6.553   2.200 -1.9305 -0.5059 -0.9261
 1844TIP3   OH227166   1.547   3.889   1.383  0.6729  0.0607  0.3392
 1844TIP3    H127167   1.607   3.886   1.308  0.9309 -0.6304  0.5651
 1844TIP3    H227168   1.563   3.975   1.423 -0.3155  0.9435 -1.0677
 1845TIP3   OH227169   3.779   2.443   1.726 -0.8265 -0.1259  0.3805
 1845TIP3    H127170   3.748   2.408   1.809  0.4397  0.5452  1.1664
 1845TIP3    H227171   3.868   2.474   1.744 -1.2924  2.0350 -0.6621
 1846TIP3   OH227172   1.854   5.289   3.948  0.0882  0.1265  0.1131
 1846TIP3    H127173   1.784   5.233   3.913  0.1820  0.4187 -0.5480
 1846TIP3    H227174   1.841   5.373   3.905  0.8678  0.1767 -0.0327
 1847TIP3   OH227175   0.771   6.177   1.277 -0.0430 -0.5261  0.7322
 1847TIP3    H127176   0.712   6.145   1.345  1.5808 -2.2144  1.4531
 1847TIP3    H227177   0.846   6.213   1.325  0.1499  0.2843 -0.1502
 1848TIP3   OH227178   2.661   2.109   2.160  0.3403  0.2639 -0.0081
 1848TIP3    H127179   2.676   2.199   2.132 -0.4605  0.6920  0.9098
 1848TIP3    H227180   2.748   2.076   2.183  0.6740  0.6970 -0.6233
 1849TIP3   OH227181   0.350   6.176   1.026 -0.1289 -0.1357  0.0759
 1849TIP3    H127182   0.277   6.123   0.994  0.5156 -0.4600 -0.9010
 1849TIP3    H227183   0.348   6.164   1.121 -0.5414 -1.2116 -0.0509
 1850TIP3   OH227184   1.757   5.180   1.590 -0.3375  0.0786 -0.0840
 1850TIP3    H127185   1.766   5.110   1.525 -1.9481  1.4768 -1.9080
 1850TIP3    H227186   1.813   5.250   1.558  0.1213  0.1857  0.9324
 1851TIP3   OH227187   3.572   3.374   2.304  0.7879  0.6437  0.0117
 1851TIP3    H127188   3.650   3.429   2.301  0.8398  0.5899  0.3485
 1851TIP3    H227189   3.560   3.345   2.213 -1.6497  4.5295 -1.1503
 1852TIP3   OH227190   4.341   4.671   0.844 -0.3661 -0.0760 -0.7110
 1852TIP3    H127191   4.406   4.685   0.774 -0.1853 -1.3689 -0.8300
 1852TIP3    H227192   4.368   4.589   0.884 -0.5380  0.5982  0.8372
 1853TIP3   OH227193   0.279   3.726   2.079 -0.3556  0.2297  0.6972
 1853TIP3    H127194   0.353   3.677   2.115 -0.6170 -1.4011 -0.8340
 1853TIP3    H227195   0.315   3.772   2.003 -0.3687  1.6076  1.4821
 1854TIP3   OH227196   2.218   6.216   1.710 -0.6664 -0.1381  0.5386
 1854TIP3    H127197   2.259   6.131   1.730 -0.8078 -0.1559  0.7639
 1854TIP3    H227198   2.143   6.220   1.769 -0.6451  0.1557  0.5471
 1855TIP3   OH227199   1.542   1.481   2.776  0.3768  0.0954 -0.0748
 1855TIP3    H127200   1.616   1.452   2.722  1.1472  0.6206  0.6731
 1855TIP3    H227201   1.515   1.402   2.822 -0.8714 -0.5746 -1.8413
 1856TIP3   OH227202   1.273   1.034   8.802  0.2220  0.1120  0.2923
 1856TIP3    H127203   1.288   1.128   8.814 -0.2307  0.0926  1.0910
 1856TIP3    H227204   1.315   1.014   8.719 -0.1411  1.1385 -0.1686
 1857TIP3   OH227205   3.525   1.850   2.260  0.3216 -0.2467  0.2793
 1857TIP3    H127206   3.617   1.874   2.255  0.1840  0.1681 -0.6262
 1857TIP3    H227207   3.479   1.934   2.250 -0.1819  0.0555  3.8190
 1858TIP3   OH227208   1.110   0.081   0.470 -0.0280  0.3256 -0.2853
 1858TIP3    H127209   1.105   0.046   0.381 -1.0216 -1.4652  0.4441
 1858TIP3    H227210   1.165   0.019   0.518  2.0630  2.2266 -0.0240
 1859TIP3   OH227211   5.248   2.525   0.002  0.5632  0.5957  0.4929
 1859TIP3    H127212   5.259   2.463  -0.071 -1.6119  0.5190  0.1645
 1859TIP3    H227213   5.301   2.601  -0.023 -0.4053  0.7142 -1.3744
 1860TIP3   OH227214   3.886   2.229   2.671 -0.6252  0.1750  0.4052
 1860TIP3    H127215   3.806   2.196   2.711 -1.4366  1.8198  0.2309
 1860TIP3    H227216   3.859   2.306   2.621  0.7862 -0.2998 -1.1826
 1861TIP3   OH227217   6.228   4.268   3.410 -0.7994  0.0447 -0.4692
 1861TIP3    H127218   6.309   4.312   3.383  0.1805  0.8719  3.1788
 1861TIP3    H227219   6.256   4.180   3.435 -1.1629  0.0683  0.0354
 1862TIP3   OH227220   1.252   2.417   2.181 -0.2726  0.1392 -0.7788
 1862TIP3    H127221   1.240   2.497   2.131  2.2075  0.2612 -1.3182
 1862TIP3    H227222   1.172   2.366   2.165 -2.1703  2.6674  0.0514
 1863TIP3   OH227223   6.657   6.780   8.319 -0.5670 -0.4021  0.0455
 1863TIP3    H127224   6.667   6.783   8.414  1.3435  0.4101 -0.1448
 1863TIP3    H227225   6.696   6.697   8.293 -0.5120 -0.3351 -0.0889
 1864TIP3   OH227226   4.218   1.972   1.175 -0.3022 -0.0299  0.2107
 1864TIP3    H127227   4.197   1.879   1.165 -2.3650  0.5832 -2.0003
 1864TIP3    H227228   4.143   2.008   1.224  0.3850  0.5274  0.8718
 1865TIP3   OH227229   1.488   2.887   8.325 -0.0042 -0.0947  0.2142
 1865TIP3    H127230   1.395   2.910   8.323  0.0198 -0.0641 -0.8549
 1865TIP3    H227231   1.534   2.971   8.326  0.0489 -0.0256 -2.1533
 1866TIP3   OH227232   5.408   5.974   0.310 -0.2921 -0.5650  0.0518
 1866TIP3    H127233   5.355   6.050   0.332  0.3937 -0.1918  0.4432
 1866TIP3    H227234   5.486   6.010   0.268  0.1106 -1.0331  0.3773
 1867TIP3   OH227235   1.062   1.896   3.193 -0.3342 -0.0449 -0.0050
 1867TIP3    H127236   1.009   1.830   3.236 -0.9409 -0.1248 -0.8539
 1867TIP3    H227237   1.110   1.849   3.125  2.6243 -0.4360  2.1239
 1868TIP3   OH227238   5.965   6.376   1.036 -0.2444  0.5247 -0.1529
 1868TIP3    H127239   5.875   6.346   1.027 -0.4673  1.3654 -0.8227
 1868TIP3    H227240   6.016   6.296   1.048 -1.0392  0.0229 -0.0809
 1869TIP3   OH227241   1.629   1.876   2.147 -0.4190  0.5535  0.1960
 1869TIP3    H127242   1.672   1.797   2.179 -0.1566  1.6958  2.9623
 1869TIP3    H227243   1.692   1.916   2.088 -0.8333 -1.5827 -1.8060
 1870TIP3   OH227244   6.240   6.254   1.202 -0.1463 -0.8377 -0.2222
 1870TIP3    H127245   6.204   6.225   1.119 -0.8226  1.6050 -0.8534
 1870TIP3    H227246   6.321   6.299   1.179 -1.4029  1.7744  0.1004
 1871TIP3   OH227247   0.828   1.939   1.845 -0.3975 -0.1998 -0.2638
 1871TIP3    H127248   0.758   1.976   1.791  0.3251  0.4026 -0.8013
 1871TIP3    H227249   0.906   1.944   1.790  0.3797  0.5251  0.8757
 1872TIP3   OH227250   0.030   2.265   0.543 -0.2354 -0.2843  0.6101
 1872TIP3    H127251   0.083   2.342   0.562 -0.4064  0.0074 -0.0864
 1872TIP3    H227252  -0.047   2.299   0.496 -1.1942 -0.6588  1.8543
 1873TIP3   OH227253   5.368   0.225   2.065 -0.0608  0.1745 -0.1096
 1873TIP3    H127254   5.300   0.177   2.113  0.9749 -0.2943  0.9307
 1873TIP3    H227255   5.365   0.313   2.102  2.1197 -0.6857  2.4488
 1874TIP3   OH227256   1.865   0.040   3.461 -0.0100  0.1307 -0.9332
 1874TIP3    H127257   1.814  -0.021   3.407 -0.4058 -0.4206  0.0424
 1874TIP3    H227258   1.892  -0.012   3.536 -1.4626  1.4525  0.5877
 1875TIP3   OH227259   0.544   2.058   0.329  0.5287 -0.2029  0.8507
 1875TIP3    H127260   0.636   2.032   0.336  0.1513 -2.5989 -1.3946
 1875TIP3    H227261   0.545   2.136   0.274  1.2514  0.3993  1.6928
 1876TIP3   OH227262   0.844   5.057   2.701 -0.4978  0.0268 -0.3161
 1876TIP3    H127263   0.763   5.106   2.715  0.0254  1.0594 -0.8613
 1876TIP3    H227264   0.857   5.058   2.607  1.1201  1.4811 -0.1194
 1877TIP3   OH227265   6.295   3.231   3.538 -0.4749  0.1732 -0.3249
 1877TIP3    H127266   6.223   3.209   3.598 -1.3957 -0.2887 -1.5570
 1877TIP3    H227267   6.258   3.297   3.480  0.7556  1.4355  0.2652
 1878TIP3   OH227268   1.282   1.488   1.736  0.2024  0.0535  0.4685
 1878TIP3    H127269   1.192   1.508   1.709  0.0366  0.4467  1.2739
 1878TIP3    H227270   1.283   1.507   1.830  0.5343 -1.9997  0.9314
 1879TIP3   OH227271   5.111   3.527   2.217  0.1223  0.0878  0.5824
 1879TIP3    H127272   5.169   3.597   2.187 -0.3161  0.0237 -0.4300
 1879TIP3    H227273   5.023   3.555   2.191 -0.2686 -0.0155  1.7322
 1880TIP3   OH227274   1.438   4.033   3.087 -0.6551  0.0105  0.1269
 1880TIP3    H127275   1.345   4.019   3.104 -1.1744  1.1502 -1.5141
 1880TIP3    H227276   1.483   3.995   3.163 -2.5382  1.2016  1.9429
 1881TIP3   OH227277   6.455   1.811   2.940  0.4141 -0.0428  0.8250
 1881TIP3    H127278   6.365   1.779   2.940  0.3458  0.1561  0.5921
 1881TIP3    H227279   6.451   1.898   2.978  0.5732 -0.2082  1.2400
 1882TIP3   OH227280   4.554   6.064   0.333  0.0298 -0.5079  0.5144
 1882TIP3    H127281   4.572   6.042   0.424 -1.2443 -2.1306  0.4196
 1882TIP3    H227282   4.498   6.142   0.337 -1.5144 -1.6172  1.2323
 1883TIP3   OH227283   3.119   2.644   8.625 -0.2225  0.1518 -0.5455
 1883TIP3    H127284   3.096   2.728   8.665 -2.1882 -1.2204  1.4298
 1883TIP3    H227285   3.067   2.640   8.545  1.4911  1.6641 -1.7932
 1884TIP3   OH227286   4.771   3.210   1.723  0.0280  0.0722 -0.1397
 1884TIP3    H127287   4.827   3.287   1.716  0.3797 -0.0880  0.7167
 1884TIP3    H227288   4.797   3.154   1.650  0.6117  0.2370 -0.0619
 1885TIP3   OH227289   1.340   3.389   0.527 -0.3137 -0.3149  0.0154
 1885TIP3    H127290   1.405   3.343   0.580 -1.0257  0.3433  1.5095
 1885TIP3    H227291   1.332   3.335   0.448  1.0573 -1.1192  0.3848
 1886TIP3   OH227292   1.655   4.389   2.365 -0.9240 -0.4311  0.9754
 1886TIP3    H127293   1.707   4.469   2.370 -1.8607  0.2763 -0.1609
 1886TIP3    H227294   1.714   4.320   2.396  1.9071 -0.2220 -3.1090
 1887TIP3   OH227295   1.252   5.702   1.414  0.6108  0.7606  1.0716
 1887TIP3    H127296   1.209   5.779   1.450 -2.9734 -0.2166 -0.6642
 1887TIP3    H227297   1.258   5.641   1.488 -2.6394  0.3753  1.1626
 1888TIP3   OH227298   6.307   6.171   8.532  0.1971  0.4543  0.3245
 1888TIP3    H127299   6.302   6.080   8.501  0.5658  0.8435 -0.9162
 1888TIP3    H227300   6.389   6.175   8.581  1.7575  0.8324 -2.1584
 1889TIP3   OH227301   5.914   2.847   0.226 -0.6223  0.0209 -0.5152
 1889TIP3    H127302   5.818   2.850   0.233 -0.6500 -1.4714  0.0218
 1889TIP3    H227303   5.935   2.918   0.165 -2.0075  0.7855 -0.1638
 1890TIP3   OH227304   5.878   4.011   3.123 -0.2764 -0.2235  0.0363
 1890TIP3    H127305   5.919   4.091   3.091 -0.3887  0.3561  1.2647
 1890TIP3    H227306   5.846   3.967   3.045 -0.7494  1.2350 -0.6290
 1891TIP3   OH227307   2.757   6.384   0.239  0.3991  0.2491 -0.1133
 1891TIP3    H127308   2.801   6.407   0.158  1.5817 -3.4234 -0.7033
 1891TIP3    H227309   2.822   6.402   0.307 -0.5865  3.3103  0.1466
 1892TIP3   OH227310   1.781   2.969   1.691  0.6619  0.0743 -0.0081
 1892TIP3    H127311   1.745   3.013   1.769  0.5839  0.5305 -0.2996
 1892TIP3    H227312   1.853   3.025   1.663  1.0259 -0.3663  0.0379
 1893TIP3   OH227313   3.400   6.650   8.377  0.5191  0.4560 -0.1026
 1893TIP3    H127314   3.332   6.692   8.323  1.1122 -0.2371 -1.4539
 1893TIP3    H227315   3.433   6.720   8.433  0.7025  1.5473 -1.4943
 1894TIP3   OH227316   0.321   2.102   3.125  0.2117 -0.1993 -0.0686
 1894TIP3    H127317   0.391   2.062   3.073  1.6473  0.2403  1.4409
 1894TIP3    H227318   0.269   2.151   3.061 -0.7126 -3.1227 -1.7361
 1895TIP3   OH227319   3.026   1.440   0.049  0.5327 -0.8102  0.2305
 1895TIP3    H127320   2.948   1.459   0.101 -1.2772  0.6073 -2.7499
 1895TIP3    H227321   3.008   1.355   0.009 -0.3783  0.3084 -1.8491
 1896TIP3   OH227322   0.492   2.678   1.498 -0.2754  0.0528 -0.8319
 1896TIP3    H127323   0.436   2.728   1.557 -0.2166 -0.4051 -0.3746
 1896TIP3    H227324   0.580   2.687   1.535 -0.0935  0.5179 -1.3734
 1897TIP3   OH227325   3.149   5.203   1.415  0.2583 -0.5653 -0.4202
 1897TIP3    H127326   3.091   5.234   1.485  0.8400  0.3769 -0.3443
 1897TIP3    H227327   3.102   5.130   1.375 -0.8077 -0.0561 -0.1113
 1898TIP3   OH227328   2.670   0.987   2.470  0.1644  0.1269  0.9203
 1898TIP3    H127329   2.582   1.024   2.480  0.2943  0.1778  1.9619
 1898TIP3    H227330   2.666   0.938   2.388 -0.8340  0.1290  0.9588
 1899TIP3   OH227331   1.491   0.473   2.299 -0.2005  0.7742 -0.7236
 1899TIP3    H127332   1.479   0.463   2.394  0.5004  0.6796 -0.6399
 1899TIP3    H227333   1.406   0.502   2.267 -0.9188 -0.7523 -0.2887
 1900TIP3   OH227334   1.552   1.303   8.354  0.8355 -0.2989  0.4425
 1900TIP3    H127335   1.489   1.358   8.308  2.6486  1.3937 -0.1628
 1900TIP3    H227336   1.510   1.217   8.359 -0.9022  0.3816 -1.1769
 1901TIP3   OH227337   3.111   0.143   3.627 -0.0355 -0.9061 -0.3305
 1901TIP3    H127338   3.121   0.079   3.697 -1.8220  0.8687  1.6962
 1901TIP3    H227339   3.155   0.222   3.660 -0.2425 -0.2497 -1.5594
 1902TIP3   OH227340   2.090   5.620   8.577  0.5353  0.7492  0.1306
 1902TIP3    H127341   2.180   5.649   8.562  0.7678 -0.1613 -0.3359
 1902TIP3    H227342   2.084   5.536   8.530 -0.0441 -0.0528  1.5635
 1903TIP3   OH227343   1.260   3.338   3.208  0.1462  0.6876  0.2031
 1903TIP3    H127344   1.308   3.308   3.286 -0.3046 -0.1265  0.1800
 1903TIP3    H227345   1.182   3.283   3.205 -0.0609  1.0051 -0.5861
 1904TIP3   OH227346   5.250   6.670   3.083  0.4172 -0.2846  0.8555
 1904TIP3    H127347   5.339   6.702   3.066  1.0716 -2.0947  0.7251
 1904TIP3    H227348   5.209   6.665   2.997  0.6324 -0.7218  0.7812
 1905TIP3   OH227349   4.117   5.995   0.937 -0.7281  0.3890 -0.4321
 1905TIP3    H127350   4.038   5.941   0.942 -0.6399  0.0870 -1.8468
 1905TIP3    H227351   4.085   6.083   0.917 -0.7103  0.2011 -1.3386
 1906TIP3   OH227352   0.185   2.469   0.613  0.4817  0.4275  0.4066
 1906TIP3    H127353   0.158   2.551   0.654 -1.2648 -0.1598  0.5220
 1906TIP3    H227354   0.252   2.494   0.550 -0.6368  2.0729 -0.1855
 1907TIP3   OH227355   3.646   2.908   0.764 -0.1501  0.1354  0.0878
 1907TIP3    H127356   3.578   2.894   0.698 -0.7306  2.4124  0.1275
 1907TIP3    H227357   3.689   2.989   0.738  0.0108  0.7717  2.1650
 1908TIP3   OH227358   6.585   1.607   1.629  0.5916 -0.6264  0.1046
 1908TIP3    H127359   6.672   1.648   1.636  0.1675  0.3743 -0.4045
 1908TIP3    H227360   6.582   1.572   1.540  0.5275 -0.7989  0.1743
 1909TIP3   OH227361   1.979   5.777   3.771  0.2765  0.6253  0.2893
 1909TIP3    H127362   2.072   5.762   3.786  0.1830 -0.7064 -0.3373
 1909TIP3    H227363   1.949   5.822   3.850  1.3500  0.6513  0.6973
 1910TIP3   OH227364   2.746   0.817   0.670 -0.0189 -1.0635 -0.1466
 1910TIP3    H127365   2.674   0.796   0.729  0.5559  0.1547  1.0342
 1910TIP3    H227366   2.735   0.910   0.649  1.9204 -0.4795  1.1515
 1911TIP3   OH227367   4.089   2.662   3.909  0.4834  0.1527  0.1993
 1911TIP3    H127368   4.007   2.707   3.927  0.9535  0.9770  0.3230
 1911TIP3    H227369   4.155   2.713   3.956  1.2258  0.1878 -0.8645
 1912TIP3   OH227370   0.824   6.774   1.243 -0.1000  0.0673  0.3009
 1912TIP3    H127371   0.782   6.835   1.183  0.0809  0.4574  0.5638
 1912TIP3    H227372   0.877   6.717   1.187  0.9449  1.1253  0.1691
 1913TIP3   OH227373   1.651   4.137   1.220 -0.4950 -0.4798  0.0049
 1913TIP3    H127374   1.567   4.156   1.179 -0.8704  0.6873  1.2263
 1913TIP3    H227375   1.707   4.210   1.195  0.5913 -1.8507 -1.8101
 1914TIP3   OH227376   1.888   1.160   1.659 -0.2027 -0.2549 -0.4898
 1914TIP3    H127377   1.807   1.183   1.614 -0.6818 -1.5914 -0.3504
 1914TIP3    H227378   1.862   1.143   1.749  0.1564 -1.1111 -0.5391
 1915TIP3   OH227379   4.087   5.094   3.221 -0.2432 -0.0433  0.3381
 1915TIP3    H127380   4.172   5.129   3.191 -0.9351  2.6838  1.2674
 1915TIP3    H227381   4.054   5.044   3.146  1.5461  0.0078 -0.5382
 1916TIP3   OH227382   4.271   1.399   1.124  0.0648  0.1724  0.1895
 1916TIP3    H127383   4.352   1.360   1.157  0.4351  0.3005 -0.5479
 1916TIP3    H227384   4.261   1.363   1.036  0.0103  1.1579 -0.2181
 1917TIP3   OH227385   3.111   2.872   2.758  0.1662 -0.1139 -0.2808
 1917TIP3    H127386   3.168   2.949   2.759  1.8890 -1.3095 -1.3554
 1917TIP3    H227387   3.094   2.857   2.665 -0.6694 -0.6804 -0.0468
 1918TIP3   OH227388   1.163   2.002   0.408  0.0968 -0.1297 -0.0239
 1918TIP3    H127389   1.236   1.942   0.392  1.0322  0.8354  0.5163
 1918TIP3    H227390   1.102   1.951   0.461  1.2720 -0.3520  1.1625
 1919TIP3   OH227391   3.016   2.449   0.775 -0.0654  0.4882  0.8932
 1919TIP3    H127392   3.047   2.495   0.697  0.4368 -0.0890  0.7458
 1919TIP3    H227393   3.013   2.357   0.750 -1.0535  0.4296  1.1876
 1920TIP3   OH227394   0.962   0.862   1.023  0.8991 -0.5102 -0.3883
 1920TIP3    H127395   1.010   0.913   0.958  2.7014 -1.4070  0.1744
 1920TIP3    H227396   0.977   0.907   1.106 -1.0565  0.4011 -0.4834
 1921TIP3   OH227397   1.174   3.127   0.641  0.1061 -0.4559  0.0839
 1921TIP3    H127398   1.261   3.125   0.602 -0.5330  0.7409 -1.4924
 1921TIP3    H227399   1.113   3.127   0.567 -1.2146 -0.2611  1.1129
 1922TIP3   OH227400   3.883   3.446   3.360 -0.3804 -0.4800 -0.1748
 1922TIP3    H127401   3.860   3.397   3.280 -0.0533  0.8742 -1.1317
 1922TIP3    H227402   3.799   3.460   3.404 -0.8095  0.2268 -1.1710
 1923TIP3   OH227403   4.945   1.346   1.969  0.6740 -0.3739 -0.2173
 1923TIP3    H127404   4.904   1.313   1.889 -1.8499  0.1379  0.7499
 1923TIP3    H227405   4.965   1.267   2.020  3.0070 -0.7447 -1.5928
 1924TIP3   OH227406   3.751   0.766   3.525  0.7417 -0.3628 -0.6638
 1924TIP3    H127407   3.715   0.855   3.526 -2.7940 -1.5911 -1.8993
 1924TIP3    H227408   3.797   0.758   3.608 -1.2565  1.7555  0.7838
 1925TIP3   OH227409   5.634   4.888   2.929 -0.0645 -0.3949  0.3227
 1925TIP3    H127410   5.693   4.852   2.995 -0.1035 -0.2416  0.4406
 1925TIP3    H227411   5.680   4.964   2.894 -0.3513 -0.0551  0.6775
 1926TIP3   OH227412   1.979   2.001   2.824  0.5290 -0.0640 -0.1015
 1926TIP3    H127413   2.013   1.944   2.755  0.0504 -0.2457 -0.1893
 1926TIP3    H227414   1.886   1.980   2.829  0.5277  0.0669  0.4865
 1927TIP3   OH227415   4.846   0.907   1.992 -0.0919 -0.1766  0.4651
 1927TIP3    H127416   4.843   0.952   1.908 -1.2073 -0.8601  0.1148
 1927TIP3    H227417   4.937   0.914   2.020 -0.1900  2.2176  0.4101
 1928TIP3   OH227418   0.028   0.615   1.299 -0.0636  0.6898 -0.0333
 1928TIP3    H127419   0.028   0.541   1.239 -0.7635 -0.4351  1.2673
 1928TIP3    H227420   0.061   0.689   1.248  1.0877 -0.6125 -1.2511
 1929TIP3   OH227421   4.584   5.239   3.418 -0.3872  0.0446  0.4473
 1929TIP3    H127422   4.616   5.248   3.508 -1.7142  0.6364  0.9015
 1929TIP3    H227423   4.661   5.248   3.363  0.4739 -0.4773  1.5321
 1930TIP3   OH227424   1.697   2.692   8.264 -0.3899  0.8856 -0.1099
 1930TIP3    H127425   1.706   2.782   8.235 -0.9603  0.9834  0.0095
 1930TIP3    H227426   1.628   2.694   8.330 -0.8348  0.2718 -0.5337
 1931TIP3   OH227427   4.573   2.259   4.053  0.3405 -0.0920 -0.5261
 1931TIP3    H127428   4.517   2.327   4.090 -0.5280 -0.9758 -0.1774
 1931TIP3    H227429   4.643   2.307   4.008  0.7063  1.0235  1.1406
 1932TIP3   OH227430   0.325   5.917   0.463 -0.1743  0.3297 -0.1827
 1932TIP3    H127431   0.325   5.973   0.385 -1.9081  2.1311  1.0187
 1932TIP3    H227432   0.388   5.958   0.522 -0.3016  0.1238  0.0999
 1933TIP3   OH227433   1.329   0.176   0.916  0.3382  0.0214  0.0868
 1933TIP3    H127434   1.392   0.208   0.851 -0.3840 -1.4990 -1.4466
 1933TIP3    H227435   1.287   0.256   0.950  1.0483  0.8879 -0.9892
 1934TIP3   OH227436   2.347   2.781   0.495  0.1112 -0.3446 -0.3018
 1934TIP3    H127437   2.413   2.848   0.512  1.3951 -1.8587  0.8987
 1934TIP3    H227438   2.324   2.747   0.582 -0.8611 -1.1664 -0.8533
 1935TIP3   OH227439   1.567   0.880   4.254 -0.3114  0.0129 -0.0043
 1935TIP3    H127440   1.658   0.902   4.272 -0.3541  1.2998 -1.1746
 1935TIP3    H227441   1.519   0.912   4.331  0.2006 -0.6419  0.6004
 1936TIP3   OH227442   6.063   0.459   3.666  0.0859  1.1761 -0.0166
 1936TIP3    H127443   6.109   0.379   3.645 -0.0492  1.1578 -0.2553
 1936TIP3    H227444   6.105   0.492   3.745 -0.7924  0.1195  0.9173
 1937TIP3   OH227445   4.849   2.464   3.209 -0.0148 -0.5627 -0.5030
 1937TIP3    H127446   4.931   2.508   3.188  0.8601 -2.0828 -0.4234
 1937TIP3    H227447   4.865   2.422   3.294 -1.6878  1.0335  0.6833
 1938TIP3   OH227448   1.730   5.426   2.595  0.3371  0.1262 -0.0920
 1938TIP3    H127449   1.723   5.521   2.589  0.6404  0.1031 -1.0111
 1938TIP3    H227450   1.683   5.394   2.517  1.8549 -0.3959 -0.8322
 1939TIP3   OH227451   3.594   3.442   0.745 -0.3311  0.6095 -0.3577
 1939TIP3    H127452   3.682   3.419   0.717 -0.0831  1.5216 -0.3755
 1939TIP3    H227453   3.604   3.462   0.838 -0.4274  1.0959 -0.4461
 1940TIP3   OH227454   1.112   3.914   2.147  0.3951  0.0123 -0.0395
 1940TIP3    H127455   1.195   3.871   2.169  0.9059  0.5343 -0.8926
 1940TIP3    H227456   1.054   3.890   2.219  1.7924  1.0787  1.5199
 1941TIP3   OH227457   1.513   0.263   2.126  0.2926 -0.2680 -0.4404
 1941TIP3    H127458   1.509   0.334   2.189 -0.6800  0.7695 -1.6337
 1941TIP3    H227459   1.594   0.278   2.078  0.4136 -0.3505 -0.2638
 1942TIP3   OH227460   3.631   2.130   1.068 -0.0346 -0.7682 -0.0695
 1942TIP3    H127461   3.610   2.055   1.123  0.5177 -0.9279 -0.0709
 1942TIP3    H227462   3.553   2.186   1.072 -0.0161 -0.7987  0.8262
 1943TIP3   OH227463   4.375   4.579   1.257  0.0545 -0.1967  0.1879
 1943TIP3    H127464   4.381   4.491   1.220 -0.3689 -0.4574  0.7381
 1943TIP3    H227465   4.460   4.619   1.236  0.4686 -0.9270  0.4201
 1944TIP3   OH227466   4.105   6.665   3.974  0.5458  0.0442  0.1260
 1944TIP3    H127467   4.052   6.715   3.912 -0.6764  1.7705  2.4312
 1944TIP3    H227468   4.044   6.604   4.015  1.1523 -0.4616  0.3109
 1945TIP3   OH227469   2.181   0.316   8.789  0.4843  0.5148 -0.1888
 1945TIP3    H127470   2.182   0.280   8.877  1.7977  0.0323 -0.3734
 1945TIP3    H227471   2.249   0.384   8.790  0.8754  0.1507 -0.9517
 1946TIP3   OH227472   2.427   5.733   8.125 -0.0204  0.1190  0.0187
 1946TIP3    H127473   2.417   5.641   8.148  0.3319  0.3218  1.0315
 1946TIP3    H227474   2.482   5.732   8.046 -0.2371 -0.5358 -0.1352
 1947TIP3   OH227475   2.887   3.027   1.680 -0.3562  0.0560 -0.2871
 1947TIP3    H127476   2.916   2.964   1.614  0.1868  0.5021 -0.4867
 1947TIP3    H227477   2.798   3.001   1.701 -0.2131 -0.6395 -0.5343
 1948TIP3   OH227478   0.543   2.602   0.023 -0.1355 -0.5007 -0.6559
 1948TIP3    H127479   0.626   2.633  -0.014 -0.4467 -0.4003 -1.2811
 1948TIP3    H227480   0.482   2.675   0.010 -0.7762 -1.2099 -1.7903
 1949TIP3   OH227481   1.847   0.735   0.091 -0.4373  0.1606 -0.3624
 1949TIP3    H127482   1.833   0.645   0.120  0.6161  0.1868  0.2791
 1949TIP3    H227483   1.792   0.744   0.013 -0.9997 -0.8499 -0.1004
 1950TIP3   OH227484   5.293   2.596   3.447 -0.1336 -0.2331  0.3247
 1950TIP3    H127485   5.358   2.527   3.461 -0.0347  0.0353  1.2391
 1950TIP3    H227486   5.212   2.562   3.485  0.1004  0.4403  1.4793
 1951TIP3   OH227487   1.280   0.763   0.991  0.4887  0.1869 -0.1143
 1951TIP3    H127488   1.284   0.782   1.085 -0.0201  2.5152 -0.5063
 1951TIP3    H227489   1.250   0.845   0.951 -1.7738 -1.4852 -2.0983
 1952TIP3   OH227490   6.075   5.087   0.600 -0.2181  0.1891 -0.5237
 1952TIP3    H127491   6.097   5.057   0.512  0.1378 -0.9368 -0.0635
 1952TIP3    H227492   6.032   5.172   0.586 -0.1237  0.0510 -1.7713
 1953TIP3   OH227493   3.464   0.576   1.974 -0.2638 -0.0512  0.5084
 1953TIP3    H127494   3.409   0.519   1.922 -0.1843  0.1114  0.2408
 1953TIP3    H227495   3.403   0.632   2.023 -0.3374 -0.1137  0.4868
 1954TIP3   OH227496   1.463   5.039   0.339 -0.2286 -0.3014 -0.0293
 1954TIP3    H127497   1.392   5.099   0.315 -0.2912  1.7070  4.2116
 1954TIP3    H227498   1.426   4.952   0.328 -2.0809  0.5774 -1.2612
 1955TIP3   OH227499   2.634   6.211   2.780  0.0840 -0.4003  0.2621
 1955TIP3    H127500   2.698   6.281   2.765  0.7243 -1.1414 -0.5766
 1955TIP3    H227501   2.673   6.134   2.739 -0.6459 -1.2364  1.0920
 1956TIP3   OH227502   1.396   5.093   2.200  0.1311 -0.3492 -0.2707
 1956TIP3    H127503   1.353   5.124   2.121 -1.7928 -0.2054  0.7592
 1956TIP3    H227504   1.367   5.002   2.210  1.5838 -0.8654 -0.5158
 1957TIP3   OH227505   2.488   5.996   0.795  0.9038 -0.1270  0.4244
 1957TIP3    H127506   2.543   6.069   0.767 -0.3875  1.2757  1.3585
 1957TIP3    H227507   2.537   5.918   0.769  1.0024  0.9713 -3.3584
 1958TIP3   OH227508   1.664   2.008   4.005 -0.5600 -0.4865  0.2806
 1958TIP3    H127509   1.641   2.015   4.097 -0.2979 -0.0638  0.3172
 1958TIP3    H227510   1.749   2.051   3.998 -1.8372  2.1200 -0.6543
 1959TIP3   OH227511   6.513   3.220   0.659  0.7161 -0.5166  0.5292
 1959TIP3    H127512   6.516   3.312   0.682 -1.5466 -0.2751  0.0887
 1959TIP3    H227513   6.460   3.179   0.727  0.2471 -1.1654 -0.2024
 1960TIP3   OH227514   0.204   6.222   3.592  0.1022  0.1588  0.6291
 1960TIP3    H127515   0.153   6.148   3.560  0.5344  1.4066 -3.5503
 1960TIP3    H227516   0.295   6.197   3.574  0.4680  0.5620  1.8751
 1961TIP3   OH227517   1.164   5.690   3.037 -0.3267  0.3749  0.1197
 1961TIP3    H127518   1.084   5.675   3.086 -0.4662 -1.6360 -0.6147
 1961TIP3    H227519   1.152   5.776   2.997 -1.1462  1.0637  1.7623
 1962TIP3   OH227520   1.643   0.947   0.620  0.3166  0.3966  0.9154
 1962TIP3    H127521   1.727   0.991   0.634  0.2321  0.8677  0.0423
 1962TIP3    H227522   1.578   1.015   0.638  0.1947  0.8608 -1.0641
 1963TIP3   OH227523   3.092   5.622   1.945 -0.0897 -0.2184 -0.0694
 1963TIP3    H127524   3.150   5.696   1.964  0.5870 -0.7532  0.0166
 1963TIP3    H227525   3.112   5.599   1.854 -1.9260  1.1128 -0.8669
 1964TIP3   OH227526   4.464   5.150   0.254 -0.1434 -0.1663  0.1845
 1964TIP3    H127527   4.483   5.097   0.331  0.0578 -2.7802 -1.5264
 1964TIP3    H227528   4.371   5.133   0.235 -0.2995  0.7614  0.0596
 1965TIP3   OH227529   5.557   5.483   2.602 -0.2291 -0.1088 -0.4188
 1965TIP3    H127530   5.527   5.509   2.515 -1.1942 -0.1400 -0.0981
 1965TIP3    H227531   5.555   5.388   2.602  0.3450 -0.1274 -0.5527
 1966TIP3   OH227532   1.337   4.228   1.402 -0.0133 -0.3629 -0.6238
 1966TIP3    H127533   1.385   4.193   1.476 -1.4050  0.4042  0.7035
 1966TIP3    H227534   1.396   4.292   1.362  0.6984 -0.6775 -0.0850
 1967TIP3   OH227535   3.383   6.369   3.449 -0.2220 -0.3314  0.0244
 1967TIP3    H127536   3.388   6.375   3.545 -2.6690  0.8235  0.1333
 1967TIP3    H227537   3.378   6.275   3.432  2.0852 -0.6784  0.8354
 1968TIP3   OH227538   5.366   0.032   0.848 -0.1911  0.4000  1.0506
 1968TIP3    H127539   5.413   0.105   0.887 -0.6603  1.2512  0.0765
 1968TIP3    H227540   5.281   0.031   0.892 -0.0459  0.1923  1.3303
 1969TIP3   OH227541   0.952   5.122   3.490  0.3232 -0.2671 -0.0735
 1969TIP3    H127542   0.974   5.172   3.569  2.5198 -1.9716  0.4975
 1969TIP3    H227543   0.979   5.178   3.418 -1.2255  1.0907  0.3188
 1970TIP3   OH227544   3.765   5.314   0.466  0.0889  0.4531 -0.0983
 1970TIP3    H127545   3.827   5.339   0.535  0.3385 -2.6672  0.9681
 1970TIP3    H227546   3.680   5.318   0.509  0.3434 -2.7254  0.9867
 1971TIP3   OH227547   5.790   0.745   1.622  0.1775  0.2469  0.2584
 1971TIP3    H127548   5.731   0.670   1.631  0.4966  0.0599  0.8794
 1971TIP3    H227549   5.738   0.811   1.575  0.2989 -0.7735 -1.3737
 1972TIP3   OH227550   0.217   0.886   0.386 -0.1961 -0.0026  0.3713
 1972TIP3    H127551   0.265   0.834   0.321  0.1453 -0.7377  1.1863
 1972TIP3    H227552   0.272   0.962   0.401  0.4931 -0.5995  0.9349
 1973TIP3   OH227553   3.145   0.581   3.214  0.5919 -0.0529 -0.1062
 1973TIP3    H127554   3.207   0.589   3.287  1.2916  0.4126 -0.7451
 1973TIP3    H227555   3.095   0.502   3.235  3.1810 -2.0704 -0.8972
 1974TIP3   OH227556   2.186   5.147   2.164  0.2190 -0.5833  0.3794
 1974TIP3    H127557   2.246   5.121   2.094 -0.8514 -3.0772  0.2818
 1974TIP3    H227558   2.120   5.201   2.120  1.5115  0.9573  0.2250
 1975TIP3   OH227559   3.973   5.211   7.941 -0.1580 -0.1796  0.1205
 1975TIP3    H127560   3.986   5.117   7.951 -1.0822 -0.4018 -0.5733
 1975TIP3    H227561   3.924   5.220   7.859 -1.4655  0.7745  0.9602
 1976TIP3   OH227562   2.272   6.512   1.339  0.6508 -0.1653  0.6816
 1976TIP3    H127563   2.268   6.519   1.435 -0.0124  0.2945  0.6281
 1976TIP3    H227564   2.254   6.420   1.320 -0.0318 -0.0953  0.9649
 1977TIP3   OH227565   4.109   2.028   3.315 -0.2381  0.0982  0.6837
 1977TIP3    H127566   4.017   2.049   3.335 -0.0688  1.0158  0.5296
 1977TIP3    H227567   4.105   1.942   3.274 -1.2034  0.7438 -0.6730
 1978TIP3   OH227568   3.167   4.757   2.491  0.3748  0.2022  0.0330
 1978TIP3    H127569   3.231   4.712   2.436  0.3924  0.3530 -0.0671
 1978TIP3    H227570   3.192   4.849   2.488 -0.8149  0.4992 -1.3210
 1979TIP3   OH227571   4.385   4.239   8.467 -0.2719 -0.2582 -0.5120
 1979TIP3    H127572   4.470   4.275   8.440 -0.4799 -0.2693 -1.2047
 1979TIP3    H227573   4.329   4.315   8.481 -0.3921 -0.2713 -0.8998
 1980TIP3   OH227574   0.715   6.755   0.509 -0.1203  0.0237  0.6857
 1980TIP3    H127575   0.753   6.698   0.575  0.6508  0.0440  0.2842
 1980TIP3    H227576   0.672   6.696   0.447 -0.3780 -0.0315  0.9171
 1981TIP3   OH227577   0.571   0.653   1.398 -0.3985  0.0075  0.4532
 1981TIP3    H127578   0.632   0.637   1.470  1.3608  1.0732 -0.7011
 1981TIP3    H227579   0.620   0.630   1.320 -1.4523  0.9938 -0.5401
 1982TIP3   OH227580   2.491   1.682   0.802  0.5707 -0.1377 -0.1761
 1982TIP3    H127581   2.529   1.730   0.876  0.1366 -1.6468  1.0959
 1982TIP3    H227582   2.481   1.592   0.835 -1.3208 -0.4567 -1.4704
 1983TIP3   OH227583   5.264   6.673   3.362 -0.1093 -0.3009  0.3900
 1983TIP3    H127584   5.273   6.768   3.367 -0.8220 -0.2806  1.4538
 1983TIP3    H227585   5.255   6.655   3.268 -1.5164  0.8294  0.2877
 1984TIP3   OH227586   3.088   4.987   0.489  0.0279  0.5969 -0.6426
 1984TIP3    H127587   3.139   5.054   0.443  3.2914 -0.8198  0.5352
 1984TIP3    H227588   3.124   4.904   0.458 -1.2075 -0.5110  0.7094
 1985TIP3   OH227589   2.676   2.749   8.888 -0.4938 -0.2693 -0.3436
 1985TIP3    H127590   2.657   2.681   8.823 -0.7837 -0.9707  0.4541
 1985TIP3    H227591   2.597   2.753   8.942 -0.8680  1.4077 -0.9652
 1986TIP3   OH227592   6.394   0.149   8.177  0.6249 -0.0582 -0.3413
 1986TIP3    H127593   6.399   0.220   8.112  0.2556  2.1418  1.8702
 1986TIP3    H227594   6.485   0.133   8.201  0.6358  0.6487  0.1151
 1987TIP3   OH227595   2.798   0.901   4.378 -0.3024  0.0927 -0.1888
 1987TIP3    H127596   2.855   0.958   4.325  0.4879  0.0026  0.5393
 1987TIP3    H227597   2.851   0.824   4.396 -0.4493  0.2457  0.9722
 1988TIP3   OH227598   4.555   6.796   0.061 -0.1475  0.4143  0.4324
 1988TIP3    H127599   4.557   6.822  -0.031 -2.0886 -0.4305  0.1080
 1988TIP3    H227600   4.556   6.700   0.059 -0.0682  0.3902  1.2863
 1989TIP3   OH227601   5.428   4.610   0.216 -0.2498 -0.1914 -0.3066
 1989TIP3    H127602   5.514   4.569   0.213  0.1196  0.6044 -0.9392
 1989TIP3    H227603   5.410   4.620   0.310  1.5194  1.9790 -0.1203
 1990TIP3   OH227604   5.457   2.555   1.189 -0.6110 -0.0213 -0.2537
 1990TIP3    H127605   5.374   2.561   1.142 -0.2225  0.1490 -0.9213
 1990TIP3    H227606   5.498   2.641   1.177 -0.1617 -0.2345 -0.2453
 1991TIP3   OH227607   6.487   4.081   0.080  0.4395  0.2549  0.4663
 1991TIP3    H127608   6.450   4.054  -0.004 -0.6009  3.6007 -0.3168
 1991TIP3    H227609   6.548   4.152   0.057  3.2373 -1.3699  2.2578
 1992TIP3   OH227610   2.829   6.064   2.644  0.0208  0.8224  0.2119
 1992TIP3    H127611   2.919   6.098   2.642  0.3126  0.0587  0.2265
 1992TIP3    H227612   2.839   5.969   2.644 -0.8223  0.7040 -1.5137
 1993TIP3   OH227613   5.870   3.429   8.891  0.0088 -0.3150 -0.1695
 1993TIP3    H127614   5.790   3.412   8.842 -0.1653 -0.4882  0.1674
 1993TIP3    H227615   5.934   3.366   8.858  0.0222 -0.1372 -0.4811
 1994TIP3   OH227616   4.617   5.342   0.895 -0.4114  0.4909 -0.8278
 1994TIP3    H127617   4.608   5.432   0.864 -0.1801  1.1722  0.9384
 1994TIP3    H227618   4.669   5.350   0.975  0.6068 -1.3580 -1.2442
 1995TIP3   OH227619   5.128   3.581   0.431  0.1743 -0.0137  0.7940
 1995TIP3    H127620   5.172   3.516   0.486  3.5260  2.4001  1.2724
 1995TIP3    H227621   5.180   3.585   0.351 -1.7343  0.0876 -0.5354
 1996TIP3   OH227622   5.451   3.197   0.143  0.4925 -0.2657  0.2797
 1996TIP3    H127623   5.378   3.239   0.098  0.9783  1.6176  1.1563
 1996TIP3    H227624   5.515   3.267   0.157  2.8006 -1.9783 -1.0116
 1997TIP3   OH227625   2.782   4.333   1.680  0.3445 -0.6880  0.2447
 1997TIP3    H127626   2.719   4.388   1.635  0.4415 -0.0268  0.8999
 1997TIP3    H227627   2.864   4.381   1.675  0.3577 -0.5990  1.1062
 1998TIP3   OH227628   6.713   5.320   1.072 -0.3850  0.1869 -0.1906
 1998TIP3    H127629   6.739   5.290   0.985  0.8585 -1.2458  0.6362
 1998TIP3    H227630   6.635   5.373   1.056  0.5942  1.1276 -2.3154
 1999TIP3   OH227631   5.734   5.395   2.917 -0.2840 -0.5533 -0.2128
 1999TIP3    H127632   5.754   5.442   2.836  1.6923 -0.4418  0.2871
 1999TIP3    H227633   5.762   5.455   2.987 -3.5409  0.0935  0.6823
 2000TIP3   OH227634   5.465   0.276   3.133 -0.1625 -0.3884  0.3589
 2000TIP3    H127635   5.450   0.214   3.205  0.2365  0.1605  0.9325
 2000TIP3    H227636   5.386   0.271   3.080 -0.4659 -0.8122  0.8395
 2001TIP3   OH227637   6.735   1.884   3.554  0.2025  0.0995  0.6468
 2001TIP3    H127638   6.688   1.816   3.603  2.2843 -0.3185  2.2507
 2001TIP3    H227639   6.790   1.927   3.620  0.5028  1.9510 -0.7263
 2002TIP3   OH227640   1.501   6.604   1.859 -0.0059 -0.0251 -0.1413
 2002TIP3    H127641   1.407   6.623   1.859  0.1938  1.2891  2.0765
 2002TIP3    H227642   1.517   6.564   1.773 -2.5618 -0.2636 -0.5954
 2003TIP3   OH227643   0.423   1.242   8.491  0.1553 -0.2448  0.4125
 2003TIP3    H127644   0.457   1.325   8.524 -1.5212  0.4318  0.5243
 2003TIP3    H227645   0.500   1.194   8.461  1.5143  0.0330  3.2079
 2004TIP3   OH227646   4.541   0.577   2.480  0.2053 -0.1556 -0.3358
 2004TIP3    H127647   4.490   0.542   2.407  0.1107  0.0870 -0.3875
 2004TIP3    H227648   4.554   0.670   2.458  2.1991 -0.5965 -1.2095
 2005TIP3   OH227649   0.714   4.505   0.184  0.2327  0.2866  0.0772
 2005TIP3    H127650   0.692   4.571   0.250  0.1134  0.1319  0.1957
 2005TIP3    H227651   0.809   4.497   0.188  0.0923 -1.4307  1.9322
 2006TIP3   OH227652   2.559   5.071   0.568 -0.6253  0.4913  0.3993
 2006TIP3    H127653   2.538   5.122   0.490 -0.2981  0.1208  0.0621
 2006TIP3    H227654   2.482   5.017   0.583 -0.7522  0.6790  0.4280
 2007TIP3   OH227655   4.996   2.920   8.837 -0.3671  0.2043 -0.4246
 2007TIP3    H127656   4.990   2.866   8.916 -0.7867  0.9717  0.0806
 2007TIP3    H227657   4.980   2.859   8.765  0.4017 -0.5815  0.0480
 2008TIP3   OH227658   4.488   4.417   8.180  0.3980  0.1270  0.5216
 2008TIP3    H127659   4.456   4.390   8.095  1.9452  2.0779 -0.7762
 2008TIP3    H227660   4.409   4.442   8.229 -0.4095  0.5666 -0.9560
 2009TIP3   OH227661   4.498   2.203   2.020  0.1966  0.3731 -0.3647
 2009TIP3    H127662   4.560   2.271   2.045  1.1729  0.0431 -1.7342
 2009TIP3    H227663   4.435   2.247   1.964  1.5222 -0.0148 -2.2568
 2010TIP3   OH227664   3.165   6.239   8.382 -0.2923  0.5796 -0.0133
 2010TIP3    H127665   3.073   6.242   8.356 -0.2095  1.4160 -0.2573
 2010TIP3    H227666   3.174   6.158   8.432 -1.3033  0.8062  0.5579
 2011TIP3   OH227667   2.783   2.496   3.180 -0.1763  0.1238 -0.3339
 2011TIP3    H127668   2.721   2.424   3.192 -1.8784  1.5184 -0.1939
 2011TIP3    H227669   2.803   2.496   3.087 -1.0009  0.1047 -0.5166
 2012TIP3   OH227670   4.634   1.425   2.061 -0.3245  0.5485  0.3506
 2012TIP3    H127671   4.690   1.490   2.104  0.5665  1.5343 -2.0881
 2012TIP3    H227672   4.695   1.365   2.019 -0.8705  2.1231 -3.0733
 2013TIP3   OH227673   0.430   0.332   1.088  0.5645 -0.2182 -0.1111
 2013TIP3    H127674   0.409   0.265   1.152  0.6011  0.1799  0.3229
 2013TIP3    H227675   0.516   0.364   1.114  0.9851 -0.6717 -0.8892
 2014TIP3   OH227676   0.398   0.900   1.125  0.7783  0.3605 -0.2253
 2014TIP3    H127677   0.362   0.935   1.044  0.2648  0.2779 -0.0363
 2014TIP3    H227678   0.340   0.828   1.149 -0.1481  1.5200  1.1746
 2015TIP3   OH227679   4.531   5.451   1.665 -0.0383 -0.7033 -0.0085
 2015TIP3    H127680   4.436   5.442   1.657  0.0481 -0.7723 -1.0456
 2015TIP3    H227681   4.563   5.456   1.575  0.5578  3.3740  0.2055
 2016TIP3   OH227682   4.028   3.668   1.560 -0.4783  0.1830 -0.2450
 2016TIP3    H127683   4.058   3.681   1.650 -0.1296  1.4170 -0.5247
 2016TIP3    H227684   4.034   3.573   1.546  0.0315  0.0459  0.8340
 2017TIP3   OH227685   5.871   2.410   2.631 -0.0576  0.8585 -0.2053
 2017TIP3    H127686   5.888   2.489   2.683  1.6859  0.5929 -0.3110
 2017TIP3    H227687   5.958   2.373   2.615 -0.9071 -2.0135  1.2517
 2018TIP3   OH227688   5.362   2.628   1.925  0.1854 -0.6309  0.8315
 2018TIP3    H127689   5.298   2.561   1.952 -0.6312  0.0742  0.6767
 2018TIP3    H227690   5.446   2.595   1.958  0.0444 -2.4627 -0.5127
 2019TIP3   OH227691   5.942   2.211   1.933  0.0052 -0.5649 -0.0379
 2019TIP3    H127692   6.019   2.159   1.912  0.8325  0.7024 -0.2977
 2019TIP3    H227693   5.868   2.158   1.905  0.8721 -1.0593 -1.4813
 2020TIP3   OH227694   4.475   2.275   2.624  0.1142  0.0811 -0.0021
 2020TIP3    H127695   4.531   2.223   2.682 -2.0534 -0.1653  2.0404
 2020TIP3    H227696   4.412   2.212   2.588 -1.8558  0.9799  1.6373
 2021TIP3   OH227697   5.466   2.021   0.610 -0.6467 -0.3175  0.6252
 2021TIP3    H127698   5.446   2.041   0.518  1.0744 -0.0727  0.2520
 2021TIP3    H227699   5.419   2.087   0.660 -0.3597  0.5276 -0.1925
 2022TIP3   OH227700   3.557   3.326   0.013  0.0794  0.1791 -0.0590
 2022TIP3    H127701   3.614   3.344   0.087 -0.8551  1.1160  0.4617
 2022TIP3    H227702   3.519   3.411  -0.010 -2.2247 -0.6179  0.5640
 2023TIP3   OH227703   0.794   6.498   1.288  0.1656 -0.3644 -0.0911
 2023TIP3    H127704   0.764   6.586   1.310 -0.0227 -0.2662 -0.7272
 2023TIP3    H227705   0.715   6.445   1.285  0.4099 -0.8993  1.7486
 2024TIP3   OH227706   4.632   4.201   2.271 -0.4934  0.1930 -0.4059
 2024TIP3    H127707   4.611   4.108   2.266  2.9042 -0.6121 -3.7442
 2024TIP3    H227708   4.689   4.208   2.347 -0.3964 -0.5265 -0.4025
 2025TIP3   OH227709   0.620   1.077   8.366  0.6492  0.1759  0.2334
 2025TIP3    H127710   0.588   1.005   8.311  2.6688 -1.8082  1.5002
 2025TIP3    H227711   0.659   1.138   8.304 -0.9877  0.1847 -0.8644
 2026TIP3   OH227712   4.891   6.241   0.762  1.1068 -0.2017  0.4627
 2026TIP3    H127713   4.924   6.155   0.788 -1.2321 -1.0129  1.0233
 2026TIP3    H227714   4.924   6.253   0.673  0.1465 -2.4868 -0.2855
 2027TIP3   OH227715   3.874   4.242   2.846 -0.0601  0.3357  0.1569
 2027TIP3    H127716   3.792   4.200   2.872  1.5003 -2.1814  1.5225
 2027TIP3    H227717   3.931   4.169   2.822  1.7946  1.9977 -0.7511
 2028TIP3   OH227718   2.087   4.395   3.150  0.0561  0.2044 -0.3085
 2028TIP3    H127719   2.102   4.419   3.242  1.5655 -0.6559 -0.3056
 2028TIP3    H227720   2.057   4.304   3.154  0.8183 -0.0693 -0.6994
 2029TIP3   OH227721   1.020   6.783   1.494  0.4272  0.9825 -0.2478
 2029TIP3    H127722   1.111   6.774   1.466  0.0502  0.6417 -1.3910
 2029TIP3    H227723   0.972   6.802   1.414 -0.8242 -1.0219 -0.0520
 2030TIP3   OH227724   6.217   2.339   2.826 -0.0101  0.1307 -0.3840
 2030TIP3    H127725   6.290   2.384   2.870  0.4863  0.0920 -1.1545
 2030TIP3    H227726   6.232   2.246   2.843  0.3137  0.1000 -0.8296
 2031TIP3   OH227727   1.040   4.197   1.395 -0.5195 -0.3469  0.3582
 2031TIP3    H127728   1.133   4.203   1.417  0.1140  1.4018 -2.2713
 2031TIP3    H227729   1.009   4.120   1.442  2.0398 -0.5301  1.9515
 2032TIP3   OH227730   5.621   2.811   0.529  0.2153  0.6017  0.2183
 2032TIP3    H127731   5.617   2.828   0.623 -0.2824  1.3224  0.0695
 2032TIP3    H227732   5.648   2.894   0.490  2.9279 -0.3157 -0.0906
 2033TIP3   OH227733   6.365   5.932   8.119  0.2444 -0.1982 -0.2021
 2033TIP3    H127734   6.347   5.987   8.043  3.1987  0.5734 -0.4494
 2033TIP3    H227735   6.430   5.869   8.088 -0.9535 -2.0225  0.8535
 2034TIP3   OH227736   3.304   2.845   3.590  0.0436 -0.1810 -0.1557
 2034TIP3    H127737   3.279   2.783   3.658  0.8398 -0.2822  0.0536
 2034TIP3    H227738   3.349   2.792   3.524  0.5395  0.1289 -0.0770
 2035TIP3   OH227739   0.922   1.270   3.830  0.3420  0.0542  0.0477
 2035TIP3    H127740   0.970   1.300   3.908 -1.2280  3.1288 -0.0223
 2035TIP3    H227741   0.880   1.189   3.858  2.8239 -0.9903  1.1211
 2036TIP3   OH227742   3.091   4.078   2.425  0.2699  0.1192 -0.0192
 2036TIP3    H127743   3.078   4.037   2.340 -3.0265  1.1390 -0.1238
 2036TIP3    H227744   3.174   4.125   2.416 -0.5223  1.1974 -3.1459
 2037TIP3   OH227745   5.466   5.837   3.617 -0.0381  0.0820  0.0157
 2037TIP3    H127746   5.530   5.859   3.686  0.3588 -0.3820 -0.1931
 2037TIP3    H227747   5.480   5.743   3.602 -1.8452 -0.3934  1.0671
 2038TIP3   OH227748   6.421   1.386   2.747  0.6145 -0.2116 -0.3748
 2038TIP3    H127749   6.432   1.317   2.681  3.4369  0.5333 -0.8155
 2038TIP3    H227750   6.509   1.423   2.758 -0.7310  3.2909 -0.1420
 2039TIP3   OH227751   4.613   2.248   0.528 -0.6215  0.4390  0.2078
 2039TIP3    H127752   4.675   2.303   0.480  0.1981 -0.1833  0.5344
 2039TIP3    H227753   4.635   2.158   0.502 -0.0583  0.0760  1.8557
 2040TIP3   OH227754   5.720   4.350   1.417 -0.4337  0.2127  0.6135
 2040TIP3    H127755   5.767   4.281   1.370 -0.9021  1.0232 -1.1023
 2040TIP3    H227756   5.779   4.374   1.488  0.6858 -0.4578 -0.0565
 2041TIP3   OH227757   1.849   4.483   3.494  0.0394 -0.4493  0.0868
 2041TIP3    H127758   1.862   4.551   3.560 -0.4410 -1.5727  1.3937
 2041TIP3    H227759   1.865   4.401   3.541  0.2263 -1.2609 -1.3477
 2042TIP3   OH227760   4.936   6.206   2.020 -0.9341 -0.1142  0.0742
 2042TIP3    H127761   4.926   6.174   1.931  0.3217 -1.5237  0.3985
 2042TIP3    H227762   4.869   6.159   2.070 -0.1261 -1.0988  0.2637
 2043TIP3   OH227763   3.839   3.685   3.088 -0.2533  0.5649 -0.2806
 2043TIP3    H127764   3.773   3.618   3.107 -1.1412  0.7906 -2.3237
 2043TIP3    H227765   3.919   3.635   3.071 -0.6279  0.0746 -0.6647
 2044TIP3   OH227766   3.463   0.973   1.538  0.5252  0.1942  0.4312
 2044TIP3    H127767   3.384   0.925   1.562  0.8986  0.0199  1.3769
 2044TIP3    H227768   3.460   0.978   1.443  0.9828 -2.6197  0.1863
 2045TIP3   OH227769   1.995   4.446   1.037 -0.3824 -1.2713  0.5203
 2045TIP3    H127770   1.940   4.495   0.975 -2.8847  0.8723  4.0568
 2045TIP3    H227771   1.946   4.366   1.054 -1.7272 -0.1424  2.3714
 2046TIP3   OH227772   2.448   4.460   8.123  0.0641 -0.1647  0.7440
 2046TIP3    H127773   2.499   4.455   8.042 -0.5355 -2.1765  0.4403
 2046TIP3    H227774   2.511   4.492   8.189  0.6546  1.1169 -0.3910
 2047TIP3   OH227775   4.522   4.505   1.850  0.0266 -0.0753  0.2262
 2047TIP3    H127776   4.545   4.440   1.917 -1.0987  0.1092  0.8109
 2047TIP3    H227777   4.434   4.481   1.823  1.1055 -1.2862 -2.5935
 2048TIP3   OH227778   5.872   3.297   3.450 -0.3227 -0.6537  0.4856
 2048TIP3    H127779   5.833   3.384   3.450 -0.1770 -0.5674 -1.1556
 2048TIP3    H227780   5.797   3.237   3.446 -0.4299 -0.6323  1.7872
 2049TIP3   OH227781   0.069   6.233   8.150 -0.0922  0.1788 -0.2958
 2049TIP3    H127782   0.051   6.314   8.103  0.2261  0.3536 -0.1201
 2049TIP3    H227783   0.163   6.221   8.144 -0.1179 -0.1019 -0.1922
 2050TIP3   OH227784   3.690   3.815   1.140  1.0571  0.0213  0.5671
 2050TIP3    H127785   3.665   3.901   1.173  0.1670  0.3465 -0.8711
 2050TIP3    H227786   3.678   3.756   1.214 -1.7336  0.5610  0.6646
 2051TIP3   OH227787   4.539   1.545   1.098  0.0143  0.0299  0.4677
 2051TIP3    H127788   4.513   1.476   1.036  1.4985  0.0949 -0.2854
 2051TIP3    H227789   4.511   1.512   1.183 -2.4849  0.1395 -0.2250
 2052TIP3   OH227790   1.557   6.473   2.709  0.1424  0.0232  0.1467
 2052TIP3    H127791   1.585   6.382   2.714  0.8001  0.1758 -0.6410
 2052TIP3    H227792   1.520   6.492   2.796 -0.8240 -1.2546  0.0308
 2053TIP3   OH227793   0.220   5.930   1.388 -1.0534 -0.0510 -0.6284
 2053TIP3    H127794   0.162   5.856   1.368 -1.4335 -0.0244  0.2884
 2053TIP3    H227795   0.224   5.931   1.484 -1.7743  1.6691 -0.5949
 2054TIP3   OH227796   5.730   6.168   8.233  0.3681 -0.5716 -0.2069
 2054TIP3    H127797   5.753   6.189   8.142  0.4249  0.0785 -0.0477
 2054TIP3    H227798   5.736   6.251   8.279  0.6379 -0.9544  0.4628
 2055TIP3   OH227799   3.084   0.627   1.491  0.2687  0.2691  0.0150
 2055TIP3    H127800   3.005   0.580   1.461  0.8421 -0.0726 -1.0009
 2055TIP3    H227801   3.153   0.561   1.488  1.1488  1.2043 -1.6916
 2056TIP3   OH227802   2.183   6.044   2.442  0.3411  0.1483  0.6054
 2056TIP3    H127803   2.183   6.112   2.509 -0.5606  0.6147  0.1463
 2056TIP3    H227804   2.112   5.985   2.467 -2.2199  2.0513 -1.5926
 2057TIP3   OH227805   6.524   5.903   1.728 -0.4218  0.1313  0.0168
 2057TIP3    H127806   6.480   5.951   1.798 -1.6228 -0.2539 -0.4587
 2057TIP3    H227807   6.573   5.834   1.773  0.0496  0.8147  0.5800
 2058TIP3   OH227808   5.580   2.384   3.940  0.4217 -0.5705  0.0126
 2058TIP3    H127809   5.542   2.374   4.027  0.0757 -0.1391 -0.0816
 2058TIP3    H227810   5.653   2.445   3.953  0.1975 -0.2867 -0.0419
 2059TIP3   OH227811   6.477   0.951   3.349  0.4399  0.1543  0.7135
 2059TIP3    H127812   6.500   0.908   3.267  1.5383 -0.1119  1.1396
 2059TIP3    H227813   6.536   1.026   3.354 -1.3804  1.7019  0.0328
 2060TIP3   OH227814   0.503   5.484   2.764 -0.3765  0.3623  0.0364
 2060TIP3    H127815   0.525   5.522   2.849 -1.2774  0.4547  0.2337
 2060TIP3    H227816   0.535   5.394   2.769 -0.4520  0.3569  0.4847
 2061TIP3   OH227817   3.761   4.476   0.371 -0.6246  0.2048 -0.1083
 2061TIP3    H127818   3.806   4.391   0.378 -1.1129 -0.2108 -1.5533
 2061TIP3    H227819   3.826   4.533   0.330  0.0171  0.8275  1.6613
 2062TIP3   OH227820   0.897   5.706   2.701  0.5853  0.1002  0.4989
 2062TIP3    H127821   0.913   5.717   2.794 -0.3282  1.5590  0.5098
 2062TIP3    H227822   0.968   5.755   2.659  0.3030  0.4866  0.4615
 2063TIP3   OH227823   5.625   3.843   3.174 -0.0336 -0.1125  0.0897
 2063TIP3    H127824   5.713   3.807   3.181  0.6615  1.4299 -0.3122
 2063TIP3    H227825   5.599   3.862   3.264 -0.9284 -2.6748  0.4516
 2064TIP3   OH227826   5.437   5.490   1.239 -0.0074  0.2024  0.3290
 2064TIP3    H127827   5.356   5.471   1.285 -0.5706  2.0764  0.2079
 2064TIP3    H227828   5.410   5.508   1.149  0.8033 -1.1442 -0.2063
 2065TIP3   OH227829   3.782   2.362   2.477 -0.0342  0.3941  0.3094
 2065TIP3    H127830   3.758   2.454   2.489  0.9109  0.8456 -0.9829
 2065TIP3    H227831   3.710   2.325   2.425 -0.4561  0.3680  0.9014
 2066TIP3   OH227832   2.742   2.424   0.658 -0.2985  0.5182 -0.2327
 2066TIP3    H127833   2.757   2.428   0.752 -0.6375 -0.1174 -0.1470
 2066TIP3    H227834   2.771   2.509   0.625  0.7613  0.3865  0.3100
 2067TIP3   OH227835   6.066   1.867   1.422  0.3685  0.0386  0.6505
 2067TIP3    H127836   6.005   1.930   1.461 -0.7977  0.0373 -1.0681
 2067TIP3    H227837   6.074   1.798   1.488 -0.8652  0.4179  1.2326
 2068TIP3   OH227838   6.191   1.027   3.664 -0.5740  0.4709 -0.6097
 2068TIP3    H127839   6.112   0.975   3.681  0.0090  0.2086  1.5507
 2068TIP3    H227840   6.160   1.118   3.668 -0.3929  0.5430  3.4044
 2069TIP3   OH227841   3.000   0.816   1.886 -0.1194  0.3177  0.1424
 2069TIP3    H127842   2.965   0.760   1.817 -1.3871  0.3995  0.6868
 2069TIP3    H227843   2.953   0.899   1.875 -1.0577  0.0197  1.6793
 2070TIP3   OH227844   1.670   5.630   0.159  0.2077  0.2812 -0.0006
 2070TIP3    H127845   1.685   5.663   0.248  2.3645  0.9725 -0.5595
 2070TIP3    H227846   1.757   5.607   0.127 -0.3330  1.2176 -2.3656
 2071TIP3   OH227847   5.417   3.064   2.853  0.6529  0.3706 -0.5207
 2071TIP3    H127848   5.443   3.018   2.773 -0.2609  0.3157 -0.8021
 2071TIP3    H227849   5.497   3.105   2.884  0.9464  0.7075 -1.6729
 2072TIP3   OH227850   3.808   1.997   3.104  0.5936 -0.4414  0.2092
 2072TIP3    H127851   3.823   2.069   3.042  1.2384  0.1852  1.0685
 2072TIP3    H227852   3.790   1.921   3.049  0.0645  0.3341 -0.7257
 2073TIP3   OH227853   0.585   2.388   0.210  0.2559  0.0208 -0.5646
 2073TIP3    H127854   0.653   2.405   0.275 -0.0070 -0.5808 -0.1317
 2073TIP3    H227855   0.591   2.462   0.149  0.0068  0.9661  0.5418
 2074TIP3   OH227856   6.557   1.395   0.509 -0.0383 -0.0355  0.0902
 2074TIP3    H127857   6.463   1.388   0.493 -0.0277 -0.2278  0.1096
 2074TIP3    H227858   6.597   1.373   0.425 -0.0350  1.2742 -0.2790
 2075TIP3   OH227859   2.042   3.636   2.182 -0.2924 -0.1509  0.0414
 2075TIP3    H127860   1.999   3.551   2.170 -0.7002  0.2987 -2.1227
 2075TIP3    H227861   2.005   3.691   2.113  0.2600  1.6899  1.1470
 2076TIP3   OH227862   0.576   5.910   2.545  0.4199 -0.1584 -0.1446
 2076TIP3    H127863   0.644   5.947   2.489  0.9596 -0.6201  0.2024
 2076TIP3    H227864   0.494   5.934   2.501  0.8589 -1.6123 -1.8608
 2077TIP3   OH227865   5.045   6.025   3.566 -0.1579 -0.4227 -0.0666
 2077TIP3    H127866   5.010   5.937   3.553 -3.9252  1.0379 -1.1603
 2077TIP3    H227867   5.023   6.047   3.657 -1.7143  0.2487 -0.5590
 2078TIP3   OH227868   3.998   4.221   8.232 -0.0709  0.5359 -0.1092
 2078TIP3    H127869   3.958   4.224   8.145  0.2106  0.0972 -0.2538
 2078TIP3    H227870   3.986   4.131   8.261 -1.7881  1.1094  1.0781
 2079TIP3   OH227871   0.181   2.301   0.938 -0.0933 -0.3648 -0.1736
 2079TIP3    H127872   0.095   2.318   0.898 -0.4023 -1.3768  0.0226
 2079TIP3    H227873   0.240   2.362   0.895 -0.8121 -0.0246 -0.7011
 2080TIP3   OH227874   6.685   1.263   8.011 -0.3187  0.4891  0.3950
 2080TIP3    H127875   6.705   1.172   8.033  0.1299  0.6757  0.8033
 2080TIP3    H227876   6.622   1.258   7.940 -0.4766 -0.1423  0.5724
 2081TIP3   OH227877   3.028   1.362   0.608  0.6572  0.3038  0.3698
 2081TIP3    H127878   3.012   1.435   0.667  0.2478  0.1892  0.4016
 2081TIP3    H227879   3.105   1.388   0.558  0.0417  1.1111 -0.1749
 2082TIP3   OH227880   6.187   4.564   0.970 -0.8044  0.1286  0.5445
 2082TIP3    H127881   6.171   4.560   0.876  0.3483  0.7115  0.2986
 2082TIP3    H227882   6.117   4.620   1.004 -0.2644  1.3124 -0.2318
 2083TIP3   OH227883   2.918   5.037   1.638 -0.3882  0.0585  0.4185
 2083TIP3    H127884   2.887   4.994   1.559  2.2674 -1.7041  0.2034
 2083TIP3    H227885   2.916   5.130   1.617 -0.5488 -0.3194 -1.4024
 2084TIP3   OH227886   4.026   6.417   0.634 -0.0391  0.1476  0.2576
 2084TIP3    H127887   3.941   6.448   0.667  0.3159  2.0896 -0.5604
 2084TIP3    H227888   4.004   6.364   0.558 -0.5349  0.5780  0.0958
 2085TIP3   OH227889   6.493   5.941   2.509 -0.1523  0.6216  0.3782
 2085TIP3    H127890   6.504   6.000   2.434  0.7951 -0.0115  0.0068
 2085TIP3    H227891   6.511   5.854   2.474  1.6898  0.4473  1.6478
 2086TIP3   OH227892   6.246   5.988   2.644  0.3283 -0.0221  0.3303
 2086TIP3    H127893   6.213   5.974   2.555 -0.4092  0.0973  0.5819
 2086TIP3    H227894   6.332   5.946   2.644 -0.5856 -2.0250  0.2033
 2087TIP3   OH227895   3.221   5.018   2.363  0.4187  0.2534 -0.3634
 2087TIP3    H127896   3.284   4.959   2.403 -0.2307 -0.2113  0.0024
 2087TIP3    H227897   3.259   5.041   2.278  0.9081 -0.3032 -0.2996
 2088TIP3   OH227898   5.608   4.079   0.764 -0.1001  0.4347 -0.0574
 2088TIP3    H127899   5.545   4.039   0.704 -1.4721  1.1147  0.8802
 2088TIP3    H227900   5.556   4.140   0.816  1.4810  1.6068  0.2303
 2089TIP3   OH227901   5.252   1.035   3.012 -0.2821 -1.0875  0.1151
 2089TIP3    H127902   5.228   0.944   2.995 -0.2561 -0.7843 -1.6820
 2089TIP3    H227903   5.169   1.082   3.010 -0.6145 -1.3136  3.3039
 2090TIP3   OH227904   0.499   0.137   0.552 -0.0750  0.2197 -0.1735
 2090TIP3    H127905   0.565   0.067   0.552  1.3326  1.4858 -0.3044
 2090TIP3    H227906   0.502   0.172   0.641 -1.1826 -0.2377  0.0555
 2091TIP3   OH227907   2.282   4.704   1.522  0.4819 -0.0187  0.2409
 2091TIP3    H127908   2.203   4.746   1.556  0.5006  0.8175 -0.7163
 2091TIP3    H227909   2.346   4.774   1.514  1.2608 -0.6398  0.7398
 2092TIP3   OH227910   3.091   0.737   4.171  0.5993  1.1816 -1.0090
 2092TIP3    H127911   3.080   0.824   4.209 -1.3175  0.7960 -0.5654
 2092TIP3    H227912   3.059   0.677   4.238  1.2910  0.1719 -1.5548
 2093TIP3   OH227913   2.218   5.141   2.925  0.1372 -0.2722 -0.2391
 2093TIP3    H127914   2.189   5.088   2.999 -0.2336 -0.0938 -0.2517
 2093TIP3    H227915   2.228   5.078   2.853  2.0134 -0.6929  0.3501
 2094TIP3   OH227916   2.023   6.161   1.950 -0.1797  0.5203 -0.2676
 2094TIP3    H127917   2.070   6.239   1.979  0.8145  0.1620 -0.8599
 2094TIP3    H227918   2.053   6.091   2.008 -1.3835  0.6354  0.5349
 2095TIP3   OH227919   2.975   3.834   1.402  0.3152  0.9982  0.0012
 2095TIP3    H127920   2.934   3.755   1.368 -0.0684  1.0580  0.3025
 2095TIP3    H227921   3.068   3.824   1.383  0.7956 -0.9842  2.7159
 2096TIP3   OH227922   5.575   2.808   1.787 -0.2902  0.4770 -0.2679
 2096TIP3    H127923   5.523   2.727   1.795  0.7001 -0.0635  1.2906
 2096TIP3    H227924   5.565   2.834   1.696 -0.3286 -1.6291 -0.9197
 2097TIP3   OH227925   2.877   5.658   3.134  0.6173  0.5631  0.3422
 2097TIP3    H127926   2.801   5.697   3.177 -0.7274 -1.6198  0.0806
 2097TIP3    H227927   2.844   5.576   3.096  3.1817 -0.6436  0.5289
 2098TIP3   OH227928   2.062   3.954   0.527 -0.1721  0.1998 -0.4066
 2098TIP3    H127929   2.064   3.880   0.586 -1.8229  0.2088 -0.2924
 2098TIP3    H227930   2.059   4.031   0.584 -1.2038  0.2296 -0.4810
 2099TIP3   OH227931   1.619   3.464   7.871 -0.1598  0.3377 -0.9132
 2099TIP3    H127932   1.695   3.451   7.815 -0.2557 -2.3180 -0.5943
 2099TIP3    H227933   1.589   3.553   7.853  3.7470  2.0274 -0.0563
 2100TIP3   OH227934   4.081   2.542   3.575  0.5713  0.1926 -0.5379
 2100TIP3    H127935   4.040   2.490   3.507  0.4378  2.2428 -2.1142
 2100TIP3    H227936   4.008   2.577   3.626  0.6779 -2.1770  1.4842
 2101TIP3   OH227937   0.218   5.369   8.795 -0.1394 -0.5254 -0.4510
 2101TIP3    H127938   0.181   5.283   8.778  0.2244 -0.4852 -1.4857
 2101TIP3    H227939   0.212   5.415   8.711 -1.4990  0.9122  0.3893
 2102TIP3   OH227940   5.281   4.615   1.174 -0.0144  0.2097 -0.2891
 2102TIP3    H127941   5.213   4.557   1.208 -0.2461 -0.5772 -1.9756
 2102TIP3    H227942   5.363   4.583   1.213 -0.3824  0.0151  0.3315
 2103TIP3   OH227943   0.904   2.430   3.167 -0.3269  0.1008 -0.9713
 2103TIP3    H127944   0.986   2.454   3.209 -0.5065 -1.6014  0.4598
 2103TIP3    H227945   0.837   2.472   3.221 -0.4728 -0.3768 -0.7734
 2104TIP3   OH227946   3.765   5.692   1.990 -0.6383  0.7547  0.3014
 2104TIP3    H127947   3.737   5.763   1.932  0.1399  0.4153 -0.5106
 2104TIP3    H227948   3.860   5.687   1.977 -0.6737 -0.3596  0.4369
 2105TIP3   OH227949   5.268   2.730   8.148 -0.2277  0.1275  0.6033
 2105TIP3    H127950   5.311   2.653   8.185 -1.0123 -1.0310 -0.7880
 2105TIP3    H227951   5.175   2.716   8.164 -0.4015  0.6336  0.0738
 2106TIP3   OH227952   1.241   0.571   2.239 -0.1899  0.4109 -0.3081
 2106TIP3    H127953   1.244   0.666   2.230 -1.6307  0.4078 -1.0108
 2106TIP3    H227954   1.157   0.553   2.281  0.7437 -0.4688  1.2631
 2107TIP3   OH227955   5.892   6.685   2.778 -0.4394 -0.8337 -0.4414
 2107TIP3    H127956   5.852   6.734   2.850  1.0367 -0.2750  0.0438
 2107TIP3    H227957   5.890   6.593   2.808  0.1069 -0.6154  0.3096
 2108TIP3   OH227958   4.022   4.575   0.297 -0.1678  0.2484 -0.5841
 2108TIP3    H127959   4.058   4.505   0.243 -1.3822  0.8673 -2.2615
 2108TIP3    H227960   4.062   4.561   0.383 -0.0934 -2.2797 -0.9432
 2109TIP3   OH227961   4.216   3.394   0.126 -0.0205 -0.4852  0.2343
 2109TIP3    H127962   4.163   3.472   0.108  0.0414 -0.4699  0.1153
 2109TIP3    H227963   4.253   3.410   0.213 -0.3512 -0.5748  0.3931
 2110TIP3   OH227964   3.067   5.589   3.619  0.6623  0.0877 -0.0335
 2110TIP3    H127965   2.998   5.651   3.643  0.2004 -0.4696  0.0878
 2110TIP3    H227966   3.083   5.606   3.526  0.1015 -0.0299 -0.1538
 2111TIP3   OH227967   2.215   0.411   1.684 -0.3230  0.7105 -0.2391
 2111TIP3    H127968   2.285   0.470   1.710 -0.3142  1.5938 -2.1167
 2111TIP3    H227969   2.230   0.395   1.591 -1.0626 -1.2612 -0.0715
 2112TIP3   OH227970   3.292   5.193   1.855 -0.3210  0.0058  0.1603
 2112TIP3    H127971   3.382   5.190   1.823 -0.3065  2.1298 -0.1849
 2112TIP3    H227972   3.251   5.263   1.804 -2.3527 -1.2652 -0.0674
 2113TIP3   OH227973   1.244   1.493   3.377  0.0412  0.2860  0.5851
 2113TIP3    H127974   1.163   1.453   3.408 -0.3028 -0.0608 -0.7122
 2113TIP3    H227975   1.220   1.582   3.352 -0.1022 -0.0120 -0.3949
 2114TIP3   OH227976   0.730   1.667   2.964 -0.7494  0.7221 -0.0345
 2114TIP3    H127977   0.644   1.652   2.925 -0.4553  0.5044 -0.6168
 2114TIP3    H227978   0.718   1.650   3.057 -1.0100 -0.7564 -0.3096
 2115TIP3   OH227979   2.501   2.292   1.871 -0.5876 -0.2775  0.4312
 2115TIP3    H127980   2.412   2.260   1.890 -0.9509  0.5504  0.1680
 2115TIP3    H227981   2.535   2.320   1.956 -1.1012  0.6726  0.3352
 2116TIP3   OH227982   4.016   6.598   8.189  0.0324  0.1965 -0.0967
 2116TIP3    H127983   4.027   6.514   8.235 -0.9140  0.7681  1.2297
 2116TIP3    H227984   3.955   6.578   8.119 -0.4682 -0.1575  0.4301
 2117TIP3   OH227985   5.252   5.357   3.184 -0.1543  0.2347  0.3266
 2117TIP3    H127986   5.329   5.353   3.127 -0.1356 -0.4864  0.3919
 2117TIP3    H227987   5.208   5.438   3.158  0.2313  0.2798 -0.2213
 2118TIP3   OH227988   6.403   0.845   8.678 -0.6308 -0.0137  0.4234
 2118TIP3    H127989   6.324   0.791   8.667  0.0266 -0.8084 -0.6656
 2118TIP3    H227990   6.394   0.883   8.765 -0.8171 -2.4469  1.5708
 2119TIP3   OH227991   1.160   6.334   1.646  0.7287 -0.8420  0.1449
 2119TIP3    H127992   1.173   6.428   1.653 -3.8391  0.0069  0.5211
 2119TIP3    H227993   1.164   6.317   1.552  0.4455 -0.0087 -0.0282
 2120TIP3   OH227994   0.114   5.326   3.875 -0.6389  0.0436 -0.3888
 2120TIP3    H127995   0.102   5.407   3.825 -0.1325  0.2370 -0.2069
 2120TIP3    H227996   0.193   5.287   3.836 -0.3840  0.0745  0.0925
 2121TIP3   OH227997   0.718   4.195   4.014 -0.0858  0.1376 -0.5488
 2121TIP3    H127998   0.664   4.173   3.938 -0.6287  0.2808 -0.2089
 2121TIP3    H227999   0.692   4.284   4.038  0.5833  0.3545 -0.6197
 2122TIP3   OH228000   5.184   2.288   1.731  0.2159  0.2197  0.6522
 2122TIP3    H128001   5.174   2.214   1.672 -0.8116  0.3017  0.6925
 2122TIP3    H228002   5.275   2.285   1.760  0.3567 -0.6294  0.1352
 2123TIP3   OH228003   2.423   4.460   2.582  0.3642  0.1528 -0.1182
 2123TIP3    H128004   2.354   4.470   2.516  1.4784 -0.6130 -1.4535
 2123TIP3    H228005   2.471   4.542   2.580  0.5943  0.0125 -0.5178
 2124TIP3   OH228006   0.932   0.512   3.278 -0.3480  0.1541 -0.5654
 2124TIP3    H128007   0.922   0.559   3.360 -0.3363  0.3849 -0.6963
 2124TIP3    H228008   0.977   0.573   3.220  2.2197 -0.9812  0.1022
 2125TIP3   OH228009   0.226   3.455   0.771 -0.3487  0.3201  0.7035
 2125TIP3    H128010   0.177   3.425   0.848  0.6151 -0.4354  1.0395
 2125TIP3    H228011   0.238   3.549   0.786  0.1084  0.1237  1.6517
 2126TIP3   OH228012   0.043   2.133   2.912 -0.3277  0.5137 -0.4589
 2126TIP3    H128013  -0.014   2.183   2.970 -0.0621  1.0375 -0.6375
 2126TIP3    H228014   0.126   2.181   2.914  0.2765 -0.5134  0.1978
 2127TIP3   OH228015   0.762   1.130   3.443 -0.4208 -0.1904 -0.0181
 2127TIP3    H128016   0.795   1.209   3.486  0.2974 -0.9901  0.9587
 2127TIP3    H228017   0.686   1.160   3.393 -1.4374  0.7650  1.9787
 2128TIP3   OH228018   2.686   0.640   8.021  0.1602  0.0923  0.1742
 2128TIP3    H128019   2.647   0.725   8.000 -0.8310  0.0698  1.7220
 2128TIP3    H228020   2.776   0.646   7.990 -0.7569  0.4999 -2.6557
 2129TIP3   OH228021   4.223   0.463   3.255 -0.1133 -0.5386 -0.2872
 2129TIP3    H128022   4.292   0.530   3.256 -0.8673  0.3111 -1.7244
 2129TIP3    H228023   4.175   0.477   3.336 -0.6451  1.1216 -0.8439
 2130TIP3   OH228024   2.396   4.425   1.269  0.2051  0.5129 -0.1825
 2130TIP3    H128025   2.313   4.450   1.310  0.1707 -1.0668  0.8123
 2130TIP3    H228026   2.427   4.351   1.322  0.8165 -0.8030 -2.2690
 2131TIP3   OH228027   4.601   2.243   1.362 -0.4246  0.0665  0.3505
 2131TIP3    H128028   4.559   2.208   1.284 -0.7484  0.1945  0.4656
 2131TIP3    H228029   4.688   2.270   1.333 -0.8800  1.0149 -0.1962
 2132TIP3   OH228030   1.555   2.310   2.880  0.5211 -0.0243  0.4474
 2132TIP3    H128031   1.646   2.313   2.908  0.4467  0.0328  0.6941
 2132TIP3    H228032   1.510   2.370   2.940  0.1285 -0.9130  1.0711
 2133TIP3   OH228033   6.350   2.582   1.665 -0.0187  0.5698  0.5614
 2133TIP3    H128034   6.437   2.618   1.681  0.1209  0.3124  0.3853
 2133TIP3    H228035   6.298   2.656   1.634  0.5414  0.4181 -0.8165
 2134TIP3   OH228036   4.213   1.411   0.329 -0.1924  0.6735  0.6253
 2134TIP3    H128037   4.245   1.477   0.391 -2.6023  0.6642  1.9997
 2134TIP3    H228038   4.138   1.453   0.287 -0.4402 -0.4330 -0.0613
 2135TIP3   OH228039   2.619   4.614   8.272  0.5902 -0.3444 -0.2276
 2135TIP3    H128040   2.684   4.665   8.319  1.9792 -3.3133  1.3816
 2135TIP3    H228041   2.628   4.641   8.181  1.6456  1.7508  0.4431
 2136TIP3   OH228042   4.912   4.903   3.393  0.2003 -0.1364  0.0863
 2136TIP3    H128043   4.817   4.898   3.383  0.0689 -1.3499  1.6666
 2136TIP3    H228044   4.943   4.813   3.382  1.1048  0.1509  0.1444
 2137TIP3   OH228045   1.090   4.903   2.680 -0.6123 -0.3137  0.3806
 2137TIP3    H128046   1.094   4.859   2.766  0.8178  1.7054  1.4341
 2137TIP3    H228047   1.005   4.945   2.679 -0.4762 -0.0058  1.0230
 2138TIP3   OH228048   0.202   1.454   2.332 -0.4595  0.0348 -0.5870
 2138TIP3    H128049   0.151   1.525   2.370 -1.0692 -0.5356 -0.3264
 2138TIP3    H228050   0.253   1.495   2.262 -1.7783  0.4921 -1.3006
 2139TIP3   OH228051   5.295   3.266   3.879 -0.6313  0.2610 -0.2892
 2139TIP3    H128052   5.352   3.341   3.899 -0.8668  0.3090  0.2420
 2139TIP3    H228053   5.313   3.204   3.950 -0.7964  0.0220 -0.4583
 2140TIP3   OH228054   2.220   6.058   8.820 -0.0197  0.0851  0.0673
 2140TIP3    H128055   2.209   5.973   8.862 -0.2313 -0.2516 -0.6576
 2140TIP3    H228056   2.310   6.058   8.789 -0.3205 -0.2844 -0.8193
 2141TIP3   OH228057   1.362   6.455   2.385  0.2818 -0.3443 -0.7763
 2141TIP3    H128058   1.394   6.488   2.469  1.6458 -3.2578 -0.0427
 2141TIP3    H228059   1.436   6.466   2.325  0.6843 -1.7892 -0.5699
 2142TIP3   OH228060   2.338   5.856   1.564 -0.4267 -0.0973 -0.1330
 2142TIP3    H128061   2.379   5.820   1.485  2.2965 -0.9822  1.5274
 2142TIP3    H228062   2.282   5.786   1.597  1.5138 -1.3149  0.7588
 2143TIP3   OH228063   4.771   0.666   0.607 -0.0042 -0.7591  0.0753
 2143TIP3    H128064   4.679   0.682   0.589  0.1409 -2.1281 -2.3315
 2143TIP3    H228065   4.811   0.753   0.608 -1.3886 -0.0447  2.2163
 2144TIP3   OH228066   6.002   2.162   0.865 -0.1003  0.1781  0.4344
 2144TIP3    H128067   5.949   2.177   0.787  1.3892 -0.3926 -0.7235
 2144TIP3    H228068   6.015   2.249   0.902  0.0305  0.5797 -0.5294
 2145TIP3   OH228069   5.139   1.165   0.103 -0.3712 -0.2416  0.2677
 2145TIP3    H128070   5.068   1.106   0.078 -1.1526  0.6393  0.3616
 2145TIP3    H228071   5.159   1.142   0.194  0.2248 -1.2227 -0.0931
 2146TIP3   OH228072   0.435   5.102   4.058  0.3572 -0.0417  0.0980
 2146TIP3    H128073   0.472   5.180   4.099  0.0444  0.4225 -0.4916
 2146TIP3    H228074   0.443   5.117   3.964  0.4869 -0.8164 -0.0222
 2147TIP3   OH228075   4.233   2.117   8.625  0.1332  0.1967 -0.4315
 2147TIP3    H128076   4.270   2.033   8.652 -0.1472  0.2149  0.0149
 2147TIP3    H228077   4.309   2.171   8.603  0.4495  0.5705  1.4299
 2148TIP3   OH228078   4.391   1.289   0.684 -0.0176  0.3143  0.2861
 2148TIP3    H128079   4.309   1.329   0.656  0.4712  1.7830  0.8344
 2148TIP3    H228080   4.454   1.316   0.617  0.3794  0.6816  0.8065
 2149TIP3   OH228081   1.920   3.511   1.499 -0.1778  0.2851  0.0145
 2149TIP3    H128082   1.827   3.493   1.514 -0.0638  1.1047  1.9841
 2149TIP3    H228083   1.965   3.434   1.533 -0.1412 -0.5690 -1.8752
 2150TIP3   OH228084   5.524   4.197   2.360 -0.1393  0.0816  0.0514
 2150TIP3    H128085   5.438   4.161   2.335 -0.5705  1.3779 -0.4311
 2150TIP3    H228086   5.585   4.126   2.345 -0.4518  0.4426 -4.0835
 2151TIP3   OH228087   4.986   1.398   0.153  0.3873  0.4301 -0.0626
 2151TIP3    H128088   5.058   1.337   0.140  0.6163  0.8047 -0.5766
 2151TIP3    H228089   5.015   1.479   0.111  0.5334  1.2299  1.5231
 2152TIP3   OH228090   4.786   1.102   3.795 -0.0798 -0.0728 -0.1491
 2152TIP3    H128091   4.790   1.198   3.795  1.4995 -0.1092  1.1709
 2152TIP3    H228092   4.865   1.074   3.841 -1.1378 -1.9852  0.6142
 2153TIP3   OH228093   4.278   3.737   0.550  0.3066  0.2144  0.5265
 2153TIP3    H128094   4.201   3.740   0.606  1.1045  1.0144  1.6151
 2153TIP3    H228095   4.312   3.827   0.549 -0.1658  0.4583 -1.9817
 2154TIP3   OH228096   4.661   3.301   1.395  0.3329 -0.0455 -0.7437
 2154TIP3    H128097   4.709   3.244   1.455 -0.3073 -0.1112 -0.2810
 2154TIP3    H228098   4.694   3.389   1.414  1.0205 -0.2005 -1.1666
 2155TIP3   OH228099   5.739   6.635   0.659  0.9170 -0.3557 -0.8454
 2155TIP3    H128100   5.643   6.638   0.652  0.6358 -0.4069  2.0151
 2155TIP3    H228101   5.760   6.542   0.655  0.6447 -0.4764  0.2272
 2156TIP3   OH228102   4.303   2.237   1.689 -0.0818 -0.6115 -0.3321
 2156TIP3    H128103   4.308   2.307   1.753  0.2280 -2.3937  1.7132
 2156TIP3    H228104   4.394   2.214   1.671 -0.1926 -1.2897 -0.0454
 2157TIP3   OH228105   6.192   1.150   3.333  0.5412  0.3159 -0.5371
 2157TIP3    H128106   6.162   1.065   3.303 -1.0397  0.5427  0.3272
 2157TIP3    H228107   6.155   1.159   3.421 -0.1312  2.2873 -0.9747
 2158TIP3   OH228108   1.503   4.929   3.058 -0.1258 -0.1251 -0.1889
 2158TIP3    H128109   1.535   4.857   3.004  0.3165 -0.9763  1.1594
 2158TIP3    H228110   1.564   4.933   3.132 -0.0435  1.7469 -0.2885
 2159TIP3   OH228111   6.591   0.994   1.617 -0.2961  0.2146  0.4028
 2159TIP3    H128112   6.505   0.981   1.577  0.3219  1.3915 -1.3965
 2159TIP3    H228113   6.651   1.003   1.543  1.4806 -1.0150  1.6104
 2160TIP3   OH228114   5.764   1.113   8.623 -0.3378 -0.3227 -0.6453
 2160TIP3    H128115   5.802   1.193   8.659  0.5670 -0.8389 -0.4104
 2160TIP3    H228116   5.732   1.066   8.699  1.0217 -1.1295 -0.5295
 2161TIP3   OH228117   1.206   5.880   0.585  0.1726 -0.2492 -0.7607
 2161TIP3    H128118   1.288   5.860   0.539  0.6673 -0.4020  0.1660
 2161TIP3    H228119   1.140   5.885   0.515  1.4315  2.7041 -1.8694
 2162TIP3   OH228120   3.063   1.546   2.498 -0.3607 -0.8611  0.1650
 2162TIP3    H128121   3.082   1.454   2.511 -2.1246 -1.0622  1.7671
 2162TIP3    H228122   3.131   1.592   2.547 -1.3641 -1.4432  2.2131
 2163TIP3   OH228123   5.657   4.809   1.251 -0.3347 -0.7832  0.1635
 2163TIP3    H128124   5.615   4.781   1.171 -2.0166  1.1064  0.3214
 2163TIP3    H228125   5.731   4.862   1.222  0.1899 -1.6319 -0.1011
 2164TIP3   OH228126   2.044   5.059   8.798  0.2014  0.1528  0.4118
 2164TIP3    H128127   2.000   5.048   8.882 -1.9589 -0.8072 -0.7639
 2164TIP3    H228128   2.001   4.996   8.740  2.4996 -0.1204 -1.1124
 2165TIP3   OH228129   5.899   6.221   3.476  1.0081 -0.3453 -0.2765
 2165TIP3    H128130   5.888   6.198   3.383  1.1025 -0.8079 -0.1717
 2165TIP3    H228131   5.863   6.147   3.524  0.3299  0.1882  0.0655
 2166TIP3   OH228132   4.377   1.230   2.385  0.6262  0.4037 -0.4214
 2166TIP3    H128133   4.393   1.321   2.357 -1.6293  1.6871  1.9851
 2166TIP3    H228134   4.308   1.199   2.326  0.6468  0.6581 -0.5814
 2167TIP3   OH228135   2.850   5.050   0.399  0.0324 -0.1995 -0.2131
 2167TIP3    H128136   2.794   4.985   0.442  0.3040 -0.8406 -0.8117
 2167TIP3    H228137   2.926   5.058   0.457  0.8190 -1.7279 -0.9971
 2168TIP3   OH228138   1.994   5.241   1.783  0.6613  0.0633  0.2461
 2168TIP3    H128139   1.901   5.227   1.803  0.7037 -1.3239 -0.4398
 2168TIP3    H228140   1.996   5.252   1.688  1.2971 -0.8787  0.1421
 2169TIP3   OH228141   4.623   4.934   3.354 -0.5332 -0.9248  0.3662
 2169TIP3    H128142   4.600   5.023   3.327  0.2093 -0.3410  1.5494
 2169TIP3    H228143   4.539   4.888   3.361 -1.0003 -0.0487  0.6218
 2170TIP3   OH228144   3.341   1.766   3.651 -0.0171 -0.4103 -0.6842
 2170TIP3    H128145   3.390   1.695   3.692  1.8301  0.0535 -1.9356
 2170TIP3    H228146   3.400   1.842   3.658 -1.2492  0.5936 -0.8457
 2171TIP3   OH228147   2.186   5.015   3.200 -0.1441 -0.1184  0.0034
 2171TIP3    H128148   2.247   4.962   3.252  0.5689  0.0394 -0.6464
 2171TIP3    H228149   2.138   5.066   3.264 -1.4424 -2.1230  0.7263
 2172TIP3   OH228150   3.869   6.325   1.200 -0.4525 -0.4119 -0.4129
 2172TIP3    H128151   3.887   6.419   1.190  0.2356 -0.5178 -0.1734
 2172TIP3    H228152   3.938   6.293   1.258 -1.4260 -0.8141  0.5671
 2173TIP3   OH228153   6.160   2.611   1.884 -0.2641  0.1293  0.0791
 2173TIP3    H128154   6.158   2.532   1.939  1.2078 -0.9898 -1.3477
 2173TIP3    H228155   6.221   2.588   1.813 -1.1977  1.9116 -1.3742
 2174TIP3   OH228156   2.437   5.492   1.337 -0.6422  0.1272  0.0760
 2174TIP3    H128157   2.419   5.585   1.321 -3.3047 -0.4153 -0.5609
 2174TIP3    H228158   2.381   5.469   1.412  0.5761 -0.8132  0.7368
 2175TIP3   OH228159   1.501   1.977   3.039  0.3348  0.3143 -0.1285
 2175TIP3    H128160   1.522   1.918   3.111  0.5184 -1.3601 -1.4858
 2175TIP3    H228161   1.468   1.920   2.970  0.4060  1.8233 -1.4819
 2176TIP3   OH228162   6.283   5.892   0.249  0.7547 -0.0079 -0.5695
 2176TIP3    H128163   6.347   5.917   0.181  0.2419  1.0926 -0.6708
 2176TIP3    H228164   6.218   5.962   0.247 -0.4297 -1.0734 -0.4143
 2177TIP3   OH228165   3.770   3.239   1.370 -0.2184  0.6857 -0.2291
 2177TIP3    H128166   3.794   3.326   1.338 -0.4661  0.8264 -0.0241
 2177TIP3    H228167   3.853   3.191   1.373 -0.2700  0.4259 -1.8267
 2178TIP3   OH228168   4.941   3.576   2.001  0.0204  0.0989 -0.1337
 2178TIP3    H128169   4.889   3.649   1.968  0.0800  0.0632 -0.3051
 2178TIP3    H228170   4.999   3.553   1.929  1.0518  0.8572  0.4173
 2179TIP3   OH228171   1.156   4.387   1.767 -0.1306  0.1420  0.0309
 2179TIP3    H128172   1.202   4.303   1.766 -1.2578 -0.5049  0.0080
 2179TIP3    H228173   1.156   4.413   1.859 -0.3446 -0.2198  0.1365
 2180TIP3   OH228174   4.562   4.538   0.387 -0.1288  0.2909  0.4682
 2180TIP3    H128175   4.569   4.514   0.294 -0.6792 -2.9582  1.1284
 2180TIP3    H228176   4.468   4.540   0.405 -0.0455  1.4891  0.8718
 2181TIP3   OH228177   6.344   2.106   1.654  0.8174 -0.0367 -0.2528
 2181TIP3    H128178   6.367   2.045   1.584  0.0351  1.7709 -2.2006
 2181TIP3    H228179   6.286   2.057   1.712  0.2069 -1.1358 -1.7467
 2182TIP3   OH228180   5.606   4.551   8.836  0.2367  0.0233 -0.1741
 2182TIP3    H128181   5.640   4.548   8.747 -2.2241 -0.5520 -1.1773
 2182TIP3    H228182   5.625   4.640   8.866  0.0448  0.6360 -1.7616
 2183TIP3   OH228183   3.958   5.575   3.563 -0.0109 -0.3330  0.0441
 2183TIP3    H128184   3.962   5.511   3.491  1.3096 -0.3465  0.1010
 2183TIP3    H228185   3.958   5.521   3.642  1.9898 -0.3008  0.1183
 2184TIP3   OH228186   4.580   4.284   2.015  0.1936  0.0668  0.4145
 2184TIP3    H128187   4.607   4.273   2.106  1.0401 -0.6860  0.0888
 2184TIP3    H228188   4.488   4.257   2.013  0.8334 -2.3527  0.6010
 2185TIP3   OH228189   2.368   6.362   0.087 -0.3908  0.2906 -0.4111
 2185TIP3    H128190   2.340   6.292   0.028  0.7108 -1.4893  1.0860
 2185TIP3    H228191   2.432   6.412   0.035  1.9057 -2.2996 -0.3119
 2186TIP3   OH228192   1.802   6.219   2.393 -0.3204 -0.0352 -0.1716
 2186TIP3    H128193   1.758   6.250   2.313  0.1136  0.8363 -0.0841
 2186TIP3    H228194   1.890   6.195   2.364 -0.0751  0.5353  0.0852
 2187TIP3   OH228195   0.929   4.675   8.860 -0.2758 -0.1158  0.1582
 2187TIP3    H128196   0.991   4.625   8.913 -1.2141 -0.8856  0.5676
 2187TIP3    H228197   0.938   4.765   8.892 -0.1362 -0.4024  0.9626
 2188TIP3   OH228198   3.467   4.123   0.832 -0.2778  1.0566  0.5482
 2188TIP3    H128199   3.518   4.043   0.823 -0.7598  0.8376 -0.4572
 2188TIP3    H228200   3.525   4.184   0.877  0.2368  0.2720  0.9770
 2189TIP3   OH228201   3.718   2.369   0.481 -0.0420  0.1503 -0.2002
 2189TIP3    H128202   3.766   2.384   0.563  1.6769 -1.6451 -0.8042
 2189TIP3    H228203   3.626   2.373   0.507  0.3720  2.2920  1.2850
 2190TIP3   OH228204   3.693   1.475   0.865 -0.4530  0.1295 -0.0369
 2190TIP3    H128205   3.752   1.540   0.828 -1.0627 -0.0740 -1.4129
 2190TIP3    H228206   3.712   1.476   0.959 -0.2233  2.0531 -0.0705
 2191TIP3   OH228207   1.716   1.748   0.752  0.6807  0.2540 -0.2782
 2191TIP3    H128208   1.696   1.779   0.840  3.1075  2.4940 -0.3931
 2191TIP3    H228209   1.812   1.745   0.748  0.6633  0.5856 -2.9247
 2192TIP3   OH228210   0.741   2.836   3.279 -0.4556 -0.1275  0.2542
 2192TIP3    H128211   0.707   2.867   3.195  0.2045  1.4595  0.5337
 2192TIP3    H228212   0.676   2.866   3.343 -0.7670 -1.0025  0.3601
 2193TIP3   OH228213   5.015   5.854   1.204  0.0444 -0.2785  1.0045
 2193TIP3    H128214   5.015   5.917   1.276  1.8615  0.3918  0.4710
 2193TIP3    H228215   5.105   5.820   1.201 -0.8454 -2.9534  1.2656
 2194TIP3   OH228216   1.317   4.147   3.868 -0.1004  0.1586 -0.1727
 2194TIP3    H128217   1.254   4.190   3.927 -0.7434 -1.5725  0.4771
 2194TIP3    H228218   1.402   4.176   3.899 -0.3640 -1.4079  2.2979
 2195TIP3   OH228219   4.160   1.582   1.397 -0.2916  0.0213  0.4104
 2195TIP3    H128220   4.220   1.584   1.322  0.0019 -0.2036  0.6357
 2195TIP3    H228221   4.123   1.670   1.401 -0.1330  0.1022  0.1428
 2196TIP3   OH228222   4.670   2.634   3.085  0.0553 -0.5455 -0.1192
 2196TIP3    H128223   4.724   2.577   3.139  1.5202  0.4646 -0.4429
 2196TIP3    H228224   4.728   2.663   3.015 -1.2568 -0.3159 -1.1545
 2197TIP3   OH228225   3.611   5.738   3.288  0.3634 -0.1219  0.3363
 2197TIP3    H128226   3.597   5.805   3.221 -0.5522 -2.4714 -1.9561
 2197TIP3    H228227   3.523   5.720   3.323  0.1903 -1.8193 -0.8601
 2198TIP3   OH228228   0.582   5.003   2.859  0.1918  0.2180  0.2289
 2198TIP3    H128229   0.626   4.999   2.945  1.8227  0.8942 -0.5262
 2198TIP3    H228230   0.618   4.929   2.811 -1.1792 -0.5167  0.3139
 2199TIP3   OH228231   1.311   4.495   8.862  0.0622 -0.0741 -0.2844
 2199TIP3    H128232   1.295   4.584   8.893 -0.3120 -0.0755 -0.4641
 2199TIP3    H228233   1.391   4.468   8.908  0.0485  0.2678 -0.0509
 2200TIP3   OH228234   3.241   0.376   0.089 -0.6699 -0.9551 -0.4741
 2200TIP3    H128235   3.245   0.320   0.011 -2.1490 -1.1328 -0.4518
 2200TIP3    H228236   3.299   0.333   0.152  1.7439 -0.0201 -1.9023
 2201TIP3   OH228237   1.014   3.728   1.307 -0.2134 -0.0974  0.2398
 2201TIP3    H128238   1.034   3.636   1.320 -1.1749 -0.2607  0.6720
 2201TIP3    H228239   1.091   3.764   1.262 -0.0610 -1.2213 -0.4269
 2202TIP3   OH228240   4.845   6.648   2.928  0.3965 -0.2871  0.2002
 2202TIP3    H128241   4.822   6.560   2.898 -0.0321  0.0758 -0.5533
 2202TIP3    H228242   4.793   6.660   3.008 -0.2470 -0.3817 -0.1947
 2203TIP3   OH228243   2.752   1.085   2.101 -0.2535 -0.0456  0.5650
 2203TIP3    H128244   2.708   1.013   2.147 -0.8311  0.2800  0.5256
 2203TIP3    H228245   2.702   1.163   2.124  0.0190  0.2596  0.1386
 2204TIP3   OH228246   3.790   6.306   1.977 -0.1458  0.2244 -0.5034
 2204TIP3    H128247   3.741   6.301   1.895 -0.9306 -1.1708  0.0209
 2204TIP3    H228248   3.882   6.298   1.950 -0.4681 -1.8268 -1.1635
 2205TIP3   OH228249   6.624   4.928   8.758 -0.0266  0.5723  0.2452
 2205TIP3    H128250   6.638   4.891   8.670 -1.9624  0.5304 -0.0949
 2205TIP3    H228251   6.675   5.010   8.758  1.1704 -0.1459 -0.3767
 2206TIP3   OH228252   0.963   0.124   0.778 -0.1750 -0.5347  0.2994
 2206TIP3    H128253   0.907   0.199   0.758 -0.0426 -0.0348  1.6826
 2206TIP3    H228254   1.000   0.144   0.865 -0.5118 -2.4097  0.9252
 2207TIP3   OH228255   4.732   4.076   1.458 -0.3940 -0.7136 -0.3738
 2207TIP3    H128256   4.706   4.100   1.547  0.6317  2.3904 -0.8107
 2207TIP3    H228257   4.649   4.058   1.414 -1.3479  1.8707  0.1752
 2208TIP3   OH228258   3.689   0.336   0.757  0.5337  0.2575 -0.0161
 2208TIP3    H128259   3.618   0.282   0.792 -1.0960  2.0860 -0.2989
 2208TIP3    H228260   3.749   0.274   0.715 -0.6389 -1.3941  0.6631
 2209TIP3   OH228261   6.724   1.986   0.446  0.5073  0.6180 -0.0574
 2209TIP3    H128262   6.781   1.914   0.474  0.9121  0.7656 -0.4861
 2209TIP3    H228263   6.785   2.056   0.419  0.2004 -0.0625 -2.7842
 2210TIP3   OH228264   4.105   0.667   0.146 -0.7760  0.8130  0.2004
 2210TIP3    H128265   4.169   0.735   0.167  0.4139 -0.4130  0.6459
 2210TIP3    H228266   4.142   0.620   0.071 -0.8852 -0.2258  0.7735
 2211TIP3   OH228267   3.386   0.186   0.283  1.0989  0.1488 -0.2666
 2211TIP3    H128268   3.480   0.201   0.297  1.4824 -0.1314 -2.1593
 2211TIP3    H228269   3.382   0.099   0.243  0.0803  0.3151 -0.5419
 2212TIP3   OH228270   1.242   0.976   0.797 -0.4874 -0.6154 -0.6162
 2212TIP3    H128271   1.240   0.982   0.701 -1.8453  0.7780 -0.5439
 2212TIP3    H228272   1.333   0.991   0.820 -0.1098 -1.1354 -1.6970
 2213TIP3   OH228273   5.477   1.109   2.171 -0.2986 -0.3509  0.5929
 2213TIP3    H128274   5.487   1.069   2.084  3.0750  0.7932  0.3203
 2213TIP3    H228275   5.490   1.037   2.232  2.1744 -0.4067  0.0906
 2214TIP3   OH228276   1.905   4.725   1.387  0.0929  0.0435 -0.0741
 2214TIP3    H128277   1.813   4.718   1.361  0.1908  1.7303 -1.0094
 2214TIP3    H228278   1.954   4.705   1.307  0.4569  2.0720 -0.4094
 2215TIP3   OH228279   5.372   4.241   1.698 -0.0493 -0.0206  0.1848
 2215TIP3    H128280   5.347   4.329   1.725 -0.1585 -0.6776  2.4123
 2215TIP3    H228281   5.291   4.190   1.704  0.1869 -0.4568 -0.2483
 2216TIP3   OH228282   2.095   0.564   8.321 -1.1869 -0.3493  0.1931
 2216TIP3    H128283   2.016   0.512   8.337 -1.5111 -0.0543 -0.4166
 2216TIP3    H228284   2.073   0.620   8.247 -0.6801  0.3244  0.5338
 2217TIP3   OH228285   5.257   6.328   0.733 -0.6187  0.0303 -0.3366
 2217TIP3    H128286   5.233   6.268   0.803  0.9417  0.5636  0.6807
 2217TIP3    H228287   5.270   6.413   0.776 -1.3931  0.8034 -1.5401
 2218TIP3   OH228288   0.903   4.427   1.718  0.0047 -0.3240  0.9265
 2218TIP3    H128289   0.904   4.519   1.745 -1.9428  0.3311 -0.9442
 2218TIP3    H228290   0.995   4.404   1.710  0.6116  2.3242 -1.1021
 2219TIP3   OH228291   4.245   4.136   0.480  0.0998 -0.6836 -0.3752
 2219TIP3    H128292   4.252   4.104   0.390  2.7732  1.8710 -1.2326
 2219TIP3    H228293   4.311   4.087   0.529 -1.3104 -2.0271  0.2557
 2220TIP3   OH228294   4.951   1.972   2.425 -0.5539  0.3354 -0.0771
 2220TIP3    H128295   5.032   1.923   2.410  0.6550  1.6842  1.5250
 2220TIP3    H228296   4.968   2.059   2.388 -1.2951  0.6200  0.2179
 2221TIP3   OH228297   2.377   4.139   3.804  0.0487 -0.0714 -0.3515
 2221TIP3    H128298   2.305   4.106   3.749 -0.8192  2.1041 -0.6337
 2221TIP3    H228299   2.377   4.233   3.788  1.8514  0.1983  1.0104
 2222TIP3   OH228300   2.305   4.012   1.950  0.0475  0.0208 -0.2491
 2222TIP3    H128301   2.369   4.009   1.880  2.3284  1.7670  1.5896
 2222TIP3    H228302   2.265   3.925   1.951  2.1815 -1.0537 -1.6824
 2223TIP3   OH228303   3.474   5.933   8.850  0.3396  0.3355  0.0677
 2223TIP3    H128304   3.470   5.914   8.944 -0.6615 -2.1567 -0.3944
 2223TIP3    H228305   3.562   5.967   8.836  0.7620  0.0570  1.8056
 2224TIP3   OH228306   2.038   5.269   0.177 -0.1108 -0.1272 -0.3504
 2224TIP3    H128307   2.128   5.251   0.204  0.1657  0.3396 -0.9377
 2224TIP3    H228308   1.999   5.182   0.165  0.3228 -0.3337 -0.3076
 2225TIP3   OH228309   0.014   0.900   3.529  0.6921 -0.2734 -0.3919
 2225TIP3    H128310  -0.064   0.941   3.491  0.7797 -0.0856 -0.3703
 2225TIP3    H228311   0.058   0.859   3.455  1.2121  0.6566 -0.6128
 2226TIP3   OH228312   3.212   2.651   3.771 -0.1724  0.2106  0.4685
 2226TIP3    H128313   3.246   2.564   3.753  0.9016  1.0221 -1.8907
 2226TIP3    H228314   3.255   2.679   3.851 -0.5188 -1.3882  1.2330
 2227TIP3   OH228315   6.385   4.656   3.022  0.1499 -0.2651 -0.7102
 2227TIP3    H128316   6.396   4.630   3.113  0.6526  0.6202 -0.5177
 2227TIP3    H228317   6.296   4.692   3.018 -0.1546 -1.0041 -0.7454
 2228TIP3   OH228318   2.395   0.108   1.924 -0.3243 -0.5561  0.2520
 2228TIP3    H128319   2.441   0.191   1.940  3.3475 -2.1333 -0.9435
 2228TIP3    H228320   2.386   0.069   2.011 -1.3922  0.7118  0.7367
 2229TIP3   OH228321   3.095   2.895   8.700  0.2329  0.0378  0.2081
 2229TIP3    H128322   3.149   2.935   8.767 -0.6503 -0.6219  1.3419
 2229TIP3    H228323   3.025   2.959   8.685  0.7236  0.4249 -0.4991
 2230TIP3   OH228324   4.181   3.362   0.614  0.2296  0.3567  0.3714
 2230TIP3    H128325   4.200   3.311   0.536  1.8183  0.6858  0.5036
 2230TIP3    H228326   4.217   3.310   0.686 -0.7325  0.3133  0.8388
 2231TIP3   OH228327   5.324   5.890   3.394  0.6228  0.7833  0.0332
 2231TIP3    H128328   5.234   5.886   3.429  0.2563 -0.8561 -1.0003
 2231TIP3    H228329   5.380   5.878   3.471 -0.0859  0.3085  0.4940
 2232TIP3   OH228330   4.979   5.288   3.721  0.3257 -0.3769  0.4093
 2232TIP3    H128331   4.919   5.352   3.760  0.9480 -0.0662  0.8819
 2232TIP3    H228332   4.992   5.222   3.789  0.9868 -0.1192  0.5491
 2233TIP3   OH228333   1.525   4.624   1.151  0.2125  0.0203 -0.0418
 2233TIP3    H128334   1.542   4.559   1.083  1.0124 -0.1407  0.3018
 2233TIP3    H228335   1.461   4.683   1.112 -0.2366 -0.7492 -0.5005
 2234TIP3   OH228336   3.699   0.740   0.589  0.1658 -0.6636  0.3058
 2234TIP3    H128337   3.751   0.659   0.585 -1.3693 -1.6552 -0.5603
 2234TIP3    H228338   3.634   0.730   0.520  0.1346  1.4904 -0.0274
 2235TIP3   OH228339   6.173   2.505   3.095  0.4030 -0.6964 -0.7516
 2235TIP3    H128340   6.268   2.509   3.102  0.3460 -0.2561 -0.1582
 2235TIP3    H228341   6.147   2.594   3.074 -0.0872 -0.0865  2.0632
 2236TIP3   OH228342   0.675   6.788   2.139 -0.1161 -0.0629  0.3666
 2236TIP3    H128343   0.702   6.880   2.131  0.8651 -0.3799 -0.2039
 2236TIP3    H228344   0.729   6.753   2.210 -0.1168 -0.3173  0.2448
 2237TIP3   OH228345   5.032   4.127   2.003 -0.0873 -0.0894  0.6247
 2237TIP3    H128346   5.124   4.101   1.989 -0.4333 -1.4600  0.7301
 2237TIP3    H228347   4.987   4.096   1.925 -0.7094 -0.7890  1.2484
 2238TIP3   OH228348   4.391   6.079   2.681 -0.4052 -0.3720  0.0398
 2238TIP3    H128349   4.363   6.170   2.691 -0.8010 -0.3689 -0.9108
 2238TIP3    H228350   4.485   6.085   2.664 -0.3554 -0.1696  0.3838
 2239TIP3   OH228351   0.985   5.709   8.108  0.4331  0.3584  0.6852
 2239TIP3    H128352   1.016   5.755   8.187 -0.1803  0.4324  0.8882
 2239TIP3    H228353   0.961   5.778   8.048  1.3403  0.3060  0.2412
 2240TIP3   OH228354   1.256   4.407   0.929  0.3200 -0.0641  0.0198
 2240TIP3    H128355   1.211   4.344   0.985  0.5139 -1.3935 -1.2586
 2240TIP3    H228356   1.342   4.368   0.913  0.0583 -0.0244 -1.6529
 2241TIP3   OH228357   0.581   1.444   1.777  0.0031  0.4715  0.5650
 2241TIP3    H128358   0.623   1.477   1.698  0.0025 -0.6676  0.0625
 2241TIP3    H228359   0.574   1.350   1.762 -1.8216  0.4958  1.0621
 2242TIP3   OH228360   4.699   3.312   2.696 -0.5691  0.3345  0.0929
 2242TIP3    H128361   4.747   3.265   2.764 -1.5186 -0.9655 -0.0767
 2242TIP3    H228362   4.751   3.390   2.678  1.2621 -0.8279  0.1530
 2243TIP3   OH228363   1.501   5.187   0.582 -0.6080 -0.1069 -0.2665
 2243TIP3    H128364   1.495   5.123   0.511  1.6433  0.1547 -0.7855
 2243TIP3    H228365   1.541   5.264   0.541 -0.9229  0.7126  0.9143
 2244TIP3   OH228366   4.425   4.687   2.614  0.0971  0.2576 -0.1940
 2244TIP3    H128367   4.441   4.668   2.706  0.3524 -0.6344 -0.4108
 2244TIP3    H228368   4.330   4.695   2.608 -0.0326 -0.8706 -0.0466
 2245TIP3   OH228369   5.204   1.183   8.082 -0.1581  0.1127  0.5495
 2245TIP3    H128370   5.187   1.109   8.024  0.4330  0.5350 -0.1777
 2245TIP3    H228371   5.124   1.235   8.077 -0.7222 -0.6663  1.3613
 2246TIP3   OH228372   0.108   0.378   0.401 -0.0104  0.0264 -0.3162
 2246TIP3    H128373   0.200   0.402   0.402 -0.3715  1.5596 -0.6057
 2246TIP3    H228374   0.082   0.381   0.493 -0.3580  2.2934 -0.4107
 2247TIP3   OH228375   5.820   2.619   2.051  0.2974 -0.0546  0.0145
 2247TIP3    H128376   5.823   2.561   2.127  0.4708  0.3900  0.3488
 2247TIP3    H228377   5.851   2.565   1.979 -0.9029 -0.8151  0.0393
 2248TIP3   OH228378   1.975   0.181   1.543  0.4117  0.6834 -0.2931
 2248TIP3    H128379   2.047   0.168   1.605  0.5753  0.9311 -0.4337
 2248TIP3    H228380   1.934   0.263   1.570 -2.0622 -1.1059  2.0509
 2249TIP3   OH228381   1.559   3.810   1.086 -0.1578  0.7592 -0.1696
 2249TIP3    H128382   1.617   3.858   1.027  2.8861 -2.4736 -0.0937
 2249TIP3    H228383   1.488   3.780   1.029  0.9747  0.4575 -1.4747
 2250TIP3   OH228384   0.610   1.815   1.210 -0.0233 -0.3036  0.1738
 2250TIP3    H128385   0.539   1.801   1.273 -0.5688 -0.2607 -0.4235
 2250TIP3    H228386   0.612   1.910   1.197  0.8222 -0.1991  0.9530
 2251TIP3   OH228387   1.578   3.042   1.187 -0.4624 -0.1416  0.1344
 2251TIP3    H128388   1.573   3.050   1.283  0.6249  0.2384  0.1723
 2251TIP3    H228389   1.568   3.132   1.155 -0.3954 -0.2119 -0.0847
 2252TIP3   OH228390   4.583   4.552   8.651  0.0908  0.1447 -0.1818
 2252TIP3    H128391   4.580   4.474   8.596  0.9939 -0.9906  1.2997
 2252TIP3    H228392   4.650   4.607   8.611  1.0232 -0.8447 -0.0125
 2253TIP3   OH228393   5.589   5.331   3.883 -0.0140 -0.0391 -0.0265
 2253TIP3    H128394   5.508   5.349   3.931  0.7760 -1.8149  2.1762
 2253TIP3    H228395   5.579   5.240   3.854  0.9185 -0.0547 -0.3215
 2254TIP3   OH228396   0.021   5.772   1.482 -0.4504  0.1819 -0.6774
 2254TIP3    H128397  -0.057   5.771   1.427 -0.3297  0.3004 -0.8518
 2254TIP3    H228398   0.003   5.839   1.547 -1.8840 -1.9778  1.3199
 2255TIP3   OH228399   4.411   5.891   2.357 -0.1526  0.3686  0.2028
 2255TIP3    H128400   4.443   5.980   2.367 -1.1378  0.6585  0.8323
 2255TIP3    H228401   4.440   5.865   2.269  1.8394  0.5859  0.7430
 2256TIP3   OH228402   1.287   1.634   4.037  0.1947 -0.4773 -0.4078
 2256TIP3    H128403   1.201   1.623   3.997 -0.1074 -0.5131  0.2367
 2256TIP3    H228404   1.277   1.707   4.098  0.4156 -0.9379  0.2045
 2257TIP3   OH228405   2.304   5.468   2.981  0.0343 -0.0990 -0.1554
 2257TIP3    H128406   2.349   5.544   2.943  1.4973  1.0054  3.3654
 2257TIP3    H228407   2.217   5.470   2.941  0.5817  2.4304 -1.4396
 2258TIP3   OH228408   0.961   6.320   1.408  0.2904  0.2271  0.2517
 2258TIP3    H128409   0.919   6.402   1.382  1.6344  0.8509 -0.0273
 2258TIP3    H228410   1.045   6.321   1.362  0.3162 -1.3328  0.2115
 2259TIP3   OH228411   1.586   2.731   3.338  0.1476 -0.1882 -0.1554
 2259TIP3    H128412   1.629   2.811   3.369  0.2220 -0.0461 -0.6237
 2259TIP3    H228413   1.497   2.757   3.315  0.2086 -0.2131 -0.4247
 2260TIP3   OH228414   0.983   3.705   3.237  0.1451  0.4294  0.2868
 2260TIP3    H128415   0.979   3.700   3.333 -0.1352 -0.4997  0.2409
 2260TIP3    H228416   1.066   3.747   3.219  0.2010  0.6182  0.9439
 2261TIP3   OH228417   4.288   2.662   3.140 -0.1144  0.2096 -0.2704
 2261TIP3    H128418   4.312   2.639   3.230 -0.3990 -0.6393 -0.4068
 2261TIP3    H228419   4.301   2.582   3.090  3.3152  1.4533 -1.6961
 2262TIP3   OH228420   3.634   1.684   8.754  0.0236  0.0231  0.5332
 2262TIP3    H128421   3.718   1.700   8.711  1.0562 -0.4013  2.2762
 2262TIP3    H228422   3.596   1.611   8.705  1.1339 -0.4266  0.2971
 2263TIP3   OH228423   5.965   1.283   8.695 -0.3022  0.4810  0.3041
 2263TIP3    H128424   6.033   1.219   8.717  0.7651  0.6206 -2.1780
 2263TIP3    H228425   5.952   1.333   8.775 -0.5031 -2.1954  2.0675
 2264TIP3   OH228426   0.427   4.398   0.490 -0.1026  0.0403 -0.1190
 2264TIP3    H128427   0.355   4.404   0.553  0.5293 -1.4223  0.7813
 2264TIP3    H228428   0.505   4.421   0.540  0.2353  0.3233 -0.7601
 2265TIP3   OH228429   0.055   5.810   8.409 -0.3280  0.7251 -0.0633
 2265TIP3    H128430   0.066   5.717   8.431  1.2496  0.8023 -0.4112
 2265TIP3    H228431  -0.040   5.823   8.407 -0.5880 -0.9616 -0.3173
 2266TIP3   OH228432   3.734   1.836   1.187  0.2199 -0.6686 -0.1250
 2266TIP3    H128433   3.639   1.834   1.175  0.1264 -0.9739  0.5742
 2266TIP3    H228434   3.756   1.746   1.211  0.8532 -0.8798 -1.3970
 2267TIP3   OH228435   2.689   4.236   0.951 -0.4530  0.2249  0.0908
 2267TIP3    H128436   2.707   4.164   1.011  1.3429  0.2227 -0.3861
 2267TIP3    H228437   2.635   4.198   0.882  1.1441 -0.9419 -0.5913
 2268TIP3   OH228438   6.676   1.427   2.548  0.1198 -0.0383  0.5779
 2268TIP3    H128439   6.718   1.500   2.503 -0.5868  1.3686  2.1289
 2268TIP3    H228440   6.662   1.362   2.479  0.6261  1.3304 -0.8808
 2269TIP3   OH228441   0.795   2.653   2.960 -0.6894  0.1690 -0.4603
 2269TIP3    H128442   0.770   2.710   2.887 -1.6331  0.0574 -0.2378
 2269TIP3    H228443   0.712   2.627   2.999 -0.2333 -0.6902 -0.0433
 2270TIP3   OH228444   4.545   0.057   1.566 -0.0151  0.5701 -0.0982
 2270TIP3    H128445   4.480   0.047   1.636  1.6858  2.1908  1.8386
 2270TIP3    H228446   4.545   0.150   1.546  2.1719  0.7704  0.5183
 2271TIP3   OH228447   0.368   1.723   2.963 -0.3556 -0.1427  0.1766
 2271TIP3    H128448   0.433   1.766   2.906  0.6342 -2.4939 -0.5723
 2271TIP3    H228449   0.295   1.703   2.905 -1.6301  2.0066  0.9087
 2272TIP3   OH228450   6.238   4.892   1.288  0.3335  0.2462  1.0927
 2272TIP3    H128451   6.195   4.916   1.371 -0.8602  1.9327  0.0614
 2272TIP3    H228452   6.222   4.967   1.231 -0.1229 -1.4698 -1.1560
 2273TIP3   OH228453   3.501   2.552   2.257 -0.3207  0.1149  0.0246
 2273TIP3    H128454   3.551   2.474   2.278 -0.4765  0.4191  1.6161
 2273TIP3    H228455   3.468   2.584   2.341 -0.2716  1.8862 -0.5752
 2274TIP3   OH228456   4.627   4.370   8.462  0.0204 -0.2225 -0.3848
 2274TIP3    H128457   4.647   4.412   8.379  1.1483 -0.2070 -0.1133
 2274TIP3    H228458   4.712   4.342   8.497 -0.0743  2.0478  2.0007
 2275TIP3   OH228459   1.403   6.705   0.992  0.1675  0.0779  0.8363
 2275TIP3    H128460   1.495   6.676   0.992  0.1444 -0.2468 -1.6307
 2275TIP3    H228461   1.406   6.791   0.950 -0.5368  0.5855  1.8179
 2276TIP3   OH228462   1.558   6.580   0.073  0.4197  1.0655  0.3122
 2276TIP3    H128463   1.510   6.562  -0.008 -0.7882  0.7098  1.0784
 2276TIP3    H228464   1.649   6.560   0.051  0.4208  2.6674 -1.4626
 2277TIP3   OH228465   3.523   5.523   7.985  0.1028 -0.4090 -0.5493
 2277TIP3    H128466   3.616   5.508   8.002 -0.3511 -1.2927  1.5324
 2277TIP3    H228467   3.521   5.595   7.922  2.2122 -1.7134 -2.2663
 2278TIP3   OH228468   1.635   4.876   3.289 -0.4794 -0.4132 -0.6441
 2278TIP3    H128469   1.573   4.891   3.360  0.5344  1.5801 -0.1025
 2278TIP3    H228470   1.649   4.781   3.289 -2.9848 -0.8542 -0.3836
 2279TIP3   OH228471   3.253   2.613   2.715  0.5404  0.3217 -0.5050
 2279TIP3    H128472   3.221   2.523   2.727  2.6527 -0.7668 -2.3488
 2279TIP3    H228473   3.184   2.656   2.665  0.3948 -0.9077 -1.3930
 2280TIP3   OH228474   1.723   4.922   0.712  0.4606 -0.1152  0.0538
 2280TIP3    H128475   1.683   4.940   0.626  2.9793 -0.2881 -1.2510
 2280TIP3    H228476   1.816   4.911   0.693  0.8601 -1.9459  2.5796
 2281TIP3   OH228477   5.438   5.227   2.155  0.4206 -0.0932 -0.0448
 2281TIP3    H128478   5.490   5.230   2.075 -0.0125  1.7620 -0.3068
 2281TIP3    H228479   5.347   5.223   2.125  0.2181  1.3883  0.3136
 2282TIP3   OH228480   1.255   3.861   8.206  0.8774  0.1350 -0.4193
 2282TIP3    H128481   1.205   3.933   8.245 -0.3128 -0.8822 -0.0190
 2282TIP3    H228482   1.223   3.857   8.115 -0.4520 -1.0569  0.0626
 2283TIP3   OH228483   2.961   0.498   1.917 -0.3153 -0.3001  0.1943
 2283TIP3    H128484   2.921   0.495   1.830  0.7216  1.6109 -0.4139
 2283TIP3    H228485   2.903   0.555   1.968  0.4855  0.8168 -0.0944
 2284TIP3   OH228486   2.805   6.684   1.968  0.0053  0.3985  0.2856
 2284TIP3    H128487   2.810   6.655   2.059 -1.1345  1.9520  0.9002
 2284TIP3    H228488   2.711   6.680   1.947  0.4834 -2.5277 -1.7827
 2285TIP3   OH228489   3.488   5.523   1.364  0.4990 -0.4846  0.1249
 2285TIP3    H128490   3.518   5.542   1.275 -0.4246 -0.6742 -0.2459
 2285TIP3    H228491   3.394   5.507   1.354 -0.0529  1.6433  1.4624
 2286TIP3   OH228492   0.519   5.857   1.787  0.4090 -0.0623  0.2041
 2286TIP3    H128493   0.435   5.903   1.782  0.2195 -0.4166  0.1163
 2286TIP3    H228494   0.582   5.925   1.809  0.0127  0.1125  0.8362
 2287TIP3   OH228495   1.204   0.424   1.821 -0.4487 -0.4773  0.1513
 2287TIP3    H128496   1.125   0.397   1.774  0.7133 -1.2733 -1.4150
 2287TIP3    H228497   1.218   0.356   1.886  0.0852 -1.4479 -0.9529
 2288TIP3   OH228498   0.299   2.497   2.518 -0.1411 -0.3812  0.5288
 2288TIP3    H128499   0.220   2.551   2.518 -0.5694 -1.0010  0.9141
 2288TIP3    H228500   0.321   2.488   2.426 -0.1971  0.2575  0.4466
 2289TIP3   OH228501   2.010   2.863   3.179  0.4178 -0.2838  0.0708
 2289TIP3    H128502   2.000   2.916   3.257  1.8357 -1.3944  1.0524
 2289TIP3    H228503   2.099   2.878   3.150  0.2453 -0.7029 -0.7220
 2290TIP3   OH228504   4.827   1.623   1.612  0.3516  0.1010  0.0108
 2290TIP3    H128505   4.776   1.689   1.657 -0.5046  0.5016 -1.4676
 2290TIP3    H228506   4.918   1.647   1.630  0.0501  1.2564  0.1043
 2291TIP3   OH228507   0.844   6.199   2.770 -0.3864 -0.3029  0.4512
 2291TIP3    H128508   0.790   6.269   2.806 -1.0674 -0.5660 -0.0330
 2291TIP3    H228509   0.804   6.179   2.686  1.0906  0.1977 -0.3955
 2292TIP3   OH228510   3.381   1.442   3.783 -0.2470 -0.2402 -0.3229
 2292TIP3    H128511   3.403   1.374   3.847 -0.0678 -1.0155 -1.1831
 2292TIP3    H228512   3.460   1.496   3.778 -0.9661  1.0997  1.6181
 2293TIP3   OH228513   0.142   2.252   3.322  0.0966 -0.0867  0.3491
 2293TIP3    H128514   0.187   2.197   3.258 -0.6445 -1.2319  0.7789
 2293TIP3    H228515   0.144   2.201   3.403 -0.7892  0.4371  0.7109
 2294TIP3   OH228516   6.386   4.284   0.236  0.2284  0.2426 -0.3669
 2294TIP3    H128517   6.412   4.302   0.326  0.6826 -2.6665  0.1679
 2294TIP3    H228518   6.414   4.194   0.219 -2.3000 -0.2969 -2.4736
 2295TIP3   OH228519   0.453   4.315   1.407  0.2534 -0.5268 -0.0673
 2295TIP3    H128520   0.406   4.335   1.488  0.0219  1.0093 -0.5407
 2295TIP3    H228521   0.545   4.306   1.434 -0.1331 -2.5613  0.7120
 2296TIP3   OH228522   1.639   6.183   1.223  0.3207  0.4260 -0.2302
 2296TIP3    H128523   1.647   6.175   1.128 -0.6929  2.7823 -0.5807
 2296TIP3    H228524   1.557   6.231   1.235 -1.1545 -2.3625  1.9989
 2297TIP3   OH228525   1.112   3.427   2.418  0.5630 -0.3875  0.8165
 2297TIP3    H128526   1.122   3.521   2.399  2.3807 -0.8941 -1.0997
 2297TIP3    H228527   1.178   3.410   2.486  1.0854 -0.4960  0.2883
 2298TIP3   OH228528   6.635   2.861   0.590  0.3545 -0.1975  0.3516
 2298TIP3    H128529   6.546   2.868   0.554 -0.1747  0.6541  1.7483
 2298TIP3    H228530   6.687   2.922   0.538 -0.3182  0.7506  0.7576
 2299TIP3   OH228531   1.002   0.974   1.398  0.3295 -0.3112  0.0900
 2299TIP3    H128532   1.008   0.901   1.459 -0.7953 -0.8672 -0.4535
 2299TIP3    H228533   0.989   1.051   1.454 -1.0101 -0.8543  0.5638
 2300TIP3   OH228534   1.024   3.792   0.234 -0.1072  0.2675  0.1424
 2300TIP3    H128535   0.998   3.870   0.186  2.1380  0.0592 -1.5460
 2300TIP3    H228536   0.945   3.737   0.235 -1.2603  1.8686 -0.0010
 2301TIP3   OH228537   2.947   1.125   2.460 -0.1213 -0.2584 -0.0287
 2301TIP3    H128538   2.855   1.148   2.446  0.1055  1.7865  1.3805
 2301TIP3    H228539   2.950   1.030   2.447 -2.1394 -0.1881 -1.4502
 2302TIP3   OH228540   4.587   1.640   2.878  0.1347  0.3515 -0.0984
 2302TIP3    H128541   4.530   1.717   2.875 -1.0060 -0.4486  0.5562
 2302TIP3    H228542   4.545   1.576   2.820  0.5683 -0.1182  0.0972
 2303TIP3   OH228543   2.593   6.722   2.965 -0.6164  0.3757 -0.7635
 2303TIP3    H128544   2.502   6.727   2.994 -0.3055  2.4532  0.0212
 2303TIP3    H228545   2.644   6.732   3.045  0.3461 -0.8010 -1.1902
 2304TIP3   OH228546   3.657   5.880   1.811 -0.3584  0.0467 -0.3061
 2304TIP3    H128547   3.654   5.960   1.759 -0.9969  0.8651  0.9337
 2304TIP3    H228548   3.602   5.818   1.763  0.1788  0.3135 -1.2999
 2305TIP3   OH228549   6.189   4.052   1.100 -0.1644 -0.7140 -0.8927
 2305TIP3    H128550   6.228   4.066   1.013  1.3542 -2.5798 -0.5704
 2305TIP3    H228551   6.206   4.133   1.147 -1.7824  0.6882 -2.5397
 2306TIP3   OH228552   1.744   6.328   2.148 -0.1147 -0.1704 -0.0823
 2306TIP3    H128553   1.766   6.327   2.055 -2.0721  1.2635 -0.6242
 2306TIP3    H228554   1.780   6.410   2.181 -1.2093  0.3221 -0.0821
 2307TIP3   OH228555   3.510   1.658   2.021  0.6169  0.1864 -0.7472
 2307TIP3    H128556   3.532   1.681   2.111  1.1332 -0.7493 -0.6277
 2307TIP3    H228557   3.423   1.696   2.008  0.4732  0.2047  0.1919
 2308TIP3   OH228558   1.029   0.244   0.113  0.1844  0.0219 -0.8493
 2308TIP3    H128559   1.100   0.268   0.053 -0.0854 -1.7064 -1.9308
 2308TIP3    H228560   1.049   0.291   0.194  1.6678  0.8361 -1.6492
 2309TIP3   OH228561   3.744   4.539   1.886  0.2011  0.2082  0.5262
 2309TIP3    H128562   3.767   4.599   1.957  2.7748  2.0185 -1.6581
 2309TIP3    H228563   3.827   4.501   1.858 -0.8316 -1.0783 -0.9950
 2310TIP3   OH228564   6.041   0.316   0.153  0.2016  0.0064  0.3260
 2310TIP3    H128565   6.065   0.280   0.067  1.7004 -2.4209  1.6475
 2310TIP3    H228566   5.948   0.336   0.145  0.0808 -1.0810 -1.5845
 2311TIP3   OH228567   1.140   2.136   2.450 -0.0250  0.4477  0.0040
 2311TIP3    H128568   1.061   2.146   2.503 -0.5536  3.0348 -1.1368
 2311TIP3    H228569   1.211   2.170   2.506  0.5512 -2.5946  1.3369
 2312TIP3   OH228570   2.300   0.895   2.439  0.2114 -0.3445  0.0045
 2312TIP3    H128571   2.378   0.891   2.495 -0.6931 -1.8128  1.2555
 2312TIP3    H228572   2.295   0.808   2.399 -0.4642 -0.0749 -0.5175
 2313TIP3   OH228573   0.945   5.090   1.084 -0.4810 -0.3089 -0.3453
 2313TIP3    H128574   0.886   5.016   1.098  0.3459 -0.8564  0.3362
 2313TIP3    H228575   1.032   5.055   1.104  0.0186  0.6200 -0.8479
 2314TIP3   OH228576   6.450   5.784   2.776  0.3432 -0.1293  0.7090
 2314TIP3    H128577   6.483   5.778   2.686  0.6951 -0.3520  0.8516
 2314TIP3    H228578   6.427   5.694   2.799 -2.6027  0.2715 -0.2104
 2315TIP3   OH228579   5.732   1.257   7.986 -0.3637 -0.3336  0.2957
 2315TIP3    H128580   5.759   1.217   7.903 -0.4934 -1.6263  0.8498
 2315TIP3    H228581   5.637   1.269   7.978 -0.9675 -3.4164  1.3705
 2316TIP3   OH228582   6.450   6.579   8.554  0.4799 -0.2539 -0.4358
 2316TIP3    H128583   6.466   6.569   8.460 -0.0271  3.0710 -0.9793
 2316TIP3    H228584   6.537   6.588   8.592  0.6896 -1.6194 -0.5261
 2317TIP3   OH228585   1.102   4.464   1.280 -0.4186 -0.1903  0.7524
 2317TIP3    H128586   1.146   4.439   1.362  0.5870 -1.0640 -0.0151
 2317TIP3    H228587   1.108   4.559   1.278  0.9360 -0.2473  0.9763
 2318TIP3   OH228588   4.417   5.144   8.173  0.2226 -0.2714  0.3328
 2318TIP3    H128589   4.415   5.223   8.226  2.1181 -0.2577  0.4667
 2318TIP3    H228590   4.354   5.085   8.216 -0.2561  0.6835  0.9920
 2319TIP3   OH228591   4.813   5.693   1.044 -0.0199 -0.2567 -0.7048
 2319TIP3    H128592   4.740   5.753   1.060 -0.1512 -0.6008  0.0449
 2319TIP3    H228593   4.891   5.749   1.045 -0.2528  0.0853 -1.3293
 2320TIP3   OH228594   4.586   4.761   1.859 -0.0822  0.0663 -0.0679
 2320TIP3    H128595   4.578   4.666   1.873  0.4693  0.3676  2.8946
 2320TIP3    H228596   4.630   4.793   1.937  1.4986  2.5626 -1.8373
 2321TIP3   OH228597   3.889   6.144   8.281 -0.2924 -0.2180 -0.2945
 2321TIP3    H128598   3.840   6.143   8.363 -0.7753 -0.6044 -0.5827
 2321TIP3    H228599   3.869   6.060   8.240  1.7379 -0.9889  0.2196
 2322TIP3   OH228600   1.586   3.508   8.509 -0.4247 -0.0658 -0.4323
 2322TIP3    H128601   1.646   3.568   8.552  0.5360 -2.1096  1.2586
 2322TIP3    H228602   1.500   3.530   8.544  0.1105 -0.5437  1.2573
 2323TIP3   OH228603   2.166   1.066   2.971  0.1892  0.3928 -0.5068
 2323TIP3    H128604   2.109   1.086   3.045  0.1272  0.2394 -0.5139
 2323TIP3    H228605   2.115   1.090   2.894  0.7899  1.9380 -0.4579
 2324TIP3   OH228606   5.157   2.439   1.948  0.3730 -0.7666 -0.3368
 2324TIP3    H128607   5.073   2.486   1.948 -0.5269 -2.2648  0.8463
 2324TIP3    H228608   5.145   2.371   1.881  0.7588 -0.8053 -0.3650
 2325TIP3   OH228609   5.419   1.642   3.123 -0.3009 -0.5735  0.2267
 2325TIP3    H128610   5.505   1.602   3.137  0.4956  0.5597 -1.0952
 2325TIP3    H228611   5.387   1.601   3.042 -0.0147  0.5551 -0.4753
 2326TIP3   OH228612   4.557   4.295   0.617 -0.2205  0.5316  0.2782
 2326TIP3    H128613   4.527   4.204   0.616  0.7632  0.1793 -1.6551
 2326TIP3    H228614   4.612   4.301   0.695 -3.0986  0.5174  2.4612
 2327TIP3   OH228615   6.161   4.231   0.751  0.1311 -0.6205 -0.2686
 2327TIP3    H128616   6.143   4.156   0.695 -0.6017  0.4280 -1.4873
 2327TIP3    H228617   6.075   4.262   0.779  0.1729  1.5902 -2.2989
 2328TIP3   OH228618   1.956   0.405   1.683 -0.5481 -0.4442 -0.0404
 2328TIP3    H128619   2.047   0.389   1.706 -0.5919 -1.0132 -0.2382
 2328TIP3    H228620   1.956   0.491   1.642  0.1716 -1.0805 -1.4619
 2329TIP3   OH228621   3.033   6.736   0.000 -0.3168 -0.2150 -0.3632
 2329TIP3    H128622   3.017   6.786   0.081 -3.3190  0.4315 -1.2518
 2329TIP3    H228623   3.129   6.732  -0.006  0.0299  1.6399  2.0502
 2330TIP3   OH228624   2.784   4.832   3.805  0.2226  0.6814  0.7049
 2330TIP3    H128625   2.809   4.912   3.758  1.7315 -1.6064 -2.8346
 2330TIP3    H228626   2.866   4.798   3.840  0.8236 -2.0045 -2.7507
 2331TIP3   OH228627   2.252   1.227   1.821  0.5959  0.2466  0.2364
 2331TIP3    H128628   2.334   1.184   1.845  1.2573  1.3460  0.0045
 2331TIP3    H228629   2.263   1.317   1.850 -1.1811  0.0511  1.6489
 2332TIP3   OH228630   5.681   0.316   1.280  0.1060  0.6216  0.0791
 2332TIP3    H128631   5.625   0.370   1.224 -2.6128 -0.1736  1.7823
 2332TIP3    H228632   5.622   0.247   1.312  2.4247 -1.0000  1.1122
 2333TIP3   OH228633   5.476   1.369   1.915 -0.1149  0.4483 -0.1224
 2333TIP3    H128634   5.562   1.328   1.926 -0.2639  0.0793 -0.3109
 2333TIP3    H228635   5.459   1.411   1.999 -1.2270 -2.3039  1.1825
 2334TIP3   OH228636   2.764   2.681   2.722 -0.7270 -0.5154 -0.2858
 2334TIP3    H128637   2.679   2.671   2.763 -0.6669 -0.2069 -0.0873
 2334TIP3    H228638   2.809   2.747   2.774  0.4822 -2.2461  0.9762
 2335TIP3   OH228639   0.506   1.792   0.345  0.0774 -0.1080  0.2535
 2335TIP3    H128640   0.459   1.772   0.426 -2.0443  1.2875 -0.5242
 2335TIP3    H228641   0.520   1.887   0.348  0.9294 -0.1890 -0.5402
 2336TIP3   OH228642   4.572   5.567   2.920 -0.1074  0.4629  0.0055
 2336TIP3    H128643   4.616   5.485   2.897 -2.4845 -0.7264 -0.6832
 2336TIP3    H228644   4.643   5.629   2.938  1.7872 -1.7076  0.4800
 2337TIP3   OH228645   2.625   4.529   1.149  0.1269 -0.3271  0.0178
 2337TIP3    H128646   2.585   4.453   1.190 -0.6963  0.1193  0.0747
 2337TIP3    H228647   2.706   4.496   1.109 -0.1800 -1.2012  0.1067
 2338TIP3   OH228648   1.725   3.688   2.497  0.2988  0.0356 -0.6029
 2338TIP3    H128649   1.642   3.734   2.503 -0.2354 -0.9758 -0.0133
 2338TIP3    H228650   1.787   3.755   2.468 -0.8046  0.6918 -1.5337
 2339TIP3   OH228651   2.978   6.169   0.139  0.0292 -0.2022 -0.5145
 2339TIP3    H128652   3.046   6.213   0.190  0.4796  0.2891 -1.5170
 2339TIP3    H228653   2.896   6.208   0.169  0.0871 -1.3202  1.2349
 2340TIP3   OH228654   5.786   2.078   1.760 -1.0199  0.2097 -0.6012
 2340TIP3    H128655   5.842   2.010   1.797  0.5452  0.2259 -2.7853
 2340TIP3    H228656   5.699   2.058   1.794  0.3368  1.0242  4.1481
 2341TIP3   OH228657   1.018   1.347   1.300  1.0505 -0.0581 -0.0829
 2341TIP3    H128658   0.959   1.414   1.265  0.5494 -0.9013 -0.8737
 2341TIP3    H228659   0.967   1.266   1.298  1.6915 -0.5031  0.7461
 2342TIP3   OH228660   0.473   1.827   1.449 -0.4535  0.2137 -0.2371
 2342TIP3    H128661   0.384   1.826   1.485 -0.1973  0.6388  0.4254
 2342TIP3    H228662   0.498   1.920   1.449  0.4373 -0.0131  0.7229
 2343TIP3   OH228663   1.624   4.536   8.749 -0.1519  0.2740 -0.1499
 2343TIP3    H128664   1.701   4.542   8.692 -1.5180 -0.8633 -2.2336
 2343TIP3    H228665   1.579   4.619   8.738  0.8767  1.0859  1.3467
 2344TIP3   OH228666   1.851   3.065   0.410  0.5694  0.6660  0.0885
 2344TIP3    H128667   1.891   3.006   0.347 -0.0005 -1.8651  1.9113
 2344TIP3    H228668   1.787   3.115   0.360 -0.2943 -1.6684 -1.2845
 2345TIP3   OH228669   2.893   0.637   2.724 -0.4528 -0.2387  0.3591
 2345TIP3    H128670   2.875   0.730   2.711  1.3993 -0.0677 -1.6052
 2345TIP3    H228671   2.974   0.635   2.775 -0.9743 -0.8179  1.1863
 2346TIP3   OH228672   0.643   0.551   0.616  0.5456  0.5315 -0.6871
 2346TIP3    H128673   0.611   0.593   0.695  1.5058  0.4271 -0.2268
 2346TIP3    H228674   0.564   0.522   0.570  0.0022 -0.3903  0.7769
 2347TIP3   OH228675   4.479   6.539   4.126 -0.1002  0.6026  1.0829
 2347TIP3    H128676   4.405   6.502   4.076  0.4763  1.7396 -0.6965
 2347TIP3    H228677   4.451   6.628   4.147  0.2800  0.6236  1.5052
 2348TIP3   OH228678   2.832   5.694   1.958  0.1796 -0.6995 -0.9914
 2348TIP3    H128679   2.926   5.682   1.974 -0.0100  0.6614  1.6587
 2348TIP3    H228680   2.815   5.785   1.982 -1.7190 -0.6837 -2.1820
 2349TIP3   OH228681   4.245   0.835   8.728  0.6962 -0.5656 -0.1561
 2349TIP3    H128682   4.230   0.886   8.649  4.6491  0.4977 -0.3889
 2349TIP3    H228683   4.219   0.893   8.799 -1.0528 -0.8179 -0.5366
 2350TIP3   OH228684   3.287   6.067   4.263  0.5536  0.3511 -0.3304
 2350TIP3    H128685   3.360   6.101   4.314  0.5260  0.3813 -0.3102
 2350TIP3    H228686   3.327   6.033   4.183  0.7800 -1.1784  0.4048
 2351TIP3   OH228687   6.336   6.673   3.034  0.0620 -0.1372  0.2607
 2351TIP3    H128688   6.389   6.671   3.114 -0.2037 -2.7211  0.4434
 2351TIP3    H228689   6.246   6.673   3.066 -0.0750  1.2587 -0.0675
 2352TIP3   OH228690   0.174   6.028   2.791  0.1515 -0.0749  0.3972
 2352TIP3    H128691   0.138   5.991   2.710 -0.5091  0.1370  0.5852
 2352TIP3    H228692   0.193   6.119   2.770  0.4076 -0.1364  0.3549
 2353TIP3   OH228693   2.213   5.409   1.907  0.3098  0.3303  0.2380
 2353TIP3    H128694   2.130   5.409   1.954  0.1425  0.8045 -0.0595
 2353TIP3    H228695   2.205   5.480   1.843  0.9184  0.3398  0.1689
 2354TIP3   OH228696   2.867   1.664   1.912 -0.6062 -0.4039 -0.0562
 2354TIP3    H128697   2.840   1.733   1.851 -0.1156 -1.3613 -1.4039
 2354TIP3    H228698   2.940   1.619   1.868  1.8614  0.7489  2.5371
 2355TIP3   OH228699   1.980   4.377   8.229  0.5041  0.6678  0.3056
 2355TIP3    H128700   2.036   4.327   8.288 -2.0459 -0.6094  1.7935
 2355TIP3    H228701   1.971   4.322   8.152  2.2455  1.4652 -0.5285
 2356TIP3   OH228702   5.719   0.617   2.820  0.2776 -0.1717  0.1578
 2356TIP3    H128703   5.797   0.607   2.874 -1.8989  0.2408  3.7304
 2356TIP3    H228704   5.680   0.700   2.848 -0.4581  0.7370 -3.0521
 2357TIP3   OH228705   1.910   0.638   2.341  0.0129 -0.3706  0.2580
 2357TIP3    H128706   1.881   0.647   2.432  2.5993  1.4207  1.0211
 2357TIP3    H228707   1.973   0.566   2.344 -1.1930 -1.5195 -0.5601
 2358TIP3   OH228708   4.675   5.114   8.050  0.3754 -0.5625 -0.3860
 2358TIP3    H128709   4.595   5.150   8.088  0.8378  0.2519 -0.1599
 2358TIP3    H228710   4.669   5.020   8.066  0.0222 -0.3723  0.6845
 2359TIP3   OH228711   6.762   3.700   0.417  0.1466  0.4204  0.2064
 2359TIP3    H128712   6.701   3.771   0.395  0.2692  0.6132  0.4768
 2359TIP3    H228713   6.706   3.629   0.448  0.1066  0.9169  1.3065
 2360TIP3   OH228714   1.435   2.792   4.116 -0.3441  0.5509  0.5599
 2360TIP3    H128715   1.413   2.704   4.147  0.5814  0.2734  0.4471
 2360TIP3    H228716   1.510   2.818   4.169 -0.9636  1.5168  0.9967
 2361TIP3   OH228717   0.380   1.615   0.832 -0.1471  0.0602 -0.2537
 2361TIP3    H128718   0.457   1.558   0.828  1.1136  1.7269 -0.9378
 2361TIP3    H228719   0.392   1.667   0.911 -0.7611  0.1001 -0.1817
 2362TIP3   OH228720   4.260   4.698   2.904  0.0527 -0.0717  0.2889
 2362TIP3    H128721   4.261   4.649   2.821  1.8658 -0.8826  0.7440
 2362TIP3    H228722   4.169   4.694   2.932 -0.5651  0.0150 -1.5433
 2363TIP3   OH228723   6.448   1.360   0.857  0.1480  0.5417 -0.0571
 2363TIP3    H128724   6.538   1.366   0.827 -0.0639 -0.6200 -0.9958
 2363TIP3    H228725   6.449   1.396   0.946  1.2059  2.0756 -0.6387
 2364TIP3   OH228726   5.665   4.888   3.452  0.6650 -0.0388  0.1125
 2364TIP3    H128727   5.590   4.928   3.496  2.2529  0.8783  2.1893
 2364TIP3    H228728   5.673   4.802   3.494  0.8906 -0.0382  0.0724
 2365TIP3   OH228729   0.760   2.045   1.535  0.3364 -0.3387  0.1764
 2365TIP3    H128730   0.667   2.059   1.550  0.5060  1.4118 -0.1905
 2365TIP3    H228731   0.764   1.983   1.463 -0.5578 -0.0048 -0.1716
 2366TIP3   OH228732   2.363   2.487   3.000 -0.4928  0.7426 -0.0459
 2366TIP3    H128733   2.349   2.420   3.067  1.3686 -0.7064 -1.0007
 2366TIP3    H228734   2.305   2.461   2.928  0.3566 -0.0103 -0.4858
 2367TIP3   OH228735   2.636   0.339   1.305 -0.0821  0.1396  0.1064
 2367TIP3    H128736   2.616   0.253   1.343  0.6547 -0.0775  0.0219
 2367TIP3    H228737   2.643   0.323   1.211  0.6511  0.1724  0.1529
 2368TIP3   OH228738   5.855   4.341   2.128 -0.3846 -0.0521 -0.3278
 2368TIP3    H128739   5.764   4.367   2.118 -0.6142 -0.3931  0.7473
 2368TIP3    H228740   5.856   4.248   2.105  0.0581  0.3886 -2.1926
 2369TIP3   OH228741   2.138   3.603   0.910  0.3299  0.2856 -0.1419
 2369TIP3    H128742   2.202   3.674   0.921  1.4230 -0.3596 -1.8356
 2369TIP3    H228743   2.116   3.605   0.817 -2.7399  0.9222  0.4945
 2370TIP3   OH228744   2.536   5.783   2.141 -0.2629  0.6200 -0.0499
 2370TIP3    H128745   2.562   5.696   2.170 -0.8012  1.0233  1.8224
 2370TIP3    H228746   2.567   5.789   2.051  2.2523 -0.4935  0.6521
 2371TIP3   OH228747   3.433   5.995   4.026  0.3371 -0.8572  0.0096
 2371TIP3    H128748   3.498   5.952   3.970  1.4067 -0.8396  1.1683
 2371TIP3    H228749   3.452   6.088   4.017  0.2545 -0.8339  0.0798
 2372TIP3   OH228750   1.589   4.506   8.126 -0.1343  0.5526  0.3932
 2372TIP3    H128751   1.554   4.574   8.068 -2.2301 -0.3804  0.4759
 2372TIP3    H228752   1.673   4.541   8.155  1.8732  0.4679 -4.3373
 2373TIP3   OH228753   6.473   0.638   3.305 -0.7170  0.5180 -0.5705
 2373TIP3    H128754   6.508   0.570   3.248 -1.8532 -1.0609  0.5174
 2373TIP3    H228755   6.380   0.616   3.314 -0.8171  1.4011  0.9307
 2374TIP3   OH228756   5.928   3.739   1.634  0.2179 -0.4412 -0.2672
 2374TIP3    H128757   5.966   3.753   1.721 -1.1803 -0.0888  0.3166
 2374TIP3    H228758   5.835   3.728   1.650 -0.2241  0.6465 -1.8171
 2375TIP3   OH228759   5.464   1.039   1.911  0.0045 -0.1040  0.5522
 2375TIP3    H128760   5.454   1.110   1.848  0.9228 -0.8602 -0.4842
 2375TIP3    H228761   5.383   0.989   1.906 -1.0249  1.3321  1.9350
 2376TIP3   OH228762   4.392   2.413   0.613 -0.4330 -0.0520  0.4834
 2376TIP3    H128763   4.447   2.336   0.598  0.6866  0.9327 -0.6657
 2376TIP3    H228764   4.435   2.459   0.685  1.1061  1.3978 -1.2517
 2377TIP3   OH228765   2.011   5.462   0.881  0.1763 -0.0112 -0.1592
 2377TIP3    H128766   1.978   5.381   0.841  0.1377  0.6294 -1.4866
 2377TIP3    H228767   1.936   5.522   0.880  0.7014  0.6620 -0.9821
 2378TIP3   OH228768   3.531   2.800   0.237 -0.1071 -0.9422  0.1425
 2378TIP3    H128769   3.608   2.747   0.255  0.5920 -0.0439 -0.1351
 2378TIP3    H228770   3.566   2.883   0.205 -1.2066 -0.9300 -1.1091
 2379TIP3   OH228771   6.247   5.889   1.601  0.1074  0.6091 -0.0532
 2379TIP3    H128772   6.301   5.930   1.669  3.7247 -2.0433 -1.0105
 2379TIP3    H228773   6.283   5.920   1.519 -0.4300 -0.5408 -0.7526
 2380TIP3   OH228774   4.258   4.430   1.799 -0.9650 -0.8893  0.6017
 2380TIP3    H128775   4.170   4.468   1.806 -1.5095 -1.8837 -0.4177
 2380TIP3    H228776   4.243   4.335   1.803  0.0276 -1.0826  0.0723
 2381TIP3   OH228777   0.166   1.360   2.782  0.2796  0.0611  0.0103
 2381TIP3    H128778   0.081   1.322   2.803  0.6466 -0.9830 -0.3135
 2381TIP3    H228779   0.228   1.309   2.834  0.6874  1.0284  0.4997
 2382TIP3   OH228780   5.089   0.930   3.429 -0.0599 -0.1579  0.4402
 2382TIP3    H128781   5.059   0.976   3.507 -1.2278  0.6459 -0.4359
 2382TIP3    H228782   5.055   0.841   3.439  1.6013 -0.6866  1.8075
 2383TIP3   OH228783   3.927   4.034   0.573  0.0651  0.0513 -0.2233
 2383TIP3    H128784   3.878   3.985   0.639 -0.8219  1.1678 -0.0126
 2383TIP3    H228785   4.017   4.032   0.604 -0.5258  1.8003  1.8775
 2384TIP3   OH228786   2.842   5.355   7.969 -0.4001 -0.5663 -0.3089
 2384TIP3    H128787   2.780   5.290   7.936 -0.2742 -0.8333 -0.0183
 2384TIP3    H228788   2.788   5.432   7.987 -0.5733 -0.6396 -0.5066
 2385TIP3   OH228789   0.345   0.520   0.250  0.1301 -0.1169  0.0863
 2385TIP3    H128790   0.335   0.529   0.345  1.3668 -0.4711  0.2622
 2385TIP3    H228791   0.436   0.494   0.238 -0.5160 -2.0346 -1.0672
 2386TIP3   OH228792   4.720   5.573   3.468 -0.0734 -0.0307 -0.5043
 2386TIP3    H128793   4.690   5.601   3.381 -0.0234 -0.2016 -0.5779
 2386TIP3    H228794   4.753   5.484   3.454 -2.4348 -1.0959  0.1725
 2387TIP3   OH228795   4.636   5.203   1.312  0.2631 -0.2415 -0.0735
 2387TIP3    H128796   4.715   5.161   1.348  1.4344  1.9956  0.1910
 2387TIP3    H228797   4.668   5.284   1.274 -2.1946  2.1675  2.5126
 2388TIP3   OH228798   2.623   2.257   8.722 -0.0212  0.9993  0.2360
 2388TIP3    H128799   2.661   2.271   8.635  0.0938 -2.5527 -0.4357
 2388TIP3    H228800   2.697   2.265   8.782  0.6805 -0.1490 -0.4385
 2389TIP3   OH228801   1.525   5.432   8.345  0.5186 -0.1085  0.0885
 2389TIP3    H128802   1.616   5.463   8.347  0.2395  0.8591  3.1428
 2389TIP3    H228803   1.531   5.340   8.320  2.1131  0.4091 -1.6320
 2390TIP3   OH228804   0.197   1.845   2.650  0.4463  0.8033  0.2167
 2390TIP3    H128805   0.112   1.889   2.660  0.5053  1.0244 -0.2186
 2390TIP3    H228806   0.202   1.785   2.725 -1.5802 -1.7028 -1.4784
 2391TIP3   OH228807   2.990   5.956   8.888  1.0147  0.1302  0.0418
 2391TIP3    H128808   3.011   5.891   8.956 -2.8917 -0.9664  0.4402
 2391TIP3    H228809   2.992   6.040   8.934 -0.4575 -0.4781  1.2999
 2392TIP3   OH228810   5.834   3.358   2.205 -0.4699  0.3150 -0.9603
 2392TIP3    H128811   5.905   3.326   2.261 -1.4291  0.3482  0.3259
 2392TIP3    H228812   5.840   3.304   2.126  0.1242 -0.6475 -0.2886
 2393TIP3   OH228813   6.695   6.533   0.561 -0.3383 -0.1440  0.2478
 2393TIP3    H128814   6.749   6.509   0.637 -0.9419 -0.7237  0.5073
 2393TIP3    H228815   6.728   6.479   0.490 -0.7668 -0.7267  0.4828
 2394TIP3   OH228816   0.952   6.238   8.849  0.6785 -0.1074  0.0498
 2394TIP3    H128817   0.874   6.231   8.794  0.1084 -1.3109  0.9622
 2394TIP3    H228818   0.978   6.329   8.842  0.4186 -0.1458 -1.9226
 2395TIP3   OH228819   6.103   0.828   3.104  1.2347  0.3404 -0.5484
 2395TIP3    H128820   6.044   0.899   3.132  2.2001 -0.4182  4.2533
 2395TIP3    H228821   6.045   0.755   3.083  0.3798  1.2265 -1.3934
 2396TIP3   OH228822   4.647   4.142   8.797 -0.0228  0.1097  0.4703
 2396TIP3    H128823   4.696   4.176   8.722  0.1223 -0.7332  0.1724
 2396TIP3    H228824   4.618   4.055   8.769 -0.1744 -0.1128  1.3058
 2397TIP3   OH228825   2.534   2.416   3.398 -0.1810  0.3489  0.4202
 2397TIP3    H128826   2.588   2.490   3.425  1.2244 -0.5228  0.0989
 2397TIP3    H228827   2.450   2.455   3.375  1.3028  2.2823 -2.3003
 2398TIP3   OH228828   3.433   3.203   0.775  0.5813 -0.0736  0.4605
 2398TIP3    H128829   3.473   3.289   0.762  1.7196 -0.5315  0.8421
 2398TIP3    H228830   3.505   3.141   0.767 -0.4962 -1.1613 -1.5760
 2399TIP3   OH228831   1.449   5.705   2.127 -0.6437  0.5970  0.1505
 2399TIP3    H128832   1.397   5.722   2.048 -0.1448  1.0334 -0.0944
 2399TIP3    H228833   1.494   5.788   2.144 -0.5000  0.4084  0.7100
 2400TIP3   OH228834   1.964   6.076   3.337  0.4860  0.1488 -0.3046
 2400TIP3    H128835   1.892   6.124   3.379 -1.4007  0.5210 -3.6050
 2400TIP3    H228836   2.033   6.074   3.403 -3.1331 -2.0056  3.9154
 2401TIP3   OH228837   0.614   3.977   1.571 -0.3371 -0.2849  0.0172
 2401TIP3    H128838   0.661   4.029   1.635  0.0270 -1.0823  0.4045
 2401TIP3    H228839   0.649   3.889   1.580 -0.1748 -0.3905 -1.3759
 2402TIP3   OH228840   3.554   4.254   3.903 -1.0749 -0.1062  0.2273
 2402TIP3    H128841   3.530   4.163   3.889  0.2147 -0.6931  1.4880
 2402TIP3    H228842   3.634   4.249   3.957  1.1304  1.6660 -2.5919
 2403TIP3   OH228843   4.569   5.803   1.545 -0.5709  0.4361  0.1081
 2403TIP3    H128844   4.480   5.829   1.521 -1.3384 -0.8281  1.4279
 2403TIP3    H228845   4.585   5.847   1.628 -0.3281 -0.0844  0.3395
 2404TIP3   OH228846   6.676   3.695   4.147 -0.5857 -0.0514 -0.2874
 2404TIP3    H128847   6.767   3.672   4.165  0.2215  0.5851 -3.0521
 2404TIP3    H228848   6.674   3.791   4.150 -1.1220 -0.0543 -0.3950
 2405TIP3   OH228849   5.380   6.726   8.533  0.1895  0.0151  0.8848
 2405TIP3    H128850   5.350   6.794   8.593 -0.9619  0.8716 -0.5805
 2405TIP3    H228851   5.461   6.762   8.495 -0.8694  1.0122 -0.5206
 2406TIP3   OH228852   4.416   2.546   4.062  0.1260  0.5436 -0.0880
 2406TIP3    H128853   4.411   2.641   4.066  1.5365  0.6141  1.1711
 2406TIP3    H228854   4.345   2.515   4.118  0.7642  0.9356  0.9852
 2407TIP3   OH228855   4.571   4.619   1.485  0.2527 -0.3024 -0.2797
 2407TIP3    H128856   4.481   4.590   1.475  0.6725 -1.8286  0.0844
 2407TIP3    H228857   4.607   4.616   1.396 -0.9182  3.7062 -1.1169
 2408TIP3   OH228858   4.858   3.540   2.642  0.1712  0.1426  0.2628
 2408TIP3    H128859   4.847   3.631   2.669  1.9375  0.0655  1.4237
 2408TIP3    H228860   4.944   3.537   2.601  0.9120 -1.3004  1.7859
 2409TIP3   OH228861   5.440   6.519   1.313 -0.3182  0.7675  0.7307
 2409TIP3    H128862   5.526   6.487   1.284 -0.4522  1.2432 -0.2387
 2409TIP3    H228863   5.404   6.447   1.365 -0.4442 -0.5402 -1.0501
 2410TIP3   OH228864   4.524   0.690   1.293 -0.2585 -0.3646 -0.1389
 2410TIP3    H128865   4.569   0.676   1.377  0.5349 -0.6668 -0.5961
 2410TIP3    H228866   4.509   0.601   1.260  1.1695 -0.2524 -1.1953
 2411TIP3   OH228867   5.878   1.792   1.803 -0.1258 -1.4546 -0.0330
 2411TIP3    H128868   5.827   1.718   1.771  1.3637 -1.4906 -2.5964
 2411TIP3    H228869   5.968   1.773   1.776  0.8325 -0.1757  2.0462
 2412TIP3   OH228870   4.883   4.123   3.652  0.1717  0.0252  1.0018
 2412TIP3    H128871   4.878   4.199   3.710 -0.9161 -0.1707  1.1770
 2412TIP3    H228872   4.804   4.129   3.598  1.7386  0.9441 -1.3947
 2413TIP3   OH228873   0.030   6.729   4.140 -0.4345  0.1447 -0.2923
 2413TIP3    H128874   0.056   6.724   4.048 -0.6100  0.9556 -0.3900
 2413TIP3    H228875   0.066   6.649   4.179  0.6458  0.3568 -0.8069
 2414TIP3   OH228876   1.135   4.869   1.237  0.2473  0.7614 -0.2242
 2414TIP3    H128877   1.076   4.866   1.312  0.1443 -1.2847 -0.3235
 2414TIP3    H228878   1.218   4.834   1.270 -0.0047 -0.8448 -1.1708
 2415TIP3   OH228879   6.482   5.960   0.020  0.0775  0.3637  0.4277
 2415TIP3    H128880   6.574   5.956   0.047  0.0880  1.0677  0.5073
 2415TIP3    H228881   6.480   5.913  -0.063  0.7256  1.2794 -0.1330
 2416TIP3   OH228882   5.993   2.984   3.400 -0.4196  0.0390  0.8175
 2416TIP3    H128883   6.067   2.971   3.341 -0.7385 -0.0395  0.4234
 2416TIP3    H228884   6.027   3.038   3.471 -0.0858  0.3272  0.4407
 2417TIP3   OH228885   1.190   3.483   2.992  0.2166 -0.6297 -0.4995
 2417TIP3    H128886   1.100   3.516   2.994  0.2953 -0.3465 -1.2460
 2417TIP3    H228887   1.206   3.452   3.081  0.3641  1.9984  0.4908
 2418TIP3   OH228888   2.130   3.383   0.511  0.3179 -0.0290 -0.1806
 2418TIP3    H128889   2.176   3.302   0.489 -0.7458 -0.7034  0.0248
 2418TIP3    H228890   2.122   3.430   0.427 -0.6520 -0.9822 -0.6411
 2419TIP3   OH228891   1.289   4.929   1.786 -0.0134 -0.0034 -0.0789
 2419TIP3    H128892   1.252   5.010   1.820  0.1702 -0.1856  0.5555
 2419TIP3    H228893   1.381   4.933   1.810 -0.3050 -1.1120  1.3494
 2420TIP3   OH228894   3.579   0.750   0.314  0.1573 -0.5353  0.0705
 2420TIP3    H128895   3.617   0.665   0.290 -1.5392 -0.8632 -1.7832
 2420TIP3    H228896   3.485   0.733   0.319 -0.1620  1.1350  0.1525
 2421TIP3   OH228897   2.655   0.376   1.622  0.2593 -0.1955 -0.7970
 2421TIP3    H128898   2.696   0.399   1.539  1.5922 -1.1368 -0.4250
 2421TIP3    H228899   2.562   0.398   1.609  0.6492  0.8654 -2.0687
 2422TIP3   OH228900   0.766   1.376   1.497  0.5018 -0.3776 -0.1159
 2422TIP3    H128901   0.758   1.342   1.408  0.4637 -0.9204  0.0898
 2422TIP3    H228902   0.810   1.306   1.545 -1.8340 -1.2289  0.9248
 2423TIP3   OH228903   6.627   2.063   1.682  0.1440 -0.1389  0.6162
 2423TIP3    H128904   6.539   2.031   1.701  0.5039 -0.5481  1.7044
 2423TIP3    H228905   6.663   1.999   1.621 -0.1122 -0.2985  0.6293
 2424TIP3   OH228906   6.507   1.552   1.897  0.2266  0.1749 -0.0286
 2424TIP3    H128907   6.448   1.477   1.888 -0.1089  0.4688 -0.3325
 2424TIP3    H228908   6.548   1.560   1.810  0.5177  0.1352  0.1037
 2425TIP3   OH228909   1.570   4.097   1.541  0.4524 -0.3295 -0.7687
 2425TIP3    H128910   1.649   4.145   1.513  0.9708  0.4711  1.8062
 2425TIP3    H228911   1.562   4.117   1.634 -2.0756 -1.4831 -0.6674
 2426TIP3   OH228912   3.785   1.923   2.578  0.1251  0.5088  0.1140
 2426TIP3    H128913   3.734   2.000   2.604 -0.3389  0.5997 -1.0335
 2426TIP3    H228914   3.762   1.856   2.643 -0.0154  1.1122  0.6963
 2427TIP3   OH228915   0.485   1.989   3.722 -0.0934 -0.2833 -0.3092
 2427TIP3    H128916   0.552   1.920   3.725  1.2886  0.9625 -1.0898
 2427TIP3    H228917   0.423   1.965   3.790  2.5764 -0.0841  2.3898
 2428TIP3   OH228918   5.321   3.531   0.210 -0.1026 -0.7618  0.1255
 2428TIP3    H128919   5.390   3.488   0.161 -0.3305 -0.2562 -0.6665
 2428TIP3    H228920   5.246   3.473   0.203 -0.0893 -0.7641  0.0001
 2429TIP3   OH228921   1.281   5.230   0.749  0.0958  0.0966  0.4589
 2429TIP3    H128922   1.254   5.320   0.729  2.8985  1.7922  3.2998
 2429TIP3    H228923   1.335   5.204   0.675 -0.2484  1.0010 -0.1212
 2430TIP3   OH228924   5.859   0.708   3.252  0.4195  0.3410 -0.0652
 2430TIP3    H128925   5.921   0.775   3.283 -1.2207  0.8650  2.3246
 2430TIP3    H228926   5.857   0.643   3.323 -0.5847 -0.4841 -0.8273
 2431TIP3   OH228927   4.412   4.384   3.050 -0.2478  0.5873  0.0852
 2431TIP3    H128928   4.415   4.479   3.065  0.5362  0.4385  0.8667
 2431TIP3    H228929   4.357   4.350   3.120  0.6476  0.2970  0.6545
 2432TIP3   OH228930   0.614   5.507   1.468  0.1237 -0.1819 -0.0851
 2432TIP3    H128931   0.563   5.574   1.424  2.2137  0.0706 -2.3607
 2432TIP3    H228932   0.683   5.556   1.515  0.8564 -0.6435 -0.6523
 2433TIP3   OH228933   2.534   0.086   1.310 -0.3841  0.7866 -0.1845
 2433TIP3    H128934   2.513   0.060   1.221 -1.1257  0.0213  0.1991
 2433TIP3    H228935   2.455   0.131   1.341 -0.7143 -0.2675  0.5742
 2434TIP3   OH228936   2.051   5.940   1.210  0.1309 -0.4258 -0.3789
 2434TIP3    H128937   1.978   5.910   1.155  0.0628  0.5157 -0.8384
 2434TIP3    H228938   2.079   6.022   1.168 -1.7393  1.9270  2.5037
 2435TIP3   OH228939   3.542   1.646   3.330  0.1754  0.5617  0.1514
 2435TIP3    H128940   3.603   1.593   3.278  0.7166 -0.1725  1.4989
 2435TIP3    H228941   3.555   1.735   3.297 -0.8833 -0.1055 -2.2696
 2436TIP3   OH228942   0.436   5.881   0.860 -0.1049  0.1581  0.1467
 2436TIP3    H128943   0.428   5.964   0.813 -0.0992 -0.1288 -0.3649
 2436TIP3    H228944   0.378   5.821   0.812  0.9403 -0.4983 -0.3189
 2437TIP3   OH228945   2.876   6.518   1.006  0.3099 -0.3554  0.1481
 2437TIP3    H128946   2.948   6.582   1.009  1.5853 -1.6747 -0.7133
 2437TIP3    H228947   2.851   6.506   1.098  0.5909  0.7924  0.3843
 2438TIP3   OH228948   3.044   0.595   2.439  0.5317  0.0452 -0.0906
 2438TIP3    H128949   3.048   0.542   2.359  2.9769  2.3623 -1.6467
 2438TIP3    H228950   3.135   0.616   2.459 -0.2264  2.2271  1.4076
 2439TIP3   OH228951   5.549   1.926   8.377 -0.0874  0.1076 -0.0317
 2439TIP3    H128952   5.486   1.991   8.407 -2.0047 -0.9994 -1.3828
 2439TIP3    H228953   5.506   1.842   8.393  3.0096 -1.1067  3.3239
 2440TIP3   OH228954   2.493   3.475   1.540 -0.1328  0.4248 -0.0599
 2440TIP3    H128955   2.580   3.442   1.563  0.4156  1.8628  0.0186
 2440TIP3    H228956   2.433   3.407   1.570  1.0156 -1.1698 -1.2018
 2441TIP3   OH228957   2.972   2.122   3.620 -0.0874 -0.5176  0.1450
 2441TIP3    H128958   3.013   2.201   3.655 -0.3102 -0.0922 -0.5331
 2441TIP3    H228959   2.878   2.140   3.625 -0.2672  1.5476 -4.7779
 2442TIP3   OH228960   5.093   1.565   8.851 -0.1708 -0.4429  0.0801
 2442TIP3    H128961   5.135   1.647   8.826 -0.9396 -0.1290 -0.2074
 2442TIP3    H228962   5.115   1.504   8.781 -0.1381 -0.3001 -0.0341
 2443TIP3   OH228963   1.239   5.187   2.534 -0.2523 -0.2605  0.6725
 2443TIP3    H128964   1.178   5.187   2.608  0.9834 -0.7188  1.7383
 2443TIP3    H228965   1.274   5.277   2.531 -2.3148  0.5685 -1.1544
 2444TIP3   OH228966   2.424   0.905   0.075 -0.5315  0.2253  0.2851
 2444TIP3    H128967   2.375   0.938   0.000 -0.6164 -0.6756 -0.0650
 2444TIP3    H228968   2.364   0.913   0.149 -1.3293 -1.1260 -0.1896
 2445TIP3   OH228969   2.644   6.124   3.077 -0.1449 -0.5115 -0.0318
 2445TIP3    H128970   2.589   6.200   3.057  0.4774 -0.0929 -0.1872
 2445TIP3    H228971   2.642   6.071   2.997 -0.3733 -0.5336 -0.0127
 2446TIP3   OH228972   0.845   1.246   0.673 -0.0935  0.4388 -0.3378
 2446TIP3    H128973   0.909   1.242   0.602  0.6966  1.5656  0.2687
 2446TIP3    H228974   0.859   1.166   0.723  0.2840  0.2865 -0.6792
 2447TIP3   OH228975   4.092   1.703   3.254  0.2924 -0.1167  0.1291
 2447TIP3    H128976   4.097   1.690   3.160  1.1763  2.9804 -0.3609
 2447TIP3    H228977   4.181   1.682   3.285 -0.1005 -1.5166  0.4024
 2448TIP3   OH228978   5.911   0.736   1.020  0.2289 -0.1852 -0.5013
 2448TIP3    H128979   5.966   0.698   0.952  0.9511 -1.7463  0.8987
 2448TIP3    H228980   5.950   0.708   1.102 -0.4252  1.9230  0.6193
 2449TIP3   OH228981   5.713   1.649   3.005 -0.1851  0.3653 -0.4706
 2449TIP3    H128982   5.725   1.565   2.961 -1.2771 -0.3380  0.5074
 2449TIP3    H228983   5.786   1.703   2.974  2.4399 -1.9060  1.2425
 2450TIP3   OH228984   1.995   4.988   1.975  0.3408  0.1001  0.0177
 2450TIP3    H128985   2.005   5.059   1.912 -0.7260  0.2493 -0.0037
 2450TIP3    H228986   1.988   4.909   1.922 -0.5152  0.2210 -0.0763
 2451TIP3   OH228987   1.817   5.010   1.384  0.2001  0.0059  0.1029
 2451TIP3    H128988   1.756   5.018   1.311  0.2134 -0.9297 -0.0179
 2451TIP3    H228989   1.897   4.974   1.346  1.0673  1.7555  0.1496
 2452TIP3   OH228990   1.750   2.680   2.844  0.1311 -0.1202 -0.4930
 2452TIP3    H128991   1.679   2.628   2.806 -0.0283 -0.1922 -0.1091
 2452TIP3    H228992   1.705   2.745   2.898  0.3579 -0.3716  0.0137
 2453TIP3   OH228993   1.570   1.148   4.111 -0.2204  0.0154  0.1206
 2453TIP3    H128994   1.643   1.123   4.054  1.4924 -1.0103  2.5645
 2453TIP3    H228995   1.608   1.212   4.171 -2.4823  2.6178 -1.0025
 2454TIP3   OH228996   0.816   4.830   1.021 -0.5156 -0.4751  0.3714
 2454TIP3    H128997   0.770   4.856   0.941  0.9317  2.3334  0.3646
 2454TIP3    H228998   0.885   4.772   0.991 -1.0249 -0.8141 -0.1802
 2455TIP3   OH228999   0.054   2.291   0.075  0.3994  0.2674 -0.4337
 2455TIP3    H129000   0.107   2.264   0.150 -0.4936 -0.7299 -0.1449
 2455TIP3    H229001   0.028   2.380   0.095 -0.2655 -0.1558  0.7167
 2456TIP3   OH229002   5.684   0.695   1.248  0.1368  0.1782 -0.6287
 2456TIP3    H129003   5.741   0.620   1.238 -1.6780 -1.0466 -2.7179
 2456TIP3    H229004   5.741   0.771   1.235  1.7769 -0.8442  0.3097
 2457TIP3   OH229005   3.755   4.554   1.282  0.7497 -0.3537  0.3135
 2457TIP3    H129006   3.842   4.535   1.248  0.6435  3.0743 -2.5213
 2457TIP3    H229007   3.762   4.642   1.318 -1.6477  0.3938 -0.8266
 2458TIP3   OH229008   0.107   4.208   0.983  0.8732  0.3857 -0.3998
 2458TIP3    H129009   0.060   4.225   1.065  0.4099 -4.5305  0.6952
 2458TIP3    H229010   0.041   4.220   0.915 -0.8045 -1.7342  0.7005
 2459TIP3   OH229011   4.853   2.315   1.291 -0.1846 -0.3984  0.3431
 2459TIP3    H129012   4.925   2.368   1.326 -0.8086 -0.1673  1.3244
 2459TIP3    H229013   4.822   2.364   1.215  0.2759 -0.1612  0.3054
 2460TIP3   OH229014   1.968   2.283   1.721  0.2345 -0.3362  0.2029
 2460TIP3    H129015   1.927   2.308   1.803  0.4581  0.1067  0.1790
 2460TIP3    H229016   2.033   2.217   1.746  0.8878  0.4137  0.4848
 2461TIP3   OH229017   5.202   4.697   2.022 -0.2087  0.8503 -0.1289
 2461TIP3    H129018   5.184   4.696   2.116  0.2645 -0.9688 -0.0348
 2461TIP3    H229019   5.120   4.728   1.983 -0.4831  1.4191  0.8430
 2462TIP3   OH229020   6.525   4.711   3.325 -0.1245  0.1174  0.2039
 2462TIP3    H129021   6.570   4.752   3.399 -0.2289  0.8080 -0.1133
 2462TIP3    H229022   6.555   4.759   3.248  0.5557 -1.0694 -0.3028
 2463TIP3   OH229023   6.098   5.543   0.462  0.1973 -0.1687  0.1845
 2463TIP3    H129024   6.027   5.594   0.502  1.1449  0.6663  0.8693
 2463TIP3    H229025   6.085   5.555   0.368 -1.2879 -1.0603  0.2491
 2464TIP3   OH229026   3.775   3.779   0.097  0.2274 -0.1609 -0.0942
 2464TIP3    H129027   3.735   3.759   0.012  0.1460  0.0915 -0.1145
 2464TIP3    H229028   3.769   3.874   0.105  0.4491 -0.1612  0.0893
 2465TIP3   OH229029   4.553   1.265   1.790  0.0399 -0.0719 -0.3286
 2465TIP3    H129030   4.637   1.236   1.753  0.2512  1.8493 -1.4523
 2465TIP3    H229031   4.487   1.228   1.731  0.2364  0.6161 -0.9829
 2466TIP3   OH229032   6.097   5.476   2.999 -0.0463  0.0188 -0.0095
 2466TIP3    H129033   6.155   5.535   2.950 -0.8380  0.6854 -0.1685
 2466TIP3    H229034   6.081   5.403   2.940  2.3069 -1.2656  0.8025
 2467TIP3   OH229035   5.530   3.597   0.752 -0.1378  0.1207  0.5248
 2467TIP3    H129036   5.540   3.691   0.762  0.7715 -0.0301  1.1154
 2467TIP3    H229037   5.530   3.583   0.657 -0.9414  0.7617  0.4119
 2468TIP3   OH229038   2.636   0.777   1.643  0.0293 -0.1031 -0.0613
 2468TIP3    H129039   2.566   0.760   1.580  0.4720 -0.8223 -0.3640
 2468TIP3    H229040   2.651   0.872   1.637 -0.7655  0.0246 -0.1414
 2469TIP3   OH229041   2.238   0.302   2.199  0.2298  0.3362  0.2340
 2469TIP3    H129042   2.199   0.321   2.114 -1.1356  1.0069  0.9754
 2469TIP3    H229043   2.228   0.208   2.210 -0.4675  0.3805  0.0453
 2470TIP3   OH229044   1.008   6.581   8.571  0.1393  0.3762  0.4047
 2470TIP3    H129045   0.976   6.549   8.487  0.9825 -1.3841  0.6992
 2470TIP3    H229046   0.930   6.604   8.620 -0.5692 -1.4278  0.2052
 2471TIP3   OH229047   4.529   5.683   1.871 -0.1675  0.1730 -0.2584
 2471TIP3    H129048   4.514   5.759   1.816  0.7715 -0.6881 -1.7830
 2471TIP3    H229049   4.544   5.611   1.809  0.0764 -1.0261  1.1274
 2472TIP3   OH229050   1.890   1.625   1.623  0.1964 -0.1878  0.0216
 2472TIP3    H129051   1.932   1.540   1.635  1.0826  0.4988  2.3491
 2472TIP3    H229052   1.891   1.665   1.710 -1.0449  1.8287 -0.8125
 2473TIP3   OH229053   0.910   4.826   0.404 -0.5752  0.0816  0.5804
 2473TIP3    H129054   0.890   4.858   0.316 -0.9512 -0.1926  0.5658
 2473TIP3    H229055   0.874   4.738   0.407 -1.5351  0.4775  1.3680
 2474TIP3   OH229056   4.975   4.458   8.527 -0.2858 -0.2225 -0.4618
 2474TIP3    H129057   4.984   4.438   8.620  0.1050  0.7849 -0.2737
 2474TIP3    H229058   4.987   4.553   8.521  0.3345 -0.3517 -1.6138
 2475TIP3   OH229059   2.662   4.944   3.366 -0.1717 -0.1901 -0.2605
 2475TIP3    H129060   2.695   5.032   3.384 -0.2773 -0.3314  0.6796
 2475TIP3    H229061   2.663   4.900   3.451  0.4647 -1.3011 -0.8150
 2476TIP3   OH229062   3.804   6.042   1.332 -0.0937 -0.0705  0.3241
 2476TIP3    H129063   3.888   6.085   1.350  0.0722 -0.3340  0.1770
 2476TIP3    H229064   3.739   6.112   1.342  0.1861  0.2414 -0.0335
 2477TIP3   OH229065   5.325   4.579   2.909  0.0046  0.0811  0.4134
 2477TIP3    H129066   5.370   4.557   2.828 -0.0257  1.1551  0.0912
 2477TIP3    H229067   5.345   4.671   2.924 -1.6261  0.4538  0.5521
 2478TIP3   OH229068   2.078   1.194   3.211 -0.0515 -0.2115  0.1464
 2478TIP3    H129069   2.102   1.205   3.303 -1.0615 -0.0387  0.4030
 2478TIP3    H229070   2.118   1.269   3.167  0.8315 -0.5432  0.3567
 2479TIP3   OH229071   0.762   5.346   3.295  0.2765 -0.8743 -0.0938
 2479TIP3    H129072   0.812   5.402   3.354 -0.4600  0.0898 -0.3599
 2479TIP3    H229073   0.696   5.306   3.351 -1.5041  1.3256 -0.4710
 2480TIP3   OH229074   4.651   0.778   2.287  0.2775  0.5537  0.2954
 2480TIP3    H129075   4.694   0.699   2.255  0.8271  0.6068  0.8929
 2480TIP3    H229076   4.714   0.848   2.272 -0.2221  0.9003 -0.2706
 2481TIP3   OH229077   3.418   0.016   0.592  0.4697 -0.0269 -0.7256
 2481TIP3    H129078   3.514   0.016   0.596  0.4409 -0.8392  0.6245
 2481TIP3    H229079   3.391   0.085   0.653  0.2021 -1.4571  0.8621
 2482TIP3   OH229080   0.333   5.395   1.333 -0.4181  0.2257  0.2269
 2482TIP3    H129081   0.397   5.378   1.264 -1.5079  1.2245 -1.0682
 2482TIP3    H229082   0.365   5.473   1.377  0.0813 -0.1968  0.6210
 2483TIP3   OH229083   4.154   5.943   8.621 -0.1339 -0.0621 -0.5123
 2483TIP3    H129084   4.152   6.022   8.568 -0.0593  0.7829  0.7242
 2483TIP3    H229085   4.067   5.903   8.608  0.0147 -0.0754 -1.5483
 2484TIP3   OH229086   5.888   1.123   0.481  0.5023  0.4750  0.5339
 2484TIP3    H129087   5.830   1.090   0.549  1.2638 -0.3238  0.8139
 2484TIP3    H229088   5.928   1.045   0.443  0.9944  0.9768 -0.0155
 2485TIP3   OH229089   0.363   2.331   8.779  0.4129 -0.0882 -0.0595
 2485TIP3    H129090   0.378   2.415   8.822 -1.5371 -0.0165  0.5973
 2485TIP3    H229091   0.426   2.328   8.707  4.1570 -0.3771  2.9072
 2486TIP3   OH229092   5.602   3.821   1.414 -0.0748 -0.0569  0.0936
 2486TIP3    H129093   5.601   3.769   1.334  1.9291  0.6531 -0.4517
 2486TIP3    H229094   5.688   3.863   1.415 -1.3117  2.7119  0.8641
 2487TIP3   OH229095   1.321   4.805   2.544  0.3998  0.6339 -0.9048
 2487TIP3    H129096   1.379   4.852   2.605  0.0168  2.4468 -1.8429
 2487TIP3    H229097   1.233   4.830   2.572  0.2268  1.7663 -2.3380
 2488TIP3   OH229098   3.418   2.080   1.457  0.0695 -0.5818  0.5469
 2488TIP3    H129099   3.513   2.070   1.444 -0.1368 -0.7832 -0.9271
 2488TIP3    H229100   3.388   2.131   1.381 -1.3589 -2.5457 -0.2801
 2489TIP3   OH229101   1.538   5.411   0.405 -0.1389 -0.3066 -0.4040
 2489TIP3    H129102   1.538   5.477   0.337  0.2691  1.9080  1.5960
 2489TIP3    H229103   1.630   5.383   0.412 -0.2178 -0.6971 -0.8758
 2490TIP3   OH229104   2.504   6.711   3.631 -0.4858  0.1397  0.5886
 2490TIP3    H129105   2.478   6.765   3.706 -0.0362  1.6427 -0.2961
 2490TIP3    H229106   2.597   6.729   3.621 -0.0576 -1.7264  0.9750
 2491TIP3   OH229107   2.167   0.026   3.913  0.4767 -0.0958 -0.5222
 2491TIP3    H129108   2.163   0.064   4.001 -2.9328 -1.9054  0.3062
 2491TIP3    H229109   2.184  -0.067   3.929  0.8713 -0.2613 -1.8472
 2492TIP3   OH229110   4.773   6.432   8.735 -0.1590  0.1974 -0.0357
 2492TIP3    H129111   4.696   6.412   8.788  1.0171 -0.3921  1.5584
 2492TIP3    H229112   4.845   6.433   8.799  1.2264  0.1898 -1.5450
 2493TIP3   OH229113   1.742   5.808   2.799 -0.6835  0.3315  0.6568
 2493TIP3    H129114   1.707   5.843   2.881 -0.4938  2.0083  0.0581
 2493TIP3    H229115   1.837   5.817   2.806 -0.4498 -1.9490  1.2744
 2494TIP3   OH229116   0.894   4.718   2.512  0.1081  0.1314  0.5900
 2494TIP3    H129117   0.805   4.701   2.481  0.7708 -0.9879 -0.8087
 2494TIP3    H229118   0.909   4.810   2.490  0.3256 -0.4383 -2.0593
 2495TIP3   OH229119   3.736   0.533   0.203  0.1910  0.3391 -0.0088
 2495TIP3    H129120   3.740   0.511   0.110  3.4547  1.5013 -0.2659
 2495TIP3    H229121   3.822   0.510   0.237 -1.2282 -1.0011  3.0415
 2496TIP3   OH229122   5.464   6.624   1.621 -0.0369  0.2523 -0.5062
 2496TIP3    H129123   5.420   6.572   1.554 -0.4625 -0.9441  0.6418
 2496TIP3    H229124   5.506   6.559   1.678  0.4130  1.2297  0.3109
 2497TIP3   OH229125   2.324   3.887   8.233 -0.1795 -0.5121 -0.1565
 2497TIP3    H129126   2.305   3.932   8.151 -0.8466 -2.6997 -1.2893
 2497TIP3    H229127   2.401   3.833   8.214  0.0732 -0.5323  0.8604
 2498TIP3   OH229128   0.231   6.030   3.262 -0.2908 -0.2180  0.1232
 2498TIP3    H129129   0.196   5.952   3.218 -1.2791  0.3691 -0.1659
 2498TIP3    H229130   0.169   6.047   3.333 -0.9884  1.2127 -0.7812
 2499TIP3   OH229131   2.141   5.917   0.395 -0.1824 -0.5292 -0.4353
 2499TIP3    H129132   2.172   6.001   0.361 -1.6260 -0.7083 -2.4136
 2499TIP3    H229133   2.171   5.914   0.485  1.3159  1.3731 -0.8156
 2500TIP3   OH229134   6.017   5.298   0.190 -0.3494 -0.1286 -0.1070
 2500TIP3    H129135   5.996   5.391   0.189  1.3448  0.3469  2.0623
 2500TIP3    H229136   6.064   5.282   0.108  1.0799  1.4018  0.3746
 2501TIP3   OH229137   6.022   0.939   1.782 -0.1869  0.5729  0.1613
 2501TIP3    H129138   6.009   1.019   1.732 -0.9051  0.6455  0.4486
 2501TIP3    H229139   6.016   0.869   1.718 -0.2976  0.7081  0.0235
 2502TIP3   OH229140   1.652   4.441   1.031  0.3641  0.2338  0.3232
 2502TIP3    H129141   1.675   4.466   0.941  0.8914 -1.0301  0.0887
 2502TIP3    H229142   1.580   4.378   1.021  0.9420 -0.5015  0.7388
 2503TIP3   OH229143   2.374   5.746   1.288  0.7090 -0.4000  0.3915
 2503TIP3    H129144   2.278   5.753   1.288  0.5966 -1.4144  1.8382
 2503TIP3    H229145   2.399   5.762   1.198 -0.6745  1.6847  0.3085
 2504TIP3   OH229146   2.875   6.217   1.644 -0.3235  0.4778  0.3939
 2504TIP3    H129147   2.921   6.272   1.707  1.5941  0.1546 -0.6546
 2504TIP3    H229148   2.914   6.130   1.655 -1.3057 -0.0174  0.0686
 2505TIP3   OH229149   3.065   3.598   0.387 -0.1762  0.0949  0.2279
 2505TIP3    H129150   3.045   3.614   0.480  2.8223  2.1392  0.6972
 2505TIP3    H229151   3.110   3.513   0.387 -0.7196 -0.1979  0.5550
 2506TIP3   OH229152   3.818   6.633   3.313  0.0174 -0.5218  0.1133
 2506TIP3    H129153   3.750   6.569   3.335 -1.0550  0.7405  0.6084
 2506TIP3    H229154   3.849   6.607   3.226 -0.3578 -1.7220  0.3255
 2507TIP3   OH229155   3.317   5.647   2.324  0.8193 -0.4439  0.1844
 2507TIP3    H129156   3.389   5.707   2.305  0.9563 -0.9995 -1.1707
 2507TIP3    H229157   3.304   5.599   2.242 -1.8420  0.4256  0.0200
 2508TIP3   OH229158   4.867   6.469   4.249  0.0845 -0.2850 -0.3441
 2508TIP3    H129159   4.922   6.482   4.172  1.8643 -1.4133  0.6774
 2508TIP3    H229160   4.821   6.553   4.259  2.3430  1.0953 -0.7147
 2509TIP3   OH229161   0.585   6.704   3.290  0.4143 -0.4065  0.2837
 2509TIP3    H129162   0.541   6.628   3.329  0.0535 -0.5656 -0.4188
 2509TIP3    H229163   0.523   6.776   3.303  0.0836 -0.5605 -0.4108
 2510TIP3   OH229164   6.421   0.798   4.034  0.7821  0.3198 -0.1040
 2510TIP3    H129165   6.388   0.758   3.954  0.5743 -0.4686  0.3702
 2510TIP3    H229166   6.512   0.768   4.041  0.6404 -0.0416  0.2259
 2511TIP3   OH229167   1.893   3.133   2.527  0.2990  0.0823 -0.0059
 2511TIP3    H129168   1.860   3.060   2.580  0.1930  0.4251  0.3961
 2511TIP3    H229169   1.827   3.144   2.458  2.0958 -2.7190 -2.4388
 2512TIP3   OH229170   0.879   4.331   8.855 -0.4105 -0.3902  0.3764
 2512TIP3    H129171   0.970   4.343   8.881 -0.9110  1.0119  1.6197
 2512TIP3    H229172   0.883   4.279   8.774  1.6497  2.1767 -1.3322
 2513TIP3   OH229173   0.956   4.265   3.853 -0.2929 -0.1303  0.2919
 2513TIP3    H129174   0.882   4.226   3.899 -1.3473  0.2907 -1.0002
 2513TIP3    H229175   1.017   4.290   3.923 -1.3540 -0.5010  1.3799
 2514TIP3   OH229176   6.623   6.023   8.167  0.4756  0.6570 -0.1849
 2514TIP3    H129177   6.659   6.046   8.082  1.7960 -1.8948 -0.4147
 2514TIP3    H229178   6.550   5.964   8.148  2.8619 -2.7905  0.2768
 2515TIP3   OH229179   2.790   6.072   8.140 -0.2394 -0.0677 -0.4246
 2515TIP3    H129180   2.778   5.982   8.108 -0.5006  0.1886 -1.0685
 2515TIP3    H229181   2.702   6.107   8.150 -0.1290  0.5892 -1.5765
 2516TIP3   OH229182   5.054   4.112   2.808  0.0154  0.2941  0.5566
 2516TIP3    H129183   5.060   4.114   2.903  1.2271 -0.1988  0.5034
 2516TIP3    H229184   5.018   4.197   2.784  3.1757  1.9680  1.2378
 2517TIP3   OH229185   5.388   5.415   4.050 -0.2346 -0.2325 -0.0964
 2517TIP3    H129186   5.346   5.331   4.030 -0.9248  0.3260 -1.0967
 2517TIP3    H229187   5.320   5.465   4.096  0.0824 -0.1106  0.2490
 2518TIP3   OH229188   1.515   6.688   2.235  0.0810  0.1896 -0.4884
 2518TIP3    H129189   1.463   6.710   2.157 -1.0253  0.7612  0.3788
 2518TIP3    H229190   1.488   6.752   2.300  0.4345 -0.7505  0.6114
 2519TIP3   OH229191   4.025   2.842   3.423 -0.6488 -0.7155  0.2936
 2519TIP3    H129192   3.940   2.807   3.450 -2.0815  1.2626 -1.3865
 2519TIP3    H229193   4.026   2.835   3.328  0.9118 -0.2848  0.2409
 2520TIP3   OH229194   5.188   1.515   0.685  0.1030 -0.3055 -0.0140
 2520TIP3    H129195   5.264   1.533   0.629  0.2202 -0.1685  0.1886
 2520TIP3    H229196   5.113   1.521   0.626  0.0192  2.0083  0.2533
 2521TIP3   OH229197   2.307   6.090   1.014  0.1907 -0.4453  0.0781
 2521TIP3    H129198   2.398   6.075   0.989  0.6922  1.4342  0.5592
 2521TIP3    H229199   2.299   6.050   1.100  1.4105  1.6258  1.2504
 2522TIP3   OH229200   6.752   5.136   3.709 -0.2040  0.8942  0.3020
 2522TIP3    H129201   6.796   5.070   3.761  0.6292 -0.2238 -1.7035
 2522TIP3    H229202   6.738   5.209   3.769 -2.3169 -1.4672  3.0077
 2523TIP3   OH229203   4.639   3.936   2.365 -0.1736 -0.2941  0.0973
 2523TIP3    H129204   4.726   3.906   2.337  0.6989  1.1453  1.1772
 2523TIP3    H229205   4.634   3.913   2.457 -0.8334 -0.0903  0.1164
 2524TIP3   OH229206   3.567   2.646   0.632 -0.1372  0.3611 -0.0084
 2524TIP3    H129207   3.652   2.634   0.675 -0.8847  0.4757  1.5698
 2524TIP3    H229208   3.583   2.715   0.567  0.3785  2.4282  2.1677
 2525TIP3   OH229209   2.776   2.142   1.685 -0.4508  0.1911 -0.3644
 2525TIP3    H129210   2.701   2.201   1.693 -0.6506 -0.0893 -0.1278
 2525TIP3    H229211   2.779   2.119   1.592 -1.9729 -1.4544 -0.0765
 2526TIP3   OH229212   2.065   5.209   1.215  0.4731  0.2095 -0.3915
 2526TIP3    H129213   2.091   5.118   1.232 -0.2366 -0.3064 -1.8691
 2526TIP3    H229214   1.974   5.203   1.188  0.3525  1.4093 -0.3154
 2527TIP3   OH229215   2.039   5.766   1.847 -0.2299  0.2621  0.3587
 2527TIP3    H129216   1.972   5.697   1.841 -0.4487  0.5416 -0.4678
 2527TIP3    H229217   2.006   5.837   1.792  0.7714  0.3850 -0.0988
 2528TIP3   OH229218   3.882   3.215   2.174 -0.1104  0.3724 -0.0406
 2528TIP3    H129219   3.798   3.216   2.127  0.5359 -1.3649 -1.3571
 2528TIP3    H229220   3.947   3.234   2.106  0.6318  0.7614  0.7685
 2529TIP3   OH229221   5.839   4.146   2.369 -0.2335  0.3017 -0.0272
 2529TIP3    H129222   5.777   4.207   2.329 -1.7000 -0.4209  1.0371
 2529TIP3    H229223   5.785   4.089   2.423  1.2650 -1.0281  0.1491
 2530TIP3   OH229224   1.092   6.320   2.313  0.5044  0.2555  0.1686
 2530TIP3    H129225   1.172   6.323   2.364  0.9971  2.4389 -0.6109
 2530TIP3    H229226   1.107   6.252   2.248  1.5628  0.3282  0.3193
 2531TIP3   OH229227   1.788   3.149   3.293 -0.8599 -0.3551 -0.5720
 2531TIP3    H129228   1.792   3.186   3.204 -1.7025 -1.2033 -0.9777
 2531TIP3    H229229   1.865   3.092   3.298 -1.9050 -1.9218 -1.5325
 2532TIP3   OH229230   0.095   0.505   1.549 -0.2113  0.2556  0.3545
 2532TIP3    H129231   0.065   0.538   1.464 -1.8404 -1.3975  0.2100
 2532TIP3    H229232   0.019   0.515   1.606 -0.1320 -1.3647  0.7960
 2533TIP3   OH229233   4.298   2.124   3.460 -0.3986  0.1191 -0.4013
 2533TIP3    H129234   4.249   2.086   3.387  0.6457  1.3835 -1.8492
 2533TIP3    H229235   4.231   2.162   3.517 -1.2028  0.4978 -1.5549
 2534TIP3   OH229236   4.732   3.948   1.137 -0.0420  0.0977  0.2235
 2534TIP3    H129237   4.668   3.919   1.202 -0.3348 -1.2338 -0.6319
 2534TIP3    H229238   4.776   3.867   1.109  0.2371  0.6748 -1.0701
 2535TIP3   OH229239   3.069   4.308   0.674 -0.1863  0.1345  0.1113
 2535TIP3    H129240   3.013   4.236   0.702 -0.9213  0.6834  0.0655
 2535TIP3    H229241   3.129   4.322   0.748  1.1986 -1.7245 -0.5885
 2536TIP3   OH229242   0.729   2.511   1.763 -0.0704 -0.4293  0.1501
 2536TIP3    H129243   0.652   2.473   1.804 -1.4317 -0.8708 -2.5621
 2536TIP3    H229244   0.763   2.441   1.707  1.0288  0.4441 -0.3142
 2537TIP3   OH229245   3.422   4.541   2.959 -0.2047  0.0767 -0.1273
 2537TIP3    H129246   3.327   4.528   2.963 -0.3344  1.0760  0.4203
 2537TIP3    H229247   3.437   4.623   3.006  1.0632 -0.6631  0.8205
 2538TIP3   OH229248   5.898   0.525   1.270 -0.3061  0.8419  0.1159
 2538TIP3    H129249   5.925   0.511   1.361 -2.2285 -3.1453  0.2698
 2538TIP3    H229250   5.921   0.444   1.225 -1.1049  1.9815 -2.5366
 2539TIP3   OH229251   4.111   1.238   0.575  0.1513  0.4853  0.3219
 2539TIP3    H129252   4.118   1.262   0.482 -1.3411  0.0837  0.0738
 2539TIP3    H229253   4.022   1.264   0.599 -1.1683 -3.3789  0.3990
 2540TIP3   OH229254   0.988   1.149   4.528  0.3405 -0.2521 -0.1798
 2540TIP3    H129255   0.918   1.101   4.484  0.2402 -1.0414  0.7936
 2540TIP3    H229256   0.960   1.240   4.528 -1.8478 -0.8174  2.2142
 2541TIP3   OH229257   2.614   0.635   1.109 -0.0744  0.1943  0.2915
 2541TIP3    H129258   2.547   0.658   1.045 -0.0882  1.8661  0.8618
 2541TIP3    H229259   2.666   0.566   1.066 -1.5958 -0.5051 -0.4935
 2542TIP3   OH229260   1.270   4.870   2.273  0.3543 -0.2393  0.4805
 2542TIP3    H129261   1.331   4.850   2.344  1.6052 -0.9335 -0.7522
 2542TIP3    H229262   1.192   4.902   2.318  0.7399 -1.5597  2.2211
 2543TIP3   OH229263   6.267   5.881   2.136  0.0190 -0.1124  0.2332
 2543TIP3    H129264   6.359   5.876   2.162  0.3405  0.4685 -0.7475
 2543TIP3    H229265   6.260   5.820   2.062 -0.3547 -0.0389  0.2090
 2544TIP3   OH229266   0.069   4.960   8.474  0.1598  0.5327 -0.1752
 2544TIP3    H129267   0.000   5.026   8.469 -0.0966  0.1763 -1.5311
 2544TIP3    H229268   0.146   5.003   8.437  0.2950  0.4338 -0.0112
 2545TIP3   OH229269   5.343   4.855   2.525 -0.1020  0.2869  0.0210
 2545TIP3    H129270   5.390   4.906   2.459 -0.2492  0.7810  0.2917
 2545TIP3    H229271   5.266   4.822   2.479  1.5719 -2.4001 -1.0673
 2546TIP3   OH229272   1.587   5.565   1.088 -0.3934  0.1001 -0.6013
 2546TIP3    H129273   1.608   5.522   1.171 -0.2460 -0.4384 -0.9144
 2546TIP3    H229274   1.498   5.537   1.067 -1.1541  1.7128  0.2973
 2547TIP3   OH229275   1.600   1.124   1.821  0.2716  0.2902 -0.1755
 2547TIP3    H129276   1.566   1.044   1.781 -0.0742 -0.6137  1.8007
 2547TIP3    H229277   1.545   1.138   1.897  1.9678  0.9155  1.0002
 2548TIP3   OH229278   1.751   1.293   0.478  0.1256  0.6943 -0.2850
 2548TIP3    H129279   1.806   1.237   0.422  0.4491  0.2892  0.4195
 2548TIP3    H229280   1.771   1.264   0.567 -2.2225 -0.4102 -0.0296
 2549TIP3   OH229281   3.470   2.841   7.847 -0.1264  0.4509  0.2516
 2549TIP3    H129282   3.385   2.830   7.889  0.5587  1.5225  2.0474
 2549TIP3    H229283   3.496   2.931   7.869  2.5132 -0.5749  1.8329
 2550TIP3   OH229284   3.255   3.273   0.993 -0.5306  0.5294  0.1062
 2550TIP3    H129285   3.260   3.219   1.072 -0.9390 -3.2692 -2.2398
 2550TIP3    H229286   3.316   3.232   0.932 -1.1752  2.5279 -2.0237
 2551TIP3   OH229287   4.705   0.120   8.611 -0.1165 -0.7173 -0.7003
 2551TIP3    H129288   4.691   0.147   8.520 -0.0083 -0.9396 -0.7842
 2551TIP3    H229289   4.624   0.142   8.656 -0.1532 -0.5637 -0.8412
 2552TIP3   OH229290   4.446   1.475   1.581  0.2346  0.2821  0.3306
 2552TIP3    H129291   4.520   1.421   1.609  2.1091  2.2447 -0.5687
 2552TIP3    H229292   4.405   1.424   1.511  0.3537 -1.1088  1.2405
 2553TIP3   OH229293   4.476   3.186   2.552 -0.0985  0.7505  0.1125
 2553TIP3    H129294   4.478   3.118   2.619  1.4295 -0.8163 -1.4080
 2553TIP3    H229295   4.555   3.237   2.567  0.9088 -0.3598 -1.1495
 2554TIP3   OH229296   6.534   2.356   1.429 -0.2599 -0.2860  0.5715
 2554TIP3    H129297   6.444   2.386   1.416 -0.6095 -0.7714  1.7514
 2554TIP3    H229298   6.543   2.281   1.369 -1.0106 -0.9152  1.2120
 2555TIP3   OH229299   1.920   0.494   4.007  0.4565 -0.3791 -0.1328
 2555TIP3    H129300   1.920   0.588   4.022  1.0626 -0.6639  2.0204
 2555TIP3    H229301   1.967   0.483   3.924 -0.2411  1.2297 -0.7734
 2556TIP3   OH229302   6.688   3.415   2.583  0.3595 -0.5058  0.3503
 2556TIP3    H129303   6.771   3.374   2.606  1.6385  1.8991  0.3594
 2556TIP3    H229304   6.704   3.457   2.499 -0.1581  1.6386  1.2507
 2557TIP3   OH229305   1.676   5.599   0.629  0.3519  0.3749 -0.6064
 2557TIP3    H129306   1.764   5.567   0.613 -0.3245 -0.6450 -2.7774
 2557TIP3    H229307   1.619   5.535   0.587 -1.4400  1.0358  0.6629
 2558TIP3   OH229308   0.139   2.643   8.783  0.1704 -0.1898  0.4946
 2558TIP3    H129309   0.090   2.593   8.849  0.1643 -2.0512 -0.8508
 2558TIP3    H229310   0.212   2.682   8.832  0.5802 -2.1078  1.5236
 2559TIP3   OH229311   6.727   1.477   3.736  0.0442  0.9886  0.3291
 2559TIP3    H129312   6.708   1.401   3.792 -0.3482  0.2981 -0.7036
 2559TIP3    H229313   6.757   1.439   3.654 -0.8504  1.9294 -0.4628
 2560TIP3   OH229314   1.863   5.534   3.800 -0.0787  0.1325  0.5757
 2560TIP3    H129315   1.780   5.568   3.765  0.2406 -0.2780 -0.6200
 2560TIP3    H229316   1.920   5.611   3.805  1.1018 -0.2707 -3.4405
 2561TIP3   OH229317   1.065   5.890   2.567  0.5329 -0.3856 -0.1471
 2561TIP3    H129318   1.081   5.964   2.626  1.2117  0.3208 -1.1812
 2561TIP3    H229319   1.138   5.892   2.506 -0.7958 -0.3135 -1.8013
 2562TIP3   OH229320   4.028   4.192   0.322  0.1065  0.0595 -0.4257
 2562TIP3    H129321   4.062   4.208   0.410 -0.8689 -1.8728  0.3730
 2562TIP3    H229322   3.933   4.198   0.333 -0.0237 -0.3373 -1.3214
 2563TIP3   OH229323   6.680   6.729   1.562 -0.1301  0.1013 -0.1436
 2563TIP3    H129324   6.772   6.737   1.535 -0.4803 -1.5106 -2.0703
 2563TIP3    H229325   6.682   6.744   1.656  2.0985  0.2534 -0.1532
 2564TIP3   OH229326   0.849   2.958   0.561  0.2274  0.8663 -0.0522
 2564TIP3    H129327   0.809   3.044   0.546 -1.6202  0.4831  2.0936
 2564TIP3    H229328   0.864   2.923   0.473 -2.5921  1.8275 -1.0342
 2565TIP3   OH229329   4.813   4.589   2.872 -0.3193  0.3211 -0.4534
 2565TIP3    H129330   4.810   4.601   2.967 -2.5583 -0.7333 -0.3225
 2565TIP3    H229331   4.870   4.659   2.841  0.2383  0.8752  1.6369
 2566TIP3   OH229332   6.283   1.473   3.583 -0.2095 -0.7324 -0.3870
 2566TIP3    H129333   6.362   1.523   3.599 -1.1258  0.1352  1.8767
 2566TIP3    H229334   6.235   1.523   3.517  0.8270 -0.9480 -1.3155
 2567TIP3   OH229335   5.149   3.965   0.951 -0.3408 -0.2013 -0.4099
 2567TIP3    H129336   5.207   3.916   0.893  1.0133 -0.2778  0.9719
 2567TIP3    H229337   5.116   3.901   1.013 -0.9914  0.0774 -0.4530
 2568TIP3   OH229338   2.789   4.959   7.993  0.3752  0.2232 -0.3196
 2568TIP3    H129339   2.769   4.881   7.941 -1.2166  0.3345  0.0849
 2568TIP3    H229340   2.745   5.030   7.947  0.9744  0.7254 -0.1233
 2569TIP3   OH229341   1.220   2.059   2.199  0.6086  0.0814 -0.4421
 2569TIP3    H129342   1.203   2.102   2.282 -0.3397  1.4920 -1.3343
 2569TIP3    H229343   1.236   1.967   2.222  2.8291  0.8775  1.5150
 2570TIP3   OH229344   2.085   4.264   1.579  0.1142  0.5839 -0.6998
 2570TIP3    H129345   2.115   4.244   1.667  0.8405  0.2660 -1.0107
 2570TIP3    H229346   1.989   4.265   1.585  0.0472 -1.8128 -0.3960
 2571TIP3   OH229347   6.381   3.109   1.757  0.6849  0.2570 -0.1280
 2571TIP3    H129348   6.349   3.033   1.806 -0.5922 -0.2670 -1.6564
 2571TIP3    H229349   6.378   3.181   1.820 -1.1387 -0.3294  0.5420
 2572TIP3   OH229350   0.873   2.822   2.454  0.2595 -0.2922  0.0411
 2572TIP3    H129351   0.815   2.859   2.521  1.2359  1.2824  0.0610
 2572TIP3    H229352   0.959   2.819   2.495  0.5890 -0.7003 -0.6639
 2573TIP3   OH229353   2.235   5.472   8.856  0.1061  0.6098  0.0734
 2573TIP3    H129354   2.256   5.530   8.782  0.4086 -0.2505 -0.5334
 2573TIP3    H229355   2.260   5.522   8.934  1.3654  0.8844 -0.4792
 2574TIP3   OH229356   5.308   2.082   8.178 -0.2281  0.3196 -0.4185
 2574TIP3    H129357   5.219   2.063   8.150 -0.4957  2.7640 -1.4827
 2574TIP3    H229358   5.310   2.058   8.271 -1.8594 -0.1606 -0.4774
 2575TIP3   OH229359   3.086   1.978   2.734 -0.2871 -0.3485  0.0351
 2575TIP3    H129360   3.089   2.072   2.720 -2.9949 -0.0706  0.5845
 2575TIP3    H229361   3.056   1.942   2.651  0.0240 -0.6273  0.0435
 2576TIP3   OH229362   3.666   1.011   4.138  0.2836  0.5468 -0.1020
 2576TIP3    H129363   3.747   1.000   4.087 -0.5046  1.0713 -1.5213
 2576TIP3    H229364   3.650   0.925   4.177  0.8570  0.0996 -0.8327
 2577TIP3   OH229365   3.088   3.826   0.223  0.4145  0.1253  0.2428
 2577TIP3    H129366   3.096   3.760   0.291  2.3360 -0.7712 -0.7879
 2577TIP3    H229367   3.073   3.776   0.142 -0.2517  1.0721 -0.2450
 2578TIP3   OH229368   5.063   3.275   2.294  0.6975  0.4715  0.0570
 2578TIP3    H129369   5.060   3.370   2.287  0.7477  0.6483  1.9276
 2578TIP3    H229370   5.141   3.250   2.245  1.6179  1.5836  0.8866
 2579TIP3   OH229371   5.650   5.636   1.691  0.1991  0.0758  0.5655
 2579TIP3    H129372   5.615   5.584   1.619 -1.5652 -0.4063  1.7057
 2579TIP3    H229373   5.738   5.662   1.662 -1.1806  1.7495 -2.7031
 2580TIP3   OH229374   4.584   4.426   0.064  0.3189 -0.3965  0.5424
 2580TIP3    H129375   4.557   4.336   0.081 -0.9548 -0.2878 -0.7456
 2580TIP3    H229376   4.626   4.423  -0.022  2.4591 -0.1422  1.5187
 2581TIP3   OH229377   4.135   1.299   0.874 -0.2157 -0.5623  0.7569
 2581TIP3    H129378   4.080   1.327   0.801 -0.9077  1.0535  1.8486
 2581TIP3    H229379   4.137   1.203   0.866 -0.1096 -0.4432 -1.4507
 2582TIP3   OH229380   6.562   5.899   1.455  0.1088 -0.1167  0.4181
 2582TIP3    H129381   6.549   5.878   1.548 -0.1714 -0.9655  0.1984
 2582TIP3    H229382   6.486   5.954   1.433 -0.2563 -0.5789  0.4965
 2583TIP3   OH229383   6.276   5.690   0.063 -0.3165 -0.7706  0.1500
 2583TIP3    H129384   6.258   5.759   0.126  2.7575  0.0842  0.2032
 2583TIP3    H229385   6.371   5.682   0.060 -0.3880 -2.2129 -2.8467
 2584TIP3   OH229386   6.225   0.916   4.216  0.6286 -0.3065  0.8697
 2584TIP3    H129387   6.300   0.958   4.256 -0.0110  0.8218  0.9238
 2584TIP3    H229388   6.263   0.853   4.154  1.6057 -0.1849  1.3301
 2585TIP3   OH229389   2.992   5.436   2.647  0.3265  0.1027  0.1499
 2585TIP3    H129390   2.980   5.349   2.684  0.2626 -0.8145 -1.8695
 2585TIP3    H229391   2.902   5.469   2.635  0.3515  0.4982  0.9647
 2586TIP3   OH229392   1.940   2.547   3.168  0.1293  0.6890 -0.2000
 2586TIP3    H129393   2.014   2.567   3.225  1.0146 -0.2532 -0.9834
 2586TIP3    H229394   1.920   2.630   3.125  1.8759  0.6224 -1.2547
 2587TIP3   OH229395   2.021   2.566   0.616  0.0036 -0.1837  0.1286
 2587TIP3    H129396   2.094   2.560   0.678  1.1773 -0.2147 -1.2132
 2587TIP3    H229397   1.975   2.483   0.626 -0.1765  0.0385  1.3527
 2588TIP3   OH229398   1.009   0.723   0.318  0.6967  0.1095  0.3195
 2588TIP3    H129399   1.088   0.774   0.301  0.2406  0.4888 -0.8061
 2588TIP3    H229400   1.009   0.656   0.250  1.1370 -1.2411  1.6080
 2589TIP3   OH229401   3.491   6.663   1.907  0.3215  0.4899 -0.8661
 2589TIP3    H129402   3.483   6.583   1.854 -1.6883  0.1112 -0.0870
 2589TIP3    H229403   3.516   6.631   1.993 -0.7094  0.6558 -0.4940
 2590TIP3   OH229404   4.862   6.350   3.661 -0.3399  0.1865  0.2242
 2590TIP3    H129405   4.930   6.346   3.593  0.2699  1.2730  0.7429
 2590TIP3    H229406   4.903   6.309   3.738 -1.2976 -1.7508 -0.2409
 2591TIP3   OH229407   4.106   4.738   0.951  0.5988 -0.3721  0.6249
 2591TIP3    H129408   4.193   4.722   0.915  0.1124  0.7552 -1.2013
 2591TIP3    H229409   4.122   4.766   1.041  2.1690  0.3013  0.1618
 2592TIP3   OH229410   0.704   5.012   1.934 -0.8544  0.3989  0.3154
 2592TIP3    H129411   0.762   4.942   1.967  0.6290  1.3587 -0.1605
 2592TIP3    H229412   0.726   5.088   1.988 -1.1725  0.9603 -0.3383
 2593TIP3   OH229413   0.150   6.482   1.857  0.3532  0.0041 -0.4272
 2593TIP3    H129414   0.221   6.542   1.879 -0.5149  0.9611 -0.1306
 2593TIP3    H229415   0.070   6.532   1.875 -0.4000 -0.5990 -1.9427
 2594TIP3   OH229416   6.172   4.630   1.301 -0.6942  0.3005  0.2411
 2594TIP3    H129417   6.198   4.716   1.268 -1.3348 -0.7492 -3.5633
 2594TIP3    H229418   6.077   4.631   1.300 -0.7154 -0.5516 -0.3029
 2595TIP3   OH229419   4.180   4.841   0.687  0.0830  0.6121  0.0475
 2595TIP3    H129420   4.111   4.815   0.748 -0.8995 -1.2259 -1.7145
 2595TIP3    H229421   4.260   4.839   0.740 -0.8435  0.0117  1.4914
 2596TIP3   OH229422   6.612   4.719   2.888 -0.0088 -0.4637  0.1940
 2596TIP3    H129423   6.542   4.735   2.951 -1.3603  0.7792 -1.5153
 2596TIP3    H229424   6.632   4.806   2.852  0.9096 -1.0875 -0.8737
 2597TIP3   OH229425   2.036   1.689   8.855 -0.1957 -0.4044 -0.1880
 2597TIP3    H129426   2.066   1.598   8.856 -1.1084 -0.7153  1.3003
 2597TIP3    H229427   2.113   1.740   8.880  0.1221 -0.8154 -0.3021
 2598TIP3   OH229428   5.308   0.845   0.347  0.2961 -0.0315  0.4889
 2598TIP3    H129429   5.234   0.786   0.363  0.4096 -0.4742 -0.5656
 2598TIP3    H229430   5.294   0.879   0.259  0.7044  0.8514  0.7457
 2599TIP3   OH229431   5.737   0.977   0.677 -0.4958 -0.8973 -0.6926
 2599TIP3    H129432   5.740   0.984   0.773 -1.1961  0.5092 -0.7451
 2599TIP3    H229433   5.753   0.884   0.660 -2.1932 -1.5685  0.8873
 2600TIP3   OH229434   5.101   3.884   2.665 -0.7177  0.2810  0.7332
 2600TIP3    H129435   5.084   3.968   2.707 -0.7492  1.0934 -0.8425
 2600TIP3    H229436   5.100   3.821   2.737 -0.3136  1.6649  2.0030
 2601TIP3   OH229437   6.040   6.030   1.487 -0.2971  0.0653  0.6635
 2601TIP3    H129438   5.967   6.021   1.549 -1.5137 -0.8598 -0.8388
 2601TIP3    H229439   6.105   5.967   1.519 -0.9265 -0.4331  1.0002
 2602TIP3   OH229440   2.263   2.478   2.097 -0.1030 -1.1187 -0.0129
 2602TIP3    H129441   2.272   2.407   2.033 -0.0757 -1.4853  0.3962
 2602TIP3    H229442   2.233   2.553   2.045 -0.8266 -1.6209 -0.3247
 2603TIP3   OH229443   5.110   2.095   2.027 -0.0377  0.1280 -0.1851
 2603TIP3    H129444   5.165   2.017   2.041 -0.8224 -0.5037 -0.5029
 2603TIP3    H229445   5.117   2.144   2.109  1.1886  0.1954 -0.3057
 2604TIP3   OH229446   1.655   4.684   2.660 -0.3929  0.3432 -0.1387
 2604TIP3    H129447   1.686   4.766   2.698  2.8724 -0.3657 -0.9359
 2604TIP3    H229448   1.640   4.704   2.568 -0.3279  0.2434 -0.1716
 2605TIP3   OH229449   2.617   2.460   2.844 -0.1458 -0.0817  0.3886
 2605TIP3    H129450   2.562   2.449   2.921 -0.6355 -0.9401 -0.0652
 2605TIP3    H229451   2.560   2.437   2.770  0.3160  0.7190 -0.2353
 2606TIP3   OH229452   0.776   0.435   1.822  0.4858  0.1691  0.7393
 2606TIP3    H129453   0.783   0.491   1.899  0.0062  2.4272 -0.7331
 2606TIP3    H229454   0.825   0.357   1.844  1.6935  1.3968  2.7376
 2607TIP3   OH229455   5.482   2.326   3.689  0.6988 -0.7192  0.4551
 2607TIP3    H129456   5.522   2.321   3.776  0.1101  1.1062  0.8738
 2607TIP3    H229457   5.555   2.348   3.631  0.7590  0.1207  0.8299
 2608TIP3   OH229458   6.178   1.206   2.827  0.0231 -1.0457  0.3027
 2608TIP3    H129459   6.210   1.149   2.897  1.8766 -0.6102 -0.1227
 2608TIP3    H229460   6.250   1.267   2.811 -1.5386  0.8389  0.1101
 2609TIP3   OH229461   5.828   2.480   4.166  0.1409 -0.1762 -0.5497
 2609TIP3    H129462   5.746   2.527   4.158 -0.6152 -1.3934 -0.2729
 2609TIP3    H229463   5.847   2.479   4.260  0.2206 -0.2861 -0.5659
 2610TIP3   OH229464   0.528   3.494   8.558  0.2714 -0.0736  0.0186
 2610TIP3    H129465   0.604   3.452   8.520  0.0161 -1.2646  0.7905
 2610TIP3    H229466   0.548   3.588   8.554  0.6389 -0.1938 -2.1750
 2611TIP3   OH229467   2.026   2.115   1.465  0.2043  0.0867 -0.0298
 2611TIP3    H129468   1.983   2.135   1.549  1.6652 -0.7559  0.9643
 2611TIP3    H229469   2.023   2.019   1.459 -0.1410  0.1571 -1.0982
 2612TIP3   OH229470   3.645   1.017   3.531  0.2102  0.1145 -0.1341
 2612TIP3    H129471   3.566   1.056   3.494  0.1009  2.4533  2.2671
 2612TIP3    H229472   3.700   1.092   3.554  2.6406 -1.4078 -0.6043
 2613TIP3   OH229473   4.830   4.211   8.588 -0.2851  0.4202 -0.3493
 2613TIP3    H129474   4.824   4.117   8.604 -1.0250  0.4018 -0.7138
 2613TIP3    H229475   4.922   4.224   8.563  0.4201  0.1655  1.9153
 2614TIP3   OH229476   0.069   2.954   0.483 -0.7831  0.7927 -0.0977
 2614TIP3    H129477   0.121   2.918   0.411 -1.8907 -1.0783 -0.0229
 2614TIP3    H229478   0.020   3.026   0.444 -0.7817  0.3039 -1.0137
 2615TIP3   OH229479   1.676   0.181   3.857  0.3347  0.4033 -0.8764
 2615TIP3    H129480   1.647   0.090   3.862 -0.9473  0.8381  0.8383
 2615TIP3    H229481   1.624   0.219   3.786  1.7329 -0.4404 -2.4061
 2616TIP3   OH229482   3.601   0.262   8.873  0.2434  0.2028 -0.1295
 2616TIP3    H129483   3.638   0.350   8.867  1.9897 -0.5162 -0.4384
 2616TIP3    H229484   3.646   0.211   8.805 -3.1580 -0.1790 -2.3186
 2617TIP3   OH229485   0.120   4.579   8.322 -0.1813 -0.5948 -0.3099
 2617TIP3    H129486   0.026   4.596   8.333  0.1386  2.0976 -0.9245
 2617TIP3    H229487   0.146   4.531   8.400 -2.2116 -2.1354 -0.5176
 2618TIP3   OH229488   1.508   6.213   4.035  0.1345 -0.4590 -0.5674
 2618TIP3    H129489   1.503   6.136   4.091 -1.4572 -1.1291 -1.5686
 2618TIP3    H229490   1.600   6.241   4.041  0.0036 -0.3272  2.5314
 2619TIP3   OH229491   4.974   0.646   2.086  0.1580 -0.0905  0.0981
 2619TIP3    H129492   4.958   0.683   2.172 -1.5120  0.1439 -0.2776
 2619TIP3    H229493   4.910   0.575   2.078  1.3909 -1.1906 -0.3158
 2620TIP3   OH229494   0.786   5.518   8.622 -0.7243 -0.2903 -0.0911
 2620TIP3    H129495   0.797   5.560   8.707 -0.9876  1.3951 -0.8528
 2620TIP3    H229496   0.766   5.590   8.562 -3.5985 -1.7308 -1.0539
 2621TIP3   OH229497   5.374   1.297   0.978 -0.6868 -0.3050 -0.2782
 2621TIP3    H129498   5.350   1.385   0.952 -0.6522 -0.4839 -0.9336
 2621TIP3    H229499   5.412   1.258   0.899  0.8527 -0.3546  0.4494
 2622TIP3   OH229500   0.168   4.664   0.640 -0.2133 -0.0700  0.5245
 2622TIP3    H129501   0.084   4.618   0.635  0.2431 -1.0017  1.2001
 2622TIP3    H229502   0.144   4.755   0.655 -1.3098  0.6820 -4.0879
 2623TIP3   OH229503   1.559   2.963   2.559  0.3985  0.1376  0.3742
 2623TIP3    H129504   1.522   2.881   2.528  1.7984 -0.8493  1.2272
 2623TIP3    H229505   1.491   3.003   2.612  0.4511 -1.5472  1.7648
 2624TIP3   OH229506   5.063   4.492   1.277  0.2101  0.5689 -0.1653
 2624TIP3    H129507   4.988   4.481   1.335  0.7693  1.1113  0.6788
 2624TIP3    H229508   5.087   4.403   1.252 -0.1837  0.3430  0.2505
 2625TIP3   OH229509   5.352   3.161   0.412  0.4266  0.6023  0.2436
 2625TIP3    H129510   5.415   3.183   0.480  0.0443 -1.1278  1.2204
 2625TIP3    H229511   5.402   3.164   0.330  0.6509  3.7700  0.3598
 2626TIP3   OH229512   1.940   2.660   3.479  0.1312 -0.2092  0.3032
 2626TIP3    H129513   2.006   2.660   3.410 -0.5200 -1.7169 -0.3703
 2626TIP3    H229514   1.900   2.747   3.475  0.3219 -0.1621 -1.0214
 2627TIP3   OH229515   6.310   1.118   3.077  0.4789 -0.5535 -0.1457
 2627TIP3    H129516   6.255   1.132   3.154 -0.1632  0.6207 -0.7966
 2627TIP3    H229517   6.358   1.200   3.066  1.1518 -0.9929 -0.5520
 2628TIP3   OH229518   6.472   1.164   2.570  0.2761 -0.2153 -0.4215
 2628TIP3    H129519   6.396   1.111   2.549  0.4861 -0.4010 -0.7146
 2628TIP3    H229520   6.504   1.196   2.486  0.3858  0.0499 -0.2821
 2629TIP3   OH229521   1.458   0.601   0.826 -0.0961 -1.0091 -0.1790
 2629TIP3    H129522   1.392   0.644   0.881 -0.0824 -1.4151  0.1574
 2629TIP3    H229523   1.487   0.669   0.765  1.0153 -0.1113  1.3082
 2630TIP3   OH229524   0.590   1.144   1.475  0.3970  0.4836 -0.4378
 2630TIP3    H129525   0.620   1.215   1.532 -2.7886 -0.2376  2.5154
 2630TIP3    H229526   0.608   1.064   1.524  2.0429 -0.7048 -2.7953
 2631TIP3   OH229527   3.424   2.692   8.623  0.1172 -0.2937  0.2502
 2631TIP3    H129528   3.429   2.749   8.700 -1.2401 -2.0758  1.7278
 2631TIP3    H229529   3.337   2.654   8.626  0.2729 -0.9752 -1.8053
 2632TIP3   OH229530   4.897   0.016   1.736 -0.2219 -0.3394  0.4653
 2632TIP3    H129531   4.959   0.089   1.733 -0.7394  0.2059  1.8260
 2632TIP3    H229532   4.815   0.056   1.765 -1.2341 -1.0474 -1.3023
 2633TIP3   OH229533   4.620   1.958   0.512  0.4604  0.1980 -0.0355
 2633TIP3    H129534   4.709   1.933   0.535  0.8564 -0.7375 -2.3193
 2633TIP3    H229535   4.603   1.913   0.430 -2.3240 -0.0653  0.5798
 2634TIP3   OH229536   2.027   1.830   0.385 -0.3505  0.4947  0.1544
 2634TIP3    H129537   1.984   1.866   0.462 -1.4682 -0.0624 -0.1917
 2634TIP3    H229538   2.006   1.892   0.315 -0.1555  0.4849  0.0866
 2635TIP3   OH229539   6.680   0.843   1.376  0.0512 -0.3000  0.3821
 2635TIP3    H129540   6.649   0.907   1.312  0.8913  0.1109  0.3576
 2635TIP3    H229541   6.710   0.769   1.324  2.4306  0.7510  0.0946
 2636TIP3   OH229542   2.179   6.548   0.650 -0.4304  0.5224  0.0693
 2636TIP3    H129543   2.098   6.562   0.699  0.1135  0.6272  0.9582
 2636TIP3    H229544   2.247   6.586   0.705  0.0837  1.6294 -1.2689
 2637TIP3   OH229545   4.741   2.426   1.052 -0.0736  0.0361 -0.0400
 2637TIP3    H129546   4.806   2.452   0.987 -1.9064  1.2378 -1.4833
 2637TIP3    H229547   4.679   2.371   1.004 -2.3208  2.2031  0.2021
 2638TIP3   OH229548   1.884   0.756   4.063  0.2257  0.0526  0.1950
 2638TIP3    H129549   1.822   0.816   4.105 -0.1323 -0.9784  1.1874
 2638TIP3    H229550   1.960   0.811   4.043  0.6333  0.5138  2.6863
 2639TIP3   OH229551   0.245   2.671   1.074 -0.0991 -0.1157  0.4442
 2639TIP3    H129552   0.169   2.624   1.108  0.1181 -0.7290  0.1094
 2639TIP3    H229553   0.210   2.755   1.045 -0.5878 -0.2514  0.6263
 2640TIP3   OH229554   1.936   0.109   3.035 -0.5581  0.4991 -0.6622
 2640TIP3    H129555   2.001   0.122   3.104 -1.0371  1.4269 -0.3715
 2640TIP3    H229556   1.852   0.114   3.080 -0.8735  0.8805 -1.2786
 2641TIP3   OH229557   2.905   0.954   1.558  0.0043  0.0637 -0.6831
 2641TIP3    H129558   2.812   0.957   1.582 -0.8914 -1.1889 -3.5645
 2641TIP3    H229559   2.948   1.012   1.621 -3.0201  2.3978 -0.5580
 2642TIP3   OH229560   0.274   0.958   8.367  0.3302  0.4433  0.6709
 2642TIP3    H129561   0.336   0.885   8.376 -0.1797 -0.4251 -1.8919
 2642TIP3    H229562   0.188   0.918   8.377  0.0715  0.8483  0.1168
 2643TIP3   OH229563   4.619   0.214   8.334  0.1926 -0.7087 -0.2378
 2643TIP3    H129564   4.558   0.197   8.262  1.2782  0.0726 -1.3782
 2643TIP3    H229565   4.638   0.307   8.329 -0.1826 -0.4938  1.4835
 2644TIP3   OH229566   0.395   0.321   8.637  0.4844 -0.4294 -0.1685
 2644TIP3    H129567   0.490   0.323   8.638  0.5381 -1.8799  0.7778
 2644TIP3    H229568   0.369   0.406   8.602  2.1140  0.0533 -0.2644
 2645TIP3   OH229569   3.516   3.744   3.825 -0.0604  0.5811 -0.8049
 2645TIP3    H129570   3.586   3.690   3.789  0.2512  1.2591 -1.2340
 2645TIP3    H229571   3.438   3.715   3.779  0.1284  0.5973 -1.1378
 2646TIP3   OH229572   5.900   0.053   1.376  0.0673  0.1412 -0.2635
 2646TIP3    H129573   5.827   0.010   1.332  0.6762  0.1993 -1.3626
 2646TIP3    H229574   5.908   0.138   1.332  0.1908  0.5356  0.4969
 2647TIP3   OH229575   4.080   1.906   2.896  0.7887 -0.3109  0.0108
 2647TIP3    H129576   4.089   1.820   2.938 -0.6111 -0.6727 -0.3918
 2647TIP3    H229577   4.115   1.968   2.961  1.5899 -1.1499  0.4040
 2648TIP3   OH229578   4.264   4.333   1.143 -0.1005  0.1127 -0.0819
 2648TIP3    H129579   4.298   4.368   1.060  0.5552 -1.9771 -0.7557
 2648TIP3    H229580   4.308   4.249   1.153 -1.5053 -0.4820  1.5168
 2649TIP3   OH229581   0.303   6.028   1.749  0.5904  0.0182  0.7450
 2649TIP3    H129582   0.283   6.100   1.808  0.0942 -0.9958  1.8718
 2649TIP3    H229583   0.217   5.993   1.724  0.8034  0.2696 -0.3860
 2650TIP3   OH229584   6.623   4.151   2.232  0.1347  0.2606 -0.5859
 2650TIP3    H129585   6.663   4.227   2.190 -0.4345  0.7535 -0.2494
 2650TIP3    H229586   6.693   4.116   2.287  0.2675  0.8092 -0.3932
 2651TIP3   OH229587   6.045   6.323   2.041 -0.2566  0.2896  0.4312
 2651TIP3    H129588   6.083   6.375   2.112  0.3025 -0.1748  0.4694
 2651TIP3    H229589   6.048   6.233   2.072 -0.2897  0.1172 -0.0603
 2652TIP3   OH229590   5.263   4.365   8.834  0.3851 -0.0949 -0.2574
 2652TIP3    H129591   5.273   4.460   8.845  0.1650  0.0546 -1.2315
 2652TIP3    H229592   5.350   4.335   8.805  0.3765 -0.1507 -0.2258
 2653TIP3   OH229593   3.432   2.406   0.590 -0.1221  0.3582  0.3888
 2653TIP3    H129594   3.395   2.404   0.678 -0.1824  0.9713  0.3818
 2653TIP3    H229595   3.477   2.490   0.585 -0.6186  0.5932 -0.3616
 2654TIP3   OH229596   1.423   0.953   8.583 -0.2024  0.4435  0.3361
 2654TIP3    H129597   1.407   0.858   8.579  0.2059  0.3468  0.8420
 2654TIP3    H229598   1.514   0.960   8.613 -0.5025  0.9983  1.1608
 2655TIP3   OH229599   3.380   0.333   1.065  0.0411  0.2495 -0.0276
 2655TIP3    H129600   3.421   0.288   1.139 -0.0319  2.0851  1.2053
 2655TIP3    H229601   3.299   0.370   1.102  0.1803  1.5093 -0.9085
 2656TIP3   OH229602   0.592   5.249   3.501  0.2847  0.1039 -0.2277
 2656TIP3    H129603   0.508   5.291   3.518 -0.6869 -2.2585  1.3460
 2656TIP3    H229604   0.637   5.252   3.586  1.0685 -0.1281 -0.6273
 2657TIP3   OH229605   0.034   1.946   8.787  0.2227  0.2477 -0.0178
 2657TIP3    H129606   0.129   1.959   8.790  0.0905  1.0106  1.2785
 2657TIP3    H229607   0.016   1.927   8.695  1.4290  1.6629 -0.5860
 2658TIP3   OH229608   3.669   1.131   0.074  0.2745 -0.0306  0.0530
 2658TIP3    H129609   3.682   1.111  -0.019  0.9255 -0.5469  0.2512
 2658TIP3    H229610   3.646   1.224   0.075 -1.9477 -0.5217 -0.7990
 2659TIP3   OH229611   3.716   0.253   3.328 -0.2873 -0.2493 -0.8453
 2659TIP3    H129612   3.760   0.337   3.335 -1.1550  0.1335  0.5042
 2659TIP3    H229613   3.735   0.209   3.411 -2.7627  0.1471  0.0312
 2660TIP3   OH229614   5.738   1.874   8.810 -0.2329 -0.0175  0.0129
 2660TIP3    H129615   5.650   1.910   8.822  0.1923  0.8867  0.4719
 2660TIP3    H229616   5.765   1.904   8.723  0.1877  0.9579  0.4612
 2661TIP3   OH229617   0.405   6.168   8.622 -0.5904  0.2220  0.1789
 2661TIP3    H129618   0.423   6.189   8.530  2.0115 -0.1016  0.5449
 2661TIP3    H229619   0.437   6.244   8.671  2.4942 -1.4687  1.0446
 2662TIP3   OH229620   5.447   1.220   2.924 -0.2755 -0.0189  0.1169
 2662TIP3    H129621   5.401   1.303   2.930 -0.1305  0.0018  1.0807
 2662TIP3    H229622   5.385   1.155   2.957  0.1027 -0.0988  0.6849
 2663TIP3   OH229623   0.922   0.943   2.592  0.4787 -0.2208 -0.0170
 2663TIP3    H129624   0.943   0.862   2.638  1.2308 -0.0652 -0.0722
 2663TIP3    H229625   0.856   0.986   2.647 -1.1613 -1.6281 -0.8082
 2664TIP3   OH229626   1.825   2.681   1.775  0.1209 -0.2421 -0.0490
 2664TIP3    H129627   1.806   2.774   1.758 -0.8102 -0.0190  1.9083
 2664TIP3    H229628   1.740   2.638   1.769  0.2854 -0.6823  0.6644
 2665TIP3   OH229629   6.768   5.168   0.849 -0.0041  0.1292 -0.3630
 2665TIP3    H129630   6.733   5.220   0.777  0.1693 -0.9360 -1.2439
 2665TIP3    H229631   6.710   5.092   0.854 -0.5664  0.6172  1.2448
 2666TIP3   OH229632   1.655   2.504   2.597  0.3079 -0.0668  0.2017
 2666TIP3    H129633   1.618   2.573   2.542  0.3945  0.3366  0.6391
 2666TIP3    H229634   1.596   2.499   2.673  1.8520  1.5456  1.5939
 2667TIP3   OH229635   6.015   6.272   0.451 -0.0533 -0.3212  0.5363
 2667TIP3    H129636   5.984   6.362   0.438  0.6680 -0.1751 -0.2341
 2667TIP3    H229637   5.936   6.219   0.444 -0.3324  0.1649 -0.0882
 2668TIP3   OH229638   0.717   2.757   1.631  0.3316  0.2806 -0.3848
 2668TIP3    H129639   0.712   2.683   1.692  0.9793 -1.0337 -1.8626
 2668TIP3    H229640   0.805   2.793   1.645 -0.0845  0.9954  0.5363
 2669TIP3   OH229641   5.618   3.940   3.418 -0.6364 -0.0569 -0.1691
 2669TIP3    H129642   5.674   3.923   3.494  0.0278  1.4095 -0.3069
 2669TIP3    H229643   5.545   3.990   3.454 -1.4389 -1.1849 -0.1538
 2670TIP3   OH229644   0.581   1.436   0.746 -0.0510  0.3887  0.5829
 2670TIP3    H129645   0.565   1.465   0.656 -1.2154 -2.2428 -0.1484
 2670TIP3    H229646   0.671   1.404   0.744 -0.2153 -0.0565  0.2382
 2671TIP3   OH229647   0.594   6.169   0.860  0.2759 -0.2005 -0.1733
 2671TIP3    H129648   0.518   6.155   0.916  0.3789  1.4683  0.4357
 2671TIP3    H229649   0.667   6.176   0.921  0.2224  2.8908 -0.2972
 2672TIP3   OH229650   2.363   2.834   2.079  0.0995 -0.1749 -0.0367
 2672TIP3    H129651   2.294   2.802   2.137 -0.2347  0.0292 -0.3251
 2672TIP3    H229652   2.426   2.876   2.138  1.0032 -2.1204  0.4655
 2673TIP3   OH229653   0.992   2.259   1.033  0.5566  0.3703  0.2910
 2673TIP3    H129654   1.004   2.185   1.092  1.0383  0.6748  0.5794
 2673TIP3    H229655   1.018   2.225   0.947 -0.9769 -0.3341  0.0718
 2674TIP3   OH229656   6.699   5.597   0.498 -0.1940  0.3393 -0.1456
 2674TIP3    H129657   6.736   5.567   0.414 -0.0331 -1.8284  0.6211
 2674TIP3    H229658   6.610   5.561   0.498  0.3136 -1.0194  1.2244
 2675TIP3   OH229659   6.047   0.458   8.648  0.4674 -0.2583  0.7247
 2675TIP3    H129660   6.061   0.364   8.659 -0.3340 -0.6468 -1.1614
 2675TIP3    H229661   6.031   0.469   8.555  0.8745  1.8173  0.8602
 2676TIP3   OH229662   5.930   5.622   2.011  0.0598  0.0709  0.2767
 2676TIP3    H129663   5.938   5.664   2.097 -1.7436 -1.3657  1.2279
 2676TIP3    H229664   5.970   5.684   1.950 -0.4965  2.1286  1.8751
 2677TIP3   OH229665   3.620   3.055   2.250  0.2170  0.1225  0.1616
 2677TIP3    H129666   3.619   3.124   2.184  0.4161 -0.8244 -0.8535
 2677TIP3    H229667   3.533   3.016   2.246  0.0828  0.3436  0.7790
 2678TIP3   OH229668   4.756   2.807   0.813 -0.3817  0.6531 -0.1611
 2678TIP3    H129669   4.807   2.850   0.743 -0.2504 -0.6233 -0.8752
 2678TIP3    H229670   4.822   2.767   0.869 -0.5462  0.1682 -0.3104
 2679TIP3   OH229671   5.923   2.797   1.475 -0.2269 -0.3955 -0.1227
 2679TIP3    H129672   5.898   2.716   1.431  0.0447 -1.4341  1.5650
 2679TIP3    H229673   5.888   2.789   1.563 -0.6011  1.5562 -0.0571
 2680TIP3   OH229674   2.199   6.007   0.669  0.1394  0.1479  0.4112
 2680TIP3    H129675   2.170   6.097   0.656 -0.4639 -0.1492 -0.3325
 2680TIP3    H229676   2.275   6.015   0.727  0.0358  1.1245  0.4287
 2681TIP3   OH229677   5.856   0.219   8.343 -0.1844  0.6241 -0.1884
 2681TIP3    H129678   5.932   0.198   8.288  0.1699 -0.2811  0.6270
 2681TIP3    H229679   5.789   0.157   8.316  0.4514 -0.7988  1.3458
 2682TIP3   OH229680   4.624   5.584   1.410 -0.3557  0.2406 -0.0638
 2682TIP3    H129681   4.715   5.594   1.380 -0.3643 -0.6382 -0.4142
 2682TIP3    H229682   4.612   5.654   1.474  0.9003 -0.2810  0.7779
 2683TIP3   OH229683   0.272   2.592   2.894 -0.0013  0.3468  0.0110
 2683TIP3    H129684   0.224   2.663   2.936  0.0240  0.5590 -0.3133
 2683TIP3    H229685   0.351   2.634   2.859  0.6740 -0.0895  0.9849
 2684TIP3   OH229686   1.907   2.989   8.828  0.3015  0.2090 -0.1001
 2684TIP3    H129687   1.925   2.909   8.778 -1.3414 -0.3621  0.1801
 2684TIP3    H229688   1.825   3.023   8.791  1.0463  1.8878 -0.3302
 2685TIP3   OH229689   1.937   2.246   8.743  0.1969 -0.7340  0.1428
 2685TIP3    H129690   1.964   2.223   8.832  0.1909  1.9454  0.9395
 2685TIP3    H229691   1.859   2.300   8.755 -0.5615 -1.3778 -1.6039
 2686TIP3   OH229692   1.704   5.712   3.661  0.3194  0.2917  0.5011
 2686TIP3    H129693   1.664   5.683   3.578 -0.8026  2.1509  0.3283
 2686TIP3    H229694   1.629   5.724   3.720  1.1396 -1.4702  1.9893
 2687TIP3   OH229695   2.880   1.066   1.845  0.2929 -0.4972 -0.2467
 2687TIP3    H129696   2.847   1.148   1.810 -0.8286 -1.0785 -0.6097
 2687TIP3    H229697   2.838   1.058   1.931  0.6228 -0.5465 -0.0901
 2688TIP3   OH229698   1.716   3.029   8.606  0.2157 -0.1364  0.0818
 2688TIP3    H129699   1.781   3.099   8.618 -2.0002  2.2036 -0.6284
 2688TIP3    H229700   1.728   3.001   8.515  0.1766  0.3703 -0.0855
 2689TIP3   OH229701   2.717   5.390   2.602  0.1180  0.1119  0.0743
 2689TIP3    H129702   2.622   5.382   2.608  0.1787 -0.9664 -0.1586
 2689TIP3    H229703   2.732   5.433   2.517 -0.1264 -1.0713 -0.5905
 2690TIP3   OH229704   5.037   4.446   7.747 -0.0096 -0.2996 -0.3930
 2690TIP3    H129705   4.955   4.415   7.710  0.1227 -1.4434  0.2428
 2690TIP3    H229706   5.011   4.510   7.814 -0.2662  1.2606 -1.9184
 2691TIP3   OH229707   5.981   5.455   1.791  0.1336  0.3382  0.1606
 2691TIP3    H129708   5.950   5.422   1.706  0.5242 -2.2726  0.9411
 2691TIP3    H229709   5.965   5.549   1.787  0.5691  0.3921 -2.9881
 2692TIP3   OH229710   2.812   2.657   1.108  0.2614 -0.3649 -0.4263
 2692TIP3    H129711   2.786   2.748   1.093  2.3219  0.5105  0.9397
 2692TIP3    H229712   2.762   2.630   1.185  2.1093  0.8174  1.2744
 2693TIP3   OH229713   5.915   3.753   3.230 -1.0075  0.0235  0.1362
 2693TIP3    H129714   5.931   3.709   3.147 -0.6022  1.2062 -0.4258
 2693TIP3    H229715   5.941   3.844   3.216  0.6628 -0.0818  2.0329
 2694TIP3   OH229716   6.213   0.563   1.176 -0.3066  0.0940 -0.2416
 2694TIP3    H129717   6.221   0.493   1.111 -0.2775 -1.2765  1.1717
 2694TIP3    H229718   6.294   0.557   1.227 -1.1170 -0.0894  1.0608
 2695TIP3   OH229719   0.427   5.185   1.881 -0.9094 -0.3852  0.5307
 2695TIP3    H129720   0.518   5.214   1.876 -0.8374 -0.7095 -0.3793
 2695TIP3    H229721   0.403   5.192   1.973  0.0903 -0.4467  0.7980
 2696TIP3   OH229722   6.615   3.975   0.819  0.1634  0.0995  0.2715
 2696TIP3    H129723   6.694   3.931   0.849  0.8535  0.7005 -0.6328
 2696TIP3    H229724   6.573   4.006   0.900  0.7730 -0.3370  0.7658
 2697TIP3   OH229725   2.333   5.691   8.489  1.0144  0.1316 -0.5930
 2697TIP3    H129726   2.301   5.669   8.402  1.4311 -4.3274  0.1148
 2697TIP3    H229727   2.408   5.748   8.474  0.7021 -0.0149 -3.0843
 2698TIP3   OH229728   1.214   2.443   0.222  0.1792  0.0068  0.7529
 2698TIP3    H129729   1.154   2.373   0.195 -1.0452  1.0586  0.6487
 2698TIP3    H229730   1.293   2.428   0.170 -1.0706  0.2955 -1.3539
 2699TIP3   OH229731   6.090   0.070   1.808  0.1289  0.0301  0.1704
 2699TIP3    H129732   6.057  -0.005   1.858 -0.0614  0.2455  0.3705
 2699TIP3    H229733   6.099   0.037   1.719 -1.0181  0.0727  0.0178
 2700TIP3   OH229734   3.937   4.208   3.293 -0.4557 -0.6391  0.0998
 2700TIP3    H129735   3.886   4.192   3.372 -1.4995  3.9257  0.6662
 2700TIP3    H229736   4.028   4.206   3.321 -0.7420 -0.6941  1.0310
 2701TIP3   OH229737   4.356   1.657   3.374 -0.3362 -0.2339 -0.2544
 2701TIP3    H129738   4.370   1.562   3.374  1.0696 -0.0592  0.4708
 2701TIP3    H229739   4.342   1.679   3.466 -0.0555  0.3362 -0.3423
 2702TIP3   OH229740   5.768   0.779   8.600 -0.2075 -0.3565  0.1590
 2702TIP3    H129741   5.816   0.850   8.557 -0.5537 -0.8166 -1.0225
 2702TIP3    H229742   5.714   0.823   8.665  0.6750  0.3137  0.4612
 2703TIP3   OH229743   2.675   3.318   0.277 -0.3388  0.4426 -0.2938
 2703TIP3    H129744   2.729   3.304   0.199 -0.2451  1.3300 -0.4039
 2703TIP3    H229745   2.694   3.408   0.303  0.9619 -0.3631  1.8002
 2704TIP3   OH229746   5.981   1.893   0.584 -0.0629  0.2207 -0.3792
 2704TIP3    H129747   5.992   1.859   0.672  0.9126  0.0453 -0.5629
 2704TIP3    H229748   5.888   1.878   0.564 -0.9170  2.4200  1.4978
 2705TIP3   OH229749   2.162   0.688   2.198 -0.0367 -0.3868  0.7993
 2705TIP3    H129750   2.142   0.645   2.115  1.3755 -0.6444  0.5616
 2705TIP3    H229751   2.077   0.704   2.238 -0.6907 -1.3445 -0.1544
 2706TIP3   OH229752   0.418   0.361   2.792  0.0376 -0.0105 -0.3789
 2706TIP3    H129753   0.471   0.349   2.871  1.7174 -0.8995 -1.5494
 2706TIP3    H229754   0.377   0.276   2.778 -0.5182  0.2415 -0.2938
 2707TIP3   OH229755   0.873   6.293   3.698 -0.2393 -0.6310 -0.5935
 2707TIP3    H129756   0.941   6.293   3.766 -0.8019  0.9905  0.0371
 2707TIP3    H229757   0.906   6.354   3.632 -1.5132  1.1199  0.2762
 2708TIP3   OH229758   4.220   0.572   8.807  0.1407 -0.2437 -0.4708
 2708TIP3    H129759   4.235   0.654   8.759  0.6512  0.6341  1.1304
 2708TIP3    H229760   4.191   0.511   8.739  1.6358  0.6956 -2.0695
 2709TIP3   OH229761   2.258   3.036   1.209 -0.2056  0.2557 -0.0808
 2709TIP3    H129762   2.228   2.973   1.275 -0.9056  1.3661  0.6830
 2709TIP3    H229763   2.193   3.106   1.211  0.6760  1.1191 -0.7525
 2710TIP3   OH229764   1.540   1.392   1.670  0.1390  0.2245 -0.0758
 2710TIP3    H129765   1.446   1.405   1.684 -0.5670 -1.5345 -2.4889
 2710TIP3    H229766   1.554   1.299   1.691  0.7422 -0.2025 -2.0999
 2711TIP3   OH229767   4.474   5.077   1.522 -0.1091 -0.7706 -0.2067
 2711TIP3    H129768   4.536   5.073   1.596  0.6466  0.5452 -0.7451
 2711TIP3    H229769   4.508   5.146   1.466 -2.8008  0.9569  0.1255
 2712TIP3   OH229770   3.124   6.260   0.359  0.4465  0.1117 -0.4761
 2712TIP3    H129771   3.188   6.188   0.366  1.4138  1.0448  0.7397
 2712TIP3    H229772   3.066   6.247   0.435 -2.1188 -1.8459 -2.5634
 2713TIP3   OH229773   2.955   5.541   1.402  0.3772 -0.4481  0.1473
 2713TIP3    H129774   2.878   5.563   1.351  1.5943 -0.6623 -1.8775
 2713TIP3    H229775   2.942   5.584   1.486 -1.6447  0.0056 -0.3610
 2714TIP3   OH229776   2.165   6.248   8.638  0.4330 -0.3167  0.2665
 2714TIP3    H129777   2.070   6.248   8.626  0.6988 -1.7061 -2.6715
 2714TIP3    H229778   2.180   6.186   8.709 -0.8125 -0.3508  0.5264
 2715TIP3   OH229779   0.752   2.708   8.789 -0.1627  0.0721  0.4144
 2715TIP3    H129780   0.842   2.678   8.802 -0.0407 -0.3289 -1.1389
 2715TIP3    H229781   0.761   2.801   8.765 -0.2928  0.4677  1.8506
 2716TIP3   OH229782   5.907   5.065   8.847  0.5376 -0.1232  0.3108
 2716TIP3    H129783   5.951   5.130   8.792  0.1253 -1.0405 -1.1573
 2716TIP3    H229784   5.837   5.031   8.792  0.6626 -1.7070  1.0878
 2717TIP3   OH229785   5.637   3.132   2.992 -0.2448 -0.1951  0.2513
 2717TIP3    H129786   5.722   3.088   2.981  0.2787  0.8912 -0.2316
 2717TIP3    H229787   5.660   3.223   3.009 -1.2631  0.8584 -3.1229
 2718TIP3   OH229788   1.263   3.311   7.969 -0.3583  0.2558  0.9668
 2718TIP3    H129789   1.174   3.277   7.970 -0.4786  0.5753  1.2329
 2718TIP3    H229790   1.253   3.406   7.961  0.0011  0.1446 -1.7768
 2719TIP3   OH229791   1.841   2.416   1.143 -0.0121 -0.9011 -0.3814
 2719TIP3    H129792   1.874   2.446   1.227  0.2264 -2.1415 -0.0041
 2719TIP3    H229793   1.756   2.375   1.163  0.1567 -1.4204 -0.6897
 2720TIP3   OH229794   5.768   1.485   0.290 -0.3291  0.0106  0.0363
 2720TIP3    H129795   5.712   1.560   0.269  1.2317  0.9452 -0.9127
 2720TIP3    H229796   5.775   1.436   0.208  1.3185  0.6585 -0.2430
 2721TIP3   OH229797   3.406   5.034   0.565  0.3915 -0.0434  0.1322
 2721TIP3    H129798   3.421   5.014   0.473  2.0869  1.7092 -0.0476
 2721TIP3    H229799   3.494   5.039   0.603 -0.2816 -1.0521  1.9378
 2722TIP3   OH229800   4.424   0.338   8.568 -0.4434 -0.1912 -0.0872
 2722TIP3    H129801   4.445   0.332   8.474 -1.4123  1.5884 -0.4716
 2722TIP3    H229802   4.328   0.341   8.570 -0.5760 -2.8838  1.2080
 2723TIP3   OH229803   6.482   5.724   1.254  0.6233  0.0173  0.7046
 2723TIP3    H129804   6.388   5.740   1.246  1.1672  3.4363 -0.4800
 2723TIP3    H229805   6.509   5.776   1.330  1.7760  0.4026  0.0617
 2724TIP3   OH229806   2.926   5.582   8.583  0.3498  0.5135  0.0551
 2724TIP3    H129807   2.911   5.623   8.498 -0.6878  2.9377  1.2840
 2724TIP3    H229808   3.022   5.575   8.589  0.6454  3.0831 -0.2075
 2725TIP3   OH229809   0.875   3.201   2.632  0.2745 -0.1932  0.0683
 2725TIP3    H129810   0.859   3.281   2.582 -0.4908  0.0340  0.6689
 2725TIP3    H229811   0.962   3.213   2.669  0.4735  0.0282 -0.4600
 2726TIP3   OH229812   2.238   5.108   0.940  0.3294 -0.1766  0.4344
 2726TIP3    H129813   2.279   5.172   0.882  0.7882 -0.5282  0.3649
 2726TIP3    H229814   2.172   5.158   0.988  0.2498  0.2154 -0.0653
 2727TIP3   OH229815   0.368   1.349   4.118 -0.4140 -0.3462  0.6841
 2727TIP3    H129816   0.320   1.333   4.199  0.2243 -2.1347  0.7559
 2727TIP3    H229817   0.424   1.425   4.138 -2.2835  1.0131  0.9614
 2728TIP3   OH229818   1.251   3.144   1.937 -0.3140  0.0541 -0.4000
 2728TIP3    H129819   1.310   3.139   2.012 -0.0636  0.1069 -0.5921
 2728TIP3    H229820   1.166   3.118   1.972 -0.2579  0.3531 -0.0352
 2729TIP3   OH229821   4.245   0.184   3.432 -0.1091  0.6868  0.4678
 2729TIP3    H129822   4.277   0.151   3.348 -0.2982  2.1216 -0.1895
 2729TIP3    H229823   4.219   0.274   3.414 -1.3958  0.5998  1.7654
 2730TIP3   OH229824   2.725   5.337   0.338  0.4484  0.2122  0.0201
 2730TIP3    H129825   2.755   5.312   0.425 -0.9505  0.1659  0.5155
 2730TIP3    H229826   2.677   5.419   0.352  1.5941  1.0858 -0.9771
 2731TIP3   OH229827   5.501   1.026   1.000 -0.5398  0.3120 -0.1579
 2731TIP3    H129828   5.493   0.991   0.911 -1.0665 -2.3869  0.8379
 2731TIP3    H229829   5.447   1.105   1.001  0.3988  1.0740 -2.4954
 2732TIP3   OH229830   0.470   1.347   3.586 -0.8580  0.3170 -1.1046
 2732TIP3    H129831   0.489   1.403   3.511  1.3911 -1.1375 -1.7305
 2732TIP3    H229832   0.406   1.284   3.554 -0.3514  0.0659 -1.6306
 2733TIP3   OH229833   6.209   2.245   1.076 -0.0860 -0.4282 -0.2627
 2733TIP3    H129834   6.228   2.174   1.015  1.5384 -1.2354  1.1187
 2733TIP3    H229835   6.295   2.277   1.104 -0.7864  0.4408  1.0179
 2734TIP3   OH229836   5.039   2.117   3.234 -0.0417  0.1685  0.3974
 2734TIP3    H129837   4.990   2.165   3.301  0.0551 -0.0489  0.6247
 2734TIP3    H229838   5.003   2.149   3.151 -0.1389  0.4635  0.5492
 2735TIP3   OH229839   2.525   1.940   2.337 -0.2576 -0.3179 -0.1252
 2735TIP3    H129840   2.547   2.005   2.270  0.0923  1.7591  1.8782
 2735TIP3    H229841   2.432   1.922   2.324 -0.1086 -0.2121 -1.3823
 2736TIP3   OH229842   4.207   5.724   3.217 -0.6527 -0.1580 -0.0734
 2736TIP3    H129843   4.275   5.789   3.236 -0.7896 -0.2712  0.8364
 2736TIP3    H229844   4.244   5.641   3.247 -1.1304 -0.2437  0.2930
 2737TIP3   OH229845   5.472   1.368   3.819  0.1135 -0.6042  0.5023
 2737TIP3    H129846   5.379   1.347   3.826  0.0213 -0.3517  0.0794
 2737TIP3    H229847   5.505   1.359   3.908 -0.1481 -1.4584  0.5216
 2738TIP3   OH229848   1.532   2.570   1.929  0.1799 -0.5432 -0.2946
 2738TIP3    H129849   1.533   2.502   1.997 -1.3719  1.2760  1.7020
 2738TIP3    H229850   1.474   2.535   1.861 -0.9737 -1.0660  0.9051
 2739TIP3   OH229851   4.077   1.116   0.170 -0.2242  0.3937 -0.8251
 2739TIP3    H129852   4.051   1.091   0.081 -1.6855 -0.0713 -0.2923
 2739TIP3    H229853   4.033   1.200   0.185  0.1867  0.5716 -0.6070
 2740TIP3   OH229854   1.175   6.125   1.830 -0.0785  0.1026  0.3866
 2740TIP3    H129855   1.148   6.182   1.758  3.3346  0.4015 -0.8204
 2740TIP3    H229856   1.223   6.183   1.889  0.8305 -0.9399  0.6985
 2741TIP3   OH229857   2.668   5.897   1.234 -0.5743  0.3379  0.2049
 2741TIP3    H129858   2.586   5.944   1.248  0.8664  2.7900  0.9799
 2741TIP3    H229859   2.736   5.959   1.260  1.5928 -1.1666 -1.5088
 2742TIP3   OH229860   4.194   1.332   1.540  0.1912 -0.3371  0.1366
 2742TIP3    H129861   4.190   1.410   1.485 -0.6554 -0.0719  0.5650
 2742TIP3    H229862   4.107   1.293   1.532  0.4325 -0.9343  0.3691
 2743TIP3   OH229863   1.027   1.580   3.985 -0.1021  0.2188 -0.6032
 2743TIP3    H129864   1.026   1.498   4.033  0.9164  0.0586 -0.8432
 2743TIP3    H229865   0.940   1.585   3.945 -0.2921 -0.5730 -0.3083
 2744TIP3   OH229866   6.174   2.114   0.586 -0.4144  0.1189 -0.0644
 2744TIP3    H129867   6.162   2.053   0.659 -0.1401 -0.7715 -0.7368
 2744TIP3    H229868   6.157   2.061   0.508 -1.6503  1.2822 -0.6334
 2745TIP3   OH229869   2.970   4.068   1.890  0.8212 -0.8676  0.8880
 2745TIP3    H129870   2.964   4.039   1.799  0.6160  0.9326  0.2932
 2745TIP3    H229871   3.053   4.115   1.894  2.0888 -3.0627  2.3161
 2746TIP3   OH229872   4.796   0.403   1.510  0.4993 -0.1323 -0.3737
 2746TIP3    H129873   4.859   0.341   1.547  0.0008 -2.3201 -2.8527
 2746TIP3    H229874   4.711   0.360   1.522  0.2025 -0.3015 -2.6566
 2747TIP3   OH229875   6.282   6.550   1.416  0.2714  0.5156  0.2235
 2747TIP3    H129876   6.255   6.459   1.408 -1.1585  0.5316  3.1898
 2747TIP3    H229877   6.223   6.598   1.357  0.7530 -0.4155 -1.0390
 2748TIP3   OH229878   3.722   0.202   2.671  0.0109 -0.6737  0.5711
 2748TIP3    H129879   3.816   0.217   2.683  0.0889  1.3663 -1.7020
 2748TIP3    H229880   3.714   0.107   2.665  1.4560 -1.0804  3.6026
 2749TIP3   OH229881   0.770   3.752   8.766 -0.3727  0.0999 -0.0887
 2749TIP3    H129882   0.849   3.807   8.759  0.2594 -0.3877  2.2190
 2749TIP3    H229883   0.763   3.710   8.681  2.1409 -0.1546 -0.2672
 2750TIP3   OH229884   2.027   6.268   0.551  0.4081 -0.1750  0.6259
 2750TIP3    H129885   2.047   6.265   0.458 -0.6178 -2.6796  0.4110
 2750TIP3    H229886   2.108   6.295   0.593  1.3929 -0.7101 -0.8713
 2751TIP3   OH229887   2.256   0.883   1.865  0.1076 -0.0619 -0.2056
 2751TIP3    H129888   2.201   0.809   1.841  0.0999  0.1536 -0.8481
 2751TIP3    H229889   2.194   0.952   1.892  0.1311 -0.5071  1.0683
 2752TIP3   OH229890   1.575   3.313   1.186 -0.5571  0.1589 -0.1059
 2752TIP3    H129891   1.547   3.381   1.247  0.7873  0.4682  0.2050
 2752TIP3    H229892   1.669   3.329   1.174  0.6955 -3.6052  2.6576
 2753TIP3   OH229893   0.250   1.306   0.378 -0.4653  0.4991  0.0713
 2753TIP3    H129894   0.224   1.383   0.326 -1.7235 -0.0739 -0.1822
 2753TIP3    H229895   0.222   1.231   0.325 -1.5214 -0.1126  1.4343
 2754TIP3   OH229896   4.840   1.686   8.819  0.2911  0.2215  0.2603
 2754TIP3    H129897   4.915   1.632   8.795  0.5346  1.1151 -1.1229
 2754TIP3    H229898   4.847   1.763   8.762 -1.6001  0.3738  0.1631
 2755TIP3   OH229899   4.925   0.608   0.083  0.2330 -0.0825  0.2933
 2755TIP3    H129900   4.913   0.523   0.041  0.1284 -0.1952  0.5523
 2755TIP3    H229901   4.881   0.601   0.167  1.5339 -0.2954  0.9876
 2756TIP3   OH229902   4.102   0.286   1.286 -0.0855 -0.2985 -0.0127
 2756TIP3    H129903   4.076   0.276   1.378 -0.6645 -0.0541 -0.1462
 2756TIP3    H229904   4.061   0.211   1.242 -1.4219  0.6141 -0.3934
 2757TIP3   OH229905   4.463   3.236   2.245  0.0660  0.0182 -0.1007
 2757TIP3    H129906   4.403   3.222   2.318 -0.6499  0.4810 -0.5934
 2757TIP3    H229907   4.550   3.221   2.282 -0.3237 -0.2601  0.7163
 2758TIP3   OH229908   2.762   6.502   3.487  0.0802  0.7100  0.0905
 2758TIP3    H129909   2.701   6.563   3.526  0.4293  1.6414 -0.7805
 2758TIP3    H229910   2.849   6.540   3.505  0.5264 -1.0413  2.1112
 2759TIP3   OH229911   0.697   5.202   0.983  0.1317 -0.4435  0.7993
 2759TIP3    H129912   0.784   5.240   0.993  0.5951 -1.0133 -0.8412
 2759TIP3    H229913   0.701   5.121   1.033  1.1828 -1.3894 -0.7192
 2760TIP3   OH229914   4.103   2.124   0.128  0.0002  0.1461 -0.2429
 2760TIP3    H129915   4.192   2.091   0.136 -0.3797 -1.0776 -0.8109
 2760TIP3    H229916   4.084   2.164   0.213  0.7748 -0.3843  0.1861
 2761TIP3   OH229917   6.075   0.726   8.443  0.2243  0.4701 -0.1481
 2761TIP3    H129918   6.159   0.687   8.420  0.3268  0.3942  0.3388
 2761TIP3    H229919   6.011   0.658   8.423  0.4688 -0.2681  1.4180
 2762TIP3   OH229920   5.553   1.931   3.682  0.3237 -0.1002 -0.0094
 2762TIP3    H129921   5.519   1.975   3.760  0.1676  3.3134 -1.8344
 2762TIP3    H229922   5.641   1.966   3.670 -0.7817  2.0326 -3.0375
 2763TIP3   OH229923   6.759   1.240   3.917 -0.5709  0.1090 -0.3885
 2763TIP3    H129924   6.836   1.186   3.899 -1.8166 -1.4192 -1.4233
 2763TIP3    H229925   6.790   1.305   3.979  1.0545 -1.7923  0.9520
 2764TIP3   OH229926   4.269   0.690   3.074  0.5690 -0.0041  0.3311
 2764TIP3    H129927   4.361   0.694   3.047  0.7631 -0.0224  0.9632
 2764TIP3    H229928   4.271   0.716   3.166  0.0714 -0.9965  0.6370
 2765TIP3   OH229929   4.791   1.131   1.506  0.8467  0.6704  0.0878
 2765TIP3    H129930   4.792   1.225   1.523  2.2115  0.6964 -0.0451
 2765TIP3    H229931   4.836   1.121   1.423  0.2414 -0.0651 -0.1603
 2766TIP3   OH229932   6.446   5.425   1.372 -0.3243 -0.3331 -0.1762
 2766TIP3    H129933   6.412   5.458   1.455  0.6336  1.5787 -0.4814
 2766TIP3    H229934   6.541   5.434   1.379  0.2567 -4.8548  0.3814
 2767TIP3   OH229935   2.022   2.643   2.750  0.2424 -0.2807 -0.1588
 2767TIP3    H129936   1.937   2.635   2.793  1.6636 -1.5761  2.6402
 2767TIP3    H229937   2.085   2.652   2.822  2.4285  1.6758 -2.1476
 2768TIP3   OH229938   6.395   2.989   3.401 -0.7879 -0.0142 -0.0216
 2768TIP3    H129939   6.338   2.912   3.398  0.1191 -0.7906  1.5293
 2768TIP3    H229940   6.342   3.056   3.445 -0.8887 -0.3942  0.4488
 2769TIP3   OH229941   4.802   1.769   1.849  0.2227 -0.1348  0.5303
 2769TIP3    H129942   4.805   1.851   1.899 -0.0494  0.0995  0.1757
 2769TIP3    H229943   4.860   1.710   1.896  2.9682  1.2336 -0.9203
 2770TIP3   OH229944   2.478   6.601   1.161  0.2702 -0.2920  0.0366
 2770TIP3    H129945   2.561   6.565   1.191 -0.3496 -0.9001  1.0998
 2770TIP3    H229946   2.414   6.571   1.226 -0.4025  2.1580  0.6343
 2771TIP3   OH229947   6.311   5.595   1.591  0.7787 -0.1167 -0.2561
 2771TIP3    H129948   6.224   5.586   1.554  0.1091  1.6501  0.7971
 2771TIP3    H229949   6.328   5.689   1.591  2.8427 -0.4275 -0.7379
 2772TIP3   OH229950   5.016   3.670   4.018 -0.0167 -0.5683 -0.5271
 2772TIP3    H129951   5.091   3.612   4.002  0.0690 -0.1969 -1.5810
 2772TIP3    H229952   4.949   3.613   4.055  0.3038 -1.2093 -0.9128
 2773TIP3   OH229953   2.758   0.860   0.996 -0.1721 -0.0955  0.6946
 2773TIP3    H129954   2.735   0.778   1.038  2.4283 -2.1935 -1.5747
 2773TIP3    H229955   2.674   0.903   0.979 -1.6870 -2.6527  1.2475
 2774TIP3   OH229956   4.903   4.537   2.239  0.5220 -0.3536  0.3775
 2774TIP3    H129957   4.952   4.459   2.215  0.7268  0.2343 -1.1913
 2774TIP3    H229958   4.924   4.551   2.332  1.8782 -1.1514  0.2155
 2775TIP3   OH229959   5.540   3.378   4.082 -1.0956  0.2815 -0.4354
 2775TIP3    H129960   5.579   3.292   4.069  0.2761  0.4003  2.3182
 2775TIP3    H229961   5.593   3.419   4.151 -3.1673  2.3956  0.0275
 2776TIP3   OH229962   1.864   5.544   1.831 -0.1849  1.1154 -0.2143
 2776TIP3    H129963   1.770   5.529   1.843 -0.3348  0.6246 -1.8510
 2776TIP3    H229964   1.902   5.521   1.916 -1.2014 -1.6818 -0.4101
 2777TIP3   OH229965   3.896   1.727   8.354 -0.0894 -0.2589 -0.6775
 2777TIP3    H129966   3.935   1.771   8.279  0.7260 -0.4655 -0.3835
 2777TIP3    H229967   3.919   1.635   8.343  0.6528 -0.1893  0.1917
 2778TIP3   OH229968   4.635   2.360   1.613  0.5704  0.1500 -0.3322
 2778TIP3    H129969   4.723   2.324   1.606 -0.1789 -2.0870  0.7166
 2778TIP3    H229970   4.592   2.336   1.531  0.2594 -0.8999  0.1166
 2779TIP3   OH229971   0.179   1.329   3.569 -0.2950  0.3300 -0.4939
 2779TIP3    H129972   0.163   1.255   3.628  1.0069 -1.4101 -2.1890
 2779TIP3    H229973   0.178   1.290   3.481  1.2026  2.1875 -1.3989
 2780TIP3   OH229974   3.445   4.893   2.469  0.7884 -0.3838 -0.4260
 2780TIP3    H129975   3.438   4.845   2.552  0.3588  0.8029  0.2575
 2780TIP3    H229976   3.518   4.851   2.423  1.1218 -0.9830  0.6048
 2781TIP3   OH229977   3.577   4.362   0.929  0.0048 -0.9218 -0.1949
 2781TIP3    H129978   3.551   4.391   0.842 -1.5410 -1.1368  0.1613
 2781TIP3    H229979   3.572   4.441   0.983 -3.2335 -1.5311  0.5632
 2782TIP3   OH229980   3.272   2.472   0.299  0.3805  0.0781 -0.1864
 2782TIP3    H129981   3.269   2.529   0.375  0.9642 -1.2371  0.8545
 2782TIP3    H229982   3.243   2.527   0.226  1.2118  1.7677  0.7181
 2783TIP3   OH229983   1.368   5.402   2.617 -0.0672 -0.0053  0.3278
 2783TIP3    H129984   1.422   5.434   2.690  0.1697  0.2179  0.0576
 2783TIP3    H229985   1.294   5.463   2.614 -1.1314 -1.1427  1.6266
 2784TIP3   OH229986   6.314   3.930   8.108  0.1630 -0.0869 -0.9308
 2784TIP3    H129987   6.326   3.870   8.182 -2.6788  0.3873  0.0576
 2784TIP3    H229988   6.402   3.949   8.078  1.3536 -1.5214  1.3702
 2785TIP3   OH229989   1.240   0.362   1.461 -0.0714  0.6774  0.4071
 2785TIP3    H129990   1.305   0.429   1.479  0.7831 -0.0859  0.2597
 2785TIP3    H229991   1.274   0.315   1.384 -0.9663  0.4819  0.1147
 2786TIP3   OH229992   6.554   3.410   1.602  0.3564  0.0263 -0.6454
 2786TIP3    H129993   6.514   3.432   1.686  0.0357 -0.1036 -0.7613
 2786TIP3    H229994   6.637   3.458   1.600 -0.3823  1.3273 -0.9564
 2787TIP3   OH229995   6.287   0.885   0.730 -0.4222 -0.7309  0.4935
 2787TIP3    H129996   6.251   0.909   0.645  0.3180  0.8930  0.6094
 2787TIP3    H229997   6.256   0.953   0.790  0.4639 -0.8984  1.1677
 2788TIP3   OH229998   5.519   3.356   2.110  0.1804  0.3716  0.1055
 2788TIP3    H129999   5.542   3.446   2.132  2.4001 -0.3228  0.8318
 2788TIP3    H230000   5.530   3.308   2.192 -0.8533 -0.6047 -0.2998
 2789TIP3   OH230001   0.176   6.209   1.953  0.0834  0.1035  0.1686
 2789TIP3    H130002   0.147   6.278   1.893 -0.3994 -0.6668 -0.4930
 2789TIP3    H230003   0.256   6.244   1.992  0.4784  0.5763 -1.0099
 2790TIP3   OH230004   5.018   0.061   3.203  0.0924  0.2937  0.2817
 2790TIP3    H130005   5.063  -0.009   3.155 -0.3302 -0.9365  1.5849
 2790TIP3    H230006   4.925   0.035   3.201 -0.1474  1.1427  0.2680
 2791TIP3   OH230007   4.122   4.391   2.968  0.0689 -0.3559  0.2260
 2791TIP3    H130008   4.062   4.336   2.919  0.5107  0.9257 -1.8694
 2791TIP3    H230009   4.194   4.409   2.908  1.3197  0.2084  1.8053
 2792TIP3   OH230010   5.041   3.426   3.414  0.1142 -0.1408  0.4311
 2792TIP3    H130011   4.946   3.430   3.429  0.1438 -0.3283  0.6731
 2792TIP3    H230012   5.068   3.517   3.407 -0.4115 -0.0928 -1.7219
 2793TIP3   OH230013   2.846   1.854   8.036 -0.2733  0.3154  0.3180
 2793TIP3    H130014   2.923   1.901   8.066 -1.7710  3.2939 -0.0687
 2793TIP3    H230015   2.782   1.866   8.107 -1.0851 -0.1566 -0.3189
 2794TIP3   OH230016   2.238   3.098   0.468 -0.4091 -0.8196 -0.3898
 2794TIP3    H130017   2.334   3.103   0.470 -0.3580 -0.6392  3.2647
 2794TIP3    H230018   2.217   3.026   0.527 -2.5559  1.0152  1.2105
 2795TIP3   OH230019   4.900   0.817   2.726 -0.1398 -0.1341 -0.4983
 2795TIP3    H130020   4.845   0.895   2.731  0.0543  0.0233 -0.8284
 2795TIP3    H230021   4.989   0.851   2.715 -0.1422 -0.4111 -1.4401
 2796TIP3   OH230022   5.625   3.693   1.671 -0.2420  0.6134 -0.4563
 2796TIP3    H130023   5.583   3.617   1.631 -1.4852  0.5194  0.9077
 2796TIP3    H230024   5.606   3.766   1.612 -3.0498  0.7175  0.4093
 2797TIP3   OH230025   6.712   5.428   1.495 -0.1457 -0.0710  0.1894
 2797TIP3    H130026   6.746   5.517   1.495  0.0424 -0.1397 -0.0505
 2797TIP3    H230027   6.791   5.373   1.493 -0.2582 -0.2421  0.5229
 2798TIP3   OH230028   2.392   0.521   2.335  0.3032  0.4978  0.7043
 2798TIP3    H130029   2.344   0.438   2.323  1.4852 -0.0452 -0.4282
 2798TIP3    H230030   2.336   0.586   2.293  0.3995 -0.0827 -0.3643
 2799TIP3   OH230031   2.545   3.313   0.957  0.1204 -0.3556 -0.1069
 2799TIP3    H130032   2.491   3.282   0.884  1.2403 -1.9271 -0.3099
 2799TIP3    H230033   2.527   3.251   1.027  0.7306 -0.1639  0.2225
 2800TIP3   OH230034   4.061   3.799   2.529  0.0884 -0.4462 -0.2272
 2800TIP3    H130035   4.117   3.766   2.458 -0.7624 -0.2233 -1.0243
 2800TIP3    H230036   4.102   3.766   2.609  0.6676 -1.3197 -0.8631
 2801TIP3   OH230037   6.479   4.803   0.056 -0.1301  0.1854  0.0603
 2801TIP3    H130038   6.520   4.819  -0.030  0.1789 -2.5327 -0.3996
 2801TIP3    H230039   6.552   4.775   0.112 -0.5418  0.6410  0.8377
 2802TIP3   OH230040   5.595   3.476   2.710 -0.1385 -0.6905  0.3856
 2802TIP3    H130041   5.621   3.539   2.643 -0.3113  0.2905  1.2229
 2802TIP3    H230042   5.536   3.416   2.665  0.7242 -0.7871 -0.6417
 2803TIP3   OH230043   1.123   6.271   2.780  0.3732 -0.4833 -0.5399
 2803TIP3    H130044   1.178   6.212   2.728  0.8436  1.7377 -2.8284
 2803TIP3    H230045   1.036   6.262   2.742 -0.1371 -1.4625  0.7821
 2804TIP3   OH230046   0.376   4.469   2.476  0.5229 -0.1957  0.1897
 2804TIP3    H130047   0.460   4.423   2.469  0.2127 -0.8234  0.5244
 2804TIP3    H230048   0.348   4.455   2.566 -0.4726 -0.9309 -0.2204
 2805TIP3   OH230049   5.627   2.197   8.658  0.0137  0.3954 -0.3992
 2805TIP3    H130050   5.681   2.137   8.607  1.7051  1.9661 -0.5620
 2805TIP3    H230051   5.583   2.251   8.592  2.3118  2.5221 -0.3116
 2806TIP3   OH230052   5.202   4.430   2.435 -0.1902  0.0431 -0.7854
 2806TIP3    H130053   5.141   4.377   2.383 -0.7515  0.0846 -0.1791
 2806TIP3    H230054   5.146   4.478   2.496  0.5064 -0.4974  0.3010
 2807TIP3   OH230055   5.871   0.525   3.481 -0.1530 -0.0600 -1.1224
 2807TIP3    H130056   5.842   0.598   3.536  1.2696  0.2851 -0.7883
 2807TIP3    H230057   5.936   0.479   3.535  0.2946 -0.4933 -2.0183
 2808TIP3   OH230058   0.220   1.986   0.763  0.5687 -0.2084  1.1277
 2808TIP3    H130059   0.188   1.944   0.683  0.0350 -0.6680  1.5785
 2808TIP3    H230060   0.274   2.059   0.731 -0.8945  0.5913  0.3209
 2809TIP3   OH230061   4.433   6.232   3.348 -0.0192  0.2198  0.1278
 2809TIP3    H130062   4.480   6.233   3.432 -1.5979 -0.9655  1.0890
 2809TIP3    H230063   4.502   6.236   3.282  1.3045  0.6289  1.4733
 2810TIP3   OH230064   2.423   1.481   0.426  0.0080 -0.1290 -0.3142
 2810TIP3    H130065   2.359   1.530   0.478  1.8121  0.2743  1.6662
 2810TIP3    H230066   2.465   1.423   0.489  0.3369 -1.7345 -1.9380
 2811TIP3   OH230067   5.528   0.258   0.426 -0.0489  0.1832 -0.0349
 2811TIP3    H130068   5.442   0.296   0.411 -0.9621 -1.4474  0.7335
 2811TIP3    H230069   5.541   0.198   0.352  1.6076  2.2570 -1.5292
 2812TIP3   OH230070   0.006   0.847   0.124 -0.1626 -0.0720 -0.9287
 2812TIP3    H130071   0.098   0.832   0.142 -0.2155  0.9686  0.4150
 2812TIP3    H230072   0.005   0.915   0.056  0.0558 -0.3154 -1.1754
 2813TIP3   OH230073   4.434   3.990   0.606 -1.0057  0.0617  0.5653
 2813TIP3    H130074   4.485   3.977   0.527 -2.0792  0.9113 -0.2920
 2813TIP3    H230075   4.485   3.948   0.675 -0.5185 -1.5472 -0.7176
 2814TIP3   OH230076   0.624   0.257   1.471  0.5201  0.1764 -0.1813
 2814TIP3    H130077   0.555   0.191   1.474 -0.4994  1.2150  0.2025
 2814TIP3    H230078   0.639   0.272   1.378  0.0153  0.1342 -0.2742
 2815TIP3   OH230079   5.753   3.099   0.979  0.1543  0.1781 -0.5409
 2815TIP3    H130080   5.813   3.036   0.941 -0.6796 -2.0640  1.5872
 2815TIP3    H230081   5.804   3.179   0.988  2.3992 -1.2314 -0.0889
 2816TIP3   OH230082   2.210   1.317   3.445  0.4325  0.2278 -0.9520
 2816TIP3    H130083   2.287   1.335   3.391  1.9786  0.1028  1.0742
 2816TIP3    H230084   2.194   1.399   3.492  0.7578 -0.3891  0.2809
 2817TIP3   OH230085   0.488   0.938   8.608 -0.6204 -0.2088 -0.4725
 2817TIP3    H130086   0.470   0.994   8.533  0.4175 -1.2428 -1.5281
 2817TIP3    H230087   0.489   0.849   8.573 -3.4827 -1.1131  1.3717
 2818TIP3   OH230088   0.757   0.471   2.757 -0.0968  0.6485 -0.0560
 2818TIP3    H130089   0.808   0.399   2.721 -1.2051 -0.3193  0.2587
 2818TIP3    H230090   0.815   0.513   2.821  0.0809 -0.8752  0.8270
 2819TIP3   OH230091   2.399   1.845   0.289 -0.2229 -0.2987  0.2069
 2819TIP3    H130092   2.491   1.859   0.265 -0.4174  0.0086 -0.4022
 2819TIP3    H230093   2.402   1.796   0.370  0.4848 -0.1815  0.2581
 2820TIP3   OH230094   4.618   2.953   2.130  0.6087 -0.0912  0.2070
 2820TIP3    H130095   4.607   2.973   2.037 -0.5576 -1.0705  0.1078
 2820TIP3    H230096   4.628   3.038   2.172 -1.4828  0.5818 -0.5097
 2821TIP3   OH230097   4.611   6.134   1.511 -0.4401 -0.3146  0.3447
 2821TIP3    H130098   4.521   6.158   1.535 -0.4870  0.5920 -0.6767
 2821TIP3    H230099   4.624   6.170   1.424  0.4895 -1.5861 -0.0769
 2822TIP3   OH230100   1.354   5.518   1.588 -0.4760  0.1328  0.2240
 2822TIP3    H130101   1.437   5.471   1.589  0.2243  1.3469  0.3118
 2822TIP3    H230102   1.347   5.556   1.675 -1.5671 -0.6807  0.5177
 2823TIP3   OH230103   5.246   5.827   2.817  0.1299  0.5517 -0.2458
 2823TIP3    H130104   5.196   5.827   2.898  1.5514  0.5535  0.6584
 2823TIP3    H230105   5.273   5.918   2.805  1.4228  0.2506  0.2551
 2824TIP3   OH230106   1.441   1.769   2.845  0.2894 -0.0388 -0.1218
 2824TIP3    H130107   1.364   1.771   2.788  0.2712 -1.0687 -0.1574
 2824TIP3    H230108   1.465   1.676   2.849  1.0662  0.1804  0.5109
 2825TIP3   OH230109   4.326   1.047   0.509 -0.3372  0.0361  0.3667
 2825TIP3    H130110   4.399   1.040   0.571  0.2840 -1.6206 -0.4985
 2825TIP3    H230111   4.278   1.125   0.537  1.1288  0.5251  1.6330
 2826TIP3   OH230112   1.700   2.695   1.223  0.2433  0.8307  0.6578
 2826TIP3    H130113   1.786   2.666   1.254  1.1665  3.4772  0.7790
 2826TIP3    H230114   1.648   2.707   1.302  0.3905  1.1016  0.7124
 2827TIP3   OH230115   0.153   2.244   8.049 -0.0071 -0.0472  0.9836
 2827TIP3    H130116   0.067   2.270   8.015  0.6016  1.3550  0.4397
 2827TIP3    H230117   0.192   2.326   8.079  0.6717 -0.8376  2.3394
 2828TIP3   OH230118   3.953   4.026   1.976  0.4483  0.3974 -0.4399
 2828TIP3    H130119   3.913   4.112   1.961 -1.1490 -0.3993 -0.9573
 2828TIP3    H230120   3.958   4.019   2.071  0.0854  0.8434 -0.3821
 2829TIP3   OH230121   2.035   5.544   2.934 -0.2424  0.0817  0.3234
 2829TIP3    H130122   1.999   5.609   2.994 -0.7012  0.0773  0.0575
 2829TIP3    H230123   2.030   5.585   2.848  0.1436 -0.0250  0.2475
 2830TIP3   OH230124   0.624   1.164   1.815 -0.3596  0.1986  0.0636
 2830TIP3    H130125   0.611   1.160   1.909  0.9867 -0.6424  0.2315
 2830TIP3    H230126   0.576   1.089   1.781  1.3888 -1.1275  0.3857
 2831TIP3   OH230127   1.549   2.377   8.190 -0.1085  0.1440  0.1087
 2831TIP3    H130128   1.490   2.452   8.196 -0.2854  0.0260 -0.1219
 2831TIP3    H230129   1.525   2.322   8.265  1.6705  1.4660  1.7327
 2832TIP3   OH230130   4.469   5.648   0.057  0.6669 -0.1445 -0.0098
 2832TIP3    H130131   4.561   5.662   0.080  0.0422  1.8502  1.6083
 2832TIP3    H230132   4.441   5.577   0.114  0.7554  0.5017  0.8596
 2833TIP3   OH230133   3.131   1.696   2.735  0.2821  0.2642  0.1163
 2833TIP3    H130134   3.120   1.718   2.828  3.1766 -1.6813  1.0737
 2833TIP3    H230135   3.152   1.779   2.693  0.3053  0.9914  1.4884
 2834TIP3   OH230136   0.406   1.143   2.687  0.1000 -0.1154  0.0791
 2834TIP3    H130137   0.343   1.159   2.617  0.5113 -0.2062 -0.3179
 2834TIP3    H230138   0.353   1.110   2.759 -0.5620  1.5553  0.4049
 2835TIP3   OH230139   3.386   3.821   2.944  0.9069 -0.1251 -0.0494
 2835TIP3    H130140   3.345   3.735   2.938  0.5837 -0.0576  0.9797
 2835TIP3    H230141   3.428   3.822   3.030 -0.6206  1.3960  0.7415
 2836TIP3   OH230142   1.814   6.381   3.615 -0.3974  0.2962  0.1240
 2836TIP3    H130143   1.742   6.439   3.642  0.2422  0.8852  0.6158
 2836TIP3    H230144   1.875   6.384   3.689 -0.6782 -1.6028  0.4925
 2837TIP3   OH230145   1.910   3.023   2.071  0.2822  0.7748 -0.1915
 2837TIP3    H130146   1.847   3.092   2.093 -0.2613  0.3492 -0.3910
 2837TIP3    H230147   1.859   2.942   2.072  1.1101  0.2338  0.9851
 2838TIP3   OH230148   4.564   2.102   8.460  0.2155  0.0807  0.1182
 2838TIP3    H130149   4.515   2.071   8.383 -1.9925  0.0349  1.4730
 2838TIP3    H230150   4.540   2.194   8.468  1.0745  0.2950  0.3070
 2839TIP3   OH230151   2.810   2.334   1.228 -0.1154 -0.3509  0.1816
 2839TIP3    H130152   2.884   2.372   1.179 -0.3920  0.3557  0.2992
 2839TIP3    H230153   2.759   2.287   1.162 -0.4242  0.5013 -0.2001
 2840TIP3   OH230154   1.848   3.295   8.688  0.4527 -0.3674 -0.5716
 2840TIP3    H130155   1.919   3.297   8.752 -0.7101  1.2678  0.7696
 2840TIP3    H230156   1.837   3.387   8.662 -1.0291 -0.6142 -0.8814
 2841TIP3   OH230157   1.834   3.122   1.379  0.2506 -0.3050  0.0630
 2841TIP3    H130158   1.883   3.109   1.297  1.3614  0.3679  0.6019
 2841TIP3    H230159   1.759   3.063   1.371 -1.7747  2.3093 -3.0821
 2842TIP3   OH230160   1.747   4.865   1.134 -0.1470  0.1359  0.1971
 2842TIP3    H130161   1.737   4.785   1.082 -0.5521  0.9570 -1.0365
 2842TIP3    H230162   1.660   4.879   1.172 -0.2991  0.4096 -0.2397
 2843TIP3   OH230163   4.138   0.826   1.574 -0.4720 -0.1614  0.3359
 2843TIP3    H130164   4.182   0.789   1.497  0.7822  1.0249  0.4341
 2843TIP3    H230165   4.051   0.850   1.542  1.2442  4.1632 -2.0756
 2844TIP3   OH230166   3.976   3.764   2.195 -0.2677 -0.1201 -0.1200
 2844TIP3    H130167   3.931   3.683   2.217 -0.3156  0.0507  0.4176
 2844TIP3    H230168   4.061   3.735   2.160 -0.7925 -0.4407 -1.1747
 2845TIP3   OH230169   5.002   6.376   3.433 -0.0191 -0.1916 -0.0235
 2845TIP3    H130170   4.925   6.338   3.390  1.2922 -1.0473 -1.7308
 2845TIP3    H230171   5.061   6.400   3.361  1.8974 -0.8492  1.2425
 2846TIP3   OH230172   0.231   1.108   0.196 -0.2208  0.5288  0.3151
 2846TIP3    H130173   0.182   1.028   0.217 -0.1358  0.3478 -0.1655
 2846TIP3    H230174   0.250   1.101   0.103  0.4062  0.7740  0.4179
 2847TIP3   OH230175   0.259   4.154   8.080  0.0934  0.1606 -0.1398
 2847TIP3    H130176   0.175   4.153   8.126 -0.0472 -0.7073 -0.4041
 2847TIP3    H230177   0.274   4.063   8.054  1.4055  0.1870  0.4163
 2848TIP3   OH230178   1.293   1.521   0.295 -0.5260 -0.4965  0.5145
 2848TIP3    H130179   1.282   1.427   0.301  2.5207 -0.9881 -0.0751
 2848TIP3    H230180   1.296   1.551   0.386 -1.4777 -0.9429  0.6997
 2849TIP3   OH230181   6.231   1.761   0.021 -0.3623  0.1732 -0.2463
 2849TIP3    H130182   6.150   1.763   0.072 -0.1013 -0.3515  0.1921
 2849TIP3    H230183   6.213   1.699  -0.050  0.3465 -1.5561  1.0410
 2850TIP3   OH230184   1.112   0.041   8.690  0.2918  0.2905  0.1030
 2850TIP3    H130185   1.082  -0.041   8.652 -0.5172  1.2051 -1.3375
 2850TIP3    H230186   1.098   0.106   8.621 -1.4872  2.0967  2.0341
 2851TIP3   OH230187   2.719   2.471   1.754  0.1053 -0.2541 -0.1131
 2851TIP3    H130188   2.762   2.479   1.669  1.5898 -2.1921  0.3864
 2851TIP3    H230189   2.640   2.421   1.736  1.5175 -2.6339 -0.1249
 2852TIP3   OH230190   4.328   4.033   8.325  0.5070  0.0796  0.3771
 2852TIP3    H130191   4.310   4.078   8.242 -1.6525 -0.0492  0.7258
 2852TIP3    H230192   4.337   4.104   8.389  0.6358  0.1344  0.2975
 2853TIP3   OH230193   1.094   1.727   1.423  0.0795  0.1595  0.0030
 2853TIP3    H130194   1.151   1.804   1.421  1.5859 -0.9180 -2.1761
 2853TIP3    H230195   1.100   1.690   1.335 -1.4977 -1.8175  0.6470
 2854TIP3   OH230196   1.770   0.331   2.633 -0.2177  0.6770 -0.0472
 2854TIP3    H130197   1.740   0.253   2.586  0.8996  0.5899 -0.6461
 2854TIP3    H230198   1.750   0.313   2.725  1.9939 -1.2997  0.1268
 2855TIP3   OH230199   0.799   0.559   1.545 -0.4036  0.1623  0.2375
 2855TIP3    H130200   0.808   0.474   1.502  0.5831  0.3735  0.0083
 2855TIP3    H230201   0.814   0.541   1.638  1.7106  0.3509 -0.0193
 2856TIP3   OH230202   3.916   3.452   0.631 -0.3560  0.0821 -0.1551
 2856TIP3    H130203   3.890   3.362   0.650 -0.1297  0.0352 -0.0728
 2856TIP3    H230204   4.011   3.448   0.621 -0.0872  0.6225  1.6875
 2857TIP3   OH230205   0.298   6.163   1.293  0.5775 -0.2330  0.3067
 2857TIP3    H130206   0.212   6.202   1.305  1.4621  1.7254  0.6955
 2857TIP3    H230207   0.294   6.080   1.342 -1.3693 -0.6820 -0.5480
 2858TIP3   OH230208   3.767   0.504   8.811 -0.1148 -0.3321  0.1669
 2858TIP3    H130209   3.811   0.486   8.728 -1.8036  1.1371 -1.1147
 2858TIP3    H230210   3.778   0.598   8.825 -0.2685 -0.4692  1.3870
 2859TIP3   OH230211   4.493   2.235   3.709  0.3213  0.1678 -0.5761
 2859TIP3    H130212   4.541   2.269   3.784 -0.3767 -2.5073  1.1952
 2859TIP3    H230213   4.401   2.242   3.734  0.1246 -1.9904 -0.5774
 2860TIP3   OH230214   0.511   3.955   1.309 -0.1017  0.0743  0.5010
 2860TIP3    H130215   0.578   3.988   1.369  0.1660  0.9760 -0.2595
 2860TIP3    H230216   0.490   4.031   1.254 -0.9955 -0.4905  0.0588
 2861TIP3   OH230217   1.289   0.011   1.429  0.0357 -0.2731 -0.3718
 2861TIP3    H130218   1.338  -0.070   1.413  0.9269  0.2681 -0.4433
 2861TIP3    H230219   1.344   0.061   1.490 -2.5686 -1.6248  3.4385
 2862TIP3   OH230220   3.675   1.876   8.434  0.2566 -0.1598 -0.0758
 2862TIP3    H130221   3.746   1.822   8.400 -0.4154 -0.4617 -1.0650
 2862TIP3    H230222   3.600   1.816   8.439  0.7593 -0.7053  3.9603
 2863TIP3   OH230223   3.985   4.403   1.175  0.1309 -0.3292 -0.0136
 2863TIP3    H130224   4.072   4.364   1.180 -0.5154 -1.7552  0.7438
 2863TIP3    H230225   3.970   4.416   1.081  1.7568  1.4451 -0.0941
 2864TIP3   OH230226   6.279   1.122   0.549  0.6039 -0.3002  0.4760
 2864TIP3    H130227   6.325   1.067   0.485 -0.7343 -1.1364  0.1991
 2864TIP3    H230228   6.267   1.206   0.504 -2.3901 -1.5729 -1.4001
 2865TIP3   OH230229   4.452   5.990   1.771  0.3108  0.5812  0.3086
 2865TIP3    H130230   4.406   6.074   1.761  0.8169  0.7580 -0.6718
 2865TIP3    H230231   4.394   5.937   1.826  0.0011  1.5850  0.9726
 2866TIP3   OH230232   1.712   4.900   0.269 -0.6466 -0.1413  0.2401
 2866TIP3    H130233   1.632   4.952   0.276 -0.8917 -0.4979  0.1180
 2866TIP3    H230234   1.684   4.818   0.228 -0.2553 -0.3510  0.3859
 2867TIP3   OH230235   6.618   4.637   1.231 -0.7724 -0.3398 -0.1672
 2867TIP3    H130236   6.577   4.721   1.215  1.2500  0.3812 -2.1980
 2867TIP3    H230237   6.582   4.579   1.164 -1.3218 -0.7945  0.5088
 2868TIP3   OH230238   6.791   5.666   2.626 -0.0463 -0.4467  0.0562
 2868TIP3    H130239   6.880   5.638   2.647 -0.3099 -0.3285  1.4781
 2868TIP3    H230240   6.736   5.592   2.652 -0.5343  0.3568  1.4380
 2869TIP3   OH230241   0.560   4.254   1.810  0.2363  0.2163 -0.2590
 2869TIP3    H130242   0.554   4.344   1.842  1.3280  0.0693  0.3899
 2869TIP3    H230243   0.635   4.254   1.751  0.5476 -0.3709  0.1265
 2870TIP3   OH230244   5.167   3.005   0.279  0.4985 -0.0466 -1.0500
 2870TIP3    H130245   5.179   3.085   0.227  0.2945  0.0895 -0.8862
 2870TIP3    H230246   5.249   2.997   0.328  0.2973  0.3738 -0.6399
 2871TIP3   OH230247   5.775   5.133   1.510  0.0763 -0.0386  0.5747
 2871TIP3    H130248   5.773   5.065   1.443 -0.5267  0.6660 -0.1327
 2871TIP3    H230249   5.788   5.085   1.592  0.3072 -0.9486  0.0208
 2872TIP3   OH230250   1.918   4.688   2.881  0.2416 -0.0441  0.3381
 2872TIP3    H130251   1.871   4.605   2.872 -0.7696  0.5119  0.4116
 2872TIP3    H230252   1.936   4.695   2.975 -1.6404  0.8486  0.6822
 2873TIP3   OH230253   6.001   6.535   1.588  0.1761  0.1196 -0.5465
 2873TIP3    H130254   5.974   6.465   1.648 -3.6186  0.0339 -2.0558
 2873TIP3    H230255   6.038   6.489   1.513 -1.1559 -0.2714 -0.9958
 2874TIP3   OH230256   5.303   1.663   3.373 -0.3824  0.3189 -0.2262
 2874TIP3    H130257   5.254   1.745   3.376  1.0687  1.2312 -0.3355
 2874TIP3    H230258   5.335   1.657   3.283 -2.8231 -1.8686 -1.0587
 2875TIP3   OH230259   6.753   1.365   1.746  0.1989 -0.1102  0.0910
 2875TIP3    H130260   6.830   1.368   1.690 -0.0726 -4.1893 -0.7615
 2875TIP3    H230261   6.679   1.357   1.686 -0.5364  0.0271  0.9524
 2876TIP3   OH230262   6.677   5.183   8.781  0.3733  0.3637 -1.0326
 2876TIP3    H130263   6.640   5.223   8.703  0.3551  0.4584 -0.9753
 2876TIP3    H230264   6.666   5.249   8.850 -0.6234 -0.1319 -0.6888
 2877TIP3   OH230265   5.371   1.418   2.622  0.0861  0.6599 -0.0921
 2877TIP3    H130266   5.430   1.492   2.636 -0.5754  0.9487  1.4475
 2877TIP3    H230267   5.370   1.373   2.707  1.3899 -1.8535 -1.2999
 2878TIP3   OH230268   4.409   1.364   0.071  0.0044 -0.4393  0.2117
 2878TIP3    H130269   4.338   1.416   0.109 -0.6332  0.0168 -1.5068
 2878TIP3    H230270   4.470   1.428   0.036 -0.6120 -0.7898 -1.6144
 2879TIP3   OH230271   2.351   4.704   8.530  0.6119  0.1617 -0.0462
 2879TIP3    H130272   2.396   4.669   8.454  0.9846 -1.3791  0.8499
 2879TIP3    H230273   2.260   4.715   8.501  0.8777  0.1960 -0.8894
 2880TIP3   OH230274   1.625   3.242   0.308  0.1829  0.0678 -0.0068
 2880TIP3    H130275   1.633   3.201   0.222  0.8285  1.0271 -0.4160
 2880TIP3    H230276   1.557   3.308   0.297 -0.0276 -0.0879  0.3387
 2881TIP3   OH230277   6.570   2.160   0.675  0.3802 -0.1548  0.3417
 2881TIP3    H130278   6.623   2.229   0.713 -1.1558  0.7893  0.8439
 2881TIP3    H230279   6.619   2.131   0.598  1.6182  0.6479  0.8125
 2882TIP3   OH230280   6.101   3.814   7.910  0.0804 -0.5524  0.0960
 2882TIP3    H130281   6.160   3.888   7.923 -2.3140  1.5386 -0.1062
 2882TIP3    H230282   6.091   3.776   7.997  0.8266 -0.2074  0.3366
 2883TIP3   OH230283   3.438   4.261   2.897 -1.1298  0.3598  0.2464
 2883TIP3    H130284   3.476   4.347   2.914 -0.8730  0.2423  0.2682
 2883TIP3    H230285   3.411   4.265   2.806  1.7959 -0.6095 -0.7662
 2884TIP3   OH230286   1.067   1.619   1.167  0.3623 -0.3233 -0.1440
 2884TIP3    H130287   1.112   1.545   1.127 -1.7731 -2.0804  0.5157
 2884TIP3    H230288   0.978   1.615   1.131 -0.9604 -0.5762  2.8561
 2885TIP3   OH230289   3.425   1.266   8.562  0.5959 -0.4226  0.5446
 2885TIP3    H130290   3.439   1.201   8.494 -0.5747  0.3384 -0.4864
 2885TIP3    H230291   3.375   1.220   8.630 -1.2513 -0.3540 -0.7007
 2886TIP3   OH230292   4.397   6.362   2.161  0.2758 -0.2258  0.2261
 2886TIP3    H130293   4.405   6.426   2.231  0.1633  1.4915 -1.2678
 2886TIP3    H230294   4.303   6.352   2.147  0.2916 -0.7352  0.4332
 2887TIP3   OH230295   2.167   0.924   7.968 -0.4133 -0.3987 -0.0398
 2887TIP3    H130296   2.215   0.883   7.897 -0.2249 -0.1773 -0.0420
 2887TIP3    H230297   2.217   1.003   7.989  0.7743 -1.5827  1.8376
 2888TIP3   OH230298   4.892   4.001   1.797 -0.5206  0.0767 -0.3140
 2888TIP3    H130299   4.867   3.922   1.846 -1.6650 -0.1411 -1.1919
 2888TIP3    H230300   4.813   4.024   1.748  0.7137 -0.0434 -2.4890
 2889TIP3   OH230301   2.957   0.483   8.685 -0.1142 -0.5117 -0.7925
 2889TIP3    H130302   2.989   0.573   8.699 -1.2200 -0.3949  1.3234
 2889TIP3    H230303   3.034   0.436   8.652  0.7316  0.9965 -1.0985
 2890TIP3   OH230304   0.561   1.831   2.760 -0.6055 -0.1712  0.6259
 2890TIP3    H130305   0.653   1.854   2.743 -0.0866 -1.7958  1.0279
 2890TIP3    H230306   0.534   1.780   2.684 -1.1829  0.2977  0.5121
 2891TIP3   OH230307   5.204   4.952   2.751  0.6989 -0.2178 -0.4612
 2891TIP3    H130308   5.263   4.916   2.685  2.2137  0.5472  0.4268
 2891TIP3    H230309   5.237   5.040   2.768 -0.0843 -0.1379  0.8113
 2892TIP3   OH230310   1.179   1.340   3.680  0.4537  0.3844  0.1875
 2892TIP3    H130311   1.269   1.325   3.706  0.0614 -1.0193  0.8698
 2892TIP3    H230312   1.132   1.357   3.762 -0.1438 -0.3778  0.0203
 2893TIP3   OH230313   0.368   0.257   2.166 -0.2596  0.0292  0.0704
 2893TIP3    H130314   0.408   0.183   2.212 -1.5240  0.9963  2.9831
 2893TIP3    H230315   0.283   0.224   2.138 -0.2809  0.0003  0.1691
 2894TIP3   OH230316   3.116   4.260   1.261 -0.0362  0.3833 -0.2455
 2894TIP3    H130317   3.194   4.225   1.219 -0.1215  0.3219 -0.3537
 2894TIP3    H230318   3.049   4.194   1.247 -0.0498  0.3329  0.0457
 2895TIP3   OH230319   0.054   6.128   2.497 -0.2726 -0.4363 -0.1651
 2895TIP3    H130320  -0.016   6.161   2.554 -0.7278 -0.1336 -0.8800
 2895TIP3    H230321   0.009   6.068   2.437  0.2514 -0.9992 -0.0064
 2896TIP3   OH230322   4.055   6.698   0.733  0.0051  0.4886 -0.6284
 2896TIP3    H130323   4.069   6.659   0.820  2.6228  0.7230 -0.8526
 2896TIP3    H230324   4.030   6.624   0.678 -0.4940  0.1176  0.0706
 2897TIP3   OH230325   3.967   5.698   0.055  0.2460 -0.8067  0.2903
 2897TIP3    H130326   3.983   5.671   0.145 -0.8982  0.3745  0.8882
 2897TIP3    H230327   4.054   5.703   0.016  0.7357 -1.7177  1.2027
 2898TIP3   OH230328   3.480   0.362   2.812 -0.3974  0.9649 -0.3560
 2898TIP3    H130329   3.443   0.377   2.898 -0.6040 -0.7270 -0.1187
 2898TIP3    H230330   3.553   0.301   2.827 -1.2200 -0.3647 -1.4811
 2899TIP3   OH230331   5.957   2.100   1.163 -0.2783  0.0213  0.4547
 2899TIP3    H130332   6.021   2.049   1.213 -0.1440  0.2682  0.5332
 2899TIP3    H230333   6.007   2.174   1.129 -0.4265 -0.0133  0.1600
 2900TIP3   OH230334   3.292   0.884   2.550  0.4076 -0.2309  0.0090
 2900TIP3    H130335   3.263   0.927   2.469  2.6266  0.2306 -0.6207
 2900TIP3    H230336   3.270   0.792   2.538  0.7203 -0.1734 -1.1616
 2901TIP3   OH230337   5.660   2.765   1.167 -0.0206 -0.2082 -0.6443
 2901TIP3    H130338   5.657   2.774   1.071 -1.8043 -1.3797 -0.7537
 2901TIP3    H230339   5.663   2.855   1.199  2.7370  0.1973 -1.7732
 2902TIP3   OH230340   3.047   2.585   3.240  0.7316  0.2615 -0.4322
 2902TIP3    H130341   3.062   2.647   3.168 -0.9404  0.3079 -0.7967
 2902TIP3    H230342   2.965   2.541   3.216  1.0402 -0.9390  0.6286
 2903TIP3   OH230343   4.975   3.788   3.504 -0.3986  0.1280 -0.5158
 2903TIP3    H130344   5.060   3.829   3.493  0.8347 -2.1593 -0.1787
 2903TIP3    H230345   4.967   3.728   3.429 -2.2085  1.0461 -1.1154
 2904TIP3   OH230346   4.889   1.013   8.214 -0.3233  0.4277 -0.1277
 2904TIP3    H130347   4.870   1.092   8.163 -2.6108  0.0501  0.0433
 2904TIP3    H230348   4.804   0.971   8.226  0.4416 -0.5894  2.2372
 2905TIP3   OH230349   4.980   5.175   0.285 -0.8222  0.1609  0.2811
 2905TIP3    H130350   4.926   5.210   0.213 -0.8372 -0.2883  0.0747
 2905TIP3    H230351   5.069   5.172   0.250 -0.6502  0.9230  0.6299
 2906TIP3   OH230352   0.716   4.972   3.475 -0.1506 -0.5593  0.5567
 2906TIP3    H130353   0.747   4.936   3.558  5.3438 -1.5639 -1.4871
 2906TIP3    H230354   0.777   5.044   3.457 -1.0367 -0.4826 -2.6645
 2907TIP3   OH230355   3.892   6.085   2.264  0.8604  0.2309 -0.1184
 2907TIP3    H130356   3.974   6.036   2.268  1.0869  0.5511 -0.7075
 2907TIP3    H230357   3.843   6.044   2.192 -0.8226 -1.9368  2.0916
 2908TIP3   OH230358   1.134   3.293   2.182  0.0303  0.2758  0.3876
 2908TIP3    H130359   1.113   3.332   2.267 -1.4224  0.8465 -0.1844
 2908TIP3    H230360   1.096   3.354   2.118  1.4413  0.0676 -0.6972
 2909TIP3   OH230361   0.740   4.044   8.529 -0.0947 -0.2369 -0.5697
 2909TIP3    H130362   0.649   4.016   8.525 -0.4716  1.0090 -1.0976
 2909TIP3    H230363   0.775   4.027   8.442 -0.8023  2.3242 -1.4636
 2910TIP3   OH230364   1.881   2.859   2.351  0.7987  0.2192  0.2787
 2910TIP3    H130365   1.880   2.774   2.306 -1.0943 -0.3362  1.2623
 2910TIP3    H230366   1.941   2.846   2.424  1.0396 -0.0391  0.0428
 2911TIP3   OH230367   3.062   1.949   2.006 -0.1773  0.1114  0.2750
 2911TIP3    H130368   3.054   2.033   1.961  0.2205  0.1515  0.2740
 2911TIP3    H230369   3.004   1.956   2.082  0.0572  0.4939  0.4262
 2912TIP3   OH230370   5.895   2.808   2.582  0.1207  0.0589 -0.7818
 2912TIP3    H130371   5.830   2.859   2.631  1.7083  0.4830  1.0030
 2912TIP3    H230372   5.905   2.727   2.633  2.5648  0.9479  0.3001
 2913TIP3   OH230373   6.100   3.010   3.669 -0.4633  0.4599 -0.0360
 2913TIP3    H130374   6.089   2.928   3.717 -1.5657 -0.4127 -1.6783
 2913TIP3    H230375   6.046   3.073   3.716  0.0133  0.1487  0.9598
 2914TIP3   OH230376   0.550   1.875   8.544  0.2494  0.2349 -0.2959
 2914TIP3    H130377   0.493   1.937   8.498  0.3499  0.7044  0.1924
 2914TIP3    H230378   0.617   1.852   8.480 -1.1643 -1.2846 -1.2839
 2915TIP3   OH230379   1.376   0.037   2.043  0.0990 -0.2448 -0.0288
 2915TIP3    H130380   1.363   0.068   1.954 -1.9425 -0.9570 -0.0299
 2915TIP3    H230381   1.445   0.093   2.079  2.1520 -0.9834 -2.5191
 2916TIP3   OH230382   1.114   2.811   0.618  0.1905 -0.1464 -0.5031
 2916TIP3    H130383   1.201   2.800   0.578  1.0190  0.6074  0.9999
 2916TIP3    H230384   1.081   2.892   0.581  0.2568 -0.2646 -0.8311
 2917TIP3   OH230385   1.338   3.044   2.745  0.0854 -0.1229  0.3433
 2917TIP3    H130386   1.360   2.970   2.801 -0.6315 -0.1293  0.6281
 2917TIP3    H230387   1.377   3.120   2.788 -1.4496  0.0532  1.5193
 2918TIP3   OH230388   1.964   6.181   8.382 -0.0691 -0.5355  0.6232
 2918TIP3    H130389   1.907   6.210   8.453  0.4656  1.0300  0.4504
 2918TIP3    H230390   2.052   6.189   8.416  0.1352 -1.3959  0.3348
 2919TIP3   OH230391   5.886   2.933   2.949 -0.6005  0.2816 -0.9843
 2919TIP3    H130392   5.858   2.929   2.857 -1.3265 -0.0161 -0.7588
 2919TIP3    H230393   5.910   2.843   2.970  0.0331  0.4397 -1.0196
 2920TIP3   OH230394   4.297   5.791   0.336 -0.1904 -0.1656  0.3472
 2920TIP3    H130395   4.265   5.866   0.286  1.0740  0.4658  0.4596
 2920TIP3    H230396   4.315   5.826   0.423 -1.6212 -1.0878  1.0426
 2921TIP3   OH230397   5.746   5.682   3.533  0.3264  0.2542 -0.4511
 2921TIP3    H130398   5.776   5.770   3.507 -0.1413 -0.1338 -2.5098
 2921TIP3    H230399   5.701   5.649   3.455 -3.0627 -0.2709  1.5457
 2922TIP3   OH230400   0.438   0.510   2.206 -0.1136 -0.4154  0.1457
 2922TIP3    H130401   0.441   0.419   2.176 -0.6938 -0.4445  0.1545
 2922TIP3    H230402   0.495   0.513   2.283 -1.0064 -1.0438  0.8471
 2923TIP3   OH230403   2.869   4.653   0.742  0.0659  0.4214 -0.3968
 2923TIP3    H130404   2.946   4.701   0.773  0.3114  0.4738 -1.0686
 2923TIP3    H230405   2.824   4.716   0.686  0.5507 -0.2086 -1.5372
 2924TIP3   OH230406   5.658   2.974   0.222  0.5698  0.2774  0.2965
 2924TIP3    H130407   5.609   2.895   0.199 -1.3024  0.6363  2.6878
 2924TIP3    H230408   5.641   3.035   0.150 -0.7980 -0.3253  0.0939
 2925TIP3   OH230409   3.430   5.783   1.439  0.3814 -0.7080  0.3365
 2925TIP3    H130410   3.458   5.707   1.388 -0.7049 -1.1628  0.3818
 2925TIP3    H230411   3.511   5.827   1.464  0.9708 -1.0786 -0.8639
 2926TIP3   OH230412   6.524   1.517   8.531 -0.2032  0.8964 -0.0157
 2926TIP3    H130413   6.562   1.596   8.493  2.6644 -0.4703 -0.3021
 2926TIP3    H230414   6.596   1.453   8.530 -1.7394 -1.0650  2.1798
 2927TIP3   OH230415   1.345   1.281   0.001  0.0097 -0.5147  0.4025
 2927TIP3    H130416   1.292   1.353  -0.034 -0.3075 -0.7482  0.4032
 2927TIP3    H230417   1.414   1.324   0.051  1.8085 -0.0226 -2.2718
 2928TIP3   OH230418   2.728   6.308   3.678  0.1122  0.1264 -0.0968
 2928TIP3    H130419   2.695   6.233   3.628  0.6324 -0.9901  1.1515
 2928TIP3    H230420   2.732   6.379   3.615  1.2386 -1.3348 -1.7738
 2929TIP3   OH230421   6.098   6.117   0.233  0.6464  0.3792  0.0505
 2929TIP3    H130422   6.113   6.168   0.313 -1.0900  2.2956 -0.7457
 2929TIP3    H230423   6.041   6.172   0.181 -1.0343 -2.2692 -1.0907
 2930TIP3   OH230424   0.306   4.950   2.714  0.2748 -0.2159  0.5630
 2930TIP3    H130425   0.329   4.990   2.630  0.7976 -0.1453  0.7327
 2930TIP3    H230426   0.386   4.959   2.767  0.1740 -0.8698  0.8368
 2931TIP3   OH230427   5.295   1.933   1.632  0.5159  0.2753 -0.4829
 2931TIP3    H130428   5.366   1.907   1.572 -1.1305 -1.6867 -1.6997
 2931TIP3    H230429   5.340   1.953   1.714  2.5110 -0.7709 -1.2305
 2932TIP3   OH230430   1.275   3.022   3.772 -0.4326 -0.3555 -0.0337
 2932TIP3    H130431   1.214   2.951   3.755 -0.6598  0.0577 -1.0394
 2932TIP3    H230432   1.227   3.101   3.745 -0.4694  0.2849  1.7468
 2933TIP3   OH230433   4.677   5.107   1.748 -0.2434 -0.4069 -0.0636
 2933TIP3    H130434   4.649   5.105   1.839 -0.4454  1.0106 -0.0646
 2933TIP3    H230435   4.715   5.021   1.732 -0.7706 -0.8918  1.1732
 2934TIP3   OH230436   4.706   2.003   4.201  0.4607  0.6227 -0.0088
 2934TIP3    H130437   4.658   1.936   4.152 -0.0239  0.4543  0.6847
 2934TIP3    H230438   4.674   2.086   4.166 -0.5354  0.5182  0.6111
 2935TIP3   OH230439   3.232   4.125   1.745  0.1117 -0.3657 -0.3669
 2935TIP3    H130440   3.156   4.067   1.739  0.5790 -0.9645 -0.5649
 2935TIP3    H230441   3.252   4.147   1.654  0.0073  0.0142 -0.2983
 2936TIP3   OH230442   6.144   0.609   0.099 -0.0190 -0.2975 -0.1894
 2936TIP3    H130443   6.161   0.518   0.076  1.3038 -0.3219  0.7888
 2936TIP3    H230444   6.136   0.609   0.195 -1.1487  0.4537 -0.2568
 2937TIP3   OH230445   5.874   2.740   1.743 -0.5933 -0.1132  0.0937
 2937TIP3    H130446   5.797   2.750   1.799 -1.6595 -0.8137 -1.1846
 2937TIP3    H230447   5.892   2.646   1.744 -0.0916 -0.0200 -0.0643
 2938TIP3   OH230448   2.879   2.341   0.129  0.1457  0.0449  1.1796
 2938TIP3    H130449   2.890   2.276   0.198 -0.6756 -1.8478 -0.3701
 2938TIP3    H230450   2.787   2.366   0.135 -0.3297 -1.2251 -0.0504
 2939TIP3   OH230451   4.527   6.275   0.507 -0.5175  0.3118 -0.9084
 2939TIP3    H130452   4.598   6.219   0.537  2.0551  2.4173 -2.7024
 2939TIP3    H230453   4.454   6.254   0.566  2.0446 -0.7380  2.1680
 2940TIP3   OH230454   3.882   0.454   3.427 -0.1323  0.8517  0.3284
 2940TIP3    H130455   3.900   0.544   3.403  1.4632  1.0159  1.9702
 2940TIP3    H230456   3.935   0.438   3.504  0.2739 -1.7525 -0.3861
 2941TIP3   OH230457   4.210   5.209   2.896 -0.0209 -0.1375 -0.5782
 2941TIP3    H130458   4.186   5.117   2.903  0.6527 -0.3527 -1.0274
 2941TIP3    H230459   4.278   5.221   2.962 -1.0998  0.4007  0.4871
 2942TIP3   OH230460   6.518   2.138   1.021  0.2946  0.4506 -0.1372
 2942TIP3    H130461   6.593   2.100   0.976 -1.0588 -1.5221 -0.8809
 2942TIP3    H230462   6.450   2.143   0.954 -0.1620  2.5431  0.4126
 2943TIP3   OH230463   3.766   3.834   2.583  0.0566  0.5868  0.0744
 2943TIP3    H130464   3.734   3.789   2.661 -0.6470  1.4956  0.3279
 2943TIP3    H230465   3.837   3.779   2.550 -0.3623 -0.3626  0.7356
 2944TIP3   OH230466   5.940   5.863   0.159 -0.0547  0.1519 -0.1590
 2944TIP3    H130467   5.929   5.945   0.208 -1.2301 -0.3696  0.4850
 2944TIP3    H230468   5.947   5.891   0.067 -3.5442  0.8554 -0.3265
 2945TIP3   OH230469   4.721   0.682   1.562  0.0565 -0.0999 -0.0732
 2945TIP3    H130470   4.780   0.686   1.636  2.3721  1.1907 -1.8558
 2945TIP3    H230471   4.727   0.591   1.531  0.6430 -0.1300  0.1223
 2946TIP3   OH230472   1.089   5.404   1.982  0.8328 -0.1154 -0.4311
 2946TIP3    H130473   1.028   5.460   1.933  1.8076 -0.4958 -2.1320
 2946TIP3    H230474   1.116   5.459   2.056 -0.4075  0.5985 -0.4671
 2947TIP3   OH230475   5.874   3.842   2.099 -0.3392  0.0983 -0.0409
 2947TIP3    H130476   5.791   3.812   2.063 -1.6348  0.9659  2.0834
 2947TIP3    H230477   5.872   3.937   2.089  0.5384  0.1087 -0.2303
 2948TIP3   OH230478   1.422   3.676   2.986  0.0509  0.0365  0.3323
 2948TIP3    H130479   1.456   3.646   3.070  0.3241  3.2721  1.5377
 2948TIP3    H230480   1.364   3.606   2.956  2.3085 -2.5604  1.6385
 2949TIP3   OH230481   3.969   1.863   1.020  0.0150 -0.5249  0.4512
 2949TIP3    H130482   3.999   1.950   1.046 -0.3263 -0.6154  1.1938
 2949TIP3    H230483   3.901   1.841   1.084  1.1765 -1.9876  1.2608
 2950TIP3   OH230484   6.247   1.633   1.141  0.0475  0.0469  0.7906
 2950TIP3    H130485   6.152   1.621   1.136 -0.1021  1.5284 -0.3282
 2950TIP3    H230486   6.276   1.567   1.204 -1.7618 -0.2150  1.3929
 2951TIP3   OH230487   4.754   1.203   3.308  0.3625  0.1022  0.1216
 2951TIP3    H130488   4.846   1.178   3.321  0.4601  0.3472 -0.0883
 2951TIP3    H230489   4.709   1.166   3.384  0.8159  0.9597  0.8343
 2952TIP3   OH230490   3.815   3.509   2.323 -0.2807 -0.4135 -0.9782
 2952TIP3    H130491   3.884   3.477   2.265  0.8827 -1.2928  0.7748
 2952TIP3    H230492   3.841   3.477   2.410 -1.3061  1.8173  0.2334
 2953TIP3   OH230493   0.620   2.066   0.855 -0.6983 -0.2772 -0.6153
 2953TIP3    H130494   0.578   2.147   0.886  2.7595  0.6229  2.4489
 2953TIP3    H230495   0.697   2.096   0.806  0.8073 -1.5785  0.8336
 2954TIP3   OH230496   4.467   3.895   8.122  0.1710  0.1437 -0.3484
 2954TIP3    H130497   4.414   3.821   8.094  1.5666 -1.1904  0.4037
 2954TIP3    H230498   4.419   3.934   8.195  1.3187 -2.6386  2.0958
 2955TIP3   OH230499   4.522   4.014   2.855  0.1552  0.1505  0.1334
 2955TIP3    H130500   4.461   4.007   2.929 -0.8939 -2.1861 -0.8342
 2955TIP3    H230501   4.465   4.020   2.778  1.1582 -0.1650 -0.6597
 2956TIP3   OH230502   0.521   2.046   2.952 -0.3058  0.2458 -0.1849
 2956TIP3    H130503   0.588   2.108   2.925  0.8225 -0.5761  0.6529
 2956TIP3    H230504   0.523   1.977   2.885 -0.1630  0.1067 -0.0361
 2957TIP3   OH230505   3.696   2.684   2.850  0.0801  0.2031  0.1144
 2957TIP3    H130506   3.675   2.699   2.942  2.6522  2.5820  0.4452
 2957TIP3    H230507   3.671   2.766   2.807  1.7769  0.3317 -0.6944
 2958TIP3   OH230508   3.268   0.451   0.400  0.4224 -0.6325 -0.0091
 2958TIP3    H130509   3.290   0.433   0.491 -0.7390 -0.4898  0.3176
 2958TIP3    H230510   3.279   0.367   0.355  1.5888 -0.5642  0.1229
 2959TIP3   OH230511   2.369   5.266   3.274  0.3759  0.4272  0.3094
 2959TIP3    H130512   2.414   5.270   3.358 -0.0581 -0.2175  0.5855
 2959TIP3    H230513   2.299   5.201   3.288 -0.7713  1.5563 -0.0412
 2960TIP3   OH230514   1.668   1.257   0.901 -0.1557  0.4950  0.0719
 2960TIP3    H130515   1.644   1.337   0.855 -0.0926  0.6110  0.2407
 2960TIP3    H230516   1.745   1.281   0.953 -0.7038  0.5850  0.8638
 2961TIP3   OH230517   3.873   3.266   4.076  0.3915  0.0841 -0.4566
 2961TIP3    H130518   3.840   3.308   4.155  0.7810  0.2416 -0.3729
 2961TIP3    H230519   3.888   3.338   4.014  2.4106  0.2733  0.1720
 2962TIP3   OH230520   1.190   0.014   1.162  0.1738 -0.0403 -0.1304
 2962TIP3    H130521   1.222  -0.027   1.242 -2.0066 -1.8780 -0.1184
 2962TIP3    H230522   1.252  -0.015   1.094 -0.0058 -1.4731  0.2891
 2963TIP3   OH230523   3.627   3.216   2.006  0.0170  0.0067  0.2260
 2963TIP3    H130524   3.556   3.156   1.981  0.0454  0.0969 -0.0819
 2963TIP3    H230525   3.612   3.293   1.950  0.1788  0.1477  0.3791
 2964TIP3   OH230526   6.316   1.973   1.377 -0.3357  0.3718 -0.6178
 2964TIP3    H130527   6.388   1.909   1.379 -0.2149  0.5287  0.3219
 2964TIP3    H230528   6.239   1.922   1.400 -0.0965  0.7161  1.1008
 2965TIP3   OH230529   4.853   3.342   1.119 -0.5465  0.1113  0.3792
 2965TIP3    H130530   4.918   3.366   1.185  0.9344  2.5626 -1.7734
 2965TIP3    H230531   4.844   3.247   1.128  1.7535 -0.0350  2.1643
 2966TIP3   OH230532   5.312   6.074   8.543  0.0590  0.6045  0.6770
 2966TIP3    H130533   5.390   6.124   8.518 -1.0061  1.6834 -0.6081
 2966TIP3    H230534   5.293   6.018   8.468 -1.5644  1.8381  0.1201
 2967TIP3   OH230535   3.176   0.867   1.514  0.0130  0.4644 -0.4017
 2967TIP3    H130536   3.146   0.776   1.523  0.6083  0.4049  1.3072
 2967TIP3    H230537   3.096   0.919   1.517 -0.3356  0.0194 -1.4232
 2968TIP3   OH230538   3.258   4.010   1.030 -0.6896  0.1067  0.1496
 2968TIP3    H130539   3.316   4.014   0.954 -1.9246 -2.5012 -1.0631
 2968TIP3    H230540   3.174   4.042   0.997 -1.6800 -2.6029 -0.1762
 2969TIP3   OH230541   2.344   4.955   3.852  0.0452 -0.3090 -0.1857
 2969TIP3    H130542   2.353   4.997   3.767 -0.3013 -0.6405 -0.3909
 2969TIP3    H230543   2.267   4.997   3.891  0.6151  0.3415  0.2667
 2970TIP3   OH230544   2.033   4.676   3.151  0.9051  0.3322  0.0991
 2970TIP3    H130545   2.005   4.585   3.143  1.7997 -0.0210  0.7497
 2970TIP3    H230546   2.074   4.681   3.238 -0.5686  1.7641  0.7794
 2971TIP3   OH230547   3.860   0.888   1.499 -0.5770 -0.1491  0.2643
 2971TIP3    H130548   3.813   0.967   1.522 -0.1642 -0.2575  1.5160
 2971TIP3    H230549   3.803   0.844   1.436 -1.3376  0.5657  0.4418
 2972TIP3   OH230550   1.059   5.101   8.710  0.1910  0.0233 -0.1467
 2972TIP3    H130551   1.027   5.188   8.685 -2.2734 -0.9274 -0.5734
 2972TIP3    H230552   1.016   5.082   8.793  2.2188 -0.0655  0.9538
 2973TIP3   OH230553   5.399   3.917   1.580 -0.1068 -0.2197 -0.1210
 2973TIP3    H130554   5.416   3.982   1.512 -0.5763 -0.3566 -0.3794
 2973TIP3    H230555   5.455   3.843   1.558 -0.9895 -0.6659 -0.9585
 2974TIP3   OH230556   5.833   3.250   2.660 -0.4449 -0.5280 -0.1275
 2974TIP3    H130557   5.881   3.320   2.617 -0.5091 -1.2441 -1.4042
 2974TIP3    H230558   5.786   3.294   2.731  0.4727  0.5096 -0.1418
 2975TIP3   OH230559   4.087   3.229   1.999 -0.6582  0.3804 -0.3049
 2975TIP3    H130560   4.162   3.195   2.048 -0.9745  1.1135  0.7203
 2975TIP3    H230561   4.117   3.229   1.907  0.3715  0.1038  0.0117
 2976TIP3   OH230562   0.180   2.515   1.358  0.6429 -0.5646  0.8140
 2976TIP3    H130563   0.195   2.428   1.321  2.3242  0.8953 -2.3984
 2976TIP3    H230564   0.099   2.545   1.317 -0.8194 -1.1020  3.1333
 2977TIP3   OH230565   0.645   5.595   0.515 -0.1121  0.3453  1.0068
 2977TIP3    H130566   0.673   5.599   0.606 -1.4083 -0.6137  1.4737
 2977TIP3    H230567   0.568   5.538   0.515 -0.7748  1.1671 -0.5294
 2978TIP3   OH230568   0.024   4.074   3.212  0.0635  0.1181  0.1698
 2978TIP3    H130569   0.055   3.994   3.169  1.1044  0.1670  0.8026
 2978TIP3    H230570   0.074   4.079   3.294 -0.5724  0.9916  0.5269
 2979TIP3   OH230571   5.383   5.720   1.441 -0.3859 -0.2469 -0.2475
 2979TIP3    H130572   5.448   5.788   1.428  1.2814 -1.9635 -1.3329
 2979TIP3    H230573   5.433   5.640   1.453 -2.2602 -1.2852  1.3968
 2980TIP3   OH230574   5.885   0.929   2.490  0.6382 -0.0917 -0.9771
 2980TIP3    H130575   5.920   0.859   2.435 -0.8664 -2.0335  0.3861
 2980TIP3    H230576   5.925   0.914   2.576  1.3908  1.6540 -0.9655
 2981TIP3   OH230577   0.726   0.724   8.876 -0.5338 -0.2811  0.2170
 2981TIP3    H130578   0.713   0.817   8.891  1.3366 -0.1323  1.1475
 2981TIP3    H230579   0.638   0.687   8.880 -1.2187  1.3113  0.7443
 2982TIP3   OH230580   5.188   4.263   1.221  0.0259  0.0533  0.6101
 2982TIP3    H130581   5.176   4.168   1.225 -0.7613  0.0562 -0.9650
 2982TIP3    H230582   5.240   4.284   1.299  1.7638 -1.9046  0.0675
 2983TIP3   OH230583   1.820   5.797   1.362  0.4360  0.1736  0.3565
 2983TIP3    H130584   1.865   5.880   1.346 -0.2960  0.4538 -0.3161
 2983TIP3    H230585   1.727   5.820   1.366  0.3343 -0.3940  1.7320
 2984TIP3   OH230586   6.394   0.943   7.925 -0.0433 -0.1019 -0.6051
 2984TIP3    H130587   6.374   1.025   7.970 -1.1876 -0.6943  0.0280
 2984TIP3    H230588   6.435   0.888   7.992 -1.3409 -0.8303 -0.3745
 2985TIP3   OH230589   4.577   1.514   2.586 -0.2893  0.0691  0.0478
 2985TIP3    H130590   4.575   1.479   2.497 -0.1732 -0.4509  0.2441
 2985TIP3    H230591   4.507   1.579   2.589 -1.3982 -1.0968  0.0539
 2986TIP3   OH230592   4.744   0.616   0.285 -0.4890  0.5094  1.0523
 2986TIP3    H130593   4.769   0.702   0.319 -1.4070  1.6186 -0.9356
 2986TIP3    H230594   4.649   0.617   0.285 -0.5251 -0.7241  1.4351
 2987TIP3   OH230595   5.979   2.295   8.329 -0.0087 -0.0772 -0.3810
 2987TIP3    H130596   6.017   2.251   8.252 -0.5599  0.5085 -0.9960
 2987TIP3    H230597   5.996   2.388   8.315 -2.4625  0.3301 -1.1684
 2988TIP3   OH230598   0.005   4.422   0.615 -0.9787  0.2855  0.2811
 2988TIP3    H130599  -0.057   4.398   0.684  0.6901 -2.1466  1.0426
 2988TIP3    H230600   0.090   4.391   0.646  0.4196  2.0827 -1.4399
 2989TIP3   OH230601   5.216   2.812   1.501 -0.5280 -0.0776 -0.2834
 2989TIP3    H130602   5.248   2.725   1.524  0.5281  0.5824  0.8973
 2989TIP3    H230603   5.142   2.796   1.443 -1.3894 -1.8027  1.1792
 2990TIP3   OH230604   6.125   2.536   3.384  0.7664 -0.6793 -0.6502
 2990TIP3    H130605   6.106   2.534   3.290 -1.0858  0.1077 -0.3371
 2990TIP3    H230606   6.086   2.455   3.418 -3.4951  1.3939  0.1520
 2991TIP3   OH230607   1.030   3.431   1.372  0.5172 -0.4082  0.1279
 2991TIP3    H130608   1.042   3.344   1.335  1.4100  0.6580 -2.3008
 2991TIP3    H230609   1.117   3.470   1.370 -0.2786  1.4648 -1.4810
 2992TIP3   OH230610   3.090   4.975   1.880  0.1013  0.2020  0.2119
 2992TIP3    H130611   3.166   5.034   1.874  0.2094 -0.0935 -1.7890
 2992TIP3    H230612   3.030   5.007   1.813 -0.9026 -0.5155  0.7492
 2993TIP3   OH230613   5.606   2.128   0.028  0.0150 -0.3544  0.3851
 2993TIP3    H130614   5.684   2.165   0.071  0.0419 -1.2957  1.1649
 2993TIP3    H230615   5.622   2.142  -0.065  0.8323  0.0233  0.5692
 2994TIP3   OH230616   4.564   3.642   0.933 -0.2438  0.2547 -0.6487
 2994TIP3    H130617   4.582   3.573   0.997  0.0961 -0.0078 -1.0232
 2994TIP3    H230618   4.541   3.596   0.853  0.6791  0.5485 -1.1061
 2995TIP3   OH230619   0.383   5.403   0.556 -0.0231  0.5396  0.3756
 2995TIP3    H130620   0.424   5.389   0.641  1.9192 -1.6843 -0.8136
 2995TIP3    H230621   0.364   5.497   0.554  0.7257  0.8187  2.8692
 2996TIP3   OH230622   5.290   4.931   0.952 -0.4456  0.3462 -0.7718
 2996TIP3    H130623   5.223   4.998   0.942 -0.4633  0.9824  2.5864
 2996TIP3    H230624   5.242   4.848   0.952 -1.3757  0.8062  1.9115
 2997TIP3   OH230625   2.883   5.440   1.044 -0.3743  0.0053 -0.5165
 2997TIP3    H130626   2.888   5.513   1.106  0.5573  0.7640 -1.4515
 2997TIP3    H230627   2.841   5.477   0.967  0.2240 -0.4090 -1.0480
 2998TIP3   OH230628   3.359   1.857   0.476 -0.5589 -0.3541 -0.2330
 2998TIP3    H130629   3.424   1.921   0.446 -2.6075  2.4867  0.8535
 2998TIP3    H230630   3.402   1.809   0.546  1.1547 -0.3572 -1.2459
 2999TIP3   OH230631   2.358   5.115   3.618  0.6553  0.0155  0.5332
 2999TIP3    H130632   2.286   5.149   3.564  1.4508  0.4690 -0.2768
 2999TIP3    H230633   2.434   5.165   3.590  1.2266 -0.2062  1.6337
 3000TIP3   OH230634   2.657   5.638   8.618  0.2967  0.2738  0.0902
 3000TIP3    H130635   2.660   5.675   8.530  1.1728  1.6100  0.6494
 3000TIP3    H230636   2.733   5.580   8.623 -1.0147 -1.6318 -0.7501
 3001TIP3   OH230637   0.938   3.900   0.536  0.1814 -0.2285  0.3845
 3001TIP3    H130638   0.994   3.934   0.606  1.0031  1.9399 -1.2460
 3001TIP3    H230639   0.996   3.849   0.481 -0.3012 -1.2633  0.8126
 3002TIP3   OH230640   0.715   1.268   2.370 -0.2756  0.4552  0.6948
 3002TIP3    H130641   0.665   1.189   2.389  0.2014  0.4728  2.1213
 3002TIP3    H230642   0.788   1.266   2.431 -0.4415  2.1824  1.0113
 3003TIP3   OH230643   1.029   5.405   2.687 -0.2153 -0.1591  0.8370
 3003TIP3    H130644   0.941   5.401   2.650  0.0517 -1.3126  0.3023
 3003TIP3    H230645   1.070   5.480   2.644 -0.2752 -0.8339 -0.4114
 3004TIP3   OH230646   1.405   6.171   2.446  0.0518 -0.2331  0.2421
 3004TIP3    H130647   1.394   6.265   2.460  0.8549 -0.4013  2.1991
 3004TIP3    H230648   1.484   6.148   2.494 -0.1278 -1.9356 -0.1974
 3005TIP3   OH230649   4.251   6.397   1.139 -0.9220 -0.2426  0.2052
 3005TIP3    H130650   4.273   6.436   1.223 -1.4683  0.3632  0.0791
 3005TIP3    H230651   4.307   6.319   1.133 -0.3581  0.1041  0.8008
 3006TIP3   OH230652   3.022   4.389   8.505  0.2593 -0.0025 -0.3314
 3006TIP3    H130653   3.065   4.379   8.590 -0.7801 -0.2916  0.1678
 3006TIP3    H230654   3.095   4.402   8.444  1.1733 -1.7156  0.3003
 3007TIP3   OH230655   5.017   1.126   2.118  0.4060 -0.6295  0.4672
 3007TIP3    H130656   4.981   1.134   2.207 -0.2872  0.2327  0.1346
 3007TIP3    H230657   5.074   1.050   2.122 -0.3198 -1.1584  1.4190
 3008TIP3   OH230658   5.790   0.348   0.421  0.1102 -0.1866  0.2141
 3008TIP3    H130659   5.741   0.403   0.359  0.3199  1.7577  1.6850
 3008TIP3    H230660   5.778   0.259   0.388 -0.1330  0.7147 -2.3762
 3009TIP3   OH230661   2.399   3.249   0.708 -0.3229  0.2681  0.3668
 3009TIP3    H130662   2.477   3.195   0.699 -0.2173  0.0942  1.9835
 3009TIP3    H230663   2.326   3.188   0.704 -0.4422  0.4933 -1.6972
 3010TIP3   OH230664   5.509   6.010   2.137 -0.0972 -0.2049 -0.0399
 3010TIP3    H130665   5.521   6.091   2.186 -0.0577  0.0357 -0.4458
 3010TIP3    H230666   5.567   6.019   2.061  0.3969 -0.8906  0.2499
 3011TIP3   OH230667   2.196   2.275   1.939  0.2020  0.1128 -0.0676
 3011TIP3    H130668   2.223   2.183   1.930 -1.2577 -0.2392 -1.2693
 3011TIP3    H230669   2.107   2.270   1.975 -0.3550  0.9982 -1.2707
 3012TIP3   OH230670   2.539   0.475   2.584 -0.0093 -0.3852  0.0832
 3012TIP3    H130671   2.525   0.494   2.491  1.0475  0.3505  0.0493
 3012TIP3    H230672   2.453   0.451   2.617 -0.5975  0.3255 -0.8749
 3013TIP3   OH230673   3.971   2.910   0.619  0.4217  0.4670 -0.2900
 3013TIP3    H130674   3.923   2.828   0.625  0.1512  0.6429  0.0036
 3013TIP3    H230675   3.903   2.977   0.608  0.6662  0.6057 -1.0226
 3014TIP3   OH230676   1.587   5.355   2.386  0.3407  0.3682 -0.1694
 3014TIP3    H130677   1.552   5.393   2.305  1.1523  1.5036 -0.0135
 3014TIP3    H230678   1.510   5.329   2.436 -0.1737 -0.6689 -1.4388
 3015TIP3   OH230679   4.150   1.032   0.777 -0.0108  0.0089 -0.1552
 3015TIP3    H130680   4.143   1.089   0.701 -0.6469 -1.7160 -1.4489
 3015TIP3    H230681   4.150   0.943   0.741  1.4267 -0.8310  1.7431
 3016TIP3   OH230682   4.441   3.968   1.951 -0.0252  0.4810  0.2855
 3016TIP3    H130683   4.387   3.960   2.030  0.2873  0.0858  0.4583
 3016TIP3    H230684   4.385   3.934   1.881 -0.2029  0.5809  0.3773
 3017TIP3   OH230685   1.989   1.461   2.878  0.5678 -0.6384  0.2233
 3017TIP3    H130686   1.962   1.553   2.879  0.3523 -0.6767 -1.0132
 3017TIP3    H230687   2.033   1.449   2.962  0.4875  0.5567  0.4610
 3018TIP3   OH230688   2.957   4.241   8.769 -1.0139 -0.6120  0.1677
 3018TIP3    H130689   2.941   4.319   8.821  0.4817 -0.4148  0.3926
 3018TIP3    H230690   3.006   4.183   8.828  0.6129 -0.4374 -0.9277
 3019TIP3   OH230691   5.313   2.554   2.353  0.9367  0.9842 -0.4115
 3019TIP3    H130692   5.224   2.545   2.320 -0.0058 -2.4765  2.4718
 3019TIP3    H230693   5.368   2.534   2.277 -0.7480  1.3089 -1.7991
 3020TIP3   OH230694   2.933   3.728   1.115 -0.4198  0.3833 -0.0236
 3020TIP3    H130695   2.971   3.643   1.092 -0.0654  0.4945  0.1360
 3020TIP3    H230696   2.842   3.709   1.134 -0.5078  0.1498 -0.6591
 3021TIP3   OH230697   3.732   0.066   0.341  0.4616 -0.0915  0.3078
 3021TIP3    H130698   3.702   0.139   0.394  0.3106 -0.7022  1.0873
 3021TIP3    H230699   3.766   0.003   0.404  0.6044 -0.6877 -0.3499
 3022TIP3   OH230700   4.293   3.600   1.231  0.3619  0.5832 -0.1806
 3022TIP3    H130701   4.277   3.646   1.313 -2.2111 -0.8902  0.2411
 3022TIP3    H230702   4.329   3.515   1.258  1.5185  0.8703 -0.7389
 3023TIP3   OH230703   0.063   4.529   1.933  0.2009 -0.0394  1.0613
 3023TIP3    H130704   0.027   4.509   1.847 -0.3463  0.7322  1.0999
 3023TIP3    H230705   0.034   4.619   1.951  0.5280 -0.0964  1.9310
 3024TIP3   OH230706   3.888   0.834   2.857  0.2125 -0.2647 -0.4341
 3024TIP3    H130707   3.841   0.774   2.799  0.0596  0.3782 -0.9866
 3024TIP3    H230708   3.980   0.817   2.841  0.1841 -1.3320  0.4446
 3025TIP3   OH230709   6.323   5.815   0.524 -0.0759 -0.1307 -0.0655
 3025TIP3    H130710   6.300   5.799   0.433 -1.0595 -1.3255  0.3573
 3025TIP3    H230711   6.296   5.906   0.540  2.2441  0.9056 -1.5535
 3026TIP3   OH230712   2.294   5.113   1.921 -0.1164  0.6027  0.4554
 3026TIP3    H130713   2.289   5.208   1.907  0.8027  0.5831 -0.1220
 3026TIP3    H230714   2.289   5.076   1.833  1.1794  0.2159  0.5263
 3027TIP3   OH230715   3.737   2.619   0.275 -0.3592 -0.5489 -0.2136
 3027TIP3    H130716   3.826   2.630   0.242 -0.0941  0.3649  0.7566
 3027TIP3    H230717   3.748   2.589   0.365 -0.9641  1.6082  0.6306
 3028TIP3   OH230718   3.754   0.194   8.664  0.3072 -0.3474 -0.3067
 3028TIP3    H130719   3.725   0.186   8.573  1.8239 -0.0164 -0.8595
 3028TIP3    H230720   3.831   0.137   8.670 -0.4086 -1.2122  1.0863
 3029TIP3   OH230721   3.374   2.708   2.948 -0.1712  0.0619  0.7233
 3029TIP3    H130722   3.351   2.792   2.986  1.3793  1.5078 -1.2963
 3029TIP3    H230723   3.334   2.709   2.861  0.9173 -0.7323  0.1816
 3030TIP3   OH230724   3.321   5.085   2.128  0.1598  0.1565 -0.6470
 3030TIP3    H130725   3.339   5.027   2.054  0.8249 -0.4396 -0.0280
 3030TIP3    H230726   3.298   5.169   2.088  0.8200 -0.0725 -1.5246
 3031TIP3   OH230727   1.592   0.129   1.230  0.6279 -0.2332  0.5673
 3031TIP3    H130728   1.685   0.151   1.226  0.5012  0.1513 -0.5734
 3031TIP3    H230729   1.584   0.049   1.179  0.1693  0.3537 -0.3011
 3032TIP3   OH230730   6.025   3.702   8.200 -0.4366  0.6073 -0.5386
 3032TIP3    H130731   6.047   3.656   8.281  0.1446  1.2946 -0.2972
 3032TIP3    H230732   5.933   3.681   8.185 -0.3686 -0.0565 -0.0518
 3033TIP3   OH230733   3.061   3.459   2.507  0.3331  0.2828 -0.7311
 3033TIP3    H130734   2.979   3.439   2.462 -0.7627 -0.1903  1.3308
 3033TIP3    H230735   3.063   3.554   2.514 -0.2596  0.2780 -0.4384
 3034TIP3   OH230736   4.335   6.108   1.110  0.3834 -0.0339  0.0238
 3034TIP3    H130737   4.385   6.119   1.030 -1.0168  0.0513 -0.8803
 3034TIP3    H230738   4.292   6.023   1.100  2.2656 -1.2950  1.9078
 3035TIP3   OH230739   0.842   0.211   2.196  0.4721 -0.4001 -0.2115
 3035TIP3    H130740   0.855   0.154   2.272 -1.2886  0.7067  0.9836
 3035TIP3    H230741   0.920   0.197   2.142  2.0649 -0.7957  2.0539
 3036TIP3   OH230742   6.022   5.781   3.780 -0.3443 -0.4603  0.2386
 3036TIP3    H130743   6.090   5.767   3.714 -1.9339 -5.7535 -0.7272
 3036TIP3    H230744   6.009   5.876   3.782  3.4596  0.3741 -3.1393
 3037TIP3   OH230745   4.213   6.254   8.784  0.1143 -0.1704  0.5426
 3037TIP3    H130746   4.206   6.347   8.807 -0.3913  0.0095 -0.3124
 3037TIP3    H230747   4.306   6.234   8.794  0.2401  0.4480  0.6399
 3038TIP3   OH230748   0.939   2.684   3.323  0.3269  0.1163  0.1305
 3038TIP3    H130749   0.883   2.623   3.371  0.8119  0.5577  1.2937
 3038TIP3    H230750   0.880   2.734   3.268 -0.1472 -1.0001 -0.4123
 3039TIP3   OH230751   3.752   0.199   3.925  0.2882 -0.4590 -0.3584
 3039TIP3    H130752   3.755   0.292   3.900 -0.4060  0.2535  1.8911
 3039TIP3    H230753   3.723   0.201   4.016  1.0886 -2.8779  0.0010
 3040TIP3   OH230754   6.763   6.450   2.196  0.3613 -0.1732  0.1501
 3040TIP3    H130755   6.777   6.544   2.191  0.7373 -0.2208  0.2202
 3040TIP3    H230756   6.846   6.416   2.231 -0.2224 -0.3940  1.3698
 3041TIP3   OH230757   5.806   1.334   3.666 -0.0925  0.2904  0.3869
 3041TIP3    H130758   5.834   1.284   3.743 -0.5376  3.9625  3.2417
 3041TIP3    H230759   5.843   1.421   3.680  0.1816  1.0608 -3.9387
 3042TIP3   OH230760   4.044   1.315   3.073 -0.3945  0.7080 -0.0438
 3042TIP3    H130761   4.028   1.290   3.164 -0.2702  0.0956 -0.1833
 3042TIP3    H230762   3.985   1.259   3.022  0.6274 -0.0767 -0.4279
 3043TIP3   OH230763   3.522   0.262   1.555 -0.5976  0.4401 -0.1223
 3043TIP3    H130764   3.561   0.219   1.479 -0.0988  1.9127 -0.7198
 3043TIP3    H230765   3.503   0.190   1.616 -0.3433 -0.6797 -1.3330
 3044TIP3   OH230766   3.256   3.898   3.359 -0.0724 -0.2459  0.1526
 3044TIP3    H130767   3.310   3.953   3.416 -0.8732  1.5276 -0.7341
 3044TIP3    H230768   3.177   3.950   3.343 -0.7744 -1.5711 -0.8963
 3045TIP3   OH230769   2.272   5.212   8.827 -0.3728  0.6075  0.2578
 3045TIP3    H130770   2.258   5.297   8.868 -0.8839  0.4508  0.4105
 3045TIP3    H230771   2.187   5.188   8.791 -0.1560  0.3030 -0.0572
 3046TIP3   OH230772   5.085   1.843   1.202 -0.0302 -0.0179  0.0187
 3046TIP3    H130773   5.091   1.783   1.276  1.8155  0.0251 -0.0575
 3046TIP3    H230774   5.159   1.903   1.213 -2.2432  2.8250  0.5353
 3047TIP3   OH230775   3.931   2.892   0.983  0.5654 -0.3434 -0.2258
 3047TIP3    H130776   3.916   2.873   1.075  0.6139  1.0446  0.0882
 3047TIP3    H230777   3.912   2.810   0.938 -0.3334 -0.7898  0.9270
 3048TIP3   OH230778   0.714   6.122   2.355  0.2521 -0.2761 -0.4800
 3048TIP3    H130779   0.770   6.183   2.402  0.5203  0.0597 -1.2193
 3048TIP3    H230780   0.775   6.058   2.318 -0.0794 -1.4196  0.8694
 3049TIP3   OH230781   1.482   3.448   0.892  0.7012 -0.1219 -0.0289
 3049TIP3    H130782   1.516   3.400   0.817 -0.5073 -2.0889  0.6097
 3049TIP3    H230783   1.524   3.533   0.887  2.9434 -1.2134 -1.2517
 3050TIP3   OH230784   5.752   0.344   2.775 -0.2872 -0.1449 -0.1712
 3050TIP3    H130785   5.734   0.430   2.812 -0.1364  0.4594 -1.4614
 3050TIP3    H230786   5.718   0.282   2.840 -0.1037  0.8701  0.9224
 3051TIP3   OH230787   3.550   1.320   3.540 -0.0489 -0.5711  0.2447
 3051TIP3    H130788   3.479   1.262   3.513 -1.0026 -0.5276  2.4615
 3051TIP3    H230789   3.505   1.395   3.580  1.2307  0.1359  0.3921
 3052TIP3   OH230790   0.495   3.677   1.399 -0.1401  0.1005 -0.5927
 3052TIP3    H130791   0.522   3.674   1.491  1.3365  2.8477 -0.8058
 3052TIP3    H230792   0.499   3.770   1.376 -0.5456 -0.4766 -3.4326
 3053TIP3   OH230793   6.243   1.592   2.812  0.6674  0.7155  0.3566
 3053TIP3    H130794   6.329   1.555   2.793  0.4848  0.4202  0.0910
 3053TIP3    H230795   6.184   1.548   2.750  0.5458  1.8818 -0.3831
 3054TIP3   OH230796   6.790   3.787   8.705  0.2997 -0.7651 -0.4359
 3054TIP3    H130797   6.850   3.859   8.682  1.1615 -1.4876 -0.5292
 3054TIP3    H230798   6.829   3.749   8.784 -1.4860  0.3732  1.0936
 3055TIP3   OH230799   3.273   1.138   8.779  0.5160  0.2496 -0.3614
 3055TIP3    H130800   3.275   1.095   8.864 -1.1392  1.4041  0.3177
 3055TIP3    H230801   3.184   1.123   8.746  0.5586  1.3501 -1.0344
 3056TIP3   OH230802   1.951   4.902   2.443  0.3356 -0.0026  0.5855
 3056TIP3    H130803   1.987   4.828   2.493  1.2870  0.4120  0.5274
 3056TIP3    H230804   1.999   4.900   2.361 -0.3531  0.0768  0.1754
 3057TIP3   OH230805   2.831   6.615   2.227 -0.5019 -0.1343 -0.2088
 3057TIP3    H130806   2.767   6.604   2.297 -0.5899  0.8368 -0.1241
 3057TIP3    H230807   2.914   6.629   2.272 -0.6705  1.1680 -0.2731
 3058TIP3   OH230808   0.163   2.888   1.533  0.2828 -0.0834 -0.1929
 3058TIP3    H130809   0.231   2.914   1.471 -1.0941  4.2488 -0.2185
 3058TIP3    H230810   0.182   2.940   1.612 -1.9255 -0.1580  0.4441
 3059TIP3   OH230811   3.065   2.338   3.759 -0.2816  0.0781 -0.0220
 3059TIP3    H130812   3.019   2.417   3.786 -0.6292  0.7251 -2.3134
 3059TIP3    H230813   3.157   2.355   3.779 -0.5210  0.4194  0.8454
 3060TIP3   OH230814   0.284   5.180   3.406  0.1655  0.1104 -0.3748
 3060TIP3    H130815   0.304   5.243   3.476  1.5706  0.0869 -0.7449
 3060TIP3    H230816   0.369   5.148   3.377 -0.4482 -0.5333 -1.5162
 3061TIP3   OH230817   6.391   3.590   1.436 -0.2477  0.2872 -0.2529
 3061TIP3    H130818   6.358   3.624   1.519  0.9836 -0.7785  0.7103
 3061TIP3    H230819   6.423   3.503   1.457  2.5351  0.9815 -1.2524
 3062TIP3   OH230820   5.696   3.529   3.750  0.2872  0.6684 -0.1086
 3062TIP3    H130821   5.673   3.441   3.780  1.6442  0.5506  0.6415
 3062TIP3    H230822   5.756   3.514   3.677  1.5994  0.9370  0.8760
 3063TIP3   OH230823   5.138   4.599   0.293  0.2759 -0.0522  0.4559
 3063TIP3    H130824   5.211   4.586   0.232 -0.6154 -1.1954 -0.4106
 3063TIP3    H230825   5.069   4.542   0.260 -0.4335 -0.2810  2.2430
 3064TIP3   OH230826   3.386   3.230   2.495 -0.4499 -0.4189  0.3633
 3064TIP3    H130827   3.422   3.264   2.413  0.5533 -0.4295  0.7887
 3064TIP3    H230828   3.451   3.252   2.561  0.5612 -3.6070  0.5942
 3065TIP3   OH230829   0.806   4.175   1.709  0.2047  0.0409 -0.5632
 3065TIP3    H130830   0.824   4.149   1.800 -0.9231 -0.5851 -0.5023
 3065TIP3    H230831   0.863   4.251   1.695  1.1406 -0.4658  0.3298
 3066TIP3   OH230832   1.155   3.635   2.075 -0.2096 -0.1621  0.2667
 3066TIP3    H130833   1.232   3.657   2.127 -0.1401 -1.8348  0.9270
 3066TIP3    H230834   1.184   3.566   2.015 -0.8186  0.2547 -0.5304
 3067TIP3   OH230835   6.789   1.590   0.198  0.2277 -0.2174  0.6980
 3067TIP3    H130836   6.752   1.676   0.182 -0.3727 -0.7020 -0.6598
 3067TIP3    H230837   6.724   1.529   0.162  1.3883 -1.1608  0.1419
 3068TIP3   OH230838   0.532   0.940   0.742  0.0787 -0.7846  0.1132
 3068TIP3    H130839   0.492   1.025   0.724  0.9352 -0.6355 -1.1651
 3068TIP3    H230840   0.571   0.951   0.829  0.3711  0.2078 -0.1241
 3069TIP3   OH230841   2.435   2.011   1.020  0.1698  0.2532 -0.1915
 3069TIP3    H130842   2.492   2.005   0.943 -0.1000  1.9069 -0.5466
 3069TIP3    H230843   2.493   2.003   1.095  0.6632  0.3537 -0.5623
 3070TIP3   OH230844   5.105   0.254   3.404 -0.4130  0.8084 -0.5748
 3070TIP3    H130845   5.197   0.273   3.425 -0.1509  0.5270 -1.4101
 3070TIP3    H230846   5.110   0.195   3.328 -1.2837  0.7058 -0.5607
 3071TIP3   OH230847   0.380   1.912   0.976  0.6108  0.6399  0.0100
 3071TIP3    H130848   0.471   1.927   0.951  1.0100 -1.9013 -0.3003
 3071TIP3    H230849   0.332   1.912   0.893  0.9043 -1.3497 -0.1973
 3072TIP3   OH230850   3.566   4.052   2.627  0.4808  0.3097 -0.0517
 3072TIP3    H130851   3.626   3.986   2.592  0.6006  0.5487 -0.2960
 3072TIP3    H230852   3.608   4.082   2.707  1.4141  1.5199 -0.9595
 3073TIP3   OH230853   2.080   3.241   1.249  0.3306  0.4472 -0.1628
 3073TIP3    H130854   2.100   3.286   1.331  0.2462 -0.3702  0.3243
 3073TIP3    H230855   2.034   3.306   1.196  1.2388  1.2823  0.0496
 3074TIP3   OH230856   1.404   4.026   0.803 -0.2563 -0.3680  0.3002
 3074TIP3    H130857   1.435   4.099   0.750  1.1619 -0.2212  1.2715
 3074TIP3    H230858   1.454   3.950   0.772  0.9966 -0.1799  1.7105
 3075TIP3   OH230859   4.154   3.788   2.802 -0.5096  0.2435 -0.1236
 3075TIP3    H130860   4.191   3.824   2.883  1.1325  0.0507 -0.7457
 3075TIP3    H230861   4.192   3.701   2.794  0.6918  0.8637 -1.9108
 3076TIP3   OH230862   3.077   6.126   3.183 -0.2740  0.2350 -0.0165
 3076TIP3    H130863   3.142   6.192   3.159  2.8701 -2.8689 -0.9248
 3076TIP3    H230864   3.039   6.099   3.100 -0.0334 -0.4751  0.0995
 3077TIP3   OH230865   6.321   1.692   3.274  0.1392 -0.0252 -0.1614
 3077TIP3    H130866   6.237   1.687   3.319  0.3728  1.5194  0.4798
 3077TIP3    H230867   6.317   1.622   3.208 -1.3775 -0.3823  0.2839
 3078TIP3   OH230868   2.543   3.031   2.439  0.1660 -0.0769  0.8203
 3078TIP3    H130869   2.627   3.039   2.394 -0.0999 -2.0274 -0.1220
 3078TIP3    H230870   2.561   3.059   2.529  1.9114 -0.7280  0.7091
 3079TIP3   OH230871   0.120   3.826   8.234  0.0504  0.0674 -0.3326
 3079TIP3    H130872   0.187   3.815   8.302  0.0003 -0.9015 -0.4233
 3079TIP3    H230873   0.098   3.919   8.237  1.9198  0.5846 -0.7735
 3080TIP3   OH230874   1.273   2.506   3.909  0.3033  0.0323 -0.2031
 3080TIP3    H130875   1.212   2.433   3.921  0.8865 -0.8412 -2.1136
 3080TIP3    H230876   1.330   2.503   3.985 -1.3869  0.2555  1.1253
 3081TIP3   OH230877   1.328   1.337   0.773  0.1919  0.0793  0.2363
 3081TIP3    H130878   1.242   1.369   0.746  1.1824  1.3938 -1.5564
 3081TIP3    H230879   1.385   1.413   0.768  1.5391 -0.8278  1.1175
 3082TIP3   OH230880   0.336   2.514   0.862  0.1266  0.2781  0.1980
 3082TIP3    H130881   0.330   2.571   0.785  0.8859  0.2540  0.1137
 3082TIP3    H230882   0.326   2.573   0.936 -0.6554  0.2952  0.0834
 3083TIP3   OH230883   5.767   2.674   2.317  0.0966  0.3764  0.1727
 3083TIP3    H130884   5.711   2.679   2.394 -1.5342 -2.9430 -0.6130
 3083TIP3    H230885   5.838   2.615   2.342  0.0890  0.0537 -0.5289
 3084TIP3   OH230886   2.348   3.512   0.624 -0.1335  0.0513  0.1388
 3084TIP3    H130887   2.292   3.435   0.623 -1.6391  1.1041 -1.5119
 3084TIP3    H230888   2.435   3.479   0.601 -0.6663 -1.1986 -0.1479
 3085TIP3   OH230889   5.532   6.511   2.393 -0.0269 -0.1793  0.5449
 3085TIP3    H130890   5.591   6.496   2.467  2.2331 -0.1490 -1.1553
 3085TIP3    H230891   5.502   6.423   2.369  0.2872 -0.3264  0.6798
 3086TIP3   OH230892   1.218   5.538   0.386  0.6371  0.1063 -0.0898
 3086TIP3    H130893   1.124   5.548   0.372  0.3517 -2.0847 -0.1348
 3086TIP3    H230894   1.257   5.613   0.341 -1.1110  1.7567  0.9915
 3087TIP3   OH230895   5.709   1.576   1.728 -0.6904 -0.1324 -0.3701
 3087TIP3    H130896   5.658   1.594   1.649  1.2849  1.1350 -1.4594
 3087TIP3    H230897   5.714   1.480   1.732 -3.3129 -0.3070 -0.0390
 3088TIP3   OH230898   4.279   0.386   2.591 -0.0926 -0.0665  0.4175
 3088TIP3    H130899   4.321   0.408   2.674  0.7882 -0.0545 -0.0277
 3088TIP3    H230900   4.218   0.459   2.576 -0.2602 -0.0696  1.0476
 3089TIP3   OH230901   0.177   5.590   2.910 -0.9964  0.5510 -0.2403
 3089TIP3    H130902   0.160   5.527   2.839  2.2314 -2.8149  1.6171
 3089TIP3    H230903   0.259   5.633   2.885 -0.1659 -0.2056  1.0750
 3090TIP3   OH230904   6.765   0.953   2.271 -0.0134 -0.1511  0.3418
 3090TIP3    H130905   6.697   1.005   2.313  1.7224  0.7474  2.2272
 3090TIP3    H230906   6.823   1.017   2.230  0.4284 -0.8093 -0.0869
 3091TIP3   OH230907   5.123   4.749   3.167  0.3111  0.3920 -0.1182
 3091TIP3    H130908   5.203   4.738   3.115  1.6205 -1.1182  1.9908
 3091TIP3    H230909   5.130   4.837   3.203  1.5514 -0.0169  0.7325
 3092TIP3   OH230910   5.336   5.798   0.078 -0.3484 -0.4762  0.3709
 3092TIP3    H130911   5.394   5.811   0.153  0.1589 -0.5810  0.0001
 3092TIP3    H230912   5.350   5.708   0.051 -1.0447 -0.6544  0.5741
 3093TIP3   OH230913   6.575   1.701   3.718 -0.1306  0.2590 -0.1278
 3093TIP3    H130914   6.527   1.725   3.798  0.7810  0.6916  0.3052
 3093TIP3    H230915   6.604   1.612   3.734 -0.7256  0.0173 -0.3654
 3094TIP3   OH230916   1.482   2.101   2.113  0.1439 -0.0727  0.0690
 3094TIP3    H130917   1.523   2.015   2.120  0.3402  0.0120 -0.0208
 3094TIP3    H230918   1.398   2.092   2.159  0.1452 -0.3222  0.0227
 3095TIP3   OH230919   0.297   3.685   0.914  0.4581  0.6860  0.9176
 3095TIP3    H130920   0.277   3.688   1.007 -3.9990  1.9097  0.1588
 3095TIP3    H230921   0.310   3.776   0.889 -2.7694  0.9955 -0.1911
 3096TIP3   OH230922   5.858   5.401   1.050 -0.0790 -0.4120  0.3812
 3096TIP3    H130923   5.782   5.356   1.087  0.7163 -1.3429  0.9216
 3096TIP3    H230924   5.929   5.339   1.058  0.5350  0.0480 -1.0795
 3097TIP3   OH230925   3.550   0.645   3.859  0.1283  0.2795  0.6373
 3097TIP3    H130926   3.559   0.729   3.814 -1.1809  0.7792  1.2384
 3097TIP3    H230927   3.489   0.663   3.931  0.4701 -0.9992  1.2735
 3098TIP3   OH230928   0.602   6.605   1.634  0.3557  0.3312  0.0464
 3098TIP3    H130929   0.670   6.661   1.672  1.0941 -0.7533  0.3625
 3098TIP3    H230930   0.596   6.634   1.542  1.4135  0.2887 -0.0491
 3099TIP3   OH230931   4.161   3.310   4.135  0.2698 -0.1375 -0.2439
 3099TIP3    H130932   4.185   3.354   4.054 -1.8227 -0.2636 -1.0058
 3099TIP3    H230933   4.065   3.315   4.137  0.2837  0.0832  2.3665
 3100TIP3   OH230934   0.325   0.012   8.436  0.1132 -0.1805  0.3440
 3100TIP3    H130935   0.283  -0.073   8.429 -2.7065  1.1642 -1.0678
 3100TIP3    H230936   0.265   0.064   8.490  1.6169  0.9842  0.9570
 3101TIP3   OH230937   1.487   1.369   1.270 -0.0101  0.8870  0.3054
 3101TIP3    H130938   1.442   1.300   1.221  0.3844  1.6256 -1.1866
 3101TIP3    H230939   1.418   1.416   1.315 -0.2371 -0.7561  1.7515
 3102TIP3   OH230940   5.879   4.974   1.146 -0.1019  0.0065  0.3028
 3102TIP3    H130941   5.933   4.903   1.111 -2.4213 -1.2802 -0.8787
 3102TIP3    H230942   5.837   5.012   1.070  0.4506  2.1895  1.0058
 3103TIP3   OH230943   4.341   6.050   1.469 -0.2434 -0.7310 -0.1935
 3103TIP3    H130944   4.310   6.078   1.555 -0.4132  0.1392 -0.5208
 3103TIP3    H230945   4.346   6.131   1.419  1.4825 -0.9887 -0.4986
 3104TIP3   OH230946   6.758   4.555   8.840 -0.0776  0.2756 -0.4154
 3104TIP3    H130947   6.840   4.513   8.863 -0.0268  1.0879  1.0083
 3104TIP3    H230948   6.739   4.525   8.751  0.8142 -1.3407 -0.0837
 3105TIP3   OH230949   2.562   3.424   2.928  0.3520  0.7404  0.3581
 3105TIP3    H130950   2.652   3.457   2.923  1.5146 -2.1992 -1.1770
 3105TIP3    H230951   2.568   3.346   2.984 -1.4019  0.8961  0.8147
 3106TIP3   OH230952   1.916   3.804   1.983  0.0238 -0.2357 -0.0567
 3106TIP3    H130953   1.888   3.868   1.918  1.8004  2.3275  1.5352
 3106TIP3    H230954   2.011   3.797   1.970 -0.1293 -2.7414 -0.2791
 3107TIP3   OH230955   5.683   5.935   3.358  0.1170  0.8263 -0.5934
 3107TIP3    H130956   5.670   5.976   3.444 -3.8244  0.6238 -0.8873
 3107TIP3    H230957   5.672   6.006   3.295  0.9178  0.6147 -0.9807
 3108TIP3   OH230958   3.087   6.165   2.728  0.3521  0.3141 -0.1392
 3108TIP3    H130959   3.145   6.092   2.709  0.2701  0.4028 -0.7745
 3108TIP3    H230960   3.054   6.148   2.816  1.5304  0.3985  0.3269
 3109TIP3   OH230961   2.530   4.614   0.341  0.3119 -0.3706 -0.3044
 3109TIP3    H130962   2.585   4.599   0.264 -0.6239  0.0025 -1.0681
 3109TIP3    H230963   2.586   4.591   0.416  2.3607  2.2564 -0.8809
 3110TIP3   OH230964   4.578   4.462   2.305  0.7756 -0.5725 -0.2766
 3110TIP3    H130965   4.575   4.366   2.302  2.1114 -0.6055 -1.3016
 3110TIP3    H230966   4.666   4.484   2.276  0.4704  0.9822 -0.0876
 3111TIP3   OH230967   3.987   3.478   3.905  0.0845  1.1022 -0.6301
 3111TIP3    H130968   3.994   3.573   3.919  3.8808  0.8326  0.5057
 3111TIP3    H230969   4.077   3.446   3.915 -1.2307 -2.8086  0.3249
 3112TIP3   OH230970   0.088   5.526   1.164 -0.1460  1.0635 -0.0770
 3112TIP3    H130971   0.032   5.452   1.143  0.8072  0.2587  0.1350
 3112TIP3    H230972   0.145   5.495   1.234 -0.3798  2.3214  0.6981
 3113TIP3   OH230973   6.296   0.048   0.974  0.3253 -0.1541 -0.1878
 3113TIP3    H130974   6.327  -0.039   0.949  0.6165 -0.3140  0.6790
 3113TIP3    H230975   6.250   0.081   0.897 -2.0515 -2.0976  0.2917
 3114TIP3   OH230976   0.410   2.425   3.389  0.6857  0.5680  0.6415
 3114TIP3    H130977   0.451   2.501   3.431  1.0539  0.9882 -0.4461
 3114TIP3    H230978   0.317   2.437   3.404  0.7370  1.2687  0.4323
 3115TIP3   OH230979   5.551   6.445   1.014 -0.0754  0.3032 -0.0826
 3115TIP3    H130980   5.622   6.510   1.007 -0.1771  0.6242  1.4955
 3115TIP3    H230981   5.594   6.366   1.047  0.1172 -0.6229 -2.3547
 3116TIP3   OH230982   4.212   6.137   1.785 -0.0311 -0.0940 -0.5172
 3116TIP3    H130983   4.255   6.137   1.870  0.5522  1.1164 -0.7867
 3116TIP3    H230984   4.118   6.139   1.806  0.1152  0.9808  0.1283
 3117TIP3   OH230985   6.203   5.027   1.627  0.1590  0.5703 -0.0927
 3117TIP3    H130986   6.134   4.968   1.596  0.0483  0.4109  0.4479
 3117TIP3    H230987   6.243   5.061   1.547  0.6449 -0.7308 -0.4258
 3118TIP3   OH230988   2.549   4.854   1.492 -0.1823  0.0424 -0.3147
 3118TIP3    H130989   2.605   4.910   1.438 -0.2974 -0.4170 -0.9203
 3118TIP3    H230990   2.567   4.765   1.461  1.3135 -0.4661  1.8215
 3119TIP3   OH230991   4.978   0.823   1.399 -0.6213 -0.0578 -0.0082
 3119TIP3    H130992   4.889   0.843   1.430 -0.7555 -1.3209  0.5005
 3119TIP3    H230993   5.008   0.754   1.458 -0.4242 -1.7149 -1.9210
 3120TIP3   OH230994   2.039   4.315   3.971  0.2748 -0.2189 -0.2184
 3120TIP3    H130995   1.956   4.290   4.012  0.3711  0.1882  0.2351
 3120TIP3    H230996   2.099   4.244   3.994  0.3971  0.1343  0.5751
 3121TIP3   OH230997   0.047   1.456   0.970  0.4014  0.4296  0.4958
 3121TIP3    H130998   0.090   1.526   0.920  2.2532 -0.1348  1.2108
 3121TIP3    H230999   0.001   1.404   0.904  0.1028  1.5428 -0.1985
 3122TIP3   OH231000   6.475   1.126   1.376  0.0961 -0.3931 -0.4632
 3122TIP3    H131001   6.388   1.114   1.337  0.0463  1.6316 -1.0790
 3122TIP3    H231002   6.531   1.063   1.330 -0.9997 -1.7232 -0.0622
 3123TIP3   OH231003   5.567   2.628   8.768  0.0324  0.2367  1.3105
 3123TIP3    H131004   5.638   2.578   8.728 -0.0997  1.7362 -1.0178
 3123TIP3    H231005   5.495   2.622   8.705 -0.5741  1.8483  1.7881
 3124TIP3   OH231006   2.133   2.006   8.754 -0.4207 -0.1182  0.1931
 3124TIP3    H131007   2.042   2.030   8.767  0.1858  1.8263  1.3665
 3124TIP3    H231008   2.152   1.946   8.826 -0.7074 -0.3050  0.1129
 3125TIP3   OH231009   1.335   0.666   1.903 -0.5450 -0.1602 -0.9275
 3125TIP3    H131010   1.317   0.573   1.889  0.0775 -0.2295 -1.2866
 3125TIP3    H231011   1.253   0.701   1.940 -0.9283 -0.7539 -1.2014
 3126TIP3   OH231012   5.121   2.455   3.137 -0.6284 -0.3649  0.3583
 3126TIP3    H131013   5.205   2.501   3.140 -0.2710 -0.9154 -0.8634
 3126TIP3    H231014   5.111   2.427   3.046 -1.5942 -1.3221  0.7312
 3127TIP3   OH231015   0.192   2.725   3.375 -0.1871  0.3188  0.1205
 3127TIP3    H131016   0.209   2.760   3.463  0.3146  0.7360 -0.1386
 3127TIP3    H231017   0.153   2.639   3.391 -1.2990  0.9150  0.7645
 3128TIP3   OH231018   3.290   5.968   0.326  0.6859  0.3412 -0.4619
 3128TIP3    H131019   3.295   5.903   0.397  0.5305 -0.2235 -0.9626
 3128TIP3    H231020   3.381   5.983   0.301  0.7066  0.1432 -0.5042
 3129TIP3   OH231021   2.927   2.038   1.089 -0.0100  0.0437 -0.2606
 3129TIP3    H131022   2.946   1.980   1.163 -0.2731  0.0610 -0.1787
 3129TIP3    H231023   3.011   2.047   1.043 -0.0192 -0.5719 -0.3962
 3130TIP3   OH231024   3.924   1.530   2.032  0.3902 -0.3684 -0.1792
 3130TIP3    H131025   3.989   1.487   2.088  1.6932  0.0503 -1.3173
 3130TIP3    H231026   3.861   1.462   2.011 -0.4202 -0.4178  2.1735
 3131TIP3   OH231027   4.497   6.719   0.510 -0.2042 -0.0311 -0.0444
 3131TIP3    H131028   4.539   6.804   0.498 -1.3331  0.6214  0.4392
 3131TIP3    H231029   4.462   6.697   0.424 -1.0018  0.6090  0.1076
 3132TIP3   OH231030   3.783   1.169   3.209  0.9518 -0.1775  0.1216
 3132TIP3    H131031   3.868   1.209   3.229  1.2937 -1.0107  0.4141
 3132TIP3    H231032   3.805   1.078   3.186  0.1848 -0.2598 -0.3080
 3133TIP3   OH231033   4.597   5.193   2.265 -0.1101 -0.3712 -0.2758
 3133TIP3    H131034   4.687   5.189   2.298 -1.3483 -0.5193  3.6426
 3133TIP3    H231035   4.571   5.285   2.277 -1.1315 -0.7785  0.8826
 3134TIP3   OH231036   4.095   6.251   0.906  0.2673 -0.2130  0.0762
 3134TIP3    H131037   4.137   6.288   0.983 -0.4078  1.8200 -0.4769
 3134TIP3    H231038   4.118   6.310   0.835 -0.4474 -1.1475 -0.9808
 3135TIP3   OH231039   3.259   5.416   2.560 -0.3396 -0.2141  0.1141
 3135TIP3    H131040   3.266   5.415   2.465 -0.3204 -0.2534  0.1157
 3135TIP3    H231041   3.166   5.424   2.578 -0.2285  1.3596  0.0845
 3136TIP3   OH231042   1.070   1.825   4.102  0.2984  0.3142 -0.3160
 3136TIP3    H131043   1.004   1.882   4.061  1.4030  1.1027 -1.0755
 3136TIP3    H231044   1.058   1.740   4.059 -1.7293 -0.2659  1.2121
 3137TIP3   OH231045   3.175   3.892   8.292  0.0593  0.0812  0.1978
 3137TIP3    H131046   3.174   3.813   8.345 -2.1643  0.3076  0.6034
 3137TIP3    H231047   3.198   3.861   8.204 -1.0794 -1.1095  0.2769
 3138TIP3   OH231048   2.611   2.674   1.321 -0.2180  0.0280 -0.3862
 3138TIP3    H131049   2.614   2.768   1.339 -1.1165 -0.0657  0.3544
 3138TIP3    H231050   2.528   2.646   1.359  0.8796 -1.4110  1.0690
 3139TIP3   OH231051   0.299   2.009   8.712 -0.4122  0.5565 -0.2752
 3139TIP3    H131052   0.347   2.043   8.637 -1.4553  2.0875 -0.3025
 3139TIP3    H231053   0.327   2.064   8.785 -0.2814 -0.1599  0.2295
 3140TIP3   OH231054   0.722   4.480   4.043 -0.3582  0.4339 -0.3512
 3140TIP3    H131055   0.695   4.572   4.047  1.3101  0.9193  0.2860
 3140TIP3    H231056   0.815   4.483   4.025 -0.3609 -1.1627 -0.7686
 3141TIP3   OH231057   2.268   0.202   0.701  0.5000  0.1195  0.0741
 3141TIP3    H131058   2.338   0.137   0.706 -1.0643 -1.5486  1.9233
 3141TIP3    H231059   2.190   0.152   0.679 -0.6541  1.4534  0.9693
 3142TIP3   OH231060   0.175   6.668   8.775 -0.7175 -0.1783  0.4165
 3142TIP3    H131061   0.210   6.657   8.863 -1.1658 -0.2944  0.5860
 3142TIP3    H231062   0.222   6.603   8.722 -0.7045 -0.3610  0.6483
 3143TIP3   OH231063   0.635   0.302   2.968 -0.4547  0.7119  0.4365
 3143TIP3    H131064   0.669   0.341   2.887 -1.4040 -0.9573 -0.8419
 3143TIP3    H231065   0.699   0.326   3.035  2.6284 -1.1496 -1.5728
 3144TIP3   OH231066   0.675   2.395   0.840 -0.3325 -0.6247 -0.0844
 3144TIP3    H131067   0.668   2.470   0.899 -0.8900  0.4939 -1.5316
 3144TIP3    H231068   0.737   2.422   0.773 -1.8351 -0.7276 -1.6067
 3145TIP3   OH231069   1.576   1.500   0.770  0.3757 -0.5716 -0.2339
 3145TIP3    H131070   1.553   1.513   0.678  0.0506  1.0425  0.0444
 3145TIP3    H231071   1.621   1.581   0.795 -0.1351 -0.6954  1.1981
 3146TIP3   OH231072   0.230   3.974   1.082 -0.0023 -0.5874 -0.3935
 3146TIP3    H131073   0.310   4.012   1.118  1.0633  1.1546 -4.1422
 3146TIP3    H231074   0.176   4.049   1.058 -1.4255 -1.6688 -0.7243
 3147TIP3   OH231075   1.298   1.797   0.760  0.0369 -0.3281 -0.3109
 3147TIP3    H131076   1.234   1.819   0.692  0.6158  0.4555 -0.6166
 3147TIP3    H231077   1.383   1.813   0.719  0.4071 -0.2020  0.4797
 3148TIP3   OH231078   4.237   5.901   4.081 -0.5374 -0.1882  0.4675
 3148TIP3    H131079   4.243   5.995   4.065 -2.2988  0.0788  1.2215
 3148TIP3    H231080   4.294   5.885   4.156  3.4527 -0.5593 -2.3476
 3149TIP3   OH231081   1.410   0.572   3.711  0.5543  0.1194 -0.3922
 3149TIP3    H131082   1.388   0.661   3.739  1.0509 -0.2148  1.1380
 3149TIP3    H231083   1.405   0.520   3.791  0.6180 -1.1757 -1.2046
 3150TIP3   OH231084   6.486   1.689   8.244  0.1430 -0.4684  0.2156
 3150TIP3    H131085   6.550   1.679   8.314  0.3377 -3.2817 -0.2619
 3150TIP3    H231086   6.509   1.772   8.202  2.1534 -0.3945  1.3660
 3151TIP3   OH231087   5.140   2.182   2.696  0.5369  0.1945 -0.2859
 3151TIP3    H131088   5.152   2.163   2.603  0.3559 -0.8456 -0.1087
 3151TIP3    H231089   5.197   2.119   2.741  2.3733  2.1357  0.2741
 3152TIP3   OH231090   3.003   2.870   3.558 -0.6247 -0.8101  0.6154
 3152TIP3    H131091   2.962   2.955   3.577 -1.0232 -1.2295  1.6882
 3152TIP3    H231092   3.091   2.877   3.595  0.7282  0.4199 -2.4659
 3153TIP3   OH231093   1.475   1.390   2.427 -0.5142 -0.1927  0.3259
 3153TIP3    H131094   1.436   1.304   2.446  0.0374  0.0223  2.7914
 3153TIP3    H231095   1.547   1.398   2.490 -0.6194  2.1251  0.2411
 3154TIP3   OH231096   6.081   5.235   1.018 -0.0529  0.6690  0.1199
 3154TIP3    H131097   6.102   5.163   0.958 -1.9795  1.4718 -1.6461
 3154TIP3    H231098   6.075   5.193   1.104 -1.0151 -1.2827 -0.8285
 3155TIP3   OH231099   0.016   3.184   2.662  0.7614  0.2628  0.7338
 3155TIP3    H131100   0.045   3.226   2.743  3.9090  0.2598 -0.2829
 3155TIP3    H231101   0.051   3.096   2.667  2.0401  0.6143 -1.0933
 3156TIP3   OH231102   0.306   5.801   8.576  0.2564 -0.2008 -0.1309
 3156TIP3    H131103   0.301   5.816   8.482  1.7307 -0.4041 -0.2717
 3156TIP3    H231104   0.268   5.714   8.588  0.0512 -0.1690 -0.5394
 3157TIP3   OH231105   0.143   0.056   0.847  0.2837 -0.2209  0.2185
 3157TIP3    H131106   0.066   0.003   0.824 -0.5305  0.5467  1.0779
 3157TIP3    H231107   0.217   0.007   0.812 -0.6722 -0.3979 -1.6853
 3158TIP3   OH231108   4.299   4.270   2.081 -0.5679 -0.0424 -0.5152
 3158TIP3    H131109   4.309   4.359   2.116  0.5855 -0.1432 -0.5590
 3158TIP3    H231110   4.236   4.280   2.010 -0.3379  0.7719 -0.6191
 3159TIP3   OH231111   1.993   5.317   2.711 -0.2328  0.4170 -0.0882
 3159TIP3    H131112   1.960   5.292   2.625 -0.6205  0.1669  0.1309
 3159TIP3    H231113   2.075   5.269   2.720  0.5782  1.6030 -0.9371
 3160TIP3   OH231114   6.248   4.680   8.849 -0.6932 -0.3755  0.2239
 3160TIP3    H131115   6.326   4.699   8.902 -0.4892  0.5127 -0.3903
 3160TIP3    H231116   6.176   4.719   8.898 -0.4186  1.0481 -0.4699
 3161TIP3   OH231117   6.546   5.800   8.417  0.0918  0.1473 -0.3191
 3161TIP3    H131118   6.467   5.853   8.411 -1.0150 -1.4610 -0.6594
 3161TIP3    H231119   6.552   5.754   8.333  1.3631  0.2021 -0.2817
 3162TIP3   OH231120   3.478   5.812   3.617  0.5086  0.0978 -0.3364
 3162TIP3    H131121   3.424   5.748   3.664  1.8871 -0.3126  0.7629
 3162TIP3    H231122   3.555   5.824   3.673  1.8134  0.2631 -2.0683
 3163TIP3   OH231123   4.045   3.051   3.092 -0.5716 -0.5725  0.3189
 3163TIP3    H131124   4.020   2.958   3.099  0.9944 -1.1330 -1.1213
 3163TIP3    H231125   4.026   3.074   3.001  0.3158  0.1238  0.2995
 3164TIP3   OH231126   6.029   3.187   3.923  0.6623  0.6270 -0.2937
 3164TIP3    H131127   6.071   3.101   3.933  0.3004  0.3661 -0.9727
 3164TIP3    H231128   5.966   3.191   3.995  1.1770  0.6227  0.1640
 3165TIP3   OH231129   5.895   2.958   1.958 -0.4757 -0.6958  0.1364
 3165TIP3    H131130   5.840   3.008   1.898 -1.3051 -2.5098 -0.6746
 3165TIP3    H231131   5.971   2.932   1.905 -0.2206 -0.6030  0.4527
 3166TIP3   OH231132   3.287   4.235   3.400  0.4142  0.1804  0.1212
 3166TIP3    H131133   3.195   4.226   3.423  0.2296  0.5778 -0.4444
 3166TIP3    H231134   3.292   4.314   3.346  1.4055  1.3017  1.7643
 3167TIP3   OH231135   6.458   2.708   2.860  0.1274  0.3785  0.4069
 3167TIP3    H131136   6.483   2.744   2.946  1.1813 -0.0912  0.3185
 3167TIP3    H231137   6.527   2.737   2.801 -0.0895 -0.0875 -0.0835
 3168TIP3   OH231138   5.406   0.862   0.785  0.3642  0.2745 -0.0835
 3168TIP3    H131139   5.316   0.833   0.794  0.2198  0.6898 -0.2020
 3168TIP3    H231140   5.458   0.788   0.817 -0.0124  0.0043 -0.0965
 3169TIP3   OH231141   5.107   1.064   1.001  0.4444  0.3277  0.0535
 3169TIP3    H131142   5.131   1.040   1.091 -0.5054 -0.6997  0.0465
 3169TIP3    H231143   5.112   1.160   1.001 -2.5759  0.6416  2.1547
 3170TIP3   OH231144   5.977   1.639   1.053  0.5089  0.0384  0.2542
 3170TIP3    H131145   5.906   1.691   1.092  0.3419 -0.5890  0.8156
 3170TIP3    H231146   6.002   1.687   0.975 -0.4390  0.3545  0.1313
 3171TIP3   OH231147   1.125   3.267   2.725 -0.0758  0.0228 -0.1652
 3171TIP3    H131148   1.191   3.199   2.708  0.8300  1.0469 -0.8390
 3171TIP3    H231149   1.163   3.347   2.691 -2.1912  0.4571 -1.7671
 3172TIP3   OH231150   1.758   3.235   2.148  0.1473  0.5122 -0.1234
 3172TIP3    H131151   1.744   3.197   2.235  0.2753  0.3066 -0.1935
 3172TIP3    H231152   1.729   3.326   2.157 -1.5701  0.0270 -0.3391
 3173TIP3   OH231153   6.742   1.876   3.275  0.2264 -0.6615 -0.2992
 3173TIP3    H131154   6.730   1.863   3.369  2.4232 -1.3642 -0.0640
 3173TIP3    H231155   6.837   1.877   3.263 -0.0105 -1.1393 -2.5902
 3174TIP3   OH231156   1.153   0.526   1.093  0.0017  0.0318  0.1295
 3174TIP3    H131157   1.123   0.549   1.181 -0.5555  0.4180 -0.1599
 3174TIP3    H231158   1.210   0.598   1.067  0.7106 -0.4101  0.4386
 3175TIP3   OH231159   4.037   1.795   8.138 -0.7676 -0.1558 -0.6094
 3175TIP3    H131160   4.111   1.764   8.190 -1.2050 -0.3253 -0.0790
 3175TIP3    H231161   4.059   1.886   8.118 -0.6534 -0.0479 -0.0118
 3176TIP3   OH231162   4.876   3.042   0.986 -0.5006 -0.5196  0.0925
 3176TIP3    H131163   4.830   3.024   1.068  0.2445  0.1994  0.6782
 3176TIP3    H231164   4.854   2.968   0.930 -0.7897 -1.1669  1.0368
 3177TIP3   OH231165   4.794   5.584   2.383  0.4016  0.2585 -0.2317
 3177TIP3    H131166   4.866   5.635   2.420  0.4454  1.9218 -2.3861
 3177TIP3    H231167   4.715   5.626   2.416  0.4381  0.8178 -0.8438
 3178TIP3   OH231168   4.866   1.261   2.524 -0.0877 -0.4365 -0.3643
 3178TIP3    H131169   4.783   1.242   2.480 -0.0502 -1.2359 -0.1044
 3178TIP3    H231170   4.841   1.290   2.611 -0.1471  0.8426 -0.7773
 3179TIP3   OH231171   0.026   5.528   2.190 -0.4039 -0.5808 -0.4704
 3179TIP3    H131172   0.032   5.596   2.123  0.4410 -0.0057  0.1669
 3179TIP3    H231173  -0.008   5.452   2.144  2.2416 -0.9027 -2.1383
 3180TIP3   OH231174   4.064   6.190   2.833  0.1530 -0.0818  0.4322
 3180TIP3    H131175   4.051   6.123   2.766 -1.2507  0.8060 -0.2228
 3180TIP3    H231176   4.073   6.140   2.915 -1.6243 -1.0819  0.0794
 3181TIP3   OH231177   4.938   3.430   1.660  0.1647 -0.6086 -0.6740
 3181TIP3    H131178   5.021   3.469   1.688  0.1429  0.5148 -2.0172
 3181TIP3    H231179   4.948   3.420   1.565 -1.9648  1.5071 -1.2080
 3182TIP3   OH231180   2.117   0.061   1.217 -0.1797 -0.2888 -0.3932
 3182TIP3    H131181   2.103  -0.019   1.267 -2.0125  0.7901  0.9286
 3182TIP3    H231182   2.138   0.031   1.129 -1.2944 -2.2437 -0.0413
 3183TIP3   OH231183   5.052   3.232   0.470 -0.1762 -0.0024  0.3639
 3183TIP3    H131184   5.050   3.251   0.564  0.6515  0.9169  0.2129
 3183TIP3    H231185   5.143   3.209   0.452 -0.3079 -0.0759 -0.2325
 3184TIP3   OH231186   5.402   0.133   3.351  0.5837 -0.1588 -0.2742
 3184TIP3    H131187   5.400   0.219   3.392  0.2846  0.6007 -1.8144
 3184TIP3    H231188   5.461   0.081   3.407  1.1590  1.1834  0.4044
 3185TIP3   OH231189   0.172   3.708   1.448  0.0992  0.9279  0.3486
 3185TIP3    H131190   0.243   3.766   1.474 -1.6362  1.7159  3.8324
 3185TIP3    H231191   0.158   3.650   1.523 -1.3104 -0.8901 -1.2024
 3186TIP3   OH231192   0.541   5.587   2.497  0.0476  0.0973  0.4489
 3186TIP3    H131193   0.543   5.683   2.503  2.1924  0.2131 -1.0498
 3186TIP3    H231194   0.539   5.558   2.588  0.2329  1.5557  0.9513
 3187TIP3   OH231195   4.971   5.199   1.646 -0.2761 -0.5720 -0.7958
 3187TIP3    H131196   4.916   5.179   1.722  0.4314  0.0962 -0.0925
 3187TIP3    H231197   5.061   5.185   1.677 -0.0380 -2.1286 -2.0750
 3188TIP3   OH231198   4.347   3.687   3.001  0.4279 -0.7358 -0.6670
 3188TIP3    H131199   4.395   3.618   2.954 -0.1150 -0.3752 -1.7922
 3188TIP3    H231200   4.415   3.747   3.030  1.1568 -2.7457  2.2019
 3189TIP3   OH231201   5.126   2.404   2.863 -0.0091 -0.4828  0.1887
 3189TIP3    H131202   5.116   2.454   2.782 -0.5690  0.0230  0.5565
 3189TIP3    H231203   5.136   2.313   2.835 -2.2002 -0.5978 -0.3830
 3190TIP3   OH231204   2.445   1.623   1.130  0.5123  0.2023  0.2617
 3190TIP3    H131205   2.506   1.687   1.094  0.2617  0.7307  0.7739
 3190TIP3    H231206   2.463   1.543   1.080  0.7795  0.6807 -0.4278
 3191TIP3   OH231207   4.272   2.330   3.832  0.3934 -0.6660 -0.1635
 3191TIP3    H131208   4.219   2.269   3.884  2.7222 -0.4314  2.7593
 3191TIP3    H231209   4.268   2.412   3.882 -0.0185  0.6687 -2.2734
 3192TIP3   OH231210   2.644   2.583   8.676  0.1129 -0.2167  0.5513
 3192TIP3    H131211   2.559   2.555   8.643  0.3809 -1.8644  1.1723
 3192TIP3    H231212   2.700   2.587   8.599 -0.6287  1.4346  0.0502
 3193TIP3   OH231213   4.205   1.359   3.782 -0.2402  0.0933 -0.1057
 3193TIP3    H131214   4.120   1.393   3.811 -0.2616 -1.1418  1.3904
 3193TIP3    H231215   4.266   1.429   3.804 -0.6304  0.2436  0.5634
 3194TIP3   OH231216   6.736   2.297   3.121  0.6611 -0.0038  0.1405
 3194TIP3    H131217   6.646   2.284   3.151  0.2320  2.0054 -0.0832
 3194TIP3    H231218   6.786   2.314   3.200  1.0213 -1.7645  0.3321
 3195TIP3   OH231219   3.640   2.690   1.663 -0.1600  0.4699  0.0343
 3195TIP3    H131220   3.672   2.618   1.718 -0.9899 -0.0560 -0.1559
 3195TIP3    H231221   3.687   2.679   1.580 -0.1772  0.2382  0.0542
 3196TIP3   OH231222   1.664   2.480   3.315 -0.4187  0.9706  0.5584
 3196TIP3    H131223   1.746   2.481   3.265 -0.2603 -0.7217  0.7400
 3196TIP3    H231224   1.641   2.573   3.324  0.6710  1.4152 -0.7918
 3197TIP3   OH231225   5.577   6.117   1.552 -0.2521 -0.6987 -0.0153
 3197TIP3    H131226   5.531   6.104   1.470  0.8445  0.0761 -0.7756
 3197TIP3    H231227   5.510   6.103   1.620 -1.6121  0.4985 -1.0697
 3198TIP3   OH231228   3.670   5.903   1.507  0.0297 -0.0885 -0.0685
 3198TIP3    H131229   3.682   5.963   1.581  1.4824 -1.2177  0.6555
 3198TIP3    H231230   3.717   5.943   1.435  0.7107 -0.1823  0.3182
 3199TIP3   OH231231   1.278   5.910   1.967  0.0997  0.3867  0.6088
 3199TIP3    H131232   1.370   5.936   1.961 -0.0360  0.9136  0.7877
 3199TIP3    H231233   1.231   5.975   1.915 -0.1126 -0.2342  0.0059
 3200TIP3   OH231234   2.381   0.772   3.408  0.2369 -0.3390 -0.0384
 3200TIP3    H131235   2.420   0.685   3.400  0.5193 -0.3980  1.6624
 3200TIP3    H231236   2.293   0.762   3.372  0.3890 -1.2414 -0.1853
 3201TIP3   OH231237   2.918   6.231   8.307 -0.2939 -0.7645 -0.0109
 3201TIP3    H131238   2.907   6.172   8.232 -1.4374  1.0749 -1.3838
 3201TIP3    H231239   2.828   6.250   8.335  0.0755 -0.1103  0.7668
 3202TIP3   OH231240   3.420   2.683   4.291 -0.2709  0.0207 -0.3778
 3202TIP3    H131241   3.470   2.754   4.332  1.1965 -0.2407 -1.6424
 3202TIP3    H231242   3.347   2.728   4.248  0.3897  0.7317 -0.7897
 3203TIP3   OH231243   6.658   3.230   2.179 -0.2133  0.3097 -0.4176
 3203TIP3    H131244   6.668   3.193   2.267 -1.0723  2.2363  0.5575
 3203TIP3    H231245   6.695   3.163   2.121 -0.0485 -1.2374  1.3444
 3204TIP3   OH231246   1.527   4.980   1.220  0.2445 -0.1221 -0.3505
 3204TIP3    H131247   1.461   4.977   1.289  0.4842  0.8940 -0.0598
 3204TIP3    H231248   1.483   5.023   1.146  0.7430  1.1600  0.0632
 3205TIP3   OH231249   3.914   4.912   0.561 -0.1044  0.1368  0.0161
 3205TIP3    H131250   4.009   4.901   0.572  0.3103  2.0301 -1.1090
 3205TIP3    H231251   3.903   4.930   0.468 -1.5506  0.2166  0.1897
 3206TIP3   OH231252   0.965   2.186   2.695 -0.0380 -0.0257 -0.3612
 3206TIP3    H131253   1.034   2.125   2.721  1.7766  1.3883 -1.6183
 3206TIP3    H231254   0.983   2.266   2.745  0.2738  0.9031 -1.8864
 3207TIP3   OH231255   4.366   0.787   2.228  0.6281  0.1188 -0.3091
 3207TIP3    H131256   4.284   0.791   2.179  0.0555 -1.0041  0.5193
 3207TIP3    H231257   4.435   0.795   2.162 -0.1347 -0.8566 -1.2343
 3208TIP3   OH231258   5.849   1.184   8.220 -0.5741  0.0411 -0.2821
 3208TIP3    H131259   5.931   1.143   8.193 -0.1930  0.1109  0.7098
 3208TIP3    H231260   5.804   1.205   8.139  0.3016 -0.1883 -0.8371
 3209TIP3   OH231261   4.501   4.806   3.866 -0.1037  0.3542  0.5121
 3209TIP3    H131262   4.430   4.869   3.883 -0.0569 -0.1993  3.2583
 3209TIP3    H231263   4.581   4.857   3.874 -0.1216  0.5035 -0.2007
 3210TIP3   OH231264   2.312   0.067   2.807  0.7200 -0.0756 -0.1442
 3210TIP3    H131265   2.217   0.083   2.815  0.3300 -0.9052 -2.5034
 3210TIP3    H231266   2.331   0.006   2.878 -0.4988  0.1689  0.4287
 3211TIP3   OH231267   4.832   3.203   3.736  0.3794 -0.3690  0.0831
 3211TIP3    H131268   4.928   3.211   3.738  0.3654 -0.2307  0.5861
 3211TIP3    H231269   4.815   3.114   3.765  0.3447 -0.2330  0.4930
 3212TIP3   OH231270   6.425   3.378   2.962 -0.1987  0.3521  0.1359
 3212TIP3    H131271   6.334   3.405   2.968 -0.3695  0.2800 -1.4668
 3212TIP3    H231272   6.474   3.459   2.946  0.0721  0.4262  1.2595
 3213TIP3   OH231273   5.370   4.933   1.251 -0.6720 -0.4972  0.1482
 3213TIP3    H131274   5.359   4.909   1.159  0.6291 -2.1442  0.3761
 3213TIP3    H231275   5.460   4.911   1.272  0.0279  2.7061  1.0702
 3214TIP3   OH231276   5.487   2.363   1.584  0.1735 -0.0015 -0.2018
 3214TIP3    H131277   5.506   2.324   1.669 -1.0002 -3.4586 -1.3830
 3214TIP3    H231278   5.551   2.324   1.525  2.4698  4.0233 -0.7433
 3215TIP3   OH231279   0.238   0.144   2.879 -0.4642 -0.4356 -0.3221
 3215TIP3    H131280   0.189   0.162   2.959  0.6940 -1.2266  0.6102
 3215TIP3    H231281   0.269   0.054   2.889  0.5001 -0.2262 -1.2231
 3216TIP3   OH231282   5.450   6.765   0.372 -0.0093  0.3475 -0.3418
 3216TIP3    H131283   5.365   6.777   0.414  0.7863  0.0849  1.4482
 3216TIP3    H231284   5.450   6.826   0.299 -1.0030  1.7635  0.7823
 3217TIP3   OH231285   4.885   0.379   8.830  0.0074 -0.3961 -0.5444
 3217TIP3    H131286   4.903   0.286   8.835  1.8666 -0.1894 -2.0219
 3217TIP3    H231287   4.796   0.385   8.794 -0.4284 -1.5677  0.2968
 3218TIP3   OH231288   5.467   2.763   0.152  0.0123 -0.9578  0.2906
 3218TIP3    H131289   5.500   2.697   0.091 -1.9139 -3.2907  1.5476
 3218TIP3    H231290   5.422   2.827   0.097  0.3072 -1.7319 -0.8764
 3219TIP3   OH231291   0.976   0.823   1.616  0.6484 -0.0679 -0.1836
 3219TIP3    H131292   0.941   0.789   1.698  1.0045  0.6247  0.2590
 3219TIP3    H231293   1.069   0.804   1.620  0.8010  0.6803 -0.0680
 3220TIP3   OH231294   1.886   1.045   3.602  0.2761 -0.0492 -0.2590
 3220TIP3    H131295   1.923   1.012   3.684  0.3405 -0.7398 -0.5529
 3220TIP3    H231296   1.953   1.025   3.536  1.0118  2.1118 -0.2240
 3221TIP3   OH231297   1.783   6.362   0.949  0.4406 -0.2468 -0.2368
 3221TIP3    H131298   1.776   6.383   0.856 -0.8537 -0.5295 -0.2283
 3221TIP3    H231299   1.827   6.277   0.951  0.8496 -0.0426 -0.5645
 3222TIP3   OH231300   3.943   2.833   2.865  0.1378 -0.5683  0.4409
 3222TIP3    H131301   3.871   2.770   2.870  0.9437 -1.4936  0.6035
 3222TIP3    H231302   4.019   2.786   2.899  1.5311 -0.6498 -2.5124
 3223TIP3   OH231303   5.145   2.175   1.189  0.1948  0.1432  0.0511
 3223TIP3    H131304   5.071   2.124   1.221  0.5495  0.5270  1.5312
 3223TIP3    H231305   5.220   2.115   1.193  0.0680 -0.1294 -1.0990
 3224TIP3   OH231306   4.574   3.253   0.414  0.2765  0.4724 -0.2119
 3224TIP3    H131307   4.653   3.304   0.431  0.3569  0.5591 -0.8302
 3224TIP3    H231308   4.603   3.179   0.362 -0.0939  0.6830 -0.7302
 3225TIP3   OH231309   0.350   1.832   2.209 -0.2169  0.2461 -0.0653
 3225TIP3    H131310   0.412   1.861   2.142  0.2455  0.2669  0.3658
 3225TIP3    H231311   0.264   1.838   2.167 -0.5385  4.7463  0.7264
 3226TIP3   OH231312   1.620   2.346   2.064 -0.0911 -0.1816  0.2785
 3226TIP3    H131313   1.620   2.365   2.157 -1.5647  0.2935  0.2095
 3226TIP3    H231314   1.586   2.256   2.058  0.7229 -0.4957  0.2288
 3227TIP3   OH231315   4.266   3.353   3.051  0.2935 -0.9101 -0.7205
 3227TIP3    H131316   4.290   3.295   2.978  0.0882  0.8760 -2.2736
 3227TIP3    H231317   4.296   3.440   3.024 -0.5478 -0.0464  0.9602
 3228TIP3   OH231318   3.707   5.091   1.443  0.7816 -0.0566 -0.2392
 3228TIP3    H131319   3.624   5.059   1.477 -0.0228  1.3642 -0.7466
 3228TIP3    H231320   3.682   5.149   1.370  2.0838  1.7603  0.6793
 3229TIP3   OH231321   3.079   3.915   3.083 -0.2766  0.8582  0.0600
 3229TIP3    H131322   3.050   3.826   3.062 -2.4988  1.9561 -2.0844
 3229TIP3    H231323   3.055   3.927   3.175 -0.6250 -0.4902  0.1717
 3230TIP3   OH231324   2.517   4.826   2.245  0.5532 -0.4188 -0.0422
 3230TIP3    H131325   2.489   4.769   2.174  0.9644 -1.5656  0.6824
 3230TIP3    H231326   2.531   4.911   2.204 -0.4131 -0.7416 -1.0878
 3231TIP3   OH231327   2.766   4.458   0.513  0.4204 -0.3139 -0.1855
 3231TIP3    H131328   2.844   4.460   0.568  0.5930  0.0282 -0.4392
 3231TIP3    H231329   2.700   4.506   0.563  0.9528  1.1431 -0.8284
 3232TIP3   OH231330   0.437   6.160   2.301  0.2921 -0.4149 -0.4635
 3232TIP3    H131331   0.526   6.150   2.334 -0.4429  0.7279  2.0604
 3232TIP3    H231332   0.391   6.081   2.329  0.1192 -0.2881 -0.3859
 3233TIP3   OH231333   6.548   2.107   1.294 -0.2862 -0.2616  0.2904
 3233TIP3    H131334   6.460   2.071   1.306 -0.8570  0.7602 -0.6602
 3233TIP3    H231335   6.555   2.120   1.199  0.7285  0.0668  0.4038
 3234TIP3   OH231336   2.014   3.826   8.586 -1.1205 -0.0788  0.4000
 3234TIP3    H131337   1.973   3.843   8.501  0.8123  0.6601 -0.4571
 3234TIP3    H231338   2.045   3.911   8.615 -1.5947 -0.3627  1.7723
 3235TIP3   OH231339   6.259   5.189   2.221 -0.3856 -0.2834  0.2183
 3235TIP3    H131340   6.321   5.228   2.282 -0.0683 -0.1342 -0.2033
 3235TIP3    H231341   6.197   5.141   2.278 -0.1607 -0.0515  0.6616
 3236TIP3   OH231342   4.906   1.290   8.769  0.3500  0.4023  0.7110
 3236TIP3    H131343   4.953   1.241   8.702 -0.0268 -0.8359  1.3216
 3236TIP3    H231344   4.928   1.246   8.851  1.5223  2.4134  1.5556
 3237TIP3   OH231345   4.683   3.545   1.746 -0.1529  0.1808  0.0443
 3237TIP3    H131346   4.651   3.458   1.769  1.5912 -0.2982  0.8660
 3237TIP3    H231347   4.774   3.531   1.718  1.0006  1.9557  2.4695
 3238TIP3   OH231348   4.279   5.172   2.612 -0.6067 -0.1325 -0.4079
 3238TIP3    H131349   4.189   5.150   2.591 -0.4925 -0.4345 -0.5976
 3238TIP3    H231350   4.277   5.198   2.704 -1.0164  0.6330 -0.6241
 3239TIP3   OH231351   2.054   5.680   8.086  0.3210  0.7081  0.0075
 3239TIP3    H131352   2.136   5.661   8.040 -0.1473 -1.9615  0.0994
 3239TIP3    H231353   1.987   5.638   8.032 -0.8807  1.8994  0.5160
 3240TIP3   OH231354   4.340   1.311   2.083  0.3426  0.0878 -0.8461
 3240TIP3    H131355   4.363   1.229   2.040 -0.0532 -0.7271  0.4184
 3240TIP3    H231356   4.262   1.290   2.135  0.5794  1.1052 -0.0370
 3241TIP3   OH231357   0.181   3.154   0.122 -0.0967 -0.0671 -0.0850
 3241TIP3    H131358   0.270   3.134   0.150 -0.3145  0.5268  1.1147
 3241TIP3    H231359   0.165   3.244   0.153 -0.2205  0.8369 -2.5742
 3242TIP3   OH231360   6.769   3.533   1.920 -0.3883  0.6803  0.1876
 3242TIP3    H131361   6.790   3.500   1.833  0.6040  1.8450 -0.0554
 3242TIP3    H231362   6.674   3.537   1.922 -0.4124  1.9677 -1.4008
 3243TIP3   OH231363   1.658   0.389   3.067  0.2254 -0.5734  0.4259
 3243TIP3    H131364   1.570   0.359   3.042  0.0826  0.2340 -0.0630
 3243TIP3    H231365   1.642   0.459   3.130  0.1617  3.9236 -3.9808
 3244TIP3   OH231366   3.432   5.122   8.866  0.3688 -0.0693 -0.2285
 3244TIP3    H131367   3.387   5.045   8.830  0.0644  0.3636 -0.7960
 3244TIP3    H231368   3.505   5.137   8.807  0.5836 -0.0750  0.0332
 3245TIP3   OH231369   3.849   2.426   0.699  0.3335 -0.3558  0.2092
 3245TIP3    H131370   3.896   2.351   0.733  0.9306 -0.5552 -0.9983
 3245TIP3    H231371   3.835   2.483   0.775  0.8003 -1.1958  0.9326
 3246TIP3   OH231372   4.982   3.554   0.042 -0.6247  0.2675 -0.0754
 3246TIP3    H131373   5.023   3.609  -0.025  0.5718 -0.3268  0.1466
 3246TIP3    H231374   5.034   3.474   0.042  0.1769  0.7041  2.3749
 3247TIP3   OH231375   0.898   4.711   1.769  0.1035  0.5313  0.1554
 3247TIP3    H131376   0.814   4.726   1.725  0.2965  0.1146 -0.3554
 3247TIP3    H231377   0.964   4.741   1.706  0.3301  1.2841  0.7312
 3248TIP3   OH231378   0.585   4.273   3.032  0.3757 -0.7526 -0.4232
 3248TIP3    H131379   0.617   4.189   2.999  0.7094 -0.8682  0.1703
 3248TIP3    H231380   0.646   4.338   2.998  2.0109 -1.0954  1.6778
 3249TIP3   OH231381   1.786   2.904   2.672 -0.1167 -0.7596  0.0009
 3249TIP3    H131382   1.704   2.921   2.625 -1.8982 -1.2084  2.7040
 3249TIP3    H231383   1.770   2.823   2.720  1.7170 -0.5562  1.0686
 3250TIP3   OH231384   4.746   5.798   2.977  0.2560  0.2570 -0.0565
 3250TIP3    H131385   4.752   5.888   3.008  0.3471  0.0555  0.5355
 3250TIP3    H231386   4.748   5.805   2.882 -0.0137  0.8968 -0.0205
 3251TIP3   OH231387   4.990   5.344   2.850 -0.3034  0.2990  0.0622
 3251TIP3    H131388   4.997   5.284   2.775 -1.3176 -0.3788  0.4891
 3251TIP3    H231389   5.038   5.422   2.822  0.0856 -0.2775 -0.9520
 3252TIP3   OH231390   5.763   0.801   0.124 -0.3712  0.2146 -0.4537
 3252TIP3    H131391   5.669   0.792   0.109 -0.1919 -0.7399 -1.1184
 3252TIP3    H231392   5.803   0.749   0.054  0.6397  0.0715  0.2145
 3253TIP3   OH231393   5.233   3.565   3.150  0.4471  0.1118  0.5657
 3253TIP3    H131394   5.195   3.480   3.174  1.4451 -0.5969 -0.2963
 3253TIP3    H231395   5.306   3.544   3.092  1.4530  1.5014  1.2674
 3254TIP3   OH231396   3.706   5.980   1.073  0.1345 -0.4914 -0.0253
 3254TIP3    H131397   3.733   6.014   1.158 -1.2704 -0.2126  0.3339
 3254TIP3    H231398   3.738   6.046   1.010 -1.0721  0.6679  0.5262
 3255TIP3   OH231399   2.443   2.643   0.164 -0.5043 -0.0495  0.1197
 3255TIP3    H131400   2.519   2.649   0.223 -0.5351 -1.1444  0.2943
 3255TIP3    H231401   2.441   2.551   0.138  0.0957  0.5792 -2.3844
 3256TIP3   OH231402   1.249   0.308   2.093 -0.5459  0.4592 -0.3253
 3256TIP3    H131403   1.256   0.398   2.126 -1.7446  0.1093  0.9868
 3256TIP3    H231404   1.339   0.277   2.089 -0.1625  1.4915 -0.1158
 3257TIP3   OH231405   4.800   1.666   3.367 -0.1910 -0.0374 -0.2807
 3257TIP3    H131406   4.860   1.591   3.368 -1.0528 -0.7418 -0.5647
 3257TIP3    H231407   4.787   1.685   3.274 -0.3724  0.1377 -0.2187
 3258TIP3   OH231408   1.789   5.244   1.161  0.1755  0.3106  0.1155
 3258TIP3    H131409   1.728   5.198   1.103  0.6347  0.2595 -0.3423
 3258TIP3    H231410   1.739   5.260   1.241  0.3183 -1.9588  0.7402
 3259TIP3   OH231411   2.766   1.569   3.207  0.1006 -0.3326 -0.2036
 3259TIP3    H131412   2.697   1.619   3.252 -0.1342 -0.9295  0.1064
 3259TIP3    H231413   2.731   1.553   3.120 -0.1001 -0.5203 -0.0902
 3260TIP3   OH231414   1.612   3.303   2.748  0.1121 -0.0071 -0.3930
 3260TIP3    H131415   1.582   3.289   2.659  1.2221  0.0042 -0.7871
 3260TIP3    H231416   1.534   3.328   2.797 -1.0394 -2.5127 -0.7897
 3261TIP3   OH231417   4.371   0.187   1.324  0.2977 -0.5838 -0.3335
 3261TIP3    H131418   4.342   0.171   1.414  1.4117  1.5745  0.4799
 3261TIP3    H231419   4.293   0.222   1.279  0.4007  0.9679  0.6077
 3262TIP3   OH231420   1.621   1.021   2.988  0.1410  0.4545 -0.0989
 3262TIP3    H131421   1.680   1.067   3.047  0.3474 -0.7398  0.6745
 3262TIP3    H231422   1.632   0.928   3.011 -0.1389 -0.0021 -1.6807
 3263TIP3   OH231423   0.184   5.752   2.290 -0.6261 -0.3811 -0.2902
 3263TIP3    H131424   0.187   5.658   2.311  1.1305 -0.2891  0.0790
 3263TIP3    H231425   0.155   5.755   2.199 -0.6771 -1.3030 -0.3138
 3264TIP3   OH231426   3.817   0.522   8.522 -0.6618  0.2241 -0.0005
 3264TIP3    H131427   3.779   0.595   8.474 -1.8391 -0.7941 -0.6726
 3264TIP3    H231428   3.764   0.446   8.498 -0.0476 -0.7000  1.3779
 3265TIP3   OH231429   1.538   3.249   8.025 -0.1779 -0.0516 -0.5616
 3265TIP3    H131430   1.443   3.259   8.018 -0.0575  0.8224 -1.0798
 3265TIP3    H231431   1.574   3.324   7.977  0.7659  0.5864  1.0524
 3266TIP3   OH231432   0.984   1.469   8.755  0.1213  0.1854  0.0205
 3266TIP3    H131433   0.977   1.373   8.754 -0.5568  0.2281 -0.0295
 3266TIP3    H231434   0.918   1.498   8.692  2.4820  0.5842 -2.4542
 3267TIP3   OH231435   2.153   1.439   1.003  0.2473 -0.4358 -0.3468
 3267TIP3    H131436   2.070   1.416   0.962  0.5449 -1.8070 -0.2441
 3267TIP3    H231437   2.218   1.386   0.956  0.9203 -0.1347  0.2237
 3268TIP3   OH231438   2.501   4.411   2.021  0.2699  0.0215 -0.2892
 3268TIP3    H131439   2.540   4.390   2.106  0.4656  0.9614 -0.1432
 3268TIP3    H231440   2.411   4.381   2.029 -0.1431  1.4369  0.7970
 3269TIP3   OH231441   2.284   1.435   8.786 -0.3141  0.4084 -0.2429
 3269TIP3    H131442   2.198   1.440   8.744 -1.2282  0.5809  1.5702
 3269TIP3    H231443   2.265   1.432   8.880  1.5926 -1.1056  0.1656
 3270TIP3   OH231444   1.001   3.948   1.893  0.5187 -0.5756  0.2117
 3270TIP3    H131445   1.016   3.876   1.832 -2.4935 -0.3878 -0.9363
 3270TIP3    H231446   1.041   3.919   1.975  1.8170 -2.2678 -0.9485
 3271TIP3   OH231447   0.886   1.392   2.605 -0.8536  0.0992 -0.1903
 3271TIP3    H131448   0.927   1.479   2.611 -0.2655 -0.2886  2.4699
 3271TIP3    H231449   0.792   1.411   2.600 -0.6618  0.8769 -1.5725
 3272TIP3   OH231450   3.295   4.742   1.086 -0.4541  0.3653  0.1560
 3272TIP3    H131451   3.242   4.733   1.007 -2.1704  3.7978  0.7149
 3272TIP3    H231452   3.345   4.822   1.073  0.1451  0.3587  2.0523
 3273TIP3   OH231453   6.589   2.105   0.078  0.0256 -0.0514  0.7615
 3273TIP3    H131454   6.681   2.124   0.094 -0.2848  1.2425  1.1065
 3273TIP3    H231455   6.561   2.172   0.015 -0.4889 -0.9222  0.0214
 3274TIP3   OH231456   4.081   0.546   2.675 -0.1141  0.8093 -0.0283
 3274TIP3    H131457   4.095   0.627   2.724  0.7456  0.3029  0.5974
 3274TIP3    H231458   4.024   0.494   2.732  0.4255  0.4490  0.1961
 3275TIP3   OH231459   2.068   2.213   3.114  0.2507 -0.4037  0.2514
 3275TIP3    H131460   2.070   2.215   3.019 -0.6484  0.7027  0.2211
 3275TIP3    H231461   2.027   2.297   3.139  0.1502 -0.8150  1.5868
 3276TIP3   OH231462   3.275   6.467   0.121  0.2615 -0.2435  0.5866
 3276TIP3    H131463   3.239   6.491   0.206  1.3166  0.9023  0.7286
 3276TIP3    H231464   3.366   6.495   0.124 -0.0507  1.1906 -1.4463
 3277TIP3   OH231465   6.251   2.809   1.469 -0.0251  0.0979  0.0676
 3277TIP3    H131466   6.177   2.865   1.491 -0.0621  1.0497 -2.2468
 3277TIP3    H231467   6.326   2.868   1.470 -0.1825  0.5075 -3.2371
 3278TIP3   OH231468   2.499   2.204   0.336 -0.2594 -0.1745  0.6445
 3278TIP3    H131469   2.444   2.126   0.341  0.3182 -0.7063 -0.7506
 3278TIP3    H231470   2.441   2.275   0.364 -1.3271 -0.8667  0.2722
 3279TIP3   OH231471   1.956   1.511   8.304 -0.1777 -0.1203  0.4751
 3279TIP3    H131472   2.046   1.502   8.272  0.2597  0.8530  1.3786
 3279TIP3    H231473   1.932   1.602   8.286 -1.8440 -0.9222 -1.8137
 3280TIP3   OH231474   4.063   3.490   2.132  0.6318 -0.2643 -0.1055
 3280TIP3    H131475   4.093   3.401   2.116  2.2796  0.0548  0.9184
 3280TIP3    H231476   4.032   3.521   2.047  0.3292 -1.6937 -0.5423
 3281TIP3   OH231477   5.087   2.231   3.584  0.3574  0.0581  0.1466
 3281TIP3    H131478   5.083   2.326   3.573 -1.0383  0.0021  0.0848
 3281TIP3    H231479   5.054   2.216   3.673 -0.9647 -0.4693 -0.4098
 3282TIP3   OH231480   5.950   0.809   2.003  0.3886 -0.5112  0.1675
 3282TIP3    H131481   5.977   0.887   1.955 -0.3057 -0.8758 -0.8322
 3282TIP3    H231482   6.027   0.752   2.001  0.4535 -0.4116 -0.2848
 3283TIP3   OH231483   1.953   0.703   1.662  0.1832  0.1387 -0.0653
 3283TIP3    H131484   1.982   0.776   1.607  0.4265 -0.2897 -0.5131
 3283TIP3    H231485   1.911   0.745   1.737  0.5751  0.7425 -0.1758
 3284TIP3   OH231486   4.385   0.058   3.842  0.0053  0.0047 -0.2263
 3284TIP3    H131487   4.362   0.016   3.925 -0.8503  0.3414 -0.2840
 3284TIP3    H231488   4.481   0.064   3.844 -0.0210  0.3610  0.9235
 3285TIP3   OH231489   0.708   6.336   0.519  0.5473  0.4828 -0.6370
 3285TIP3    H131490   0.624   6.370   0.552 -0.1647 -0.9847 -0.8682
 3285TIP3    H231491   0.723   6.385   0.438  0.2973  1.2707 -0.2242
 3286TIP3   OH231492   3.242   6.566   0.622 -0.4521 -0.2443 -0.2465
 3286TIP3    H131493   3.311   6.626   0.593  0.2307 -1.0950 -0.4053
 3286TIP3    H231494   3.185   6.558   0.546 -0.2479 -0.2163 -0.4044
 3287TIP3   OH231495   5.313   0.492   2.152  0.5908 -0.6862 -0.0302
 3287TIP3    H131496   5.228   0.464   2.186 -0.0368  0.8973 -0.2311
 3287TIP3    H231497   5.361   0.522   2.230  0.1355  0.4692 -0.1825
 3288TIP3   OH231498   4.630   2.826   0.107  0.2401 -0.4962  0.4019
 3288TIP3    H131499   4.539   2.846   0.130  0.1820  0.2090 -0.4149
 3288TIP3    H231500   4.629   2.733   0.083 -0.3845 -0.3357 -0.2116
 3289TIP3   OH231501   5.717   4.098   2.074 -0.8573 -0.0491 -0.2426
 3289TIP3    H131502   5.671   4.102   1.990 -0.3976  2.1525 -0.4586
 3289TIP3    H231503   5.663   4.042   2.129 -2.2039  0.0563 -1.4114
 3290TIP3   OH231504   6.501   6.199   8.738  0.8562  0.5102 -0.5691
 3290TIP3    H131505   6.585   6.229   8.773 -0.5764  3.6645  0.6021
 3290TIP3    H231506   6.477   6.124   8.793  1.9447  0.9073  0.4880
 3291TIP3   OH231507   6.355   0.605   2.899 -0.3929 -0.5819 -0.0927
 3291TIP3    H131508   6.437   0.653   2.912 -0.3431 -1.1950  2.4294
 3291TIP3    H231509   6.335   0.568   2.986 -3.4883 -0.2315 -0.5438
 3292TIP3   OH231510   1.314   1.802   0.366  0.0978  0.2047  0.8477
 3292TIP3    H131511   1.380   1.768   0.425 -2.3891 -0.8334  3.2264
 3292TIP3    H231512   1.297   1.731   0.304  3.7153  1.7602 -2.3937
 3293TIP3   OH231513   3.277   4.688   0.149  0.7530 -0.0900  0.1604
 3293TIP3    H131514   3.336   4.617   0.125  1.1920  0.5596 -0.7248
 3293TIP3    H231515   3.271   4.681   0.245  2.8202  0.2273  0.3751
 3294TIP3   OH231516   2.341   3.829   0.928  0.1292 -0.3231 -0.2421
 3294TIP3    H131517   2.381   3.874   0.853 -0.5284 -0.1025 -0.4706
 3294TIP3    H231518   2.400   3.756   0.947  2.4249  1.8062  1.5075
 3295TIP3   OH231519   1.289   2.738   3.391  1.1883  0.1761  0.0383
 3295TIP3    H131520   1.327   2.747   3.479 -0.6113  1.5832  0.7374
 3295TIP3    H231521   1.272   2.828   3.363  2.8281 -0.1706 -2.3175
 3296TIP3   OH231522   3.008   1.607   0.721 -0.0178 -0.4532  0.1812
 3296TIP3    H131523   2.954   1.670   0.674 -1.1092  0.1295  2.1121
 3296TIP3    H231524   3.062   1.660   0.779 -0.7858 -1.2170  1.6735
 3297TIP3   OH231525   6.029   0.191   8.064  0.2853 -0.0191  0.6305
 3297TIP3    H131526   6.038   0.104   8.101 -0.7775 -1.2146 -1.6962
 3297TIP3    H231527   6.069   0.249   8.129  0.7270 -2.1646  2.4069
 3298TIP3   OH231528   6.421   0.469   2.136  0.2374 -0.1095 -0.2991
 3298TIP3    H131529   6.401   0.563   2.143 -2.0313 -0.5789  0.2059
 3298TIP3    H231530   6.458   0.445   2.221 -0.8406 -0.0263  0.1995
 3299TIP3   OH231531   6.362   0.848   3.055 -0.2048 -0.3374  0.1460
 3299TIP3    H131532   6.275   0.830   3.090 -0.2162  1.3622  1.1245
 3299TIP3    H231533   6.364   0.943   3.041  1.1838 -0.4580 -0.7240
 3300TIP3   OH231534   2.168   6.552   2.437 -0.3320 -0.1793 -0.6381
 3300TIP3    H131535   2.251   6.599   2.451 -0.1059 -0.5937 -0.5770
 3300TIP3    H231536   2.153   6.557   2.343 -1.3820  1.8183 -0.4171
 3301TIP3   OH231537   4.598   0.937   1.536 -0.2655  0.4392  0.1425
 3301TIP3    H131538   4.670   1.000   1.544 -0.0592  0.0192  2.1629
 3301TIP3    H231539   4.639   0.851   1.541 -0.7123  0.1476 -0.9161
 3302TIP3   OH231540   2.519   4.294   2.976  0.2695 -0.5943 -0.3295
 3302TIP3    H131541   2.473   4.339   3.046  1.5654  0.4724 -0.1192
 3302TIP3    H231542   2.455   4.287   2.905 -0.6627 -0.5509  0.4852
 3303TIP3   OH231543   1.062   0.090   2.086  0.1579 -0.3711 -0.1288
 3303TIP3    H131544   1.090   0.001   2.106 -0.4173 -0.2047  1.6445
 3303TIP3    H231545   1.143   0.141   2.088  0.4364 -0.7872 -0.7236
 3304TIP3   OH231546   3.159   6.725   1.691 -0.7979 -1.0324 -0.1533
 3304TIP3    H131547   3.202   6.640   1.698  0.3115 -0.4853 -0.1367
 3304TIP3    H231548   3.129   6.745   1.780  0.2355 -0.7632  0.1523
 3305TIP3   OH231549   1.170   4.831   0.831  0.2340 -0.7845  0.2719
 3305TIP3    H131550   1.119   4.908   0.855  1.4963 -0.0990  0.9104
 3305TIP3    H231551   1.183   4.839   0.736 -0.8996 -1.0293  0.0841
 3306TIP3   OH231552   4.072   0.922   3.418  0.0729 -0.4126 -0.4861
 3306TIP3    H131553   4.059   0.993   3.482 -1.3635 -1.7683  0.8136
 3306TIP3    H231554   4.092   0.967   3.336 -0.7375  1.4993  0.3088
 3307TIP3   OH231555   5.058   4.464   0.834  0.0319 -0.7357 -0.3838
 3307TIP3    H131556   5.099   4.383   0.865  1.0340 -0.1403 -0.1206
 3307TIP3    H231557   5.128   4.512   0.791  0.1228  1.1763  1.7264
 3308TIP3   OH231558   3.239   5.232   2.891  0.0242 -0.1092 -0.3149
 3308TIP3    H131559   3.259   5.325   2.880  2.5096 -0.4270  0.8749
 3308TIP3    H231560   3.233   5.199   2.802  0.5897  0.9372 -0.7664
 3309TIP3   OH231561   5.624   0.181   2.951  0.3864  0.4148  0.1954
 3309TIP3    H131562   5.578   0.236   3.015  0.8829  1.1368 -0.0552
 3309TIP3    H231563   5.693   0.138   3.002 -0.9695 -1.2161  0.7187
 3310TIP3   OH231564   3.728   2.149   0.803  0.1665 -0.0854 -0.6832
 3310TIP3    H131565   3.686   2.152   0.889 -1.1374  1.9749 -1.3145
 3310TIP3    H231566   3.816   2.184   0.818 -0.7268  2.2416 -0.4560
 3311TIP3   OH231567   6.108   6.383   2.351  0.0478 -0.0871  0.2918
 3311TIP3    H131568   6.165   6.316   2.389  0.9760 -0.0905 -1.0383
 3311TIP3    H231569   6.020   6.358   2.380  0.4100 -1.6673  0.1453
 3312TIP3   OH231570   4.238   4.898   3.647  0.1455  0.0313  0.1716
 3312TIP3    H131571   4.288   4.954   3.706  0.6975 -0.8269  0.5359
 3312TIP3    H231572   4.260   4.809   3.674 -0.9754 -0.3689 -0.1805
 3313TIP3   OH231573   3.946   0.012   0.158 -0.5558 -0.3322 -0.2055
 3313TIP3    H131574   4.019   0.030   0.218 -0.3767 -2.0034  0.1224
 3313TIP3    H231575   3.868   0.038   0.207 -0.2368  0.8750 -0.3137
 3314TIP3   OH231576   2.592   6.647   3.252  0.1528 -0.0157 -0.3515
 3314TIP3    H131577   2.562   6.557   3.264 -0.9528  0.3778 -0.0256
 3314TIP3    H231578   2.512   6.699   3.254  0.6582  0.8642 -1.7344
 3315TIP3   OH231579   4.305   5.525   2.967  0.5604 -0.5396 -0.1506
 3315TIP3    H131580   4.243   5.539   2.895 -0.0698 -0.7675  0.3427
 3315TIP3    H231581   4.387   5.561   2.934 -0.6016  3.0649  0.4876
 3316TIP3   OH231582   6.057   3.141   0.853 -0.2837 -0.0687  0.7090
 3316TIP3    H131583   6.054   3.100   0.767  0.4358 -2.1679  1.6261
 3316TIP3    H231584   5.991   3.211   0.848 -0.2947 -0.1622 -1.4939
 3317TIP3   OH231585   5.603   1.681   0.227  0.2365  0.3034 -0.2052
 3317TIP3    H131586   5.558   1.604   0.192 -0.3891  0.7721 -0.4428
 3317TIP3    H231587   5.568   1.755   0.177  3.1262  0.4761 -2.2313
 3318TIP3   OH231588   5.206   2.397   3.966 -0.6708 -0.1128  0.6504
 3318TIP3    H131589   5.229   2.375   4.056  1.4519 -1.4864 -0.1421
 3318TIP3    H231590   5.119   2.437   3.972 -1.3634 -1.7443  3.1120
 3319TIP3   OH231591   2.521   5.366   0.850  0.5669  0.3833 -0.2182
 3319TIP3    H131592   2.495   5.391   0.939  1.3890  0.9886 -0.1330
 3319TIP3    H231593   2.439   5.344   0.806  0.2678 -1.5042  1.1470
 3320TIP3   OH231594   4.868   0.656   1.819  0.2023  0.6597  0.4385
 3320TIP3    H131595   4.864   0.696   1.906  0.3254 -1.6592  1.5783
 3320TIP3    H231596   4.956   0.678   1.787  0.8436  0.0306  1.6992
 3321TIP3   OH231597   0.228   0.136   4.049 -0.2164  0.1181  0.3874
 3321TIP3    H131598   0.175   0.071   4.095 -0.9480  0.6547  0.3103
 3321TIP3    H231599   0.302   0.086   4.014 -0.1223 -0.4477  1.3806
 3322TIP3   OH231600   5.312   1.894   2.639  0.1545 -0.0245 -0.4338
 3322TIP3    H131601   5.303   1.840   2.717 -0.5081 -0.8757 -1.0699
 3322TIP3    H231602   5.405   1.890   2.617  0.4141  0.5496  0.5221
 3323TIP3   OH231603   3.229   1.538   3.220  0.2174  0.0054 -0.1180
 3323TIP3    H131604   3.317   1.560   3.189  0.6210 -2.0002 -0.5599
 3323TIP3    H231605   3.243   1.497   3.305 -0.4435  0.9514  0.4654
 3324TIP3   OH231606   5.115   0.798   8.888 -0.0804  0.2554  0.2246
 3324TIP3    H131607   5.106   0.815   8.794  1.9105 -2.3140 -0.5688
 3324TIP3    H231608   5.049   0.731   8.906  0.4141 -0.2080  0.3344
 3325TIP3   OH231609   4.205   4.421   4.180 -0.0814  0.4078 -0.1726
 3325TIP3    H131610   4.162   4.337   4.161  1.0380 -0.5821  1.4500
 3325TIP3    H231611   4.293   4.411   4.144  0.5059  0.3353  1.2232
 3326TIP3   OH231612   3.157   4.540   3.820 -0.3941  0.4960  0.2432
 3326TIP3    H131613   3.192   4.475   3.881 -1.8881  1.1123  1.8218
 3326TIP3    H231614   3.197   4.518   3.736  0.6486 -1.2389  1.1476
 3327TIP3   OH231615   1.270   3.531   1.308  0.7560 -0.2040 -0.2247
 3327TIP3    H131616   1.361   3.550   1.333  0.9970  0.3180 -1.4070
 3327TIP3    H231617   1.270   3.539   1.213 -0.8495  1.1885 -0.1495
 3328TIP3   OH231618   4.960   0.174   0.348  0.2534 -0.1839  0.2568
 3328TIP3    H131619   4.918   0.144   0.429 -0.1195  0.3529  0.2694
 3328TIP3    H231620   4.891   0.171   0.282  0.2935  0.3198  0.1863
 3329TIP3   OH231621   2.387   0.005   2.174 -0.5271  0.2479 -0.4524
 3329TIP3    H131622   2.450   0.020   2.244  0.5102  2.2804 -1.7383
 3329TIP3    H231623   2.301   0.015   2.216 -0.0135 -0.7897  0.9362
 3330TIP3   OH231624   2.348   6.050   2.122 -0.3128  0.0584 -0.0277
 3330TIP3    H131625   2.394   6.016   2.045 -0.1896  2.5565 -1.1578
 3330TIP3    H231626   2.270   5.995   2.129  0.1745 -0.8577 -1.3457
 3331TIP3   OH231627   3.164   0.257   2.961 -0.4510  0.1241  0.4439
 3331TIP3    H131628   3.235   0.313   2.991  0.2496 -0.4028 -0.2022
 3331TIP3    H231629   3.084   0.305   2.983  0.0635  0.2808  2.0897
 3332TIP3   OH231630   4.694   2.028   8.718  0.8227 -0.1941 -0.4412
 3332TIP3    H131631   4.653   2.087   8.655 -0.1009  0.0540  0.3906
 3332TIP3    H231632   4.733   1.959   8.663  1.9522  1.1641 -1.4195
 3333TIP3   OH231633   6.441   4.948   2.876  0.1040 -0.1272 -0.2826
 3333TIP3    H131634   6.463   4.920   2.965  2.3727 -0.3138 -0.8439
 3333TIP3    H231635   6.364   5.004   2.887 -1.3963 -2.3251  1.4511
 3334TIP3   OH231636   5.695   5.870   0.418  0.6014 -0.1495  0.0654
 3334TIP3    H131637   5.641   5.791   0.413 -0.2033  0.1752  2.3013
 3334TIP3    H231638   5.669   5.922   0.342 -3.0392  0.4158  1.5232
 3335TIP3   OH231639   2.163   4.757   3.381 -0.1165 -0.2368  0.1920
 3335TIP3    H131640   2.259   4.762   3.380 -0.1557  0.8891 -0.5264
 3335TIP3    H231641   2.135   4.849   3.386 -1.1563 -0.4822 -0.7484
 3336TIP3   OH231642   5.593   4.468   2.424  0.3145 -0.0357 -0.0296
 3336TIP3    H131643   5.536   4.502   2.355  1.6637 -0.3785 -1.3798
 3336TIP3    H231644   5.598   4.374   2.406  0.5760 -0.1563  0.6379
 3337TIP3   OH231645   0.414   2.176   1.029 -0.3501  0.2172  0.1200
 3337TIP3    H131646   0.337   2.227   1.005  0.1905  1.1306  0.2571
 3337TIP3    H231647   0.381   2.088   1.045 -1.3334  0.5532  0.0001
 3338TIP3   OH231648   3.510   3.798   3.530  0.3578  0.4613  0.0756
 3338TIP3    H131649   3.428   3.755   3.506  0.6972 -0.2846  0.2519
 3338TIP3    H231650   3.483   3.887   3.554 -0.8246 -0.4757  2.7476
 3339TIP3   OH231651   1.951   5.868   4.044  0.0884 -0.8811  0.5719
 3339TIP3    H131652   1.938   5.921   4.122  0.8300  2.5281 -1.4356
 3339TIP3    H231653   2.041   5.835   4.053  1.2882  1.9180 -0.0273
 3340TIP3   OH231654   4.964   4.771   2.747 -0.0110  0.2500 -0.0615
 3340TIP3    H131655   5.035   4.821   2.789 -0.9488 -0.0283  1.9296
 3340TIP3    H231656   4.924   4.834   2.687 -0.2502  1.4722  1.3391
 3341TIP3   OH231657   5.724   4.990   8.651 -0.5758  0.0607  0.1689
 3341TIP3    H131658   5.738   4.905   8.610 -0.1598 -0.0844  0.5985
 3341TIP3    H231659   5.674   5.040   8.587  0.4415 -0.0060 -0.6960
 3342TIP3   OH231660   1.397   1.419   4.138 -0.3233  0.4277  0.4518
 3342TIP3    H131661   1.461   1.477   4.179  0.6008 -0.0213 -0.3096
 3342TIP3    H231662   1.334   1.478   4.098  0.1765  0.9004  0.3475
 3343TIP3   OH231663   3.690   4.618   2.619 -0.2919 -0.2583 -0.3943
 3343TIP3    H131664   3.619   4.554   2.609  0.0155 -1.2277  2.5365
 3343TIP3    H231665   3.653   4.685   2.677  0.9251 -0.4165  0.6109
 3344TIP3   OH231666   3.441   1.240   2.114 -0.1179 -0.0697 -0.5336
 3344TIP3    H131667   3.421   1.330   2.139  0.5061  0.0304 -0.3815
 3344TIP3    H231668   3.359   1.193   2.126  0.0785  0.0147  1.5312
 3345TIP3   OH231669   2.456   5.991   1.861 -0.1821 -0.1124  0.0516
 3345TIP3    H131670   2.514   6.030   1.796 -2.1375  1.1586 -1.0370
 3345TIP3    H231671   2.464   5.897   1.846  0.4546  0.0974 -1.1004
 3346TIP3   OH231672   5.561   3.535   0.467  0.1286 -0.4421  0.1859
 3346TIP3    H131673   5.644   3.549   0.421  1.0386  0.5196  2.0210
 3346TIP3    H231674   5.531   3.450   0.435  0.8685 -0.0139 -1.8719
 3347TIP3   OH231675   5.525   5.829   8.656  0.4903  0.3473  0.1202
 3347TIP3    H131676   5.561   5.740   8.656 -0.0067  0.1429  0.2831
 3347TIP3    H231677   5.577   5.876   8.591  0.6015 -0.1255 -0.1337
 3348TIP3   OH231678   5.726   4.288   1.101 -0.3143  0.2610  0.2479
 3348TIP3    H131679   5.798   4.248   1.150  0.3342  0.0277 -0.8440
 3348TIP3    H231680   5.650   4.234   1.122 -0.5678  1.4048  2.6133
 3349TIP3   OH231681   3.474   3.925   1.710 -0.6013 -0.6820  0.1503
 3349TIP3    H131682   3.496   4.018   1.703  1.6746 -1.2163 -0.6552
 3349TIP3    H231683   3.430   3.904   1.628  0.7020 -0.7355 -0.5540
 3350TIP3   OH231684   0.821   0.716   2.227  0.0646  0.6082  0.0028
 3350TIP3    H131685   0.814   0.664   2.307 -1.2795  0.9776  0.1395
 3350TIP3    H231686   0.811   0.806   2.257 -0.4265  0.7494 -0.5703
 3351TIP3   OH231687   0.838   2.607   0.750 -0.0512 -0.0847  0.2071
 3351TIP3    H131688   0.838   2.648   0.663 -0.3340  0.2666  0.3694
 3351TIP3    H231689   0.831   2.681   0.811  0.9012 -0.2748  0.5608
 3352TIP3   OH231690   1.874   4.430   2.976 -0.4187  0.6666 -0.9197
 3352TIP3    H131691   1.960   4.420   3.017  1.0865  0.2673 -3.9104
 3352TIP3    H231692   1.819   4.365   3.020  0.8914  0.6286  0.7712
 3353TIP3   OH231693   2.798   2.828   3.328 -0.3937 -0.2968 -0.1332
 3353TIP3    H131694   2.777   2.742   3.366  0.9538  0.0695  1.5799
 3353TIP3    H231695   2.851   2.871   3.395  0.7078  1.0802 -1.8090
 3354TIP3   OH231696   2.600   3.690   1.412 -0.6739  0.3766  0.1635
 3354TIP3    H131697   2.541   3.701   1.337  2.2849 -0.9662 -2.6011
 3354TIP3    H231698   2.561   3.620   1.464 -1.3260 -0.7940 -1.8200
 3355TIP3   OH231699   5.416   3.306   2.592 -0.1453 -0.4659  0.6430
 3355TIP3    H131700   5.328   3.269   2.592 -0.5552  0.4510  1.4754
 3355TIP3    H231701   5.417   3.367   2.519 -0.3112 -0.2527  0.8159
 3356TIP3   OH231702   5.433   5.006   8.557  0.3787  0.0206 -0.2411
 3356TIP3    H131703   5.492   5.034   8.487 -0.7132 -0.2396 -1.3054
 3356TIP3    H231704   5.386   5.085   8.583 -0.2761 -0.1407 -0.8747
 3357TIP3   OH231705   0.669   2.621   1.019  0.0120 -0.9202  0.1958
 3357TIP3    H131706   0.631   2.597   1.103  1.5633  0.6518  1.4245
 3357TIP3    H231707   0.612   2.691   0.987  0.8225  0.2502  1.2137
 3358TIP3   OH231708   1.950   5.563   1.356  0.5610  0.2315 -0.4726
 3358TIP3    H131709   1.889   5.637   1.345 -1.1719 -1.1867 -0.8590
 3358TIP3    H231710   1.983   5.546   1.268  1.3610  0.8496 -0.3009
 3359TIP3   OH231711   1.468   2.712   2.464 -0.1863  0.4705 -0.2266
 3359TIP3    H131712   1.400   2.646   2.478 -1.5650  1.9423  0.2503
 3359TIP3    H231713   1.441   2.759   2.386 -0.2116  1.6540  0.4824
 3360TIP3   OH231714   4.069   6.745   3.334  0.0696 -0.1879  0.2105
 3360TIP3    H131715   4.072   6.841   3.333  0.5277 -0.2023 -0.8652
 3360TIP3    H231716   3.977   6.724   3.314  0.2402  0.0316 -0.8755
 3361TIP3   OH231717   3.615   4.169   1.485 -0.1915  0.3583  0.2398
 3361TIP3    H131718   3.685   4.184   1.422 -0.6444 -2.2164 -0.9950
 3361TIP3    H231719   3.545   4.229   1.459  0.0150  0.0443 -1.0994
 3362TIP3   OH231720   2.316   2.027   1.955 -0.1517  0.6113  0.0674
 3362TIP3    H131721   2.264   1.990   2.026 -0.6543  1.2362  0.0261
 3362TIP3    H231722   2.403   1.988   1.966 -1.0756 -2.0147 -1.0112
 3363TIP3   OH231723   3.874   2.912   8.844 -0.4011 -0.3753  0.0929
 3363TIP3    H131724   3.849   2.826   8.813  0.3919 -0.7460  0.4567
 3363TIP3    H231725   3.820   2.926   8.922 -2.3357  0.5250 -1.3360
 3364TIP3   OH231726   1.064   5.974   1.478  0.0321 -0.6538  0.1349
 3364TIP3    H131727   1.023   6.048   1.523  1.6589 -0.9135  2.2315
 3364TIP3    H231728   0.998   5.944   1.415 -1.0637  1.8732 -0.0222
 3365TIP3   OH231729   0.621   0.171   2.691  0.2477  0.0817 -0.3591
 3365TIP3    H131730   0.638   0.085   2.729 -3.0928 -0.4913  0.1684
 3365TIP3    H231731   0.609   0.229   2.766  0.2642  0.4886 -0.6639
 3366TIP3   OH231732   2.885   0.043   2.558  0.1346  0.0166  0.4475
 3366TIP3    H131733   2.883  -0.007   2.477 -2.4250  0.2362  0.3049
 3366TIP3    H231734   2.906  -0.022   2.626 -0.4814 -0.7156 -0.0496
 3367TIP3   OH231735   5.491   5.772   2.712  0.4305 -0.9977 -0.1224
 3367TIP3    H131736   5.406   5.783   2.755 -0.6400  2.3212 -2.6016
 3367TIP3    H231737   5.479   5.696   2.655 -0.2014 -1.7240  0.9472
 3368TIP3   OH231738   4.973   4.305   2.996  0.1456 -0.2421  0.0836
 3368TIP3    H131739   5.065   4.306   3.024  0.9118  1.2990 -2.1233
 3368TIP3    H231740   4.967   4.378   2.934 -2.9553  0.6228  1.2318
 3369TIP3   OH231741   6.773   3.477   2.291 -0.2015 -0.6714 -0.4127
 3369TIP3    H131742   6.715   3.554   2.289 -0.1811 -0.6380  0.2140
 3369TIP3    H231743   6.723   3.409   2.247 -0.7984 -0.6883  0.2663
 3370TIP3   OH231744   2.042   4.173   8.011  0.6624  0.1335  0.3931
 3370TIP3    H131745   2.016   4.117   8.085  1.2203 -0.2260  0.3204
 3370TIP3    H231746   1.959   4.201   7.972  0.3657  0.1283  1.0060
 3371TIP3   OH231747   3.545   6.425   8.333  0.0707 -0.2197 -0.1567
 3371TIP3    H131748   3.486   6.500   8.345  0.5823  0.0561  0.7039
 3371TIP3    H231749   3.605   6.430   8.407  0.8297 -0.8190 -0.7227
 3372TIP3   OH231750   6.726   0.101   2.357  0.4648 -0.0447  0.3957
 3372TIP3    H131751   6.749   0.192   2.336 -2.2198  0.3081 -1.4274
 3372TIP3    H231752   6.802   0.050   2.328  1.1316  1.4154 -0.5253
 3373TIP3   OH231753   5.104   3.099   1.248 -0.1118  0.4118 -0.1441
 3373TIP3    H131754   5.088   3.179   1.298 -1.7378  0.3379 -0.4901
 3373TIP3    H231755   5.193   3.073   1.271 -0.4761  0.9007  1.9558
 3374TIP3   OH231756   3.363   0.753   2.890 -0.8165  0.6560  0.0130
 3374TIP3    H131757   3.402   0.700   2.821 -2.4265  1.7467 -1.8515
 3374TIP3    H231758   3.436   0.803   2.926  0.1184 -0.1708 -0.6840
 3375TIP3   OH231759   0.170   3.734   0.018 -0.1509 -0.0126  0.3163
 3375TIP3    H131760   0.196   3.803   0.080 -0.1678 -1.1258  1.6142
 3375TIP3    H231761   0.253   3.700  -0.017  0.0343 -1.0884  1.6932
 3376TIP3   OH231762   0.251   2.082   1.883  0.1671 -0.5061  0.2800
 3376TIP3    H131763   0.277   1.990   1.891 -0.5507 -0.6063  1.7778
 3376TIP3    H231764   0.282   2.123   1.964  2.1580  1.0394 -1.1499
 3377TIP3   OH231765   3.750   4.902   1.740 -0.4145 -0.4482  0.3443
 3377TIP3    H131766   3.789   4.875   1.823  0.1908 -1.4000 -0.2329
 3377TIP3    H231767   3.805   4.974   1.710  0.0352 -0.8250  0.2480
 3378TIP3   OH231768   2.666   5.095   1.089  0.7434  0.4293 -0.0493
 3378TIP3    H131769   2.622   5.098   1.003 -1.9757  1.3039  1.2688
 3378TIP3    H231770   2.694   5.003   1.097 -0.0530  0.0320 -1.3696
 3379TIP3   OH231771   5.827   6.348   2.424  0.1718 -0.1619 -0.5706
 3379TIP3    H131772   5.777   6.389   2.495  1.7804 -0.2151  0.6544
 3379TIP3    H231773   5.812   6.405   2.348 -1.9832 -0.3763 -0.3659
 3380TIP3   OH231774   3.991   4.502   1.785 -0.4705 -0.3099  0.1701
 3380TIP3    H131775   3.990   4.587   1.742 -2.7070 -0.1923  0.3151
 3380TIP3    H231776   3.974   4.439   1.715 -0.0648 -0.5168  0.2551
 3381TIP3   OH231777   5.116   5.083   8.146 -0.4195  0.3008  0.3626
 3381TIP3    H131778   5.092   4.992   8.162  1.5177 -0.3583 -0.2195
 3381TIP3    H231779   5.065   5.107   8.069  0.1894 -0.8120 -0.4197
 3382TIP3   OH231780   2.988   3.156   0.875 -0.3336  0.2489  0.5329
 3382TIP3    H131781   2.915   3.217   0.876 -1.4885 -1.0642  1.7772
 3382TIP3    H231782   2.987   3.115   0.962  1.0320 -0.7861  0.1086
 3383TIP3   OH231783   2.210   1.550   8.217  0.3215 -0.8230 -0.1562
 3383TIP3    H131784   2.263   1.629   8.228  0.4220 -0.5225 -2.4239
 3383TIP3    H231785   2.238   1.514   8.133 -0.6667 -2.5644  0.2177
 3384TIP3   OH231786   3.853   4.892   2.258 -0.3146 -0.4985  0.3818
 3384TIP3    H131787   3.797   4.826   2.299  0.6652 -1.7113 -0.1597
 3384TIP3    H231788   3.913   4.920   2.327 -0.3368 -0.6237  0.4514
 3385TIP3   OH231789   1.989   0.259   8.216 -0.6577 -0.4187  0.2880
 3385TIP3    H131790   1.936   0.319   8.268 -0.8570 -0.1943 -0.1672
 3385TIP3    H231791   2.055   0.315   8.176 -0.5238 -0.5874  0.2728
 3386TIP3   OH231792   3.840   3.316   8.742 -0.6598  0.4420 -0.7548
 3386TIP3    H131793   3.747   3.338   8.745 -0.3169  1.9270  0.7171
 3386TIP3    H231794   3.881   3.393   8.702  0.2684  1.4071  1.8209
 3387TIP3   OH231795   4.362   3.559   1.833  0.4844 -0.2133  0.3305
 3387TIP3    H131796   4.426   3.540   1.901  1.7060 -3.2515 -1.4537
 3387TIP3    H231797   4.409   3.546   1.751 -1.6269  0.6178 -1.1034
 3388TIP3   OH231798   6.288   6.006   1.355 -0.4316 -0.2987  0.3258
 3388TIP3    H131799   6.219   6.069   1.336 -0.6750 -0.3122  1.1251
 3388TIP3    H231800   6.269   5.931   1.298 -1.4471 -0.5584  0.9858
 3389TIP3   OH231801   2.840   1.083   4.155  0.1039  0.4522  0.2050
 3389TIP3    H131802   2.845   1.179   4.158 -0.0930  0.4409  1.8449
 3389TIP3    H231803   2.898   1.059   4.083  0.1300  1.8092 -0.2591
 3390TIP3   OH231804   1.108   0.792   8.364 -0.3502 -0.0954  0.6221
 3390TIP3    H131805   1.138   0.758   8.279 -0.5565  0.0129  0.5053
 3390TIP3    H231806   1.144   0.730   8.428  0.2172  0.0990  0.4928
 3391TIP3   OH231807   4.731   2.168   2.233 -0.7844  0.3841  0.0003
 3391TIP3    H131808   4.815   2.167   2.278 -1.1875  1.3530  0.8166
 3391TIP3    H231809   4.704   2.260   2.235 -1.5452  0.1914 -0.8494
 3392TIP3   OH231810   6.443   3.304   2.681 -0.2049  0.0289 -0.1467
 3392TIP3    H131811   6.432   3.304   2.776  0.6837 -0.7979 -0.0287
 3392TIP3    H231812   6.537   3.321   2.668 -0.0411 -1.3320 -0.8246
 3393TIP3   OH231813   2.262   1.825   2.207 -0.3736 -0.5301 -0.4749
 3393TIP3    H131814   2.310   1.755   2.162  1.4668  0.1502  0.3258
 3393TIP3    H231815   2.233   1.784   2.289  0.1349 -0.5561 -0.3015
 3394TIP3   OH231816   6.567   1.138   3.631 -0.4724 -0.5168  0.2056
 3394TIP3    H131817   6.539   1.137   3.723 -0.7694 -0.2976  0.1188
 3394TIP3    H231818   6.541   1.224   3.599 -1.3164 -0.9668 -0.3727
 3395TIP3   OH231819   0.221   5.686   0.801 -0.7555  0.8587 -0.1021
 3395TIP3    H131820   0.132   5.650   0.799 -0.4227 -0.0061 -2.1444
 3395TIP3    H231821   0.276   5.613   0.831 -0.6828  1.3459  1.0103
 3396TIP3   OH231822   5.871   0.624   8.800  0.4334  0.5082  0.2188
 3396TIP3    H131823   5.834   0.679   8.731 -1.3611 -2.3680 -1.3473
 3396TIP3    H231824   5.947   0.582   8.759 -0.1387 -0.5740  0.2134
 3397TIP3   OH231825   4.152   6.463   2.150  0.6275 -0.4752 -0.5320
 3397TIP3    H131826   4.086   6.467   2.220  0.2444 -1.3986 -0.8283
 3397TIP3    H231827   4.172   6.555   2.131 -1.9126 -0.0596 -1.6707
 3398TIP3   OH231828   0.304   4.279   2.749 -0.3483 -0.1373 -0.4635
 3398TIP3    H131829   0.378   4.222   2.730  0.2445 -0.4808  2.4262
 3398TIP3    H231830   0.244   4.225   2.801 -1.7576  0.7019 -1.1429
 3399TIP3   OH231831   0.510   3.421   1.139  0.6762 -0.1637 -0.6115
 3399TIP3    H131832   0.503   3.426   1.043  0.3679 -1.3971 -0.6677
 3399TIP3    H231833   0.537   3.509   1.165 -1.0813  0.7566 -1.6715
 3400TIP3   OH231834   6.637   2.449   1.008 -0.0317  0.3691  0.0738
 3400TIP3    H131835   6.558   2.491   0.976  0.6105  0.0847 -2.1191
 3400TIP3    H231836   6.608   2.364   1.039 -0.8460  1.0503  1.2423
 3401TIP3   OH231837   4.868   1.849   0.567 -0.2636 -0.4661 -0.7221
 3401TIP3    H131838   4.919   1.930   0.568  0.2374 -0.7760  0.1386
 3401TIP3    H231839   4.903   1.800   0.492 -1.0302  0.3804 -1.6596
 3402TIP3   OH231840   4.414   5.340   2.013  0.1417  0.0876 -0.1731
 3402TIP3    H131841   4.456   5.415   1.971  2.1526 -0.1369  1.3352
 3402TIP3    H231842   4.396   5.280   1.941 -0.7191  1.6032 -1.2933
 3403TIP3   OH231843   4.276   6.211   0.592 -0.0627 -0.0546 -0.5018
 3403TIP3    H131844   4.188   6.242   0.612 -0.7958 -1.0970 -1.9499
 3403TIP3    H231845   4.270   6.116   0.596  0.8378 -0.1621 -1.2790
 3404TIP3   OH231846   2.180   0.797   2.975 -0.5210  0.7912  0.0221
 3404TIP3    H131847   2.259   0.759   2.939 -1.1531  1.0371 -1.7010
 3404TIP3    H231848   2.191   0.891   2.964 -0.5211  0.9072  0.9418
 3405TIP3   OH231849   5.908   5.294   0.557  0.3111  0.2510  0.2098
 3405TIP3    H131850   5.915   5.352   0.481  1.5362 -0.3783 -0.1827
 3405TIP3    H231851   5.928   5.351   0.632  1.4289  0.3668 -0.1626
 3406TIP3   OH231852   1.748   6.100   1.448 -0.5971  0.0073 -0.2822
 3406TIP3    H131853   1.678   6.137   1.502  0.7642  0.4346  1.2652
 3406TIP3    H231854   1.716   6.109   1.358 -3.0078 -0.8780  0.4141
 3407TIP3   OH231855   1.931   3.244   0.624 -0.3598 -0.6354  1.0125
 3407TIP3    H131856   1.907   3.200   0.542 -2.1287  1.8230  0.0789
 3407TIP3    H231857   2.007   3.297   0.601 -1.4705  0.8528  0.5846
 3408TIP3   OH231858   4.710   6.539   0.163  0.1317 -0.4458  0.0075
 3408TIP3    H131859   4.793   6.571   0.127 -0.2477  1.3252  0.6150
 3408TIP3    H231860   4.735   6.483   0.236  0.8206  0.8635  0.8167
 3409TIP3   OH231861   4.085   2.215   0.415 -0.0821 -0.2447 -0.0150
 3409TIP3    H131862   4.166   2.253   0.449  0.7947 -1.2675 -0.8362
 3409TIP3    H231863   4.049   2.165   0.488  0.4175 -0.3592  0.1575
 3410TIP3   OH231864   1.693   4.142   2.750 -0.2037 -0.2663  0.0336
 3410TIP3    H131865   1.603   4.109   2.751 -1.6401  3.1254 -1.5685
 3410TIP3    H231866   1.707   4.177   2.838  0.2308 -2.2219  0.7899
 3411TIP3   OH231867   1.254   1.489   2.792  0.1060 -0.1684 -0.1521
 3411TIP3    H131868   1.209   1.405   2.779  1.0930 -0.5432 -1.2575
 3411TIP3    H231869   1.344   1.465   2.815 -0.1839  0.5747  2.0663
 3412TIP3   OH231870   3.062   2.541   1.507  0.3918  0.6432  0.0878
 3412TIP3    H131871   2.980   2.501   1.479  0.2998  1.2929 -0.6173
 3412TIP3    H231872   3.094   2.586   1.428  1.3614  0.4925  0.3864
 3413TIP3   OH231873   2.598   6.132   3.532 -0.2952 -0.0459  0.0222
 3413TIP3    H131874   2.561   6.044   3.522  0.4144 -0.2368 -1.1061
 3413TIP3    H231875   2.687   6.125   3.499  0.4780  0.6312  1.8399
 3414TIP3   OH231876   5.410   6.095   8.822  0.0762 -0.1888 -0.8724
 3414TIP3    H131877   5.489   6.095   8.769 -0.1600  0.2676 -1.2354
 3414TIP3    H231878   5.406   6.182   8.860 -1.9357  1.0107 -3.4770
 3415TIP3   OH231879   0.494   4.912   1.430  0.4243  0.6631 -0.2410
 3415TIP3    H131880   0.517   4.945   1.517 -0.1030  1.9454 -0.5676
 3415TIP3    H231881   0.408   4.951   1.411 -0.4286 -1.2071 -0.5149
 3416TIP3   OH231882   0.153   6.643   3.906  0.0327  0.3710 -0.0462
 3416TIP3    H131883   0.099   6.566   3.884 -0.3555  0.3373  0.9741
 3416TIP3    H231884   0.195   6.667   3.823  0.0199 -0.8314 -0.4263
 3417TIP3   OH231885   6.550   5.073   8.424  0.4254 -0.4145 -0.2639
 3417TIP3    H131886   6.562   4.987   8.463 -1.3744 -0.5112  0.1836
 3417TIP3    H231887   6.458   5.074   8.397  0.3512  1.4240 -0.0839
 3418TIP3   OH231888   3.335   2.362   3.791 -0.1991  0.6377  0.8545
 3418TIP3    H131889   3.366   2.271   3.783 -0.2376  0.4628  2.3801
 3418TIP3    H231890   3.408   2.407   3.834 -1.6311  0.4241  3.6839
 3419TIP3   OH231891   0.316   4.565   3.136 -0.2776  0.4223  0.0645
 3419TIP3    H131892   0.370   4.592   3.062 -0.8400 -1.0366 -0.9168
 3419TIP3    H231893   0.229   4.600   3.116 -0.5425 -0.3847 -0.2149
 3420TIP3   OH231894   3.497   5.798   2.080 -0.6573  0.5791 -0.0672
 3420TIP3    H131895   3.554   5.834   2.149 -1.5298  4.8945 -1.2548
 3420TIP3    H231896   3.558   5.769   2.012  0.1520 -0.4512  1.0540
 3421TIP3   OH231897   5.913   1.379   1.087 -0.6377  0.6263  0.5219
 3421TIP3    H131898   5.830   1.375   1.040 -0.4296 -0.9299  0.2111
 3421TIP3    H231899   5.956   1.457   1.054 -1.6105  0.9788  0.0530
 3422TIP3   OH231900   4.269   0.703   1.785  0.7039  0.2429  0.2338
 3422TIP3    H131901   4.211   0.723   1.858 -1.0735 -0.7511 -0.8580
 3422TIP3    H231902   4.237   0.757   1.713  1.0590 -0.4086 -0.4209
 3423TIP3   OH231903   2.993   6.576   3.663  0.0257  0.2386  0.1625
 3423TIP3    H131904   3.078   6.597   3.700  0.1628  0.2888 -0.1810
 3423TIP3    H231905   3.002   6.486   3.631 -0.3662 -0.1319  1.0533
 3424TIP3   OH231906   3.875   4.260   2.502  0.0433 -0.6336 -0.3512
 3424TIP3    H131907   3.827   4.237   2.581 -0.4887 -0.2043 -0.5378
 3424TIP3    H231908   3.962   4.221   2.513  0.2015  0.0075  0.7524
 3425TIP3   OH231909   4.196   2.381   2.649 -0.8401  0.1188  0.1437
 3425TIP3    H131910   4.251   2.310   2.682 -1.5347  0.1382  1.3916
 3425TIP3    H231911   4.108   2.345   2.650 -2.0628  2.3697  5.5276
 3426TIP3   OH231912   4.095   4.532   3.245 -0.2882 -0.4069 -0.1132
 3426TIP3    H131913   4.004   4.560   3.252 -0.4307 -1.0898  0.9725
 3426TIP3    H231914   4.097   4.479   3.165 -0.8226 -0.3319 -0.1815
 3427TIP3   OH231915   1.270   5.504   8.454 -0.2040  0.1823  0.2503
 3427TIP3    H131916   1.269   5.599   8.444  0.4234  0.2358  0.6498
 3427TIP3    H231917   1.354   5.477   8.416 -0.0192 -0.1221  0.8639
 3428TIP3   OH231918   1.725   5.886   3.397  0.4200 -0.4024 -0.3075
 3428TIP3    H131919   1.640   5.928   3.404  0.1926 -0.8535 -0.3445
 3428TIP3    H231920   1.742   5.884   3.302 -0.1179 -1.4739 -0.3907
 3429TIP3   OH231921   3.960   0.006   2.407  0.3934 -0.1576  0.5220
 3429TIP3    H131922   3.986   0.005   2.314  2.0713  0.8718  0.9354
 3429TIP3    H231923   3.963  -0.085   2.433  1.0658 -0.3444 -0.1522
 3430TIP3   OH231924   5.456   0.619   0.576 -0.0170  0.0216 -0.8039
 3430TIP3    H131925   5.454   0.554   0.646 -2.0442 -1.9569 -2.5189
 3430TIP3    H231926   5.392   0.685   0.602 -0.8700 -0.7792 -0.8314
 3431TIP3   OH231927   6.650   3.262   2.954  0.0389  0.2071  0.1801
 3431TIP3    H131928   6.564   3.304   2.955 -0.1269 -0.0895 -0.6462
 3431TIP3    H231929   6.711   3.331   2.928 -0.3280 -0.1701 -1.9007
 3432TIP3   OH231930   6.347   6.146   2.866 -0.2324 -0.3976  0.1476
 3432TIP3    H131931   6.378   6.068   2.912 -0.3679  0.1940  1.2795
 3432TIP3    H231932   6.289   6.112   2.797 -0.3788 -1.2923  0.6926
 3433TIP3   OH231933   2.392   1.604   2.124  0.0089 -0.4371 -0.0767
 3433TIP3    H131934   2.484   1.630   2.118 -0.1954  1.7637  3.1185
 3433TIP3    H231935   2.394   1.520   2.170  0.4282 -0.3060  0.1521
 3434TIP3   OH231936   5.018   3.802   1.228 -0.3068 -0.5811 -0.2960
 3434TIP3    H131937   5.037   3.710   1.212  1.0609 -0.3482 -0.0607
 3434TIP3    H231938   4.939   3.800   1.282  0.5937 -1.6686  1.0315
 3435TIP3   OH231939   2.709   1.340   8.784  0.0275  0.4282 -0.2975
 3435TIP3    H131940   2.690   1.414   8.727  1.9689  0.3583 -1.0836
 3435TIP3    H231941   2.736   1.380   8.867 -0.3677  0.5505 -0.2211
 3436TIP3   OH231942   1.222   6.484   0.967 -0.3514 -0.1342  0.5445
 3436TIP3    H131943   1.279   6.560   0.974 -0.4241  0.0167 -0.4329
 3436TIP3    H231944   1.212   6.469   0.873  0.7762 -2.1945  0.6938
 3437TIP3   OH231945   0.995   0.330   2.925 -0.0138 -0.7816 -0.1768
 3437TIP3    H131946   0.986   0.253   2.870 -0.5129  0.7129 -2.3255
 3437TIP3    H231947   0.948   0.308   3.006  1.6258 -3.4184  0.1649
 3438TIP3   OH231948   1.300   3.576   1.050 -0.0499  0.7614  0.8959
 3438TIP3    H131949   1.356   3.539   0.982  0.2058 -0.1494  1.5705
 3438TIP3    H231950   1.211   3.556   1.021  0.0854 -0.4212  1.2477
 3439TIP3   OH231951   2.865   3.158   2.314  0.1754  0.0510  0.3112
 3439TIP3    H131952   2.836   3.246   2.339  0.7873  0.3415  0.0246
 3439TIP3    H231953   2.956   3.154   2.344  0.5230 -0.0512 -0.7418
 3440TIP3   OH231954   2.295   5.009   1.668  0.4945  0.2811  0.2109
 3440TIP3    H131955   2.311   5.085   1.612  1.5028 -0.6062 -0.7477
 3440TIP3    H231956   2.210   4.975   1.639 -0.0156  1.0668  0.7179
 3441TIP3   OH231957   0.037   6.007   1.673  0.2477  0.1247  0.1801
 3441TIP3    H131958  -0.030   6.006   1.742 -0.3919  1.1775 -0.3875
 3441TIP3    H231959   0.038   6.098   1.643  2.2263  0.2118  0.4181
 3442TIP3   OH231960   5.645   0.944   1.490  0.1283  0.0816  0.4034
 3442TIP3    H131961   5.571   0.921   1.433  0.2515 -0.0795  0.3063
 3442TIP3    H231962   5.609   1.007   1.552 -0.2472 -0.4532  0.7405
 3443TIP3   OH231963   2.374   2.090   3.949 -0.6786  0.0061  0.1030
 3443TIP3    H131964   2.364   1.994   3.948  0.1395 -0.0860  0.2316
 3443TIP3    H231965   2.284   2.123   3.947 -1.0082 -0.7335 -2.7407
 3444TIP3   OH231966   2.213   4.527   2.829 -0.1287 -0.2631 -0.2759
 3444TIP3    H131967   2.265   4.448   2.815  0.3980 -0.1889  1.1103
 3444TIP3    H231968   2.124   4.502   2.803 -0.3689 -1.9476  1.8434
 3445TIP3   OH231969   6.411   5.354   2.389  0.0292 -0.2204  0.2134
 3445TIP3    H131970   6.502   5.383   2.399 -0.0367  0.5766 -1.2596
 3445TIP3    H231971   6.361   5.436   2.381 -0.7603 -0.6666  0.5146
 3446TIP3   OH231972   6.575   2.292   3.840 -0.4016  0.2589  0.0914
 3446TIP3    H131973   6.520   2.348   3.895 -0.1781  0.3506  0.2227
 3446TIP3    H231974   6.639   2.255   3.900  0.6096  1.3224 -0.3126
 3447TIP3   OH231975   0.006   2.010   0.941  0.4626  0.1127  0.2905
 3447TIP3    H131976   0.055   2.002   0.859  1.1763  0.1686  0.7061
 3447TIP3    H231977   0.025   2.098   0.972 -0.9000  0.6033 -0.1571
 3448TIP3   OH231978   3.361   4.105   2.005 -0.0126  0.3280  0.1064
 3448TIP3    H131979   3.299   4.145   2.065 -0.0314  1.5130 -0.6650
 3448TIP3    H231980   3.318   4.112   1.919  0.3072 -0.7066 -0.1512
 3449TIP3   OH231981   1.373   0.506   0.456  0.1160  0.5752 -0.2162
 3449TIP3    H131982   1.293   0.493   0.507  0.1651 -0.2210 -0.3398
 3449TIP3    H231983   1.413   0.584   0.495 -1.4500  1.8922 -1.0764
 3450TIP3   OH231984   3.517   3.734   0.585 -0.1021  0.0919 -0.0044
 3450TIP3    H131985   3.524   3.772   0.672 -0.7584  1.1463 -0.3953
 3450TIP3    H231986   3.605   3.701   0.566  0.0272 -0.2173  1.0755
 3451TIP3   OH231987   0.558   5.134   0.249  0.1905  0.0308 -0.0643
 3451TIP3    H131988   0.522   5.148   0.337 -0.0185  1.2263 -0.3265
 3451TIP3    H231989   0.529   5.210   0.199  1.1134 -0.1651 -0.9144
 3452TIP3   OH231990   0.486   6.140   3.202 -0.1153  0.0492 -0.0231
 3452TIP3    H131991   0.401   6.102   3.180 -0.5849  0.8677  0.3411
 3452TIP3    H231992   0.483   6.150   3.297 -0.4331  1.9772 -0.2033
 3453TIP3   OH231993   5.958   0.471   8.384  0.1722 -0.3255 -0.2595
 3453TIP3    H131994   5.927   0.380   8.380 -0.8405  0.0174 -0.6283
 3453TIP3    H231995   5.940   0.506   8.296  0.8056  0.1562 -0.2040
 3454TIP3   OH231996   0.667   0.153   0.809  0.2059  0.2217  0.2696
 3454TIP3    H131997   0.729   0.087   0.778 -0.5422  0.6931 -2.5372
 3454TIP3    H231998   0.709   0.237   0.788 -0.3864  0.5878  0.5208
 3455TIP3   OH231999   0.008   4.876   2.504  0.5368 -0.4179  0.2587
 3455TIP3    H132000  -0.051   4.804   2.525 -0.5786  0.4290  0.0760
 3455TIP3    H232001   0.049   4.899   2.587 -2.3945  1.6273  1.2697
 3456TIP3   OH232002   5.085   2.096   1.553  0.2487  0.0972  0.0266
 3456TIP3    H132003   5.004   2.050   1.528  0.2718 -0.1454  0.3883
 3456TIP3    H232004   5.153   2.030   1.544  0.0975 -0.3550  1.8555
 3457TIP3   OH232005   2.544   6.252   0.742 -0.1079  0.0163  0.0821
 3457TIP3    H132006   2.542   6.268   0.837 -1.8798 -0.1299  0.0960
 3457TIP3    H232007   2.456   6.275   0.712  0.3427 -0.2259 -1.4905
 3458TIP3   OH232008   4.037   6.786   1.296 -1.0097  0.4511 -0.1506
 3458TIP3    H132009   4.084   6.717   1.342  0.0667 -0.4972 -2.5302
 3458TIP3    H232010   3.992   6.835   1.365 -0.4123 -1.5580  1.7504
 3459TIP3   OH232011   0.806   2.903   0.836 -0.1840 -0.8938 -1.0161
 3459TIP3    H132012   0.831   2.934   0.749  1.0688 -4.0573 -1.9433
 3459TIP3    H232013   0.881   2.924   0.892 -0.6074  0.3343 -0.8928
 3460TIP3   OH232014   0.257   4.623   0.208 -0.5532 -0.4487  0.2398
 3460TIP3    H132015   0.344   4.627   0.167 -0.4409  1.0384  0.5938
 3460TIP3    H232016   0.255   4.537   0.250  0.1771 -1.1117 -0.9973
 3461TIP3   OH232017   5.767   6.071   2.407  0.4101  0.0670 -0.7513
 3461TIP3    H132018   5.801   6.045   2.493 -2.7453 -0.0662  0.5947
 3461TIP3    H232019   5.785   6.165   2.402 -0.1378  0.2591  0.4815
 3462TIP3   OH232020   3.316   3.493   8.785  0.5659  0.9367 -0.4636
 3462TIP3    H132021   3.249   3.542   8.737  0.8089 -0.0070 -1.8120
 3462TIP3    H232022   3.293   3.505   8.877 -0.1660  2.4383 -0.8101
 3463TIP3   OH232023   4.518   6.303   1.712  0.4125 -0.3520 -0.0600
 3463TIP3    H132024   4.475   6.388   1.704  1.7148  0.4676  0.9930
 3463TIP3    H232025   4.585   6.317   1.779  0.2527 -2.3909  0.6034
 3464TIP3   OH232026   5.861   3.425   0.701  0.5183 -0.3569 -0.0608
 3464TIP3    H132027   5.855   3.513   0.665 -1.1597 -0.6797 -0.6115
 3464TIP3    H232028   5.876   3.439   0.795 -0.7028  0.5348  0.0179
 3465TIP3   OH232029   1.201   4.051   2.762 -0.2250 -0.0766  0.8489
 3465TIP3    H132030   1.135   3.999   2.807 -0.7719 -0.9283 -0.8701
 3465TIP3    H232031   1.161   4.137   2.752 -2.0784 -1.1327 -2.0755
 3466TIP3   OH232032   3.547   0.807   8.892  0.2231  0.1156  0.4687
 3466TIP3    H132033   3.567   0.799   8.799  0.0845 -0.7934  0.5034
 3466TIP3    H232034   3.467   0.757   8.904  0.1324  0.3867  1.0430
 3467TIP3   OH232035   3.658   3.096   1.062  0.5551  0.5669  0.4057
 3467TIP3    H132036   3.729   3.044   1.023 -0.3957  1.6188 -3.0598
 3467TIP3    H232037   3.581   3.040   1.054  0.2562  0.9841  0.3379
 3468TIP3   OH232038   0.497   4.233   3.510  0.2187  0.2632 -0.5816
 3468TIP3    H132039   0.437   4.196   3.444  0.1308 -0.2116 -0.2458
 3468TIP3    H232040   0.562   4.281   3.459 -1.1663  1.9050 -0.9046
 3469TIP3   OH232041   4.455   1.230   3.747  0.4666 -0.1033  0.6105
 3469TIP3    H132042   4.544   1.239   3.782  0.0802 -1.3779  2.0700
 3469TIP3    H232043   4.423   1.320   3.737  1.3572  0.3439  1.6253
 3470TIP3   OH232044   1.675   5.799   1.979  0.6347  0.2611  0.3384
 3470TIP3    H132045   1.705   5.798   1.889  0.1400 -1.7099  0.1419
 3470TIP3    H232046   1.664   5.892   2.000  0.6654  0.7623 -1.6468
 3471TIP3   OH232047   0.462   4.044   2.755 -0.6163  0.7178  0.4155
 3471TIP3    H132048   0.419   4.004   2.831 -1.6176  2.1075  0.6312
 3471TIP3    H232049   0.543   4.080   2.791 -0.0037 -0.5373  0.3406
 3472TIP3   OH232050   0.798   4.537   8.687  0.6093  0.2673  0.2177
 3472TIP3    H132051   0.860   4.589   8.738  4.9928 -1.5872 -2.5743
 3472TIP3    H232052   0.799   4.451   8.728 -1.5499  0.5800  1.0611
 3473TIP3   OH232053   3.754   1.635   1.498  0.2112 -0.2138 -0.1242
 3473TIP3    H132054   3.709   1.626   1.414 -0.8329  0.7178  0.3168
 3473TIP3    H232055   3.791   1.549   1.514  0.1696 -0.4926 -1.3910
 3474TIP3   OH232056   5.170   5.546   2.222  0.0558 -0.0855 -0.2220
 3474TIP3    H132057   5.102   5.518   2.161 -0.6198  1.6716 -0.3125
 3474TIP3    H232058   5.126   5.603   2.284  1.0651 -0.5217  0.9342
 3475TIP3   OH232059   1.215   1.332   3.112 -0.6149  0.1601  0.7927
 3475TIP3    H132060   1.160   1.406   3.140  0.1622  0.8696  0.5017
 3475TIP3    H232061   1.283   1.327   3.179 -0.3716  0.0369  0.5358
 3476TIP3   OH232062   4.218   0.840   1.283 -0.2813  0.9797  0.5262
 3476TIP3    H132063   4.296   0.789   1.262 -0.1913  0.7165  1.4603
 3476TIP3    H232064   4.184   0.868   1.198 -0.8390 -1.3492 -0.0912
 3477TIP3   OH232065   2.480   4.488   1.591  0.0191 -0.3553  0.6287
 3477TIP3    H132066   2.419   4.562   1.599 -1.9672 -1.8286 -0.1100
 3477TIP3    H232067   2.543   4.517   1.525 -0.4755  0.8148  0.6332
 3478TIP3   OH232068   6.457   4.386   2.831 -0.6774  0.6184  0.3937
 3478TIP3    H132069   6.486   4.299   2.860 -0.8583  0.5417  0.3447
 3478TIP3    H232070   6.433   4.432   2.911 -0.7283  0.5698  0.4061
 3479TIP3   OH232071   3.525   5.599   1.113  0.5292 -0.2163  0.5401
 3479TIP3    H132072   3.611   5.561   1.098  1.6573  1.9958  1.0194
 3479TIP3    H232073   3.522   5.675   1.055 -1.8884 -1.2675 -0.8592
 3480TIP3   OH232074   2.300   4.160   2.174 -0.3540  0.1801 -0.0733
 3480TIP3    H132075   2.380   4.212   2.165 -0.6825  1.0259  1.5655
 3480TIP3    H232076   2.311   4.088   2.113  2.6962 -1.0116  1.6830
 3481TIP3   OH232077   6.284   0.778   2.504  0.2003  0.0692 -0.3319
 3481TIP3    H132078   6.276   0.785   2.599 -1.5174  0.0168 -0.4575
 3481TIP3    H232079   6.273   0.867   2.472 -0.0965 -0.0456 -0.5453
 3482TIP3   OH232080   0.896   6.147   1.634 -0.1467  0.0310 -0.1583
 3482TIP3    H132081   0.809   6.173   1.666 -0.6017 -0.2308 -1.1411
 3482TIP3    H232082   0.922   6.217   1.575 -0.1649 -0.4009 -0.6883
 3483TIP3   OH232083   2.170   4.106   8.354 -0.1883 -0.0483 -0.9677
 3483TIP3    H132084   2.231   4.037   8.328  0.4592  0.3561 -0.5577
 3483TIP3    H232085   2.097   4.098   8.292  0.4658 -0.2822 -1.7342
 3484TIP3   OH232086   1.903   5.105   2.907  0.4562 -0.4133 -0.4099
 3484TIP3    H132087   1.863   5.063   2.830  0.2800 -2.1227  0.5472
 3484TIP3    H232088   1.907   5.035   2.972 -1.0090  1.3751  1.7720
 3485TIP3   OH232089   2.538   2.081   3.331  0.4341  0.0842  0.2200
 3485TIP3    H132090   2.609   2.019   3.312  0.0651 -0.7925  1.5545
 3485TIP3    H232091   2.459   2.037   3.300  0.0943 -0.4234  1.7324
 3486TIP3   OH232092   5.028   6.427   8.487  0.1218  0.0664 -0.0185
 3486TIP3    H132093   5.116   6.427   8.450  0.9211  0.4769  1.7516
 3486TIP3    H232094   5.036   6.375   8.567 -1.3325 -0.1710  0.0031
 3487TIP3   OH232095   3.662   5.214   8.762 -0.2354  0.2085  0.1905
 3487TIP3    H132096   3.635   5.304   8.748  1.4327  0.6463 -0.3859
 3487TIP3    H232097   3.695   5.184   8.677 -1.1214 -1.0915  0.2648
 3488TIP3   OH232098   1.783   5.182   3.209 -0.2656 -0.1319  0.8215
 3488TIP3    H132099   1.788   5.096   3.167  0.1142  0.5267 -0.5023
 3488TIP3    H232100   1.859   5.185   3.267 -0.3743 -0.7383  1.0070
 3489TIP3   OH232101   6.210   3.398   0.486  0.4413 -0.7441  0.1290
 3489TIP3    H132102   6.262   3.398   0.406 -0.3230  0.3092 -0.3924
 3489TIP3    H232103   6.189   3.490   0.501 -2.3523 -1.2025 -0.4273
 3490TIP3   OH232104   4.771   3.771   1.904 -0.4712 -0.5725 -0.4092
 3490TIP3    H132105   4.721   3.719   1.841 -1.2704  0.4948 -0.6889
 3490TIP3    H232106   4.706   3.828   1.944  0.2130 -0.5192  0.6471
 3491TIP3   OH232107   0.913   1.161   1.584 -0.1296 -0.4640 -0.0776
 3491TIP3    H132108   0.888   1.121   1.667  0.9219 -1.5731 -0.2529
 3491TIP3    H232109   0.999   1.199   1.600 -0.7872  1.1353 -0.1307
 3492TIP3   OH232110   3.314   2.039   3.881 -0.3305 -0.0237 -0.1449
 3492TIP3    H132111   3.333   2.008   3.970 -1.1889 -4.1786 -1.1952
 3492TIP3    H232112   3.385   2.005   3.828 -0.7273  0.9346 -1.3348
 3493TIP3   OH232113   6.753   2.804   1.372 -0.2707 -0.3550  0.4636
 3493TIP3    H132114   6.737   2.861   1.297  0.0736  0.7743  1.2187
 3493TIP3    H232115   6.832   2.840   1.413 -1.0124 -0.3525  1.9255
 3494TIP3   OH232116   2.689   4.209   1.913  0.5832 -0.7084  0.0153
 3494TIP3    H132117   2.737   4.240   1.836  2.1001 -1.5114  0.5960
 3494TIP3    H232118   2.627   4.279   1.932  0.3440 -0.3923 -1.7813
 3495TIP3   OH232119   2.489   1.731   3.031  0.0646 -0.2138  0.4360
 3495TIP3    H132120   2.462   1.807   3.082  1.0403  0.7684 -0.4671
 3495TIP3    H232121   2.571   1.758   2.990 -0.2448 -1.2897 -0.9432
 3496TIP3   OH232122   1.041   1.038   8.477  0.1130 -0.3499 -0.1766
 3496TIP3    H132123   1.113   1.085   8.520  0.6550 -0.9244 -0.4311
 3496TIP3    H232124   1.085   0.973   8.422 -0.6077 -0.7192 -0.3266
 3497TIP3   OH232125   1.554   2.411   1.094 -0.0488  0.3816 -0.0554
 3497TIP3    H132126   1.516   2.362   1.021  1.6528 -1.7659  0.3984
 3497TIP3    H232127   1.522   2.367   1.172  0.3413  0.9356  0.4245
 3498TIP3   OH232128   5.824   1.163   3.910  0.6267  0.9866  0.5653
 3498TIP3    H132129   5.824   1.148   4.005 -1.3246 -0.6442  0.3723
 3498TIP3    H232130   5.811   1.076   3.872  1.3889  1.6033 -1.2368
 3499TIP3   OH232131   5.521   2.414   4.229  0.5353  0.7334 -0.0439
 3499TIP3    H132132   5.538   2.503   4.198 -2.4112  1.3503 -0.2021
 3499TIP3    H232133   5.427   2.413   4.247  0.8594 -1.7442  2.0099
 3500TIP3   OH232134   5.749   4.850   3.171 -0.1865 -0.1600 -0.3676
 3500TIP3    H132135   5.716   4.851   3.261 -1.3581 -2.0439 -0.7244
 3500TIP3    H232136   5.790   4.764   3.161 -1.3458 -0.5785 -2.0284
 3501TIP3   OH232137   4.450   2.225   8.795  0.1370  0.1109 -0.2220
 3501TIP3    H132138   4.456   2.257   8.706 -0.4747  0.8177 -0.0170
 3501TIP3    H232139   4.434   2.131   8.786  0.6413  0.0792 -0.8420
 3502TIP3   OH232140   2.435   0.834   8.060 -0.3850 -0.6905  0.0195
 3502TIP3    H132141   2.459   0.905   8.120 -1.5019 -1.4981  1.4804
 3502TIP3    H232142   2.454   0.869   7.973  0.3611  0.8833  0.7735
 3503TIP3   OH232143   4.393   1.844   2.840  0.7554 -0.4688 -0.0917
 3503TIP3    H132144   4.310   1.882   2.869  1.0926 -1.0890  1.8113
 3503TIP3    H232145   4.371   1.799   2.758  0.0865  2.6002 -1.7641
 3504TIP3   OH232146   4.953   2.715   0.979 -0.9846 -0.4126  0.2227
 3504TIP3    H132147   4.947   2.622   0.959 -0.7365 -0.1657 -1.1083
 3504TIP3    H232148   5.044   2.727   1.008 -0.6475 -0.3955 -0.7886
 3505TIP3   OH232149   3.041   6.733   1.422  0.0473 -0.2397  0.8470
 3505TIP3    H132150   3.047   6.653   1.370 -0.3598 -1.4329  2.5465
 3505TIP3    H232151   3.118   6.732   1.478  0.1801  0.7052  0.6996
 3506TIP3   OH232152   6.643   3.129   0.920  0.2136  0.5374 -0.3860
 3506TIP3    H132153   6.679   3.122   0.831 -2.3064  0.0881 -1.4644
 3506TIP3    H232154   6.607   3.042   0.938  0.2118  0.7836  0.8518
 3507TIP3   OH232155   4.839   4.417   0.658 -0.1949 -0.1878 -0.3540
 3507TIP3    H132156   4.892   4.453   0.729  0.2147  0.6545 -1.0646
 3507TIP3    H232157   4.888   4.340   0.629 -0.2442 -0.3990  0.1162
 3508TIP3   OH232158   1.871   4.925   3.103  0.1994 -0.1143  0.0881
 3508TIP3    H132159   1.782   4.912   3.135 -0.3065 -1.2203 -1.6117
 3508TIP3    H232160   1.926   4.876   3.164 -0.3970  0.2301  0.9114
 3509TIP3   OH232161   2.271   5.627   1.742  0.9180  1.0491  0.5358
 3509TIP3    H132162   2.324   5.657   1.815  0.8195  0.5604  0.8156
 3509TIP3    H232163   2.183   5.663   1.759 -0.0245 -1.8581  2.5464
 3510TIP3   OH232164   5.614   0.151   8.840  0.1485 -0.7172  0.5791
 3510TIP3    H132165   5.675   0.218   8.870 -1.8147  1.0106  0.8574
 3510TIP3    H232166   5.669   0.073   8.827  2.5074  0.9078  0.2029
 3511TIP3   OH232167   0.950   0.246   1.897  0.2008 -0.2860 -0.2770
 3511TIP3    H132168   1.011   0.220   1.827  2.4519  1.2440  0.9890
 3511TIP3    H232169   0.975   0.193   1.972  0.7342  1.1065  0.5632
 3512TIP3   OH232170   6.749   0.608   2.697 -0.2503 -0.6167  0.0910
 3512TIP3    H132171   6.797   0.611   2.780 -0.2548  0.5129  0.0589
 3512TIP3    H232172   6.777   0.525   2.657  1.3925 -0.1862  0.2485
 3513TIP3   OH232173   2.296   3.416   1.714 -0.4328  0.3329 -0.3100
 3513TIP3    H132174   2.356   3.418   1.789 -1.3390 -3.9215  0.7828
 3513TIP3    H232175   2.211   3.394   1.751 -1.1306 -0.9607 -2.4829
 3514TIP3   OH232176   2.660   4.204   8.342 -0.7922  0.3949  0.1593
 3514TIP3    H132177   2.639   4.245   8.258  0.8062  0.9701  0.0001
 3514TIP3    H232178   2.651   4.275   8.406 -0.2993  0.4115  0.2156
 3515TIP3   OH232179   2.245   4.578   2.373 -0.2117 -0.0885  0.2860
 3515TIP3    H132180   2.212   4.513   2.311  0.1666 -0.2308  0.2356
 3515TIP3    H232181   2.254   4.658   2.321  0.9536 -0.4319 -0.0559
 3516TIP3   OH232182   2.465   1.866   0.577 -0.3976  0.4291  0.0466
 3516TIP3    H132183   2.473   1.802   0.648 -1.4290  1.9828  1.6604
 3516TIP3    H232184   2.555   1.886   0.552  0.2481  2.1001  3.1434
 3517TIP3   OH232185   6.286   5.621   0.910 -0.4016  0.0548 -0.1672
 3517TIP3    H132186   6.201   5.634   0.870 -0.5313 -0.3723 -0.0396
 3517TIP3    H232187   6.282   5.668   0.993 -0.3233  0.4800 -0.4002
 3518TIP3   OH232188   6.764   4.350   8.654 -0.7589 -0.6589 -0.1566
 3518TIP3    H132189   6.793   4.432   8.615  3.1878 -0.7116  2.0722
 3518TIP3    H232190   6.800   4.282   8.597  0.3051 -0.7352  0.5621
 3519TIP3   OH232191   1.257   6.469   3.150 -0.3010 -0.1772 -0.3253
 3519TIP3    H132192   1.252   6.471   3.246  1.0414 -2.4319 -0.1222
 3519TIP3    H232193   1.176   6.511   3.121 -1.6759 -1.1456  1.8345
 3520TIP3   OH232194   3.387   3.062   1.208 -0.4412  0.4042 -0.4103
 3520TIP3    H132195   3.431   2.992   1.257  0.3807  0.7599 -0.6130
 3520TIP3    H232196   3.359   3.020   1.127 -1.5036 -0.1023  0.1979
 3521TIP3   OH232197   1.268   3.015   1.202  0.9192 -0.2698 -0.0054
 3521TIP3    H132198   1.337   3.003   1.136  0.4636 -1.7593 -0.2502
 3521TIP3    H232199   1.194   2.965   1.168  0.0546  0.4940  0.7416
 3522TIP3   OH232200   5.890   4.243   0.563  0.1331 -0.4893 -0.1469
 3522TIP3    H132201   5.802   4.262   0.532 -1.0059 -0.6877  2.6894
 3522TIP3    H232202   5.925   4.181   0.500 -1.6613 -0.2351 -1.4541
 3523TIP3   OH232203   4.246   2.810   2.140 -0.1931  0.0138  0.3791
 3523TIP3    H132204   4.165   2.831   2.093  1.5026  0.8465 -2.4286
 3523TIP3    H232205   4.256   2.882   2.203 -1.4540  0.0797  0.5333
 3524TIP3   OH232206   3.882   3.459   1.852  0.0106  0.0621 -0.0540
 3524TIP3    H132207   3.797   3.428   1.819 -0.0281 -0.1390  0.2333
 3524TIP3    H232208   3.892   3.546   1.813  0.3239 -0.4853 -1.2210
 3525TIP3   OH232209   4.932   3.482   8.507  0.1951 -0.2480  0.0912
 3525TIP3    H132210   4.950   3.572   8.480 -0.8467 -0.2689 -0.7324
 3525TIP3    H232211   4.843   3.465   8.477 -0.1243 -1.1164  1.4175
 3526TIP3   OH232212   5.802   6.007   8.843  0.5478  0.6054 -0.2894
 3526TIP3    H132213   5.809   5.920   8.803  0.9607 -0.4750  1.9988
 3526TIP3    H232214   5.734   6.051   8.792 -1.1716 -1.7997 -0.2297
 3527TIP3   OH232215   1.641   2.160   1.320 -0.5381 -0.4184  0.0812
 3527TIP3    H132216   1.554   2.135   1.353 -0.3230 -0.0068  1.0066
 3527TIP3    H232217   1.647   2.119   1.234 -2.0213  0.3199 -0.4123
 3528TIP3   OH232218   2.299   2.197   8.859  0.0679 -0.1918 -0.0376
 3528TIP3    H132219   2.244   2.127   8.822  0.2210 -0.7924  0.8483
 3528TIP3    H232220   2.360   2.151   8.916 -0.1161  0.7159  0.9048
 3529TIP3   OH232221   1.369   2.255   1.271  0.0212  0.1731 -0.0239
 3529TIP3    H132222   1.386   2.164   1.245 -1.2760  0.1528 -0.9153
 3529TIP3    H232223   1.276   2.257   1.290 -0.5848  1.8892 -2.7143
 3530TIP3   OH232224   4.119   2.980   2.689  0.4325 -0.1857  0.3963
 3530TIP3    H132225   4.161   2.907   2.644  1.4709 -0.1514  1.2786
 3530TIP3    H232226   4.043   2.940   2.733 -0.5648 -0.2300 -1.2659
 3531TIP3   OH232227   3.006   5.285   0.743 -1.0129  0.2386 -0.3977
 3531TIP3    H132228   3.003   5.323   0.655  1.7588  1.9768  0.1260
 3531TIP3    H232229   3.099   5.268   0.759 -1.4763 -0.4676  2.0269
 3532TIP3   OH232230   0.369   5.373   0.149  0.2247 -0.0246 -0.0297
 3532TIP3    H132231   0.284   5.392   0.188 -0.3423  1.6662 -1.9248
 3532TIP3    H232232   0.350   5.334   0.064  1.3537 -0.5683 -0.0519
 3533TIP3   OH232233   4.590   3.978   0.376  0.4156  0.7237 -0.4678
 3533TIP3    H132234   4.601   4.038   0.303 -0.7996 -0.4154 -1.6420
 3533TIP3    H232235   4.679   3.963   0.409  0.6780  3.9331  0.5907
 3534TIP3   OH232236   6.363   4.517   1.775  0.5823 -0.2863  0.2588
 3534TIP3    H132237   6.385   4.581   1.842  0.4661  0.5663 -0.5046
 3534TIP3    H232238   6.436   4.455   1.776  0.3510 -0.5544  1.4934
 3535TIP3   OH232239   0.751   3.371   1.011 -0.1784 -0.0209  0.2523
 3535TIP3    H132240   0.712   3.372   1.098 -0.6530  0.0288  0.0435
 3535TIP3    H232241   0.845   3.381   1.026 -0.1224 -1.2684  0.8295
 3536TIP3   OH232242   5.347   2.600   1.653  0.2778 -0.6554  0.0589
 3536TIP3    H132243   5.369   2.510   1.626 -0.8589 -1.6588  2.2416
 3536TIP3    H232244   5.334   2.594   1.747 -3.3884  0.9891 -0.1518
 3537TIP3   OH232245   3.180   2.701   4.149  0.1398  0.4650 -0.3050
 3537TIP3    H132246   3.235   2.749   4.087  0.3772  0.9302  0.2540
 3537TIP3    H232247   3.174   2.613   4.113 -0.3039  0.9070 -1.3581
 3538TIP3   OH232248   3.657   6.192   0.378 -0.3163  0.1061  0.1831
 3538TIP3    H132249   3.713   6.118   0.399 -3.3226 -2.7835 -1.0363
 3538TIP3    H232250   3.617   6.217   0.461 -0.6862 -0.9546  0.3330
 3539TIP3   OH232251   5.748   3.626   8.181  0.3297 -0.2469 -0.3350
 3539TIP3    H132252   5.696   3.632   8.101 -0.0063 -0.7965 -0.1608
 3539TIP3    H232253   5.685   3.639   8.251  1.0646  3.6566 -0.1453
 3540TIP3   OH232254   6.770   3.026   8.797 -0.3204  0.1746 -0.3876
 3540TIP3    H132255   6.835   3.080   8.842 -0.4782 -0.1541  0.2466
 3540TIP3    H232256   6.761   3.066   8.710  0.9157  0.0810 -0.5828
 3541TIP3   OH232257   1.426   3.608   3.515 -0.4059 -0.0409 -0.3094
 3541TIP3    H132258   1.416   3.526   3.564 -0.6883  0.2733  0.1801
 3541TIP3    H232259   1.493   3.590   3.450 -1.1460 -0.9546 -0.8468
 3542TIP3   OH232260   3.434   6.327   3.746  0.3653  0.0842  0.0533
 3542TIP3    H132261   3.381   6.406   3.759  0.5883  0.1910  0.3235
 3542TIP3    H232262   3.448   6.292   3.834  0.0336 -0.4168 -0.0873
 3543TIP3   OH232263   2.049   0.273   0.957 -0.0162 -0.4875  0.0460
 3543TIP3    H132264   2.026   0.184   0.929 -1.3124 -0.5992  1.3435
 3543TIP3    H232265   2.134   0.263   1.001  0.5721 -0.8000 -1.1081
 3544TIP3   OH232266   2.355   6.714   0.053  0.3973 -0.0173  0.0008
 3544TIP3    H132267   2.417   6.656   0.096  0.5266  0.4400  0.4350
 3544TIP3    H232268   2.392   6.802   0.063 -0.8619  0.4103  1.2978
 3545TIP3   OH232269   0.639   0.635   8.305 -0.0174 -0.4692  0.0670
 3545TIP3    H132270   0.563   0.674   8.349  0.7975  1.6192 -0.2498
 3545TIP3    H232271   0.634   0.668   8.215  1.3163 -0.1927  0.0798
 3546TIP3   OH232272   1.749   1.828   2.490  0.2850 -0.0132  0.3890
 3546TIP3    H132273   1.806   1.904   2.502  0.0906  0.2110 -0.1188
 3546TIP3    H232274   1.795   1.772   2.428 -0.3034  0.4335 -0.4654
 3547TIP3   OH232275   5.468   6.021   1.809  0.6123 -0.4117 -0.1168
 3547TIP3    H132276   5.432   5.933   1.803  0.1434 -0.4467  2.1864
 3547TIP3    H232277   5.420   6.062   1.881  4.1421 -0.0150  2.2893
 3548TIP3   OH232278   2.395   0.584   8.194  0.1257  0.3626 -0.2838
 3548TIP3    H132279   2.410   0.661   8.138  3.9980 -1.7703 -2.5400
 3548TIP3    H232280   2.331   0.532   8.146 -0.5802  0.9404  0.0028
 3549TIP3   OH232281   5.074   0.328   3.761 -0.1220 -0.2819  0.0335
 3549TIP3    H132282   5.004   0.288   3.812 -0.3242 -0.2410 -0.2075
 3549TIP3    H232283   5.151   0.275   3.780 -0.8802 -2.3829 -2.1484
 3550TIP3   OH232284   6.108   4.924   2.849 -0.6800  0.4014 -0.2812
 3550TIP3    H132285   6.121   5.002   2.903 -2.1080 -0.3922  1.3172
 3550TIP3    H232286   6.074   4.957   2.766  1.8319  1.6763 -0.9136
 3551TIP3   OH232287   1.283   6.740   0.006  0.2925  0.3261  0.2702
 3551TIP3    H132288   1.229   6.775  -0.065 -1.6630 -0.5553  1.2378
 3551TIP3    H232289   1.310   6.653  -0.025 -1.2547 -0.4044  0.8906
 3552TIP3   OH232290   2.676   0.594   3.131 -0.1132 -0.0456 -0.3274
 3552TIP3    H132291   2.695   0.640   3.213 -0.4800  1.5407 -1.0930
 3552TIP3    H232292   2.582   0.580   3.133 -0.2274  0.6002 -0.7551
 3553TIP3   OH232293   1.551   5.879   1.369 -0.2090  0.1146  0.4442
 3553TIP3    H132294   1.520   5.859   1.281  2.3800  0.3869 -0.6171
 3553TIP3    H232295   1.494   5.951   1.398 -1.1366  0.0003 -0.9763
 3554TIP3   OH232296   2.019   1.860   2.061  0.1646 -0.2190 -1.4936
 3554TIP3    H132297   2.093   1.835   2.115 -0.3534 -0.1936 -0.7600
 3554TIP3    H232298   1.975   1.930   2.110 -1.1240 -1.1520 -1.2531
 3555TIP3   OH232299   4.809   5.078   2.050  0.0886  0.4112  0.1485
 3555TIP3    H132300   4.844   5.038   2.129  0.2170 -0.0484 -0.1401
 3555TIP3    H232301   4.721   5.041   2.041 -0.2527  1.0935  0.5272
 3556TIP3   OH232302   1.503   3.885   0.119  0.1537 -0.6019 -0.0912
 3556TIP3    H132303   1.430   3.843   0.073 -1.7366  0.5229  1.7273
 3556TIP3    H232304   1.484   3.979   0.113  0.5027 -0.3680  1.8482
 3557TIP3   OH232305   0.599   3.648   0.219 -0.1147 -0.8350 -0.3999
 3557TIP3    H132306   0.609   3.694   0.302 -2.4402 -1.4766  0.2910
 3557TIP3    H232307   0.535   3.699   0.170 -1.0160 -2.0715 -0.5513
 3558TIP3   OH232308   1.380   1.877   3.564 -0.3068 -0.0479 -0.2820
 3558TIP3    H132309   1.401   1.924   3.484  0.9183 -1.4451 -0.8158
 3558TIP3    H232310   1.382   1.785   3.540 -0.9198 -0.4656  1.1286
 3559TIP3   OH232311   6.007   0.940   3.363 -0.2273  0.2598 -0.0337
 3559TIP3    H132312   6.029   0.922   3.454 -0.3059  0.8799  0.1119
 3559TIP3    H232313   5.959   1.023   3.365 -1.0646 -0.1941 -0.5394
 3560TIP3   OH232314   4.501   1.321   0.928 -0.4659 -0.0396 -0.2304
 3560TIP3    H132315   4.466   1.342   0.841  0.4306  0.5907 -0.4520
 3560TIP3    H232316   4.458   1.239   0.951  0.6720 -1.2449 -2.0960
 3561TIP3   OH232317   1.046   3.194   1.238 -0.0580 -0.0324  0.0169
 3561TIP3    H132318   1.127   3.144   1.247  1.5256  2.1309 -1.0809
 3561TIP3    H232319   1.040   3.214   1.144 -1.4699  0.4841  0.1888
 3562TIP3   OH232320   6.617   1.063   8.858 -0.1243  0.4742 -0.1929
 3562TIP3    H132321   6.608   1.158   8.862 -0.8899  0.6474 -3.3240
 3562TIP3    H232322   6.529   1.030   8.880  0.3317  0.3919  1.6503
 3563TIP3   OH232323   5.248   6.505   3.878 -0.0711  0.6198 -0.5402
 3563TIP3    H132324   5.158   6.505   3.910  0.2235 -2.6087  0.6367
 3563TIP3    H232325   5.267   6.597   3.859 -2.8819  1.6846  1.2379
 3564TIP3   OH232326   5.837   5.760   8.748  0.2205 -0.2631 -0.6741
 3564TIP3    H132327   5.879   5.676   8.764 -2.0324 -0.9228  2.6795
 3564TIP3    H232328   5.764   5.739   8.689  0.5771 -0.3614 -1.0827
 3565TIP3   OH232329   3.582   4.386   2.495 -0.4900  0.2451 -0.5369
 3565TIP3    H132330   3.612   4.409   2.407  0.0512  0.0532 -0.4076
 3565TIP3    H232331   3.607   4.294   2.506 -0.1785  0.3845 -0.0318
 3566TIP3   OH232332   2.720   2.941   3.097 -0.4576 -0.1289 -0.6894
 3566TIP3    H132333   2.672   3.015   3.134  1.0337  0.0130  1.0980
 3566TIP3    H232334   2.762   2.900   3.172 -0.8384 -2.5329 -1.7110
 3567TIP3   OH232335   3.544   2.695   8.382  0.0598  0.0769 -0.5663
 3567TIP3    H132336   3.511   2.661   8.465 -1.1179  0.6322 -0.7828
 3567TIP3    H232337   3.614   2.635   8.357  0.4488 -0.0841  0.8272
 3568TIP3   OH232338   1.601   1.001   3.804 -0.5704 -0.2056 -0.0851
 3568TIP3    H132339   1.552   0.982   3.884 -1.0862 -2.5566 -0.8910
 3568TIP3    H232340   1.683   1.038   3.835 -0.3082 -2.0503  1.6180
 3569TIP3   OH232341   4.740   3.174   2.269  0.1579 -0.0684  0.3351
 3569TIP3    H132342   4.805   3.135   2.327 -0.9628  0.2923  1.9116
 3569TIP3    H232343   4.776   3.260   2.246  0.4332 -0.0281  0.8897
 3570TIP3   OH232344   6.339   6.051   1.858 -0.1302  0.5194  0.1731
 3570TIP3    H132345   6.304   6.120   1.802  0.1063 -0.2307 -0.9464
 3570TIP3    H232346   6.335   6.086   1.947 -2.4337  0.9725 -0.0694
 3571TIP3   OH232347   1.131   3.920   0.793 -0.3585 -0.1214 -0.2743
 3571TIP3    H132348   1.099   4.011   0.793  0.4713  0.1767  0.0194
 3571TIP3    H232349   1.226   3.928   0.798 -0.3310 -1.0121  1.2186
 3572TIP3   OH232350   4.850   2.272   3.410  0.2597 -0.2143  0.3146
 3572TIP3    H132351   4.859   2.254   3.503  1.2983  1.1305  0.5098
 3572TIP3    H232352   4.773   2.222   3.383 -0.6761  0.1761  2.1089
 3573TIP3   OH232353   4.134   2.619   2.853  0.2361  0.1247 -0.5347
 3573TIP3    H132354   4.139   2.556   2.925 -0.4860  1.0414  0.3399
 3573TIP3    H232355   4.109   2.566   2.777  0.0430 -0.7069  0.0888
 3574TIP3   OH232356   0.017   1.048   2.554 -0.2739  0.2070  0.1027
 3574TIP3    H132357  -0.069   1.085   2.536 -0.5457 -0.3771  0.1678
 3574TIP3    H232358   0.078   1.120   2.537 -0.7638  0.5982 -0.0384
 3575TIP3   OH232359   2.638   3.863   3.029  0.1535  0.4742 -0.2855
 3575TIP3    H132360   2.632   3.928   3.099  2.5345  0.5012 -0.0246
 3575TIP3    H232361   2.704   3.801   3.060  3.0588  1.7160 -3.3622
 3576TIP3   OH232362   0.922   0.072   2.824  0.2066 -0.0803 -0.0744
 3576TIP3    H132363   0.963   0.091   2.740  0.0436  0.0854 -0.1157
 3576TIP3    H232364   0.852   0.010   2.804  0.3556 -0.2663 -0.0209
 3577TIP3   OH232365   6.609   4.176   2.631  0.1640 -0.3324 -0.4281
 3577TIP3    H132366   6.565   4.093   2.612  0.5110 -0.3942 -0.9581
 3577TIP3    H232367   6.541   4.242   2.619 -1.1358 -0.7466  3.3703
 3578TIP3   OH232368   3.475   5.257   2.380 -0.4947 -0.0290  0.4677
 3578TIP3    H132369   3.381   5.273   2.380 -0.9198 -2.1103 -1.2321
 3578TIP3    H232370   3.489   5.198   2.306  2.1932  0.4128  0.5400
 3579TIP3   OH232371   5.889   4.919   2.251  0.2266 -0.1700  0.7295
 3579TIP3    H132372   5.901   4.969   2.171  0.1415 -1.2174  0.0484
 3579TIP3    H232373   5.966   4.941   2.304  0.2638  0.5552  0.3869
 3580TIP3   OH232374   2.662   5.786   1.606 -0.2078 -0.1860  0.6387
 3580TIP3    H132375   2.607   5.839   1.548  0.0563 -0.4943  0.1076
 3580TIP3    H232376   2.750   5.820   1.594 -0.3911  0.9936  2.2447
 3581TIP3   OH232377   4.176   0.913   2.499 -0.6323  0.3508 -0.0809
 3581TIP3    H132378   4.172   1.006   2.521 -1.7872 -0.0305  1.4935
 3581TIP3    H232379   4.269   0.895   2.485 -0.4612  1.8751 -1.0991
 3582TIP3   OH232380   4.134   6.254   3.773  0.3439 -0.4277 -0.0466
 3582TIP3    H132381   4.094   6.176   3.811  1.6119 -0.3387  1.6092
 3582TIP3    H232382   4.104   6.255   3.682 -0.5437 -2.2424  0.1767
 3583TIP3   OH232383   4.592   2.571   0.336  0.5322  0.6306 -0.7092
 3583TIP3    H132384   4.602   2.628   0.412 -0.0835 -0.4463  0.2051
 3583TIP3    H232385   4.514   2.518   0.355  1.9331 -1.5898 -0.8153
 3584TIP3   OH232386   0.121   6.072   0.245 -0.1865 -0.8607 -0.2635
 3584TIP3    H132387   0.145   6.160   0.215  1.7566 -0.0575  3.1025
 3584TIP3    H232388   0.202   6.022   0.238 -0.2740 -1.2690  1.3099
 3585TIP3   OH232389   3.847   3.939   3.043  0.3676  0.0876  0.0913
 3585TIP3    H132390   3.767   3.964   2.997  0.3439  0.4411  0.3231
 3585TIP3    H232391   3.834   3.847   3.064 -0.3069  0.3296  0.7888
 3586TIP3   OH232392   5.452   1.211   8.222 -0.4075 -0.0372  0.0064
 3586TIP3    H132393   5.488   1.291   8.183  0.8971 -0.4684  0.2551
 3586TIP3    H232394   5.360   1.210   8.196 -0.2105  1.0536 -0.7946
 3587TIP3   OH232395   5.181   0.208   8.373  0.8294  0.2675  0.0265
 3587TIP3    H132396   5.245   0.139   8.355  0.1743 -0.5893  0.9011
 3587TIP3    H232397   5.117   0.200   8.303  0.0973 -0.8411  0.7933
 3588TIP3   OH232398   6.142   6.628   2.232  0.3803  1.0125  0.9087
 3588TIP3    H132399   6.137   6.563   2.302  0.8893  0.4241  0.4135
 3588TIP3    H232400   6.059   6.675   2.236 -0.2043 -0.0131  0.9447
 3589TIP3   OH232401   1.609   5.804   8.848  0.4009 -0.0166  0.1850
 3589TIP3    H132402   1.558   5.767   8.776  2.0940  0.3035 -1.2409
 3589TIP3    H232403   1.636   5.729   8.900 -1.0992 -0.2250  0.7293
 3590TIP3   OH232404   3.437   1.831   3.081  0.0161 -0.0615  0.7517
 3590TIP3    H132405   3.453   1.891   3.155 -0.5444  1.0681 -0.0201
 3590TIP3    H232406   3.389   1.884   3.018  0.6947 -0.9386 -0.5330
 3591TIP3   OH232407   2.958   1.200   8.845 -0.3680 -0.0595  0.1288
 3591TIP3    H132408   2.971   1.154   8.761 -0.4187 -0.1033  0.1442
 3591TIP3    H232409   2.868   1.232   8.840 -0.5661 -0.5618  0.4059
 3592TIP3   OH232410   1.007   1.097   0.880  0.4088  0.5910 -0.0725
 3592TIP3    H132411   1.090   1.060   0.848 -0.7154 -1.0026 -1.3009
 3592TIP3    H232412   1.033   1.152   0.954  2.4405 -1.0063  0.5137
 3593TIP3   OH232413   3.135   1.334   3.631 -0.0816  0.4466  0.3729
 3593TIP3    H132414   3.219   1.364   3.665  1.3765 -0.9162 -1.7705
 3593TIP3    H232415   3.114   1.396   3.561 -0.9380  0.8458  0.9739
 3594TIP3   OH232416   4.186   6.766   1.810  0.2571  0.1144  0.0794
 3594TIP3    H132417   4.189   6.778   1.905  0.1716  1.4490 -0.0649
 3594TIP3    H232418   4.237   6.839   1.775 -1.4425  0.8533 -0.9628
 3595TIP3   OH232419   4.794   5.803   0.467  0.0518 -0.8200 -0.1366
 3595TIP3    H132420   4.819   5.748   0.541  0.4148  0.7865  0.9888
 3595TIP3    H232421   4.722   5.856   0.501  0.4881  0.2180 -0.7952
 3596TIP3   OH232422   2.419   0.451   0.379  0.4489 -0.0143 -0.2797
 3596TIP3    H132423   2.455   0.495   0.302  1.6332  2.6858  1.6778
 3596TIP3    H232424   2.476   0.376   0.393  3.0178  1.9508  0.4337
 3597TIP3   OH232425   2.574   1.348   0.638  0.1036  0.0188  0.1303
 3597TIP3    H132426   2.581   1.252   0.639  0.1251  0.0208  0.4402
 3597TIP3    H232427   2.557   1.371   0.730 -2.9059  0.0952 -0.3745
 3598TIP3   OH232428   4.748   2.677   8.625 -0.4863 -0.1732  0.7403
 3598TIP3    H132429   4.792   2.679   8.540 -1.4430 -2.8417  0.1123
 3598TIP3    H232430   4.667   2.629   8.610 -0.7707 -0.5720  3.1155
 3599TIP3   OH232431   6.151   2.581   8.549  0.1981  0.2509 -0.0826
 3599TIP3    H132432   6.084   2.577   8.481  0.5599 -0.5922 -0.3998
 3599TIP3    H232433   6.196   2.497   8.544  0.0553  0.0647  1.3850
 3600TIP3   OH232434   5.503   3.292   0.614  0.0011  0.0314  0.1959
 3600TIP3    H132435   5.557   3.213   0.620  0.7286  0.4842 -0.1741
 3600TIP3    H232436   5.561   3.362   0.644  0.6650  0.9758 -2.9109
 3601TIP3   OH232437   5.407   2.830   2.268 -0.2123  0.5450  0.2635
 3601TIP3    H132438   5.388   2.919   2.299 -1.4236 -0.1117  1.4908
 3601TIP3    H232439   5.404   2.776   2.347 -0.0192 -0.6794 -0.5431
 3602TIP3   OH232440   0.589   1.932   2.049 -0.0975 -0.2202 -0.4581
 3602TIP3    H132441   0.678   1.967   2.040  0.0394 -0.7754 -1.4542
 3602TIP3    H232442   0.557   1.968   2.132  0.8282  0.4839 -0.3889
 3603TIP3   OH232443   3.003   2.382   1.054  0.3698  0.1084  0.5325
 3603TIP3    H132444   3.027   2.291   1.039 -2.3029 -1.1224  2.8206
 3603TIP3    H232445   2.990   2.419   0.966  1.7619 -1.5977 -0.4360
 3604TIP3   OH232446   3.670   0.737   2.139 -0.6645  0.1568  0.1055
 3604TIP3    H132447   3.724   0.684   2.198 -1.2830  0.7363  1.2139
 3604TIP3    H232448   3.616   0.673   2.092  0.1250 -0.3361 -0.1592
 3605TIP3   OH232449   5.634   2.356   0.722  0.6756  0.4418  0.6288
 3605TIP3    H132450   5.550   2.371   0.678  1.0710 -0.2866 -0.3967
 3605TIP3    H232451   5.635   2.420   0.793 -0.2195  1.2745 -0.0787
 3606TIP3   OH232452   3.949   5.378   8.679  0.0348  0.4691 -0.1592
 3606TIP3    H132453   3.883   5.344   8.739  0.6345  0.5283  0.5514
 3606TIP3    H232454   3.902   5.439   8.622 -0.6202  0.0938 -0.0239
 3607TIP3   OH232455   4.458   2.433   3.315 -0.4070 -0.1681 -0.3981
 3607TIP3    H132456   4.392   2.478   3.368 -0.0105 -1.4031  1.2174
 3607TIP3    H232457   4.536   2.487   3.322  0.6317 -1.8229  3.0528
 3608TIP3   OH232458   4.618   1.804   0.293  0.1874  0.0115 -0.4346
 3608TIP3    H132459   4.694   1.748   0.283 -0.3335 -0.3657 -2.9319
 3608TIP3    H232460   4.631   1.874   0.229 -1.4409  0.0537 -0.7728
 3609TIP3   OH232461   2.743   4.176   0.483  0.1144  0.1420  0.0461
 3609TIP3    H132462   2.782   4.262   0.499  4.2299 -1.5144 -0.0061
 3609TIP3    H232463   2.781   4.147   0.401 -0.8935 -1.9073  0.2384
 3610TIP3   OH232464   0.205   6.332   2.781  0.1459  0.0161  0.0039
 3610TIP3    H132465   0.278   6.316   2.842  0.4512  3.9011  0.9379
 3610TIP3    H232466   0.127   6.329   2.836 -0.0116 -0.4878 -0.2471
 3611TIP3   OH232467   0.798   0.173   1.057  0.3400  0.2394  0.0495
 3611TIP3    H132468   0.888   0.204   1.051  0.4994 -0.3372 -0.7093
 3611TIP3    H232469   0.760   0.193   0.972  0.0779 -0.4835 -0.0100
 3612TIP3   OH232470   5.682   5.324   3.387  0.3427  0.7185  0.0588
 3612TIP3    H132471   5.697   5.293   3.476 -0.1661  3.9917  1.4006
 3612TIP3    H232472   5.612   5.268   3.354  0.6457 -0.6665  1.6260
 3613TIP3   OH232473   5.993   4.401   2.388  0.0295  0.3833  0.0414
 3613TIP3    H132474   5.947   4.333   2.339  1.2445 -0.4802  0.0574
 3613TIP3    H232475   5.942   4.481   2.373 -2.3761 -0.7997  1.3299
 3614TIP3   OH232476   5.382   4.474   2.661  0.2858  0.5160 -0.2383
 3614TIP3    H132477   5.456   4.488   2.602  0.4943 -0.0556 -0.1134
 3614TIP3    H232478   5.311   4.445   2.604 -0.0678  1.7530 -0.4616
 3615TIP3   OH232479   0.358   4.653   0.821  0.6050 -0.3622 -0.0901
 3615TIP3    H132480   0.422   4.582   0.818 -0.2404 -1.2416  1.3850
 3615TIP3    H232481   0.307   4.644   0.741 -1.1976 -3.1541  1.1908
 3616TIP3   OH232482   3.378   1.521   2.736 -0.7536 -0.5906  0.1226
 3616TIP3    H132483   3.300   1.575   2.724 -0.0876  0.4243  0.2381
 3616TIP3    H232484   3.436   1.545   2.664 -0.4748 -1.2051  0.1347
 3617TIP3   OH232485   5.833   3.444   8.399  0.8028  0.0425  0.2975
 3617TIP3    H132486   5.818   3.475   8.309 -1.6256 -2.3518 -0.2572
 3617TIP3    H232487   5.908   3.495   8.429  0.9137  1.8717 -2.6135
 3618TIP3   OH232488   5.913   2.928   2.338  0.4479 -0.1153 -1.0851
 3618TIP3    H132489   5.899   2.876   2.417 -1.1575 -0.2203 -1.4149
 3618TIP3    H232490   5.914   3.018   2.368 -3.9633  0.1840 -1.2572
 3619TIP3   OH232491   0.445   1.295   3.021 -0.0587  0.0018 -0.2128
 3619TIP3    H132492   0.537   1.298   2.994 -0.5334 -0.2564 -1.9602
 3619TIP3    H232493   0.432   1.376   3.070  1.3999 -0.5310  1.1482
 3620TIP3   OH232494   4.470   2.908   2.398 -0.0984 -0.7073  0.0074
 3620TIP3    H132495   4.506   2.906   2.310 -1.3528 -0.2763 -0.5371
 3620TIP3    H232496   4.497   2.992   2.433 -1.2932  0.0227 -0.7408
 3621TIP3   OH232497   6.573   3.894   0.309 -0.5727 -0.2682  0.0229
 3621TIP3    H132498   6.479   3.877   0.308 -1.1627  2.6169 -0.3070
 3621TIP3    H232499   6.587   3.960   0.242  1.1576  1.6807  2.1420
 3622TIP3   OH232500   1.215   6.313   1.298  0.2736  0.1027 -0.2482
 3622TIP3    H132501   1.306   6.326   1.272  0.3463  1.0633  0.4031
 3622TIP3    H232502   1.164   6.362   1.233  0.2372 -0.2028 -0.4516
 3623TIP3   OH232503   6.563   2.584   1.939 -0.1529  0.0364  0.5657
 3623TIP3    H132504   6.591   2.559   1.851 -0.5839 -1.4725  0.8359
 3623TIP3    H232505   6.644   2.593   1.989  0.0488  0.0241  0.2404
 3624TIP3   OH232506   6.585   1.254   1.965  0.6776  0.3003 -0.1882
 3624TIP3    H132507   6.583   1.159   1.960 -0.9836  0.3646 -1.7031
 3624TIP3    H232508   6.649   1.280   1.899  3.1558  0.2452  2.0072
 3625TIP3   OH232509   4.785   6.696   1.507  0.4977 -0.3414 -0.0282
 3625TIP3    H132510   4.722   6.768   1.519  1.6258  0.6865 -0.1185
 3625TIP3    H232511   4.825   6.714   1.422  0.8406 -1.0469 -0.0174
 3626TIP3   OH232512   2.181   3.378   1.479 -0.1113 -0.3619 -0.4754
 3626TIP3    H132513   2.251   3.402   1.418  0.0905 -0.2124 -0.1851
 3626TIP3    H232514   2.222   3.382   1.565 -0.6640  0.4420 -0.2425
 3627TIP3   OH232515   0.377   0.904   2.279  0.2455 -0.3048 -0.3048
 3627TIP3    H132516   0.376   0.851   2.199 -0.7519 -0.0022 -0.5076
 3627TIP3    H232517   0.337   0.987   2.252  0.0259 -0.1523  0.4752
 3628TIP3   OH232518   3.746   3.717   1.739  0.2612 -1.0680  0.0874
 3628TIP3    H132519   3.834   3.753   1.756 -0.2461 -0.1290  0.7972
 3628TIP3    H232520   3.687   3.790   1.758 -0.6083 -1.2334 -1.7616
 3629TIP3   OH232521   3.158   5.226   3.581 -0.1427  0.1164 -0.1934
 3629TIP3    H132522   3.080   5.183   3.616  0.2669  0.0451  0.6472
 3629TIP3    H232523   3.212   5.244   3.658  0.2737  0.9679 -0.6677
 3630TIP3   OH232524   3.249   2.104   3.616  0.3416 -0.0426 -0.3241
 3630TIP3    H132525   3.154   2.110   3.604  0.2955 -1.3318 -0.7567
 3630TIP3    H232526   3.261   2.091   3.710  0.1229  0.5576 -0.2104
 3631TIP3   OH232527   2.104   2.963   1.673  0.6003  1.0104 -0.6490
 3631TIP3    H132528   2.184   2.999   1.633  2.1302 -0.7269  0.6985
 3631TIP3    H232529   2.091   3.017   1.751  2.5574 -0.8192  1.0508
 3632TIP3   OH232530   2.285   2.074   1.673 -0.0474 -0.0701  0.0211
 3632TIP3    H132531   2.300   2.058   1.766 -1.9271  1.4287  0.6728
 3632TIP3    H232532   2.204   2.026   1.654  0.1736 -0.1341 -0.7807
 3633TIP3   OH232533   4.135   1.017   1.085 -0.2137 -0.8209  0.2266
 3633TIP3    H132534   4.129   1.006   0.990  0.2524  0.8348 -0.0398
 3633TIP3    H232535   4.044   1.026   1.114 -0.3171 -0.4662 -0.1932
 3634TIP3   OH232536   2.053   2.682   8.394  0.6915 -0.0291  0.1828
 3634TIP3    H132537   2.038   2.719   8.307 -0.1909 -0.8504 -0.0402
 3634TIP3    H232538   2.114   2.610   8.379  0.9202  0.1405  0.3120
 3635TIP3   OH232539   6.110   1.733   2.171 -0.1916  0.2976 -0.6192
 3635TIP3    H132540   6.182   1.778   2.128  1.2350 -1.9332 -0.7105
 3635TIP3    H232541   6.140   1.643   2.181 -1.8688 -0.0959  1.8642
 3636TIP3   OH232542   0.031   6.345   0.399 -0.1251 -0.5131 -0.2109
 3636TIP3    H132543   0.084   6.348   0.319 -1.7094  1.2485 -1.2922
 3636TIP3    H232544  -0.058   6.329   0.368 -0.4935 -1.7731  1.4112
 3637TIP3   OH232545   2.966   4.784   1.712  0.4147 -0.2487 -0.1466
 3637TIP3    H132546   2.884   4.747   1.744  0.8006 -1.1626 -0.1658
 3637TIP3    H232547   2.945   4.874   1.689 -0.3934 -0.2279  0.6040
 3638TIP3   OH232548   4.365   6.343   2.740 -0.2855 -0.1173 -0.3594
 3638TIP3    H132549   4.334   6.395   2.814 -0.2596  1.5240 -1.4444
 3638TIP3    H232550   4.453   6.376   2.722  0.9673 -2.6164  0.7596
 3639TIP3   OH232551   5.067   2.294   0.132  0.0718 -0.0960  0.0664
 3639TIP3    H132552   5.048   2.370   0.077 -0.0363  0.0133  0.2553
 3639TIP3    H232553   5.150   2.261   0.099  1.0303  1.1640  1.1306
 3640TIP3   OH232554   0.711   3.191   0.473 -0.1324  0.0830  0.2039
 3640TIP3    H132555   0.729   3.282   0.496  1.8588  0.2062 -1.5501
 3640TIP3    H232556   0.660   3.197   0.392  0.5496 -0.3553 -0.2604
 3641TIP3   OH232557   6.385   4.392   0.757 -0.2483 -0.2633  0.2309
 3641TIP3    H132558   6.442   4.355   0.689 -1.3557 -1.6155  0.0048
 3641TIP3    H232559   6.304   4.341   0.752 -0.8150  0.4091  1.7705
 3642TIP3   OH232560   3.420   1.285   3.092 -0.2608  0.8473  0.7086
 3642TIP3    H132561   3.433   1.376   3.068  1.0246  0.6749  0.6605
 3642TIP3    H232562   3.479   1.236   3.034 -0.2299  0.0727  1.3671
 3643TIP3   OH232563   6.694   3.037   0.158 -0.4954 -0.4577 -0.2359
 3643TIP3    H132564   6.722   3.013   0.070 -2.4546 -1.7884 -0.5633
 3643TIP3    H232565   6.698   3.133   0.159 -0.9670 -0.3878 -1.9627
 3644TIP3   OH232566   0.838   5.813   8.760 -0.9695 -0.6002  0.1670
 3644TIP3    H132567   0.827   5.811   8.665 -2.9103 -3.6265  0.3110
 3644TIP3    H232568   0.788   5.890   8.788  1.6710  1.8314 -1.3089
 3645TIP3   OH232569   3.400   1.437   1.725 -0.7246 -1.0934 -0.2915
 3645TIP3    H132570   3.360   1.514   1.685 -1.0684 -0.3080  1.4722
 3645TIP3    H232571   3.487   1.466   1.752 -1.2201 -0.9677  1.2931
 3646TIP3   OH232572   0.402   2.270   8.271 -0.2505  0.1532 -0.1350
 3646TIP3    H132573   0.357   2.345   8.233 -0.5961  0.0401  0.0470
 3646TIP3    H232574   0.495   2.288   8.258 -0.3237  0.7014  0.0836
 3647TIP3   OH232575   5.932   5.092   3.125  0.2818 -0.3752 -0.3482
 3647TIP3    H132576   5.877   5.018   3.101  2.9519 -2.2762 -1.1351
 3647TIP3    H232577   5.917   5.105   3.219  0.1207 -2.2635 -0.0856
 3648TIP3   OH232578   6.759   0.362   2.219  0.3217  0.5601 -0.0757
 3648TIP3    H132579   6.842   0.393   2.255  1.2300 -0.3004 -1.3270
 3648TIP3    H232580   6.762   0.384   2.126 -1.3504  1.4771  0.0379
 3649TIP3   OH232581   3.964   5.375   3.364 -0.3257 -0.0348 -0.3741
 3649TIP3    H132582   4.003   5.299   3.405  0.6674  1.1042  0.8756
 3649TIP3    H232583   3.991   5.370   3.272  1.8685  0.1118  0.2106
 3650TIP3   OH232584   1.501   2.236   0.299  0.3911  0.3045 -0.4127
 3650TIP3    H132585   1.538   2.304   0.243 -2.3064  0.8586 -1.6842
 3650TIP3    H232586   1.489   2.161   0.241  0.5884 -0.2706  0.2687
 3651TIP3   OH232587   4.786   6.189   2.472  0.1189 -0.0698  1.2737
 3651TIP3    H132588   4.855   6.255   2.472  0.6804 -0.6183 -0.1231
 3651TIP3    H232589   4.829   6.108   2.444 -1.0384 -0.4445  0.4659
 3652TIP3   OH232590   6.230   2.341   1.496  0.1707  0.0110 -0.1628
 3652TIP3    H132591   6.189   2.278   1.555  1.2382  0.0584  0.6624
 3652TIP3    H232592   6.266   2.408   1.554 -0.3461  1.0308 -0.9871
 3653TIP3   OH232593   4.576   3.251   3.669 -0.2217  0.3133 -0.8552
 3653TIP3    H132594   4.558   3.326   3.725  0.0819  0.6492 -1.2006
 3653TIP3    H232595   4.646   3.204   3.714 -0.0592  0.5182 -0.8894
 3654TIP3   OH232596   6.538   0.181   2.092  0.3486 -1.0140 -0.2184
 3654TIP3    H132597   6.569   0.201   2.180 -0.8924  1.8541 -0.3250
 3654TIP3    H232598   6.597   0.229   2.034 -0.7832 -0.1707 -0.7198
 3655TIP3   OH232599   3.737   2.791   2.214 -0.7138  0.1773  0.3743
 3655TIP3    H132600   3.786   2.816   2.293  2.7916  0.1134 -1.5922
 3655TIP3    H232601   3.669   2.858   2.207 -0.0136  1.2145  2.4725
 3656TIP3   OH232602   3.960   1.290   2.683 -0.2033 -0.3187 -0.2804
 3656TIP3    H132603   3.873   1.278   2.645 -0.5752 -1.4878  0.8559
 3656TIP3    H232604   3.947   1.279   2.777  1.0253  0.4346  0.0012
 3657TIP3   OH232605   1.431   2.215   0.965 -0.1456 -0.2467  0.0920
 3657TIP3    H132606   1.517   2.184   0.937  0.8051  1.8855  0.4325
 3657TIP3    H232607   1.392   2.141   1.012  1.1980 -1.4767 -0.6717
 3658TIP3   OH232608   1.791   0.328   8.702  0.0215  0.4147  0.3741
 3658TIP3    H132609   1.718   0.343   8.762  0.2277  0.1096  0.7065
 3658TIP3    H232610   1.751   0.292   8.623 -0.3192  1.3540  0.1024
 3659TIP3   OH232611   1.815   0.659   0.689  0.0646 -0.8463  0.1612
 3659TIP3    H132612   1.782   0.654   0.600 -0.4252 -1.4667  0.3688
 3659TIP3    H232613   1.762   0.726   0.731  0.4570 -0.3838 -0.0776
 3660TIP3   OH232614   5.492   2.921   2.619  0.4540 -0.7960  0.6079
 3660TIP3    H132615   5.448   2.973   2.552  1.4875  0.7031  1.0510
 3660TIP3    H232616   5.489   2.831   2.585 -0.6947 -0.3490 -0.5411
 3661TIP3   OH232617   6.320   1.407   1.623 -0.6847 -0.3311  0.2147
 3661TIP3    H132618   6.415   1.404   1.611 -0.8619  0.4492 -1.9022
 3661TIP3    H232619   6.297   1.322   1.661  0.6928 -1.2356 -0.8839
 3662TIP3   OH232620   5.793   1.450   2.671 -0.1490  0.6965 -0.1997
 3662TIP3    H132621   5.766   1.415   2.756 -0.5520 -0.9233 -0.9491
 3662TIP3    H232622   5.874   1.497   2.689  1.7797 -2.5996  0.5997
 3663TIP3   OH232623   3.303   6.705   8.872 -0.5524  0.6136 -0.0058
 3663TIP3    H132624   3.281   6.619   8.908 -0.4552  0.7323  0.3408
 3663TIP3    H232625   3.283   6.698   8.779 -1.8568  0.6526  0.2529
 3664TIP3   OH232626   4.078   0.655   3.504  0.3001  0.2845 -0.2675
 3664TIP3    H132627   4.093   0.743   3.539 -1.0734  0.2868  0.3787
 3664TIP3    H232628   4.082   0.598   3.581  2.3814 -0.4262 -0.8292
 3665TIP3   OH232629   0.170   4.058   0.023  0.0097 -0.3229  0.7316
 3665TIP3    H132630   0.247   4.109  -0.003 -0.3792 -0.0577  0.0996
 3665TIP3    H232631   0.154   4.000  -0.051  0.0573 -0.9184  1.1826
 3666TIP3   OH232632   0.018   4.568   2.939 -0.8558 -0.1804  0.2535
 3666TIP3    H132633  -0.064   4.607   2.907 -0.7971  0.8561  1.2906
 3666TIP3    H232634  -0.010   4.492   2.990 -1.0565 -0.7825 -0.7291
 3667TIP3   OH232635   1.775   3.908   0.194 -0.1569 -0.3875  0.6793
 3667TIP3    H132636   1.690   3.871   0.171 -0.9492  0.1912  2.4813
 3667TIP3    H232637   1.788   3.980   0.132 -1.1729 -0.2216  0.6489
 3668TIP3   OH232638   1.125   2.113   0.795  0.2347 -0.0136  0.6197
 3668TIP3    H132639   1.064   2.070   0.736  0.1744  0.7593  0.0996
 3668TIP3    H232640   1.168   2.042   0.842  1.1229 -0.7258 -1.1709
 3669TIP3   OH232641   3.152   4.098   8.480  0.6593 -0.1184 -0.2756
 3669TIP3    H132642   3.063   4.083   8.511 -0.2066  1.2499 -1.9456
 3669TIP3    H232643   3.167   4.027   8.417  0.9065 -0.5785  0.2985
 3670TIP3   OH232644   4.347   1.140   0.204 -0.3922 -0.0742 -0.2319
 3670TIP3    H132645   4.252   1.125   0.200 -0.7960  1.7679  1.0333
 3670TIP3    H232646   4.359   1.226   0.165  0.7388 -0.1607 -0.0959
 3671TIP3   OH232647   0.406   1.196   0.593 -0.2039 -0.1469 -0.4076
 3671TIP3    H132648   0.494   1.204   0.558  0.0063 -0.7315 -0.0300
 3671TIP3    H232649   0.349   1.223   0.521  0.3009  0.8703 -0.4349
 3672TIP3   OH232650   0.593   5.727   8.066  0.5913 -0.8628 -0.3936
 3672TIP3    H132651   0.672   5.736   8.013 -0.0337  4.1165 -0.9586
 3672TIP3    H232652   0.522   5.723   8.002  0.1468  0.3503 -0.0193
 3673TIP3   OH232653   5.484   5.965   3.989 -0.1520  0.1484 -0.0414
 3673TIP3    H132654   5.475   5.875   4.023 -0.2543  0.4576  0.7713
 3673TIP3    H232655   5.553   5.958   3.923 -0.6994 -0.6794 -0.5552
 3674TIP3   OH232656   5.382   3.385   1.345  0.2784 -0.1756 -0.0946
 3674TIP3    H132657   5.410   3.298   1.317  0.5235  0.1817 -0.9979
 3674TIP3    H232658   5.289   3.389   1.322  0.1171 -0.4223  0.5146
 3675TIP3   OH232659   4.418   5.376   8.340  0.3862  0.4764 -0.0001
 3675TIP3    H132660   4.340   5.431   8.345 -0.4532 -0.5111 -1.5327
 3675TIP3    H232661   4.472   5.416   8.272  0.2104 -0.0245 -0.4466
 3676TIP3   OH232662   4.849   0.091   2.107 -0.0566 -0.2036  0.0260
 3676TIP3    H132663   4.939   0.096   2.140  0.3163  0.4341 -1.0358
 3676TIP3    H232664   4.851   0.137   2.023 -0.6780 -2.8393 -1.5480
 3677TIP3   OH232665   1.482   3.527   3.230  0.1877 -0.2205 -0.3488
 3677TIP3    H132666   1.548   3.476   3.277 -0.2687 -0.0651  0.4768
 3677TIP3    H232667   1.416   3.463   3.204 -0.4479 -0.0499  0.7973
 3678TIP3   OH232668   2.895   4.067   8.542  0.5603 -0.6792 -0.2564
 3678TIP3    H132669   2.880   4.131   8.611 -2.1970  1.3252 -2.4865
 3678TIP3    H232670   2.889   3.982   8.586 -0.7323  0.4881  1.9970
 3679TIP3   OH232671   6.562   3.647   2.649  0.1564 -0.3838 -0.2128
 3679TIP3    H132672   6.618   3.575   2.620 -0.8840 -0.8931 -1.0272
 3679TIP3    H232673   6.575   3.650   2.744  0.5049 -1.3887 -0.2148
 3680TIP3   OH232674   0.370   1.208   0.882 -0.0685  0.2715 -0.1277
 3680TIP3    H132675   0.384   1.219   0.787  2.4647  2.9017  0.3923
 3680TIP3    H232676   0.328   1.290   0.909  1.2374  0.5014  1.2961
 3681TIP3   OH232677   3.959   6.292   3.198 -0.3193  0.3071 -0.8966
 3681TIP3    H132678   3.939   6.359   3.133 -0.6830 -1.4077 -2.6416
 3681TIP3    H232679   3.906   6.217   3.172  0.8110 -1.0004  0.4130
 3682TIP3   OH232680   5.627   5.591   3.311 -0.6768 -0.2275  0.5333
 3682TIP3    H132681   5.709   5.604   3.263 -1.0901 -0.5377 -0.2931
 3682TIP3    H232682   5.627   5.498   3.333 -1.0304 -0.3361  0.0903
 3683TIP3   OH232683   6.179   1.342   0.733 -0.4702  0.5845 -0.1196
 3683TIP3    H132684   6.144   1.317   0.818 -2.1821  1.1795 -0.6057
 3683TIP3    H232685   6.189   1.259   0.686  1.1009  0.1949  0.8512
 3684TIP3   OH232686   3.859   6.778   2.125 -0.3385  0.3676 -0.1826
 3684TIP3    H132687   3.852   6.700   2.180 -1.7379  0.0203 -0.8125
 3684TIP3    H232688   3.947   6.773   2.088 -0.3070 -0.7735  0.0079
 3685TIP3   OH232689   4.877   1.293   1.729  0.3226 -0.5811 -0.0544
 3685TIP3    H132690   4.872   1.364   1.665  0.4021 -1.2380 -0.8110
 3685TIP3    H232691   4.923   1.223   1.683  1.9414 -0.4673  1.3030
 3686TIP3   OH232692   5.897   4.521   2.944  0.0899 -0.1938 -0.0294
 3686TIP3    H132693   5.852   4.532   2.860  0.1986  0.3292 -0.0222
 3686TIP3    H232694   5.979   4.569   2.933  0.0206  0.0326  0.4427
 3687TIP3   OH232695   4.713   3.231   8.892  0.0689  0.0855 -0.5423
 3687TIP3    H132696   4.729   3.319   8.927 -1.4345  0.0886  0.2468
 3687TIP3    H232697   4.620   3.232   8.868  0.2204 -1.0585 -1.2337
 3688TIP3   OH232698   4.057   3.216   8.467  0.0659  0.2552 -0.1336
 3688TIP3    H132699   4.032   3.308   8.471  0.0955  0.2358  0.9996
 3688TIP3    H232700   4.126   3.207   8.533 -0.1494 -0.6308 -0.0046
 3689TIP3   OH232701   3.757   0.463   3.867 -0.1719  0.0531 -0.1102
 3689TIP3    H132702   3.678   0.510   3.893 -1.2533  0.0034 -2.9286
 3689TIP3    H232703   3.826   0.529   3.865 -1.1568  1.0854 -1.7780
 3690TIP3   OH232704   3.337   5.741   3.178 -0.0603  0.3106  0.2323
 3690TIP3    H132705   3.264   5.748   3.116  0.2111 -0.8284 -0.2362
 3690TIP3    H232706   3.413   5.769   3.127  0.3477 -1.6978 -0.3432
 3691TIP3   OH232707   3.195   3.189   1.685  0.1040  0.0566  0.2530
 3691TIP3    H132708   3.159   3.166   1.599 -1.9496  1.9347  0.5069
 3691TIP3    H232709   3.197   3.107   1.733 -0.8190 -0.6665 -0.8832
 3692TIP3   OH232710   2.661   5.643   0.231 -0.1671 -0.5049 -0.7730
 3692TIP3    H132711   2.658   5.671   0.140  0.0534  0.7658 -0.4068
 3692TIP3    H232712   2.744   5.596   0.239 -0.0368 -0.3424 -1.1459
 3693TIP3   OH232713   0.769   2.320   2.551  0.1534  0.1472  0.3059
 3693TIP3    H132714   0.813   2.276   2.624  0.5778  0.8832  0.5084
 3693TIP3    H232715   0.798   2.273   2.473  0.7578  0.1882  0.5021
 3694TIP3   OH232716   0.987   0.638   0.061 -0.0439  0.1930  0.4478
 3694TIP3    H132717   1.046   0.702   0.022 -0.5333  0.5998  0.3643
 3694TIP3    H232718   0.899   0.667   0.035 -0.2169 -1.1308 -0.4984
 3695TIP3   OH232719   1.372   3.665   8.687 -0.3069  0.3500 -0.0521
 3695TIP3    H132720   1.310   3.677   8.760  0.3674 -0.0892  0.6095
 3695TIP3    H232721   1.419   3.748   8.681 -1.4039  0.9259 -0.9979
 3696TIP3   OH232722   5.619   0.521   1.653 -0.0505 -0.0067 -0.2019
 3696TIP3    H132723   5.538   0.490   1.692 -0.8747  0.8959 -1.1299
 3696TIP3    H232724   5.673   0.443   1.643 -1.1095 -0.7414 -0.2651
 3697TIP3   OH232725   0.211   1.131   8.132  0.4148 -0.1086 -0.5508
 3697TIP3    H132726   0.277   1.198   8.112  0.2541  0.4553  0.7371
 3697TIP3    H232727   0.243   1.089   8.212  0.0686 -1.0025 -0.8679
 3698TIP3   OH232728   6.244   1.923   1.106 -0.0336  0.2314  0.0143
 3698TIP3    H132729   6.249   1.952   1.197 -1.9906 -1.6423  0.8224
 3698TIP3    H232730   6.262   1.829   1.110 -0.7886  0.0026 -1.4248
 3699TIP3   OH232731   5.790   5.906   2.199 -0.0356 -0.2374 -0.6132
 3699TIP3    H132732   5.714   5.851   2.216 -0.2912 -0.1936 -1.5296
 3699TIP3    H232733   5.799   5.961   2.277 -1.5567  0.4620 -0.8893
 3700TIP3   OH232734   1.471   5.489   0.827 -0.2013  0.4147 -0.1226
 3700TIP3    H132735   1.504   5.558   0.769  0.0372 -1.9068 -2.9831
 3700TIP3    H232736   1.385   5.466   0.791 -0.3113 -0.7497  0.8175
 3701TIP3   OH232737   0.569   5.003   1.692 -0.0874 -0.4288  0.1679
 3701TIP3    H132738   0.498   5.058   1.725  1.0629  1.1116  0.2061
 3701TIP3    H232739   0.623   4.985   1.769  0.4488 -0.1809 -0.1443
 3702TIP3   OH232740   4.706   6.573   3.954 -0.7955  0.2113  1.0324
 3702TIP3    H132741   4.649   6.591   3.880 -1.7523 -0.6338  1.5366
 3702TIP3    H232742   4.647   6.562   4.028  0.1187  0.6664  1.8569
 3703TIP3   OH232743   2.067   1.814   1.481 -0.0349  0.9467  0.0836
 3703TIP3    H132744   2.052   1.792   1.389  1.6453 -0.0412  0.0156
 3703TIP3    H232745   2.025   1.744   1.530  0.5278  0.5558  0.0134
 3704TIP3   OH232746   5.892   4.498   1.029  0.2874  0.0262  0.4964
 3704TIP3    H132747   5.920   4.480   1.119 -0.6870  0.5525  0.9093
 3704TIP3    H232748   5.809   4.452   1.020  0.7052 -0.5939 -0.3711
 3705TIP3   OH232749   0.469   4.841   0.982 -0.8091  0.6154  0.1971
 3705TIP3    H132750   0.438   4.768   0.927  2.0134 -0.2642 -0.4149
 3705TIP3    H232751   0.467   4.806   1.071  0.4977 -0.3090 -0.0876
 3706TIP3   OH232752   1.770   1.070   2.231  0.1530 -0.6242  0.7059
 3706TIP3    H132753   1.792   0.985   2.270 -1.2674 -1.2946  0.1008
 3706TIP3    H232754   1.803   1.065   2.142  0.0972 -0.5252  0.6796
 3707TIP3   OH232755   4.242   0.197   0.987 -0.1492  0.0549 -0.0030
 3707TIP3    H132756   4.257   0.218   0.895  1.3930 -0.0507  0.2010
 3707TIP3    H232757   4.278   0.109   0.999 -0.2713  0.0895  0.7123
 3708TIP3   OH232758   1.204   4.192   2.153 -0.5351  0.0866  0.3588
 3708TIP3    H132759   1.134   4.252   2.180 -0.1902  0.7367 -0.1581
 3708TIP3    H232760   1.164   4.105   2.158 -1.9775  0.5557 -1.6629
 3709TIP3   OH232761   1.366   2.659   1.140 -0.6024  0.2268 -0.1319
 3709TIP3    H132762   1.299   2.712   1.185 -2.1334 -0.6952 -1.2103
 3709TIP3    H232763   1.315   2.593   1.093  1.0253  0.1311 -1.8573
 3710TIP3   OH232764   5.595   1.670   1.496 -0.3024  0.7254 -0.7406
 3710TIP3    H132765   5.514   1.666   1.445 -1.3117  1.1079  0.7664
 3710TIP3    H232766   5.663   1.639   1.436 -1.6025  0.1139 -1.9496
 3711TIP3   OH232767   3.205   4.322   2.107  0.3154  0.3574  0.6557
 3711TIP3    H132768   3.128   4.375   2.129  0.1101 -0.0890  1.0460
 3711TIP3    H232769   3.264   4.382   2.063 -0.9166  0.3719 -1.0999
 3712TIP3   OH232770   5.435   1.647   1.271 -0.3065 -0.2075  0.1822
 3712TIP3    H132771   5.438   1.682   1.182  0.7844 -4.2201 -1.6026
 3712TIP3    H232772   5.342   1.631   1.288 -0.6957  2.1739  0.5807
 3713TIP3   OH232773   6.191   6.250   1.735 -0.8083  0.7956  0.0710
 3713TIP3    H132774   6.184   6.263   1.641 -0.6596  0.6764  0.0432
 3713TIP3    H232775   6.114   6.294   1.771 -1.9979 -0.9104 -0.2741
 3714TIP3   OH232776   1.049   5.091   0.821 -0.4837  0.5749  0.2727
 3714TIP3    H132777   0.999   5.124   0.896  1.3752  1.0520  1.3678
 3714TIP3    H232778   1.124   5.150   0.815 -0.9625  1.0491 -2.5214
 3715TIP3   OH232779   0.612   1.356   2.671  0.2934  0.1075 -0.2524
 3715TIP3    H132780   0.534   1.306   2.695 -0.0272  1.3007  1.3447
 3715TIP3    H232781   0.581   1.421   2.608 -0.3203  1.4065  1.3265
 3716TIP3   OH232782   4.868   2.776   2.960 -0.3577 -0.4209 -0.0263
 3716TIP3    H132783   4.948   2.753   2.912 -1.8644 -2.1688 -1.8699
 3716TIP3    H232784   4.842   2.860   2.924 -0.3423 -0.7360 -0.8003
 3717TIP3   OH232785   5.077   6.463   3.181 -0.0545  0.1391  0.6439
 3717TIP3    H132786   4.995   6.476   3.133  0.6148 -0.4298 -0.7189
 3717TIP3    H232787   5.125   6.398   3.130  1.0951  0.1805  1.6133
 3718TIP3   OH232788   1.061   3.355   1.008 -0.3235  0.4949 -0.0420
 3718TIP3    H132789   1.042   3.355   0.914 -0.7390 -1.3378  0.0056
 3718TIP3    H232790   1.148   3.317   1.016 -0.9227 -0.8751  0.3747
 3719TIP3   OH232791   5.481   3.267   1.736 -0.1482 -0.5561 -0.2933
 3719TIP3    H132792   5.514   3.207   1.803 -2.1861 -0.4556  0.8623
 3719TIP3    H232793   5.414   3.217   1.690 -0.7672  0.3253 -0.3677
 3720TIP3   OH232794   6.201   2.222   3.193 -0.1683  0.0416  0.5105
 3720TIP3    H132795   6.166   2.300   3.150 -0.5021 -0.4017 -0.0204
 3720TIP3    H232796   6.128   2.160   3.194 -0.2210  0.0926  1.8543
 3721TIP3   OH232797   2.375   4.940   3.374 -0.2073  0.2261 -0.3205
 3721TIP3    H132798   2.356   4.991   3.453  1.4229  1.0727 -0.4251
 3721TIP3    H232799   2.470   4.933   3.372 -0.3580 -2.5267 -0.5596
 3722TIP3   OH232800   0.797   3.331   2.162 -0.0838 -0.3803 -0.3658
 3722TIP3    H132801   0.828   3.277   2.235  0.7833 -1.5841 -1.5944
 3722TIP3    H232802   0.825   3.420   2.185 -2.7817 -0.0528  2.4037
 3723TIP3   OH232803   3.028   0.312   3.373 -0.6565 -0.0327  0.5548
 3723TIP3    H132804   2.978   0.256   3.314 -0.3253  1.3185 -1.0709
 3723TIP3    H232805   3.045   0.257   3.449 -1.0678 -1.8461 -0.6065
 3724TIP3   OH232806   5.238   2.853   2.049  1.2795 -0.4031 -0.2203
 3724TIP3    H132807   5.272   2.784   1.992  0.6315 -0.9476  0.0364
 3724TIP3    H232808   5.287   2.843   2.131  0.9292 -0.7968 -0.0580
 3725TIP3   OH232809   5.343   3.137   0.867 -0.0949  0.5200 -0.0288
 3725TIP3    H132810   5.259   3.174   0.896 -0.6224 -0.3133 -0.4240
 3725TIP3    H232811   5.406   3.207   0.881 -0.6476  0.7825  1.3543
 3726TIP3   OH232812   4.921   1.722   3.645 -0.3076  0.8604  0.0304
 3726TIP3    H132813   4.947   1.755   3.559  2.0718 -0.6109  0.1197
 3726TIP3    H232814   4.826   1.711   3.639 -0.3591  1.9929 -1.9529
 3727TIP3   OH232815   2.923   5.182   1.093 -0.6059 -0.4700  0.6240
 3727TIP3    H132816   2.835   5.146   1.104 -0.6089 -0.0685  2.2184
 3727TIP3    H232817   2.909   5.276   1.082 -0.3742 -0.3726  1.1341
 3728TIP3   OH232818   2.256   3.831   0.367 -0.7542  0.2299  0.6500
 3728TIP3    H132819   2.187   3.788   0.316 -1.1611  1.7476 -0.1391
 3728TIP3    H232820   2.209   3.877   0.437 -0.7297  2.3886 -0.6853
 3729TIP3   OH232821   3.001   4.979   8.613 -0.0421 -0.1522 -0.4530
 3729TIP3    H132822   2.910   4.993   8.585 -0.5479 -1.2542  0.5695
 3729TIP3    H232823   3.018   4.888   8.592  0.0683 -0.5852  1.4058
 3730TIP3   OH232824   5.383   6.569   0.837 -0.0689 -0.1916 -0.2168
 3730TIP3    H132825   5.421   6.545   0.921 -0.6881 -0.4126  0.0006
 3730TIP3    H232826   5.365   6.663   0.844 -2.1381 -0.6037  0.7160
 3731TIP3   OH232827   0.254   4.568   2.817  0.0261 -0.4460  0.2271
 3731TIP3    H132828   0.275   4.484   2.776 -1.7708 -0.3515 -0.9835
 3731TIP3    H232829   0.177   4.550   2.871 -0.6038  0.4758 -0.3391
 3732TIP3   OH232830   6.616   6.445   1.411  0.0965  0.1344  0.2590
 3732TIP3    H132831   6.569   6.382   1.358  2.4446 -1.3213 -0.2418
 3732TIP3    H232832   6.709   6.421   1.401  0.9824  2.7920  1.1926
 3733TIP3   OH232833   2.975   6.056   0.866 -0.0401 -0.4995  0.0427
 3733TIP3    H132834   2.952   6.148   0.852 -0.1711 -0.2712  1.5720
 3733TIP3    H232835   2.900   6.020   0.913  0.3741 -1.1656  0.2075
 3734TIP3   OH232836   3.362   4.381   0.107 -0.0587 -1.0536  0.3771
 3734TIP3    H132837   3.316   4.374   0.190  0.9002 -1.2908  0.9002
 3734TIP3    H232838   3.367   4.291   0.074 -0.4835 -0.9543  0.0323
 3735TIP3   OH232839   1.734   1.885   3.468  0.5311 -0.5747  0.0432
 3735TIP3    H132840   1.810   1.933   3.500  0.2903 -1.1889  1.6427
 3735TIP3    H232841   1.767   1.797   3.451  0.0152 -1.1445  1.7606
 3736TIP3   OH232842   0.439   3.324   3.359 -0.0886 -0.1228 -0.1687
 3736TIP3    H132843   0.420   3.307   3.266 -0.0659 -0.9923 -0.0208
 3736TIP3    H232844   0.520   3.376   3.357  0.2607 -0.6642 -0.6193
 3737TIP3   OH232845   1.895   5.503   3.303  0.2164  0.0652  0.5475
 3737TIP3    H132846   1.929   5.588   3.276  1.6031 -0.8497 -0.7958
 3737TIP3    H232847   1.834   5.478   3.233 -1.4015  0.5989  1.7135
 3738TIP3   OH232848   4.646   1.341   0.463  0.2219  0.1697  0.4957
 3738TIP3    H132849   4.639   1.302   0.376  1.1085  1.2711 -0.1105
 3738TIP3    H232850   4.729   1.307   0.498  0.7290  1.0225  0.1817
 3739TIP3   OH232851   4.264   6.634   2.543 -0.9216 -0.2513 -0.5206
 3739TIP3    H132852   4.247   6.540   2.536 -1.6084 -0.2953  1.1773
 3739TIP3    H232853   4.328   6.642   2.613  0.3372  0.4793 -1.7051
 3740TIP3   OH232854   4.724   5.506   8.818 -0.2277 -0.0423  0.6824
 3740TIP3    H132855   4.746   5.447   8.890  0.5038 -1.1157 -0.3951
 3740TIP3    H232856   4.643   5.471   8.782  1.0871 -1.4574 -1.0336
 3741TIP3   OH232857   6.012   6.175   3.149 -0.1227 -0.0563  0.1145
 3741TIP3    H132858   5.917   6.187   3.144 -0.2907 -1.4392 -0.5690
 3741TIP3    H232859   6.044   6.252   3.196 -1.5686  0.4767  0.2680
 3742TIP3   OH232860   6.316   2.276   0.389  0.0032  0.4601  0.1443
 3742TIP3    H132861   6.273   2.231   0.461  0.5823 -0.6188 -0.1577
 3742TIP3    H232862   6.329   2.208   0.323  3.1149  0.4277  0.6363
 3743TIP3   OH232863   4.146   0.879   3.737 -0.1541  0.4191 -0.7451
 3743TIP3    H132864   4.200   0.945   3.692  0.9181 -0.7570 -1.2704
 3743TIP3    H232865   4.167   0.890   3.829 -1.9750  2.5132 -0.4982
 3744TIP3   OH232866   5.033   0.185   2.602 -0.4030  0.8881  0.8065
 3744TIP3    H132867   5.044   0.093   2.576 -0.1385  1.5244 -1.6357
 3744TIP3    H232868   4.945   0.208   2.573 -0.0493  1.6864  0.3066
 3745TIP3   OH232869   5.093   5.276   2.548 -0.3175  0.4471 -0.2584
 3745TIP3    H132870   5.124   5.363   2.525  0.2043  0.2654 -0.2593
 3745TIP3    H232871   5.136   5.218   2.485 -2.9842  0.4479 -2.2898
 3746TIP3   OH232872   4.695   0.133   2.940 -0.5173  0.0562  0.3214
 3746TIP3    H132873   4.734   0.096   3.019 -0.8535  0.4675  0.6808
 3746TIP3    H232874   4.620   0.077   2.922 -0.6187  0.1481  0.4647
 3747TIP3   OH232875   1.119   0.458   0.608  0.2016  0.2010 -0.8111
 3747TIP3    H132876   1.106   0.443   0.701 -1.5276 -0.6067 -1.1386
 3747TIP3    H232877   1.095   0.550   0.595  1.0773  0.4998 -0.3726
 3748TIP3   OH232878   6.177   3.077   1.601 -0.0736 -0.0841 -0.5609
 3748TIP3    H132879   6.264   3.084   1.641 -0.0190 -1.0151 -0.4812
 3748TIP3    H232880   6.140   2.998   1.640 -0.2978 -0.6196 -1.8199
 3749TIP3   OH232881   3.140   2.233   0.639  0.6776  0.2088  0.0291
 3749TIP3    H132882   3.188   2.179   0.702  1.3555 -0.0281 -0.6773
 3749TIP3    H232883   3.208   2.266   0.580 -0.2127 -1.7942 -2.2521
 3750TIP3   OH232884   4.756   3.517   3.243  0.0928  0.4442  0.5235
 3750TIP3    H132885   4.822   3.586   3.235  0.5638  0.0245  0.7598
 3750TIP3    H232886   4.752   3.477   3.156 -0.7134  1.2399  0.1789
 3751TIP3   OH232887   3.269   0.657   3.434  0.0407 -0.6018 -0.2483
 3751TIP3    H132888   3.351   0.690   3.398  0.0128 -1.6475 -1.3280
 3751TIP3    H232889   3.208   0.731   3.428  1.2916  0.7603  2.1712
 3752TIP3   OH232890   5.887   2.791   0.642  0.1444  0.1436  0.2242
 3752TIP3    H132891   5.945   2.861   0.613  0.3290 -0.3235 -0.5496
 3752TIP3    H232892   5.809   2.798   0.587 -0.5611  0.7737  1.2633
 3753TIP3   OH232893   0.641   0.127   1.714 -0.4936 -0.0191 -0.2272
 3753TIP3    H132894   0.715   0.080   1.753 -1.8066 -1.8308  0.1768
 3753TIP3    H232895   0.681   0.181   1.645  0.9502 -3.6064 -2.5170
 3754TIP3   OH232896   6.201   0.260   1.423 -0.5943 -0.2200 -0.6924
 3754TIP3    H132897   6.264   0.229   1.487 -1.3640 -1.0547 -0.3208
 3754TIP3    H232898   6.174   0.182   1.376 -2.5102 -0.1670  0.2153
 3755TIP3   OH232899   4.082   6.152   8.493 -0.3132 -0.4080 -0.2740
 3755TIP3    H132900   4.015   6.177   8.556  0.1333 -0.1614  0.1071
 3755TIP3    H232901   4.062   6.206   8.415  0.8109  1.4284  0.6317
 3756TIP3   OH232902   5.058   4.964   0.621 -0.2750 -0.3209 -0.9451
 3756TIP3    H132903   5.121   4.900   0.586 -0.7852 -1.0133 -0.6176
 3756TIP3    H232904   4.988   4.911   0.658  0.1253  0.3710  0.9505
 3757TIP3   OH232905   0.053   3.089   3.701  0.3324  0.1593  0.6437
 3757TIP3    H132906  -0.021   3.147   3.684 -0.5122 -0.9662  0.3674
 3757TIP3    H232907   0.017   3.020   3.756  1.5764  0.4500  1.8660
 3758TIP3   OH232908   5.291   3.419   1.955  0.2234  0.2131  0.1148
 3758TIP3    H132909   5.275   3.328   1.931 -1.6262 -0.7578  4.1995
 3758TIP3    H232910   5.381   3.420   1.986  0.4382 -0.0721 -0.4817
 3759TIP3   OH232911   3.189   3.422   1.408 -0.4021 -0.6701  0.5541
 3759TIP3    H132912   3.128   3.473   1.461 -1.1753 -0.4229 -0.5243
 3759TIP3    H232913   3.163   3.331   1.422 -0.9297 -0.5769  0.2320
 3760TIP3   OH232914   1.873   1.098   0.657 -0.1449 -0.4908  0.4084
 3760TIP3    H132915   1.903   1.124   0.744 -0.9877 -1.2358  0.9465
 3760TIP3    H232916   1.937   1.032   0.628  1.0240  0.8802 -0.2305
 3761TIP3   OH232917   4.396   1.663   8.638 -0.5654 -0.0047  0.0467
 3761TIP3    H132918   4.370   1.695   8.551  1.7724  0.2466 -0.6277
 3761TIP3    H232919   4.491   1.657   8.634 -0.2128  1.5687  3.1458
 3762TIP3   OH232920   5.514   5.343   3.095  0.3572 -0.2315  0.0548
 3762TIP3    H132921   5.542   5.345   3.004  0.4386 -1.6020  0.0355
 3762TIP3    H232922   5.590   5.313   3.144  0.4726  0.9642  0.6605
 3763TIP3   OH232923   4.393   4.879   8.511  0.0648  0.4790  0.0064
 3763TIP3    H132924   4.347   4.949   8.465  1.4550  1.0793 -0.5048
 3763TIP3    H232925   4.338   4.802   8.497 -0.6009  1.0929 -0.8780
 3764TIP3   OH232926   0.081   4.171   2.890  0.1634  0.4547 -0.4733
 3764TIP3    H132927   0.016   4.101   2.881 -0.2676  1.0995 -2.9928
 3764TIP3    H232928   0.040   4.234   2.949  0.9408 -1.7086  2.6757
 3765TIP3   OH232929   1.261   4.384   2.762 -0.3901 -0.7484  0.7805
 3765TIP3    H132930   1.213   4.420   2.688 -2.2956  0.0472  2.3032
 3765TIP3    H232931   1.353   4.401   2.742 -0.8316 -0.6179 -1.3838
 3766TIP3   OH232932   2.302   4.282   2.801 -0.3662  0.1193  0.7165
 3766TIP3    H132933   2.222   4.233   2.784  1.4450 -2.4032 -1.2469
 3766TIP3    H232934   2.333   4.308   2.714  1.4385  0.2062  1.3493
 3767TIP3   OH232935   4.718   5.337   2.842  0.3026 -0.2269 -0.2782
 3767TIP3    H132936   4.701   5.244   2.856  1.2793 -0.6945 -1.9036
 3767TIP3    H232937   4.813   5.342   2.825  0.8558  1.4593  2.5639
 3768TIP3   OH232938   3.832   6.428   0.376  0.2432  0.3551 -0.3586
 3768TIP3    H132939   3.761   6.465   0.429  0.4240  0.9375 -0.5061
 3768TIP3    H232940   3.806   6.338   0.358  1.6183 -1.0043  3.4480
 3769TIP3   OH232941   0.397   3.304   2.549  0.0896 -0.6413  0.0734
 3769TIP3    H132942   0.417   3.283   2.640  0.5982  0.9578  0.3712
 3769TIP3    H232943   0.317   3.356   2.553  0.1310 -0.5357 -0.3807
 3770TIP3   OH232944   4.462   5.842   8.715  0.0102  0.6049 -0.4137
 3770TIP3    H132945   4.476   5.863   8.807  2.2439  0.8345 -0.7477
 3770TIP3    H232946   4.379   5.884   8.693 -1.1089 -0.3144  1.7215
 3771TIP3   OH232947   0.678   3.265   3.837 -0.5949  0.1967 -0.1163
 3771TIP3    H132948   0.634   3.218   3.765 -2.0460  0.9881  0.2297
 3771TIP3    H232949   0.685   3.355   3.806  0.6196  0.1476 -0.0587
 3772TIP3   OH232950   3.973   1.578   7.956 -0.0436 -0.0591  0.1213
 3772TIP3    H132951   3.928   1.639   7.897  1.2692  0.3561 -0.4804
 3772TIP3    H232952   3.987   1.628   8.036  1.1508  0.4951 -0.4194
 3773TIP3   OH232953   5.968   6.790   2.358 -0.5887  0.0835 -0.1968
 3773TIP3    H132954   5.927   6.873   2.336 -0.2230  0.1405 -0.6796
 3773TIP3    H232955   6.028   6.811   2.430  0.2330  0.4437 -0.9666
 3774TIP3   OH232956   4.859   1.858   8.578 -0.1573 -0.2962  0.4867
 3774TIP3    H132957   4.937   1.914   8.578  0.9007 -1.6758  2.0356
 3774TIP3    H232958   4.867   1.806   8.498 -0.1999  0.4702 -0.0321
 3775TIP3   OH232959   3.126   0.408   2.257  0.1221 -0.8739  0.3177
 3775TIP3    H132960   3.105   0.343   2.189 -0.8394 -1.2982  0.9999
 3775TIP3    H232961   3.115   0.361   2.339  0.5203 -0.1469  0.7965
 3776TIP3   OH232962   3.059   6.367   2.513  0.5398 -0.0737 -0.0345
 3776TIP3    H132963   3.079   6.354   2.605 -0.4165  1.4949  0.4321
 3776TIP3    H232964   3.071   6.461   2.498 -0.2552 -0.1348 -1.2585
 3777TIP3   OH232965   6.347   2.199   0.817 -0.2846  0.4842 -0.5016
 3777TIP3    H132966   6.430   2.205   0.770  1.2635 -0.3913  1.9399
 3777TIP3    H232967   6.280   2.198   0.748  1.7719  0.0278 -2.6066
 3778TIP3   OH232968   1.525   0.849   2.179 -0.3361  0.4899 -0.1116
 3778TIP3    H132969   1.559   0.879   2.263 -0.4526 -1.9029  0.8671
 3778TIP3    H232970   1.593   0.791   2.145 -1.4700 -0.8089 -0.2723
 3779TIP3   OH232971   4.599   1.850   3.829 -0.0302  0.2175  0.2603
 3779TIP3    H132972   4.552   1.883   3.906 -1.0618 -0.0281 -0.2482
 3779TIP3    H232973   4.641   1.770   3.860 -1.2916 -0.4408  0.3149
 3780TIP3   OH232974   3.258   6.208   0.076  0.3900  1.0026  0.1229
 3780TIP3    H132975   3.222   6.269   0.141 -1.6468  2.7989 -2.4560
 3780TIP3    H232976   3.253   6.122   0.118 -0.0606  2.1411  2.5984
 3781TIP3   OH232977   0.568   3.010   1.582 -0.2629 -0.2196 -0.4691
 3781TIP3    H132978   0.633   2.945   1.611 -1.9363 -2.2962 -1.0797
 3781TIP3    H232979   0.607   3.094   1.604  2.1092 -1.3994  0.2502
 3782TIP3   OH232980   3.799   4.192   1.018 -0.0846  0.3886  0.5549
 3782TIP3    H132981   3.878   4.157   0.976 -1.5814 -1.5998 -0.8208
 3782TIP3    H232982   3.779   4.272   0.969 -0.7456 -0.9066 -1.4209
 3783TIP3   OH232983   5.114   5.115   0.838 -0.4634  0.8104 -0.3053
 3783TIP3    H132984   5.019   5.105   0.839 -0.4030 -0.7446 -2.4301
 3783TIP3    H232985   5.143   5.063   0.763  2.1835  0.3449  0.9173
 3784TIP3   OH232986   3.665   3.259   1.626  0.1817  0.3750  0.8531
 3784TIP3    H132987   3.691   3.256   1.534 -0.8897 -0.2446  0.5586
 3784TIP3    H232988   3.575   3.289   1.624  0.4367  1.2441  1.7737
 3785TIP3   OH232989   6.743   6.402   0.825  0.3099  0.4876  0.2235
 3785TIP3    H132990   6.727   6.398   0.920  0.1174  0.2758  0.1815
 3785TIP3    H232991   6.738   6.311   0.796  1.5379  0.4120  0.2047
 3786TIP3   OH232992   0.761   4.565   1.316  0.1195 -0.4170  0.7422
 3786TIP3    H132993   0.734   4.503   1.384  0.7104 -0.0008  1.3700
 3786TIP3    H232994   0.812   4.513   1.254  3.2167 -0.1250  2.7866
 3787TIP3   OH232995   6.221   1.884   3.085 -0.6967  0.3222  0.1361
 3787TIP3    H132996   6.145   1.913   3.135 -0.7289  0.2270  0.1415
 3787TIP3    H232997   6.266   1.823   3.143 -1.1650 -0.4106 -0.2523
 3788TIP3   OH232998   4.922   5.633   7.934 -0.0520 -0.2342 -0.3176
 3788TIP3    H132999   4.853   5.680   7.980  1.0511  1.6661 -0.5305
 3788TIP3    H233000   4.975   5.594   8.003  1.1312  1.9383  0.0742
 3789TIP3   OH233001   1.798   5.333   0.395  0.3074 -0.0134 -0.1272
 3789TIP3    H133002   1.861   5.394   0.357 -1.3511  2.5786  0.9340
 3789TIP3    H233003   1.850   5.278   0.454  1.9540 -0.0282 -1.5220
 3790TIP3   OH233004   4.616   2.345   0.101  0.3759 -0.3079 -0.2968
 3790TIP3    H133005   4.658   2.264   0.130 -0.4375 -0.0554  1.7627
 3790TIP3    H233006   4.541   2.316   0.049 -0.2010 -0.9484  0.8363
 3791TIP3   OH233007   4.784   1.645   2.159 -0.1898  0.3115 -0.0822
 3791TIP3    H133008   4.839   1.718   2.131  0.0925  0.2043  0.1906
 3791TIP3    H233009   4.810   1.628   2.249 -0.5531  0.1500 -0.0062
 3792TIP3   OH233010   2.115   5.466   1.135 -0.4129 -0.3483  0.1409
 3792TIP3    H133011   2.083   5.380   1.162 -0.9976  0.0196  0.6388
 3792TIP3    H233012   2.092   5.471   1.042 -2.5273  0.1883  0.6321
 3793TIP3   OH233013   2.171   3.860   8.855  0.0211 -0.3718  0.5533
 3793TIP3    H133014   2.166   3.834   8.763  0.4875 -0.1264  0.4546
 3793TIP3    H233015   2.246   3.920   8.859  1.3753 -2.0349  1.4948
 3794TIP3   OH233016   1.682   0.205   2.836  0.2789 -0.5542 -0.0876
 3794TIP3    H133017   1.669   0.110   2.835  0.6832 -0.6089 -0.4257
 3794TIP3    H233018   1.692   0.227   2.928 -1.0068 -0.6710  0.0895
 3795TIP3   OH233019   5.836   0.229   7.571  0.0869  0.1778  0.1865
 3795TIP3    H133020   5.824   0.201   7.662  0.8132 -1.4251 -0.1653
 3795TIP3    H233021   5.924   0.268   7.570  0.0618  0.2340  0.1825
 3796TIP3   OH233022   0.990   6.540   0.294 -0.0579 -0.7370  0.3044
 3796TIP3    H133023   1.051   6.611   0.315  0.5618 -1.2553  0.3038
 3796TIP3    H233024   0.906   6.569   0.329 -0.0714  0.4939 -0.6756
 3797TIP3   OH233025   2.923   5.712   8.323  0.0503 -0.0276 -0.1914
 3797TIP3    H133026   2.888   5.797   8.352 -4.1073 -2.1835  1.9532
 3797TIP3    H233027   2.893   5.704   8.232  1.6608  1.2308 -0.8969
 3798TIP3   OH233028   6.106   3.298   1.378 -0.1336 -0.3458  0.5514
 3798TIP3    H133029   6.126   3.390   1.396 -0.2714 -0.1684 -0.1586
 3798TIP3    H233030   6.107   3.255   1.463 -1.6328  0.6131  1.0865
 3799TIP3   OH233031   2.656   3.695   1.098  0.2556 -0.0338 -0.3811
 3799TIP3    H133032   2.579   3.691   1.154  0.0595  0.1492 -0.6379
 3799TIP3    H233033   2.636   3.636   1.025  0.5672 -0.3830 -0.1937
 3800TIP3   OH233034   4.456   1.279   2.781  0.0744  0.0226  0.2213
 3800TIP3    H133035   4.470   1.302   2.873 -0.4175 -3.5401  1.3684
 3800TIP3    H233036   4.543   1.283   2.741  0.4322  0.8416  1.0499
 3801TIP3   OH233037   0.508   5.415   8.739 -0.3639  0.8843  0.2504
 3801TIP3    H133038   0.413   5.421   8.753 -0.0590  3.3782  1.7064
 3801TIP3    H233039   0.538   5.505   8.734  1.7312  0.1561 -2.1862
 3802TIP3   OH233040   1.780   5.238   1.953  0.5031  0.7437 -0.0910
 3802TIP3    H133041   1.720   5.168   1.979  1.2318 -0.3906 -1.3308
 3802TIP3    H233042   1.724   5.313   1.936 -0.5828 -0.3080 -1.2950
 3803TIP3   OH233043   2.966   3.311   2.852 -0.5915  0.2590  0.7531
 3803TIP3    H133044   3.050   3.288   2.813  0.2987 -1.1236  3.2398
 3803TIP3    H233045   2.939   3.232   2.899 -1.4663  1.8175  3.0225
 3804TIP3   OH233046   6.221   5.288   1.799 -0.3252  0.6541 -0.5178
 3804TIP3    H133047   6.202   5.195   1.812 -0.5803  0.2819 -3.0845
 3804TIP3    H233048   6.137   5.331   1.818 -0.3846  0.3131  0.0371
 3805TIP3   OH233049   2.191   5.781   4.034  0.0364 -0.1348 -0.0429
 3805TIP3    H133050   2.276   5.776   4.076 -0.6080  0.7543  1.4531
 3805TIP3    H233051   2.204   5.741   3.948  1.7453 -0.7373  0.4601
 3806TIP3   OH233052   0.688   5.125   2.287  0.5409  0.2368  0.6535
 3806TIP3    H133053   0.642   5.196   2.331  0.2745  0.1843  0.4620
 3806TIP3    H233054   0.679   5.145   2.194 -0.8240 -0.8398  0.5403
 3807TIP3   OH233055   4.223   3.745   1.998  0.5663  0.1868  0.1688
 3807TIP3    H133056   4.268   3.696   1.929 -0.0513  1.9987 -1.6642
 3807TIP3    H233057   4.293   3.774   2.056  1.3592  0.0527 -0.6827
 3808TIP3   OH233058   3.073   5.456   8.228 -0.4709 -0.2081 -0.5101
 3808TIP3    H133059   3.094   5.537   8.275 -1.1141 -0.0117 -0.5534
 3808TIP3    H233060   3.113   5.466   8.142 -1.8721  0.7625 -1.0914
 3809TIP3   OH233061   1.635   6.123   0.706  0.0796  0.7015  0.0289
 3809TIP3    H133062   1.553   6.164   0.733 -0.6944 -1.8924  1.9776
 3809TIP3    H233063   1.695   6.197   0.691 -2.4115  2.6677 -1.0685
 3810TIP3   OH233064   0.564   5.564   1.013 -0.2324  0.0102 -0.1948
 3810TIP3    H133065   0.546   5.496   1.079  2.4546 -0.3127  0.3354
 3810TIP3    H233066   0.557   5.646   1.061 -0.0191 -0.1264  0.0790
 3811TIP3   OH233067   4.114   5.600   0.272 -0.5144  0.0010  0.1597
 3811TIP3    H133068   4.098   5.570   0.362 -1.4377 -0.5156 -0.1531
 3811TIP3    H233069   4.187   5.661   0.279 -0.7640  0.1906  1.3028
 3812TIP3   OH233070   4.089   5.883   2.907  0.3413  0.2020  0.1962
 3812TIP3    H133071   4.125   5.872   2.995  1.0356 -1.4798 -0.2595
 3812TIP3    H233072   4.029   5.809   2.896  1.7336 -0.7878 -1.4029
 3813TIP3   OH233073   2.332   2.234   3.174  0.0623 -0.4625  0.3410
 3813TIP3    H133074   2.397   2.184   3.125  0.1940 -1.3519  1.3824
 3813TIP3    H233075   2.248   2.196   3.148  0.1317 -0.9285  0.7722
 3814TIP3   OH233076   0.065   1.180   0.551  0.5120  0.0007 -0.1986
 3814TIP3    H133077  -0.010   1.171   0.492  1.4355 -0.8895 -1.2881
 3814TIP3    H233078   0.135   1.212   0.496  0.6141  2.2089  1.1025
 3815TIP3   OH233079   5.846   5.569   2.351 -0.0987 -0.5680  0.2944
 3815TIP3    H133080   5.790   5.646   2.342  0.7458 -0.0877 -1.1793
 3815TIP3    H233081   5.789   5.495   2.331  0.0096 -0.0123 -2.4473
 3816TIP3   OH233082   6.611   4.587   1.502 -0.5497 -0.1717  0.3218
 3816TIP3    H133083   6.516   4.578   1.504 -0.7353  1.2983 -0.6026
 3816TIP3    H233084   6.634   4.584   1.409  0.5935 -2.7176  0.5959
 3817TIP3   OH233085   5.133   1.879   3.340 -0.4749 -0.9102 -0.2782
 3817TIP3    H133086   5.167   1.923   3.418 -1.2980 -0.6567 -0.0540
 3817TIP3    H233087   5.076   1.943   3.298 -0.7306 -1.3462 -0.6099
 3818TIP3   OH233088   3.523   5.435   1.594 -0.3054  0.2059 -0.4151
 3818TIP3    H133089   3.537   5.453   1.501  1.4620 -0.1868 -0.2604
 3818TIP3    H233090   3.595   5.377   1.618 -1.6092 -0.9504  0.8544
 3819TIP3   OH233091   2.109   2.744   0.377 -0.0495 -0.0389  0.6685
 3819TIP3    H133092   2.089   2.675   0.441 -0.5065 -1.6688 -1.1208
 3819TIP3    H233093   2.203   2.757   0.385 -0.0331 -0.5272  1.3883
 3820TIP3   OH233094   2.626   4.658   7.983  0.2120  0.1888  0.3877
 3820TIP3    H133095   2.601   4.717   7.911  2.0200  0.2984 -0.2200
 3820TIP3    H233096   2.619   4.570   7.945 -2.8544 -0.1283  1.4087
 3821TIP3   OH233097   3.019   0.241   2.041  0.5637  0.1169  0.0665
 3821TIP3    H133098   2.982   0.318   1.997  0.1733  0.2710  0.6605
 3821TIP3    H233099   3.037   0.180   1.970 -0.4099  0.2093 -0.2761
 3822TIP3   OH233100   0.785   0.849   0.711 -0.3051  0.3955  0.4125
 3822TIP3    H133101   0.696   0.878   0.693 -0.6795 -0.6362  0.5749
 3822TIP3    H233102   0.783   0.819   0.801 -0.4654 -2.0400 -0.3392
 3823TIP3   OH233103   5.710   6.458   1.347 -0.3542  0.1652  0.2171
 3823TIP3    H133104   5.757   6.377   1.330  1.5521  1.3922 -0.7957
 3823TIP3    H233105   5.695   6.458   1.442 -1.2969 -1.7910  0.1041
 3824TIP3   OH233106   1.940   2.448   7.949  0.4067 -0.7749 -0.2215
 3824TIP3    H133107   2.020   2.489   7.915  1.3260 -2.3203 -0.0140
 3824TIP3    H233108   1.946   2.460   8.044 -0.9303  1.3577 -0.3411
 3825TIP3   OH233109   4.807   5.294   0.099 -0.6795 -0.2280 -0.4220
 3825TIP3    H133110   4.764   5.210   0.082 -0.3750 -0.0657 -2.2043
 3825TIP3    H233111   4.764   5.328   0.177  0.0493 -2.6017  1.1418
 3826TIP3   OH233112   6.034   6.630   1.947  0.1206  0.1706  0.3049
 3826TIP3    H133113   6.065   6.573   2.018  0.3181  0.9009  0.8171
 3826TIP3    H233114   5.985   6.572   1.890  0.9492 -0.6728  0.4185
 3827TIP3   OH233115   3.771   0.611   2.677 -0.3496  0.5385  0.1136
 3827TIP3    H133116   3.810   0.547   2.737 -0.9791  0.0579  0.0249
 3827TIP3    H233117   3.840   0.630   2.614 -0.1664 -0.0871  0.1196
 3828TIP3   OH233118   1.838   0.124   0.451 -0.4342  0.2931 -0.4317
 3828TIP3    H133119   1.917   0.130   0.398 -0.2057  1.0506 -0.0145
 3828TIP3    H233120   1.774   0.080   0.394  0.1146  0.1844 -0.9643
 3829TIP3   OH233121   0.434   0.772   2.533 -0.2841 -0.0675  0.4207
 3829TIP3    H133122   0.421   0.823   2.453 -1.9006  1.4970  1.6051
 3829TIP3    H233123   0.411   0.682   2.508  0.9541  0.0298 -1.2764
 3830TIP3   OH233124   2.776   3.008   0.087 -0.5746  0.4821  0.0142
 3830TIP3    H133125   2.837   2.998   0.160 -2.4034  0.1122  1.5755
 3830TIP3    H233126   2.772   2.921   0.047 -0.9686  0.2047  0.6524
 3831TIP3   OH233127   4.177   4.029   1.362  0.2362  0.1506 -0.0968
 3831TIP3    H133128   4.116   4.048   1.292  0.9261  2.7523 -0.0781
 3831TIP3    H233129   4.254   4.083   1.343  0.6396  0.5647  2.3836
 3832TIP3   OH233130   4.881   4.519   0.213 -0.7639 -0.0640 -0.6338
 3832TIP3    H133131   4.817   4.450   0.232 -0.2621 -1.0905 -2.4531
 3832TIP3    H233132   4.869   4.539   0.120 -1.6094  3.1245  0.0483
 3833TIP3   OH233133   4.734   3.598   8.726  0.2430  0.2171  0.6767
 3833TIP3    H133134   4.812   3.551   8.696  1.1145  1.3562  1.1123
 3833TIP3    H233135   4.725   3.671   8.665  1.0210  1.5513  2.1058
 3834TIP3   OH233136   0.083   3.139   8.149  0.3262  0.0435  0.6440
 3834TIP3    H133137   0.149   3.092   8.099 -0.1707 -1.6416  1.4809
 3834TIP3    H233138   0.059   3.079   8.219  1.1263  2.3461  3.0788
 3835TIP3   OH233139   2.414   6.023   0.336  0.0212 -0.4033 -0.3738
 3835TIP3    H133140   2.387   5.984   0.253  1.1317 -0.1427 -0.8802
 3835TIP3    H233141   2.460   5.953   0.381 -0.6717 -0.5751  0.0801
 3836TIP3   OH233142   0.122   3.586   4.176 -0.2188  0.1358  0.6023
 3836TIP3    H133143   0.152   3.499   4.154  0.0176  0.6189 -1.0830
 3836TIP3    H233144   0.201   3.635   4.198  0.0355  0.7574 -1.5261
 3837TIP3   OH233145   2.567   6.485   8.851 -0.1305 -0.2782 -0.3543
 3837TIP3    H133146   2.643   6.486   8.793  0.4527 -1.0055  0.3843
 3837TIP3    H233147   2.513   6.558   8.820  2.0625  1.9311  0.6907
 3838TIP3   OH233148   1.657   6.614   1.072  0.1811 -0.0230  0.0753
 3838TIP3    H133149   1.702   6.552   1.015 -0.8325 -1.2758  0.5916
 3838TIP3    H233150   1.691   6.594   1.160  0.0617  0.3499  0.2074
 3839TIP3   OH233151   5.403   1.219   8.506 -0.0942 -0.2633 -0.9930
 3839TIP3    H133152   5.355   1.283   8.453 -1.2572 -1.0480 -0.9362
 3839TIP3    H233153   5.475   1.190   8.450 -0.5292 -0.1119 -1.6466
 3840TIP3   OH233154   4.517   2.571   0.812 -0.1721 -0.2178 -0.5261
 3840TIP3    H133155   4.497   2.628   0.886  0.4247  0.4720 -0.8921
 3840TIP3    H233156   4.610   2.550   0.821 -0.3283 -0.9575 -0.5256
 3841TIP3   OH233157   4.014   2.469   1.399 -0.6446  0.0554  0.0935
 3841TIP3    H133158   4.084   2.404   1.392 -0.7638 -0.1364  0.6567
 3841TIP3    H233159   3.935   2.418   1.414 -0.4816  0.3949  2.3782
 3842TIP3   OH233160   1.355   3.450   1.987 -0.1893  0.3927  0.0814
 3842TIP3    H133161   1.406   3.369   1.983  0.0441  0.5811 -1.7905
 3842TIP3    H233162   1.418   3.519   1.965 -0.8663  0.8095 -0.6300
 3843TIP3   OH233163   4.407   6.632   2.291 -0.8046 -0.2487 -0.0399
 3843TIP3    H133164   4.370   6.640   2.379 -0.0339 -2.6920  0.5802
 3843TIP3    H233165   4.340   6.668   2.233 -2.9478 -1.9332  1.2551
 3844TIP3   OH233166   2.014   6.786   8.134 -0.4866  0.1368  0.3979
 3844TIP3    H133167   2.017   6.866   8.187  0.3581 -0.2271  0.9226
 3844TIP3    H233168   1.927   6.750   8.152 -0.4575  0.3587  1.0298
 3845TIP3   OH233169   0.345   5.418   4.019  0.3384 -0.4453  0.5281
 3845TIP3    H133170   0.291   5.339   4.015 -1.1698  0.5235  1.0149
 3845TIP3    H233171   0.435   5.386   4.010 -0.2526 -2.1777  0.4210
 3846TIP3   OH233172   4.798   1.276   2.778  0.1393 -0.5897  0.1627
 3846TIP3    H133173   4.849   1.237   2.849 -0.4062 -0.6683  0.5172
 3846TIP3    H233174   4.802   1.370   2.794  1.9367 -0.4101 -1.0159
 3847TIP3   OH233175   1.629   2.730   0.136 -0.3519  0.0236 -0.4061
 3847TIP3    H133176   1.703   2.772   0.180 -0.0945 -1.2192  0.3930
 3847TIP3    H233177   1.557   2.792   0.147  0.5209  1.2078 -1.1235
 3848TIP3   OH233178   6.496   3.909   2.613 -0.3268  0.4794 -0.4113
 3848TIP3    H133179   6.410   3.904   2.572 -0.4816 -0.2338 -0.0034
 3848TIP3    H233180   6.539   3.827   2.591 -0.3732  0.1227  0.7550
 3849TIP3   OH233181   3.421   1.048   1.274 -0.3480  0.1987 -0.0559
 3849TIP3    H133182   3.330   1.079   1.268  0.0934  1.4224 -0.8165
 3849TIP3    H233183   3.453   1.050   1.184  1.0006  1.6516  0.3950
 3850TIP3   OH233184   4.476   1.916   1.706  0.1068 -0.0121  0.1898
 3850TIP3    H133185   4.536   1.964   1.649  2.0215 -1.8614  0.4927
 3850TIP3    H233186   4.416   1.872   1.646 -1.3192  2.2023 -0.1050
 3851TIP3   OH233187   3.937   0.565   1.977  0.1854 -0.3913 -0.7034
 3851TIP3    H133188   3.945   0.470   1.981  0.3935 -0.3855 -0.9616
 3851TIP3    H233189   3.887   0.588   2.056  0.4062 -0.6849 -0.4729
 3852TIP3   OH233190   5.828   2.568   3.324 -0.3078  0.6518 -0.2633
 3852TIP3    H133191   5.880   2.507   3.376 -1.7629 -0.8769 -0.5319
 3852TIP3    H233192   5.817   2.644   3.381  1.2994  0.6015  0.1809
 3853TIP3   OH233193   6.553   5.412   0.806  0.3363  0.2794 -0.0130
 3853TIP3    H133194   6.474   5.372   0.769 -0.5997  1.5263  0.5790
 3853TIP3    H233195   6.524   5.448   0.890  1.8706 -0.4209  0.8447
 3854TIP3   OH233196   1.389   2.649   8.220 -0.0744  0.0349  0.6103
 3854TIP3    H133197   1.433   2.717   8.271  1.3087 -1.6893  1.8311
 3854TIP3    H233198   1.449   2.630   8.148  0.1743 -0.8046  1.0308
 3855TIP3   OH233199   3.894   6.379   3.896 -0.1492 -0.2235 -0.0290
 3855TIP3    H133200   3.969   6.326   3.872 -0.6312 -0.8512 -0.1811
 3855TIP3    H233201   3.919   6.420   3.979 -0.2175 -1.6416  0.7263
 3856TIP3   OH233202   4.023   5.841   3.576 -0.1736  0.3102 -0.3715
 3856TIP3    H133203   3.969   5.858   3.498 -0.9644 -1.2186 -0.2029
 3856TIP3    H233204   4.007   5.748   3.595  2.4859 -0.1789 -0.2534
 3857TIP3   OH233205   1.461   4.903   3.525  0.1352 -0.1122 -0.1758
 3857TIP3    H133206   1.372   4.868   3.540  0.0808 -0.1268 -0.5356
 3857TIP3    H233207   1.516   4.850   3.583 -0.1878  0.4057  0.6294
 3858TIP3   OH233208   2.673   1.016   3.192 -0.4654 -0.0866 -0.9235
 3858TIP3    H133209   2.702   1.106   3.176  0.4061 -0.1958 -0.0320
 3858TIP3    H233210   2.740   0.962   3.150  0.8233 -0.3471  1.3382
 3859TIP3   OH233211   5.203   6.685   1.945 -0.1767 -0.7620 -0.2346
 3859TIP3    H133212   5.287   6.674   1.990 -0.7188  0.6162  1.2173
 3859TIP3    H233213   5.223   6.743   1.872  0.0603 -0.0184  0.4070
 3860TIP3   OH233214   3.486   3.701   0.302 -0.1926  0.1964  0.2990
 3860TIP3    H133215   3.563   3.646   0.295  0.7219  1.2522  1.3800
 3860TIP3    H233216   3.471   3.709   0.397 -2.3917 -0.9737  0.1105
 3861TIP3   OH233217   2.469   1.090   2.759 -0.3181 -0.4748  0.1721
 3861TIP3    H133218   2.554   1.116   2.795  0.8495  0.5622 -2.9870
 3861TIP3    H233219   2.484   1.003   2.722 -0.5170 -0.1772 -0.6329
 3862TIP3   OH233220   6.095   0.192   3.600 -0.6013 -0.3509 -0.1848
 3862TIP3    H133221   6.082   0.121   3.663  3.4301 -1.5603 -0.3900
 3862TIP3    H233222   6.182   0.174   3.563  0.5722  4.5293 -0.4633
 3863TIP3   OH233223   6.381   0.967   0.024  0.8573  0.2818 -0.2439
 3863TIP3    H133224   6.395   0.889   0.078  2.0337  1.5963  1.4363
 3863TIP3    H233225   6.286   0.978   0.023  0.8111  0.6257  2.2592
 3864TIP3   OH233226   0.029   2.690   0.718  0.0774 -0.1353 -0.5697
 3864TIP3    H133227  -0.024   2.768   0.703  1.5200  0.9505 -0.2518
 3864TIP3    H233228   0.119   2.719   0.706  0.8337 -1.1583  1.8369
 3865TIP3   OH233229   1.660   2.063   4.302 -0.3371  0.5231 -0.0501
 3865TIP3    H133230   1.751   2.093   4.309 -0.2615  0.0655  1.2350
 3865TIP3    H233231   1.615   2.135   4.258  0.5749  0.9077 -0.3895
 3866TIP3   OH233232   6.464   6.584   0.276  0.5241  0.1417 -0.4547
 3866TIP3    H133233   6.370   6.593   0.263  0.0809 -1.9802  0.7178
 3866TIP3    H233234   6.474   6.498   0.318  2.7148  1.5559  2.2705
 3867TIP3   OH233235   2.309   3.460   8.770  0.1982 -0.3448  0.2845
 3867TIP3    H133236   2.286   3.460   8.677 -0.5545 -1.1708  0.4506
 3867TIP3    H233237   2.404   3.453   8.771  0.3551  1.2333 -0.4235
 3868TIP3   OH233238   4.915   3.118   3.442 -0.0550  0.4166  0.2734
 3868TIP3    H133239   4.941   3.093   3.530 -0.2233  1.7631  0.7307
 3868TIP3    H233240   4.992   3.100   3.388 -0.4036 -1.7174  0.4064
 3869TIP3   OH233241   5.343   1.147   2.521 -0.1021 -0.2951  0.7503
 3869TIP3    H133242   5.434   1.137   2.493 -0.4494 -1.3133 -0.0881
 3869TIP3    H233243   5.334   1.239   2.543  0.6728  0.1959 -0.8661
 3870TIP3   OH233244   6.134   2.223   8.559  0.4318 -0.2631 -0.2945
 3870TIP3    H133245   6.162   2.137   8.528  0.8393 -0.3384  0.2711
 3870TIP3    H233246   6.097   2.266   8.482  2.1284 -0.1422 -1.0849
 3871TIP3   OH233247   6.591   4.083   0.557 -0.1645 -0.2174  0.3177
 3871TIP3    H133248   6.634   4.047   0.635  0.0647  0.5888  0.5751
 3871TIP3    H233249   6.613   4.022   0.487  0.1465 -0.6161  0.7580
 3872TIP3   OH233250   6.041   4.851   1.472 -0.0833  0.2494 -0.4157
 3872TIP3    H133251   6.065   4.767   1.511 -0.8346  0.4648  0.5667
 3872TIP3    H233252   5.957   4.834   1.430  0.3731  0.2062 -1.3363
 3873TIP3   OH233253   1.984   6.419   8.793 -0.5584 -0.0759 -0.6333
 3873TIP3    H133254   1.944   6.389   8.711 -1.2880 -0.0104 -0.3094
 3873TIP3    H233255   1.985   6.341   8.849 -2.3246  0.4108  0.1609
 3874TIP3   OH233256   5.401   2.459   0.600 -0.4292 -0.2591  0.2933
 3874TIP3    H133257   5.380   2.484   0.690 -1.5823  0.1469 -0.0703
 3874TIP3    H233258   5.317   2.458   0.555  0.0669 -0.9963 -0.6574
 3875TIP3   OH233259   4.193   1.064   8.568  0.2343  0.3192 -0.0415
 3875TIP3    H133260   4.264   1.128   8.564  0.8891 -0.4570 -1.6698
 3875TIP3    H233261   4.148   1.072   8.484 -0.7297 -0.2116  0.4026
 3876TIP3   OH233262   6.236   1.681   1.793  0.2144 -0.4428  0.0825
 3876TIP3    H133263   6.155   1.655   1.750  0.1208  0.4437 -0.3071
 3876TIP3    H233264   6.285   1.599   1.805  0.3139 -0.7310 -1.8645
 3877TIP3   OH233265   2.510   5.448   0.535 -0.2111  0.4171  0.1462
 3877TIP3    H133266   2.427   5.400   0.530 -0.3139  0.6299 -0.2415
 3877TIP3    H233267   2.572   5.385   0.570 -0.5703  0.3011  0.5939
 3878TIP3   OH233268   3.192   4.520   8.708 -0.4900 -0.2229  0.2957
 3878TIP3    H133269   3.277   4.508   8.752  1.4389 -0.8428 -3.2150
 3878TIP3    H233270   3.146   4.583   8.763  3.0046  1.6304  1.4612
 3879TIP3   OH233271   4.326   3.744   3.513 -0.2467 -0.2145  0.0801
 3879TIP3    H133272   4.302   3.663   3.556  0.5832 -0.8655 -0.6373
 3879TIP3    H233273   4.413   3.765   3.548 -0.8020  0.8259  0.8851
 3880TIP3   OH233274   0.863   3.128   2.350 -0.0861  0.6112 -0.3476
 3880TIP3    H133275   0.946   3.132   2.302 -0.0282 -2.5282 -0.7443
 3880TIP3    H233276   0.887   3.095   2.436 -0.8747 -0.1715 -0.4095
 3881TIP3   OH233277   5.313   0.131   2.680 -0.2787 -0.2012 -0.8916
 3881TIP3    H133278   5.240   0.163   2.629 -0.2802  0.8335 -0.2705
 3881TIP3    H233279   5.384   0.120   2.617 -0.5782  0.0783 -1.2797
 3882TIP3   OH233280   1.494   3.409   8.868 -0.2907 -0.0931 -0.2941
 3882TIP3    H133281   1.563   3.465   8.832  0.8324 -1.4661 -0.3886
 3882TIP3    H233282   1.519   3.396   8.960  1.1844 -2.7748 -0.9580
 3883TIP3   OH233283   3.279   3.800   8.867 -0.2352  0.2627 -0.1636
 3883TIP3    H133284   3.193   3.762   8.847 -0.2029 -0.1442  0.4623
 3883TIP3    H233285   3.316   3.743   8.934  0.3985  0.6170 -0.2018
 3884TIP3   OH233286   0.314   6.448   1.023 -0.5477  0.2154  0.1717
 3884TIP3    H133287   0.320   6.357   1.052 -2.2614  0.4310  1.3662
 3884TIP3    H233288   0.296   6.443   0.929 -0.9639 -0.6881  0.2959
 3885TIP3   OH233289   5.447   2.013   0.961 -0.4167  0.1208 -0.3448
 3885TIP3    H133290   5.420   2.093   0.916 -1.7327 -0.1265 -0.0385
 3885TIP3    H233291   5.538   2.028   0.985 -0.8159  1.7589  0.2316
 3886TIP3   OH233292   1.521   2.653   0.396 -0.1735  0.3036  0.5501
 3886TIP3    H133293   1.583   2.595   0.439  1.4403  2.2425  0.9946
 3886TIP3    H233294   1.546   2.651   0.303 -0.0666  0.3425  0.5782
 3887TIP3   OH233295   1.918   0.479   3.435 -0.3938  0.1722  0.0545
 3887TIP3    H133296   1.946   0.555   3.486 -0.1150  1.1809 -1.5437
 3887TIP3    H233297   1.849   0.512   3.377  1.2088 -0.2123 -2.2133
 3888TIP3   OH233298   4.943   0.895   0.871  0.2158 -0.4425  0.2942
 3888TIP3    H133299   4.878   0.893   0.941  0.7257  0.0106  0.7953
 3888TIP3    H233300   5.012   0.952   0.904 -0.2821  1.1356 -1.2531
 3889TIP3   OH233301   3.663   4.222   3.430 -0.4224  0.2388  0.3774
 3889TIP3    H133302   3.624   4.287   3.372 -1.5628  0.6645  1.5663
 3889TIP3    H233303   3.723   4.272   3.485 -1.2709  0.3156  1.2675
 3890TIP3   OH233304   0.045   6.737   2.160 -0.2968  0.3847 -0.0015
 3890TIP3    H133305  -0.048   6.730   2.137  0.1935 -0.0198 -2.0684
 3890TIP3    H233306   0.087   6.765   2.079  1.5984 -1.0295  0.4454
 3891TIP3   OH233307   2.443   3.757   8.868 -0.0208  0.7041 -0.1762
 3891TIP3    H133308   2.434   3.852   8.864 -0.0392  0.6699 -1.8464
 3891TIP3    H233309   2.354   3.725   8.876  0.1034  0.8321  3.2719
 3892TIP3   OH233310   1.607   4.654   2.931  0.1822  0.0533  0.6087
 3892TIP3    H133311   1.606   4.641   2.836 -1.4628  0.7173  0.4840
 3892TIP3    H233312   1.686   4.611   2.961  0.2192 -1.0444 -0.9495
 3893TIP3   OH233313   1.008   1.944   8.276  0.3413  0.2627 -0.3725
 3893TIP3    H133314   0.919   1.915   8.258  0.0493 -0.1336  1.5154
 3893TIP3    H233315   0.999   2.037   8.296  0.0349 -0.1628  1.6389
 3894TIP3   OH233316   3.126   4.792   0.838 -0.0024  0.5740 -0.5968
 3894TIP3    H133317   3.111   4.863   0.775 -0.6817 -0.4301 -1.6195
 3894TIP3    H233318   3.178   4.727   0.790  2.4737  1.2514  0.9835
 3895TIP3   OH233319   0.729   6.618   3.711  0.1479  0.3273  0.1567
 3895TIP3    H133320   0.742   6.636   3.804  0.9190  1.6201 -0.1717
 3895TIP3    H233321   0.663   6.682   3.683  1.3286  1.2840 -0.5685
 3896TIP3   OH233322   0.100   3.373   2.885 -0.9969 -0.0010  0.1827
 3896TIP3    H133323   0.096   3.450   2.942 -1.3429  1.1024 -1.2596
 3896TIP3    H233324   0.187   3.336   2.900 -0.3013  1.4780 -0.0836
 3897TIP3   OH233325   6.372   2.673   8.416  0.8416  0.1119 -0.0610
 3897TIP3    H133326   6.403   2.583   8.415  0.2692 -0.1109  1.0425
 3897TIP3    H233327   6.288   2.669   8.461  0.3457  1.0593 -0.8703
 3898TIP3   OH233328   5.768   1.315   1.438 -0.2993  0.8319  0.2751
 3898TIP3    H133329   5.820   1.392   1.416 -0.0617  0.0677 -2.1304
 3898TIP3    H233330   5.771   1.311   1.534  1.6268  2.4734  0.3587
 3899TIP3   OH233331   1.321   0.325   3.427 -0.0096  0.2128  0.2046
 3899TIP3    H133332   1.262   0.306   3.354 -1.1400  1.2730  0.8242
 3899TIP3    H233333   1.341   0.418   3.419 -0.7618  0.5284  1.6608
 3900TIP3   OH233334   1.688   1.237   3.189 -0.2885  0.6816  0.5578
 3900TIP3    H133335   1.592   1.245   3.187 -0.2141  1.4815 -0.9905
 3900TIP3    H233336   1.706   1.192   3.272 -2.1249 -1.1167  0.0734
 3901TIP3   OH233337   3.652   5.891   2.292 -0.2158 -0.1185  0.4057
 3901TIP3    H133338   3.561   5.884   2.321  0.6850 -0.4600  3.5059
 3901TIP3    H233339   3.667   5.984   2.280 -0.6922  0.0395  0.9888
 3902TIP3   OH233340   0.952   6.595   1.072 -0.0214  0.7060 -1.2183
 3902TIP3    H133341   1.020   6.566   1.012 -0.5537 -0.7635 -1.1402
 3902TIP3    H233342   0.906   6.515   1.098 -1.6206  1.6130 -1.0721
 3903TIP3   OH233343   1.610   5.402   1.319  0.5165 -0.0456  0.6292
 3903TIP3    H133344   1.516   5.391   1.304  0.4974  1.5233 -0.7345
 3903TIP3    H233345   1.616   5.432   1.410  0.0786 -3.6592  2.0307
 3904TIP3   OH233346   6.563   0.031   8.865 -0.7849 -0.1928 -0.4482
 3904TIP3    H133347   6.596   0.062   8.949  1.2313 -0.6146 -1.0266
 3904TIP3    H233348   6.496  -0.033   8.888 -0.2450 -0.3167  0.8566
 3905TIP3   OH233349   4.288   6.073   3.553  0.5906  0.0474 -0.1855
 3905TIP3    H133350   4.290   6.155   3.505  0.3469  1.9922  2.8631
 3905TIP3    H233351   4.196   6.046   3.551 -0.2835  2.3636  2.4843
 3906TIP3   OH233352   3.794   3.056   8.621 -0.6516  0.6292  0.5435
 3906TIP3    H133353   3.848   3.136   8.624  1.1004 -0.3849 -1.2287
 3906TIP3    H233354   3.801   3.019   8.708 -0.8006  1.9569  1.1538
 3907TIP3   OH233355   0.153   5.616   3.278  0.2627  0.1653 -0.1452
 3907TIP3    H133356   0.219   5.624   3.347  0.7645 -2.3211 -0.2318
 3907TIP3    H233357   0.149   5.522   3.260 -0.4250  0.6606 -2.9833
 3908TIP3   OH233358   0.193   6.623   1.200  0.5679  0.0057 -0.3605
 3908TIP3    H133359   0.157   6.697   1.152  1.8771  0.1051 -1.2581
 3908TIP3    H233360   0.230   6.566   1.132 -0.2354 -1.3776  0.3296
 3909TIP3   OH233361   2.104   3.992   0.970  0.2325  0.0325 -0.2247
 3909TIP3    H133362   2.144   4.022   1.052 -2.0373 -0.8107  1.3139
 3909TIP3    H233363   2.173   3.943   0.926  1.6636  0.9159  0.9554
 3910TIP3   OH233364   5.540   2.602   2.156  0.2904  0.7405  0.7659
 3910TIP3    H133365   5.632   2.623   2.143 -0.0940  1.7348 -0.5175
 3910TIP3    H233366   5.500   2.684   2.184 -0.0082  0.0277  2.5219
 3911TIP3   OH233367   3.142   1.869   2.417 -0.4270  0.0075 -0.3186
 3911TIP3    H133368   3.146   1.804   2.347 -0.0933  1.0005 -1.2441
 3911TIP3    H233369   3.050   1.874   2.441 -0.3001 -1.7885  0.7376
 3912TIP3   OH233370   1.422   2.607   8.850  0.5183 -0.0170 -0.3545
 3912TIP3    H133371   1.334   2.643   8.853  0.8200  0.6878  0.8955
 3912TIP3    H233372   1.479   2.683   8.865  1.2760 -0.6608  0.1182
 3913TIP3   OH233373   0.766   5.028   3.967  0.0310 -0.4690 -0.4275
 3913TIP3    H133374   0.680   4.995   3.942  0.3927 -1.2692 -0.6606
 3913TIP3    H233375   0.748   5.100   4.028 -0.7843 -2.0340  1.2904
 3914TIP3   OH233376   1.773   4.546   1.657  0.1653  0.0877 -0.3527
 3914TIP3    H133377   1.685   4.534   1.693 -0.2376  1.8909 -0.6040
 3914TIP3    H233378   1.773   4.637   1.627  1.2286 -0.6844 -2.8796
 3915TIP3   OH233379   5.963   1.980   2.929 -0.1177 -0.5695  0.0218
 3915TIP3    H133380   6.058   1.970   2.930  0.0555  0.8068  0.1945
 3915TIP3    H233381   5.942   2.014   3.015 -0.2734  2.5324 -1.0994
 3916TIP3   OH233382   0.358   3.488   8.304 -0.3113 -0.4403  0.0558
 3916TIP3    H133383   0.386   3.580   8.310  0.1408 -0.6632  2.1855
 3916TIP3    H233384   0.436   3.442   8.273 -0.7957 -0.0601 -1.9281
 3917TIP3   OH233385   0.079   4.842   2.803  0.1292  0.0268 -0.4684
 3917TIP3    H133386   0.107   4.751   2.814  0.4200 -0.0357 -1.6387
 3917TIP3    H233387   0.149   4.883   2.752  0.2589  1.0524  0.4824
 3918TIP3   OH233388   1.036   1.627   0.099  0.1678  0.4243  0.6593
 3918TIP3    H133389   1.024   1.571   0.023 -0.0066 -0.5931  1.4110
 3918TIP3    H233390   1.118   1.673   0.083  0.4302 -0.2158  0.1210
 3919TIP3   OH233391   3.380   1.626   1.121 -0.2047 -0.4912 -0.0513
 3919TIP3    H133392   3.404   1.618   1.213 -0.5214  0.5611  0.1296
 3919TIP3    H233393   3.352   1.538   1.096  1.7019 -1.2628  0.3148
 3920TIP3   OH233394   4.613   3.559   2.517 -0.0359  0.3326 -0.3234
 3920TIP3    H133395   4.680   3.511   2.567  0.4516  1.7968  0.4736
 3920TIP3    H233396   4.661   3.632   2.477 -1.0427  1.0170 -0.2990
 3921TIP3   OH233397   2.725   0.569   0.501 -0.2571 -0.3511  0.4074
 3921TIP3    H133398   2.802   0.585   0.555  0.5401 -1.9598 -0.1855
 3921TIP3    H233399   2.677   0.651   0.503  1.1731  0.5085  1.2802
 3922TIP3   OH233400   2.322   0.094   2.521 -0.1030 -0.5131  0.0110
 3922TIP3    H133401   2.317   0.089   2.616 -1.6578 -1.2369 -0.0677
 3922TIP3    H233402   2.387   0.029   2.496 -0.2890 -0.9136  0.5500
 3923TIP3   OH233403   2.059   4.053   1.286 -0.0334 -0.0395  0.2696
 3923TIP3    H133404   2.143   4.010   1.277 -0.3346 -0.5907  0.0708
 3923TIP3    H233405   2.081   4.145   1.301  0.6586 -0.4374  1.9909
 3924TIP3   OH233406   3.126   3.590   8.315  0.6180  0.6151  0.3121
 3924TIP3    H133407   3.173   3.511   8.288  0.6417  0.2565  1.3799
 3924TIP3    H233408   3.066   3.608   8.242  1.5243  0.3738 -0.5162
 3925TIP3   OH233409   3.361   1.310   0.573 -0.0458 -0.3270 -0.0368
 3925TIP3    H133410   3.383   1.322   0.665 -1.9578 -1.0707  0.5746
 3925TIP3    H233411   3.408   1.231   0.547  1.6111  0.6473 -0.1460
 3926TIP3   OH233412   1.957   0.847   2.572 -0.3532  0.6805  0.0390
 3926TIP3    H133413   1.936   0.886   2.657  1.3277 -1.0304  1.3226
 3926TIP3    H233414   1.943   0.753   2.583  1.1880  0.2540 -1.1077
 3927TIP3   OH233415   3.452   0.496   8.734  0.3730 -0.3105  0.1882
 3927TIP3    H133416   3.414   0.562   8.791  1.9141  0.5439  0.2856
 3927TIP3    H233417   3.547   0.505   8.746  0.6842 -1.3386 -1.1466
 3928TIP3   OH233418   4.313   4.555   8.682 -0.7046  0.5061 -0.7902
 3928TIP3    H133419   4.288   4.590   8.597  0.3970 -1.0143 -1.7818
 3928TIP3    H233420   4.409   4.559   8.683 -0.7042  0.8032  0.5253
 3929TIP3   OH233421   1.687   1.955   2.820  0.3488 -0.3623  0.1227
 3929TIP3    H133422   1.625   1.997   2.761  0.9048  0.4096  0.0761
 3929TIP3    H233423   1.642   1.953   2.905 -0.2380 -0.9919 -0.1936
 3930TIP3   OH233424   3.351   3.207   8.708 -0.1818 -0.3778  0.0843
 3930TIP3    H133425   3.319   3.294   8.733 -0.7914 -0.3977 -0.6147
 3930TIP3    H233426   3.443   3.209   8.732 -0.4674  0.0203  1.2423
 3931TIP3   OH233427   3.707   2.904   0.471  0.1858 -0.0099  0.4042
 3931TIP3    H133428   3.742   2.988   0.499  0.1465 -0.0716  0.6412
 3931TIP3    H233429   3.745   2.890   0.385 -1.0495  0.9852 -0.3325
 3932TIP3   OH233430   5.199   4.257   8.208  0.1472 -0.1783  0.2491
 3932TIP3    H133431   5.240   4.315   8.144 -1.1900 -1.0346 -1.4586
 3932TIP3    H233432   5.272   4.222   8.259  1.1770  1.1505 -0.2614
 3933TIP3   OH233433   5.505   1.015   3.150  0.1829 -0.5118  0.5032
 3933TIP3    H133434   5.419   1.018   3.109  0.5976 -0.6275 -0.3936
 3933TIP3    H233435   5.503   1.086   3.215 -0.3357 -0.0531 -0.0033
 3934TIP3   OH233436   6.548   5.123   2.689 -0.2075 -0.6552 -0.5109
 3934TIP3    H133437   6.618   5.125   2.755 -1.0584 -0.7196  0.4192
 3934TIP3    H233438   6.504   5.039   2.703 -1.2505 -0.0761 -0.2461
 3935TIP3   OH233439   1.080   1.928   1.029  0.1559  0.2112  0.7341
 3935TIP3    H133440   1.030   1.847   1.026 -0.7432  0.7654 -2.0731
 3935TIP3    H233441   1.041   1.977   1.101 -1.3727 -0.6032  0.5015
 3936TIP3   OH233442   5.405   3.765   0.527 -0.0170  0.1500 -0.1338
 3936TIP3    H133443   5.427   3.677   0.497 -2.1164 -0.5212  0.1965
 3936TIP3    H233444   5.414   3.820   0.449  1.2461 -0.3197 -0.3544
 3937TIP3   OH233445   5.928   2.140   8.755  0.1126  0.6156 -0.6348
 3937TIP3    H133446   5.988   2.193   8.807 -0.7415  1.5204 -0.5526
 3937TIP3    H233447   5.930   2.179   8.668 -0.2991  0.6166 -0.6477
 3938TIP3   OH233448   6.043   4.899   3.444  0.2775 -0.0189 -0.1320
 3938TIP3    H133449   6.131   4.927   3.421  0.4938 -0.6912 -0.1474
 3938TIP3    H233450   5.987   4.973   3.421  0.7587  0.1728 -0.6976
 3939TIP3   OH233451   3.248   4.298   0.875 -0.5862 -0.1680  0.0771
 3939TIP3    H133452   3.211   4.250   0.949  0.5017 -0.8865  0.1803
 3939TIP3    H233453   3.319   4.242   0.842 -0.5139  0.5093 -0.9973
 3940TIP3   OH233454   1.299   3.882   1.193 -0.1817 -0.0820 -0.4326
 3940TIP3    H133455   1.372   3.916   1.243 -0.0870  0.8189 -1.1520
 3940TIP3    H233456   1.329   3.797   1.162  0.7917  0.5033 -1.1708
 3941TIP3   OH233457   2.828   0.910   0.160 -0.1878 -0.1411  0.5380
 3941TIP3    H133458   2.855   0.968   0.231 -1.0822  0.0143  0.7716
 3941TIP3    H233459   2.786   0.968   0.097 -0.1902 -0.3993  0.3004
 3942TIP3   OH233460   2.563   5.884   2.916 -0.8740  0.1428  0.0949
 3942TIP3    H133461   2.575   5.918   2.827  1.9355  0.5464  0.5557
 3942TIP3    H233462   2.556   5.789   2.904  0.7243  0.0709 -0.5012
 3943TIP3   OH233463   0.494   5.051   3.295 -0.4096  0.0856  0.0279
 3943TIP3    H133464   0.570   5.083   3.344  0.3729 -0.5777 -0.7311
 3943TIP3    H233465   0.501   4.955   3.300 -0.8672  0.0196 -0.5511
 3944TIP3   OH233466   3.759   2.845   3.480  0.1610 -0.1821  0.2841
 3944TIP3    H133467   3.717   2.779   3.536 -0.1166  0.2757  0.6175
 3944TIP3    H233468   3.713   2.926   3.500  2.6799  0.8726  2.3848
 3945TIP3   OH233469   6.001   3.236   0.574  0.5178 -0.6838  0.0653
 3945TIP3    H133470   5.939   3.306   0.596  0.8175 -0.6752  0.8821
 3945TIP3    H233471   6.079   3.283   0.543  0.6900 -0.6600  0.5376
 3946TIP3   OH233472   4.264   4.105   2.296  0.4012  0.0585  0.5316
 3946TIP3    H133473   4.280   4.163   2.221  0.1923 -2.3167 -1.4738
 3946TIP3    H233474   4.170   4.112   2.312  0.4963  0.8129  0.7842
 3947TIP3   OH233475   2.612   5.844   0.448  0.5845  0.4602 -0.7205
 3947TIP3    H133476   2.655   5.818   0.530 -1.2706 -1.1085 -0.1507
 3947TIP3    H233477   2.630   5.771   0.389 -0.3116  0.3352 -0.8392
 3948TIP3   OH233478   4.542   6.050   3.034 -0.4678 -0.1953 -0.1512
 3948TIP3    H133479   4.484   6.018   3.103 -0.8507  1.2252  0.2369
 3948TIP3    H233480   4.498   6.029   2.952 -0.9414 -0.2078  0.1077
 3949TIP3   OH233481   5.305   5.571   3.861  0.8422  0.2336 -0.7325
 3949TIP3    H133482   5.320   5.529   3.945  0.1770  0.8075 -0.3169
 3949TIP3    H233483   5.392   5.596   3.830  1.0856  0.0342 -0.2100
 3950TIP3   OH233484   5.656   5.311   0.774 -0.1416  0.2088  0.2852
 3950TIP3    H133485   5.740   5.309   0.728 -1.0026  1.3576 -1.4525
 3950TIP3    H233486   5.591   5.298   0.705 -1.6523  4.3326  0.6682
 3951TIP3   OH233487   2.136   1.648   3.221 -0.1546 -0.2919  0.1454
 3951TIP3    H133488   2.204   1.581   3.229  1.8543  1.6645  0.7034
 3951TIP3    H233489   2.128   1.684   3.310 -0.4707  0.8312 -0.3220
 3952TIP3   OH233490   0.899   0.760   1.885 -0.0463  0.2583  0.4987
 3952TIP3    H133491   0.821   0.743   1.939  0.4580 -0.8509  0.9085
 3952TIP3    H233492   0.966   0.788   1.947 -0.0205  0.9089  0.1841
 3953TIP3   OH233493   4.011   2.834   8.300 -0.1939 -0.3364  0.3488
 3953TIP3    H133494   4.063   2.914   8.307 -0.7209 -0.0598  1.5734
 3953TIP3    H233495   3.920   2.865   8.304 -0.4797 -0.8225 -1.5643
 3954TIP3   OH233496   3.846   0.567   2.253 -0.4901  0.2194 -0.0905
 3954TIP3    H133497   3.923   0.513   2.238 -0.4118 -0.3536  2.0412
 3954TIP3    H233498   3.874   0.631   2.318 -1.6615  0.3546  0.3075
 3955TIP3   OH233499   6.062   3.165   2.838  0.0762  0.4866  0.3375
 3955TIP3    H133500   6.103   3.133   2.758 -0.0595  0.5315  0.2508
 3955TIP3    H233501   5.975   3.193   2.812 -0.8775 -1.7301  0.9188
 3956TIP3   OH233502   6.506   6.639   3.285  0.5925 -0.0264 -0.3892
 3956TIP3    H133503   6.486   6.651   3.377 -0.1360 -0.2286 -0.5119
 3956TIP3    H233504   6.601   6.632   3.281  0.6570  0.4224  0.2888
 3957TIP3   OH233505   0.846   3.451   2.513 -1.4887  0.7348 -0.0730
 3957TIP3    H133506   0.855   3.490   2.600  0.2764 -1.5005  0.8719
 3957TIP3    H233507   0.935   3.449   2.478 -1.4041 -2.2737 -0.0075
 3958TIP3   OH233508   3.193   1.923   1.432 -0.7506  0.1367  0.9234
 3958TIP3    H133509   3.284   1.941   1.454  0.6481 -1.9578 -2.4265
 3958TIP3    H233510   3.179   1.832   1.461 -1.0172 -0.2882 -0.4587
 3959TIP3   OH233511   6.621   6.541   3.867  0.4634  0.6104  0.2696
 3959TIP3    H133512   6.616   6.473   3.934  0.4584  0.6551  0.3148
 3959TIP3    H233513   6.530   6.556   3.841  0.3319  1.4801  1.1471
 3960TIP3   OH233514   6.548   1.751   2.669  0.1289 -0.1338  0.1406
 3960TIP3    H133515   6.641   1.770   2.679 -0.2805  1.3538  1.4503
 3960TIP3    H233516   6.509   1.775   2.753 -1.2387 -2.1919  0.1652
 3961TIP3   OH233517   4.216   1.696   1.122  0.9609 -0.0834  0.1341
 3961TIP3    H133518   4.226   1.601   1.109  0.6917 -0.3047  1.3935
 3961TIP3    H233519   4.171   1.726   1.044  0.4804 -1.1052 -0.0005
 3962TIP3   OH233520   6.673   0.015   8.597  0.2951  0.2958 -0.0481
 3962TIP3    H133521   6.762   0.049   8.608  0.5839 -0.4483 -0.0772
 3962TIP3    H233522   6.639   0.010   8.687  1.0667 -1.4957  0.1756
 3963TIP3   OH233523   2.543   2.280   1.553 -0.1984 -0.7388 -0.5968
 3963TIP3    H133524   2.459   2.264   1.597  0.4087 -2.1201  0.1198
 3963TIP3    H233525   2.518   2.309   1.465 -1.4253 -0.2347 -0.1137
 3964TIP3   OH233526   5.249   5.160   0.180 -0.3901  0.0297  0.1450
 3964TIP3    H133527   5.317   5.102   0.146  0.3803  0.0933  1.4992
 3964TIP3    H233528   5.196   5.183   0.103  1.2170  0.1248 -0.9810
 3965TIP3   OH233529   2.640   6.736   0.574  0.5067  0.3256 -0.1200
 3965TIP3    H133530   2.712   6.733   0.637  0.0626 -0.6283  0.3714
 3965TIP3    H233531   2.614   6.644   0.564 -0.3329  0.6121 -0.6348
 3966TIP3   OH233532   5.427   0.804   2.120 -0.5357 -0.3345  0.0110
 3966TIP3    H133533   5.496   0.752   2.078 -1.5841 -0.8064 -1.1770
 3966TIP3    H233534   5.413   0.762   2.204 -0.5783 -1.2978 -0.4644
 3967TIP3   OH233535   3.814   4.933   3.118  0.3039  0.0223 -0.3650
 3967TIP3    H133536   3.778   4.948   3.205 -0.2126 -0.4384 -0.5016
 3967TIP3    H233537   3.778   5.004   3.065 -0.0978 -0.2189 -0.4136
 3968TIP3   OH233538   1.925   2.519   8.209  0.3777  0.1458 -0.0333
 3968TIP3    H133539   1.853   2.458   8.222 -0.0317  0.6877  0.2733
 3968TIP3    H233540   1.885   2.605   8.217  1.1668  0.4498  0.7600
 3969TIP3   OH233541   2.549   2.665   3.101  0.5819  0.5210 -0.3349
 3969TIP3    H133542   2.476   2.604   3.115  0.8380 -0.1840 -1.8975
 3969TIP3    H233543   2.627   2.615   3.122  0.7444  0.5806 -0.7897
 3970TIP3   OH233544   0.222   2.753   8.535  1.0052  0.0031 -0.9007
 3970TIP3    H133545   0.172   2.696   8.477 -0.1862  1.0301 -0.9429
 3970TIP3    H233546   0.205   2.718   8.623  2.4375 -1.2713 -1.0927
 3971TIP3   OH233547   0.554   4.978   3.769 -0.0463 -0.3613 -0.2346
 3971TIP3    H133548   0.482   4.935   3.722 -0.0300  0.5402 -1.1175
 3971TIP3    H233549   0.530   5.070   3.772  1.1975  0.0047 -0.7971
 3972TIP3   OH233550   6.781   6.612   3.334  0.0592 -0.3941  0.4121
 3972TIP3    H133551   6.857   6.630   3.280 -1.2691  1.0114 -1.0941
 3972TIP3    H233552   6.812   6.624   3.424  1.2986  1.5285 -0.2099
 3973TIP3   OH233553   4.271   5.741   1.741 -0.2497 -0.5316  0.1915
 3973TIP3    H133554   4.292   5.650   1.759  2.4084 -0.0561 -0.1982
 3973TIP3    H233555   4.242   5.742   1.650 -2.2203 -1.2051  0.7561
 3974TIP3   OH233556   6.617   0.498   3.096  0.1465 -0.2478  0.1197
 3974TIP3    H133557   6.539   0.456   3.060 -0.3122  0.0058  0.7914
 3974TIP3    H233558   6.659   0.430   3.149 -0.1495 -0.1179  0.5347
 3975TIP3   OH233559   2.699   4.514   2.436 -0.2311 -0.8600  0.0033
 3975TIP3    H133560   2.792   4.532   2.418 -0.0151 -0.6423  1.2032
 3975TIP3    H233561   2.697   4.419   2.452 -0.7954 -1.4612 -3.0878
 3976TIP3   OH233562   6.702   0.022   2.605 -0.2253 -0.2062 -0.1782
 3976TIP3    H133563   6.769  -0.047   2.602 -0.1770 -0.2088  0.7967
 3976TIP3    H233564   6.737   0.091   2.548  0.5137 -0.2908  0.1540
 3977TIP3   OH233565   4.520   3.327   1.790  0.3669  0.2829  0.3942
 3977TIP3    H133566   4.437   3.295   1.754  0.2970 -1.5961  2.0820
 3977TIP3    H233567   4.587   3.277   1.743  0.6119  1.8251 -0.9943
 3978TIP3   OH233568   4.983   2.860   3.752  0.1627 -0.3721 -0.0329
 3978TIP3    H133569   4.910   2.894   3.803 -1.0467 -1.5720 -0.8991
 3978TIP3    H233570   5.024   2.939   3.715 -0.2846  0.3575  0.9742
 3979TIP3   OH233571   3.932   2.653   0.533  0.5203  0.1900  0.5934
 3979TIP3    H133572   3.891   2.594   0.596 -2.7759  1.0631 -0.5007
 3979TIP3    H233573   3.953   2.598   0.458 -2.5628  0.2080 -0.4365
 3980TIP3   OH233574   3.593   0.889   2.919  0.6588 -0.2665  0.0785
 3980TIP3    H133575   3.594   0.934   3.004 -1.9364 -0.3522  0.2137
 3980TIP3    H233576   3.685   0.887   2.893  1.5007  0.0635  2.7116
 3981TIP3   OH233577   3.530   4.012   3.816 -0.0815  0.0152  0.1524
 3981TIP3    H133578   3.514   4.035   3.725  0.5910 -1.4440 -0.3708
 3981TIP3    H233579   3.549   3.918   3.814 -0.1316 -0.0665  1.8075
 3982TIP3   OH233580   6.443   4.714   1.950 -0.7302  0.3757 -0.0929
 3982TIP3    H133581   6.443   4.691   2.043 -2.1761  2.4928  0.5154
 3982TIP3    H233582   6.464   4.808   1.949  2.5323 -0.2228 -2.1889
 3983TIP3   OH233583   3.720   5.760   2.646 -0.7575  0.0036  0.0549
 3983TIP3    H133584   3.765   5.758   2.561 -0.6924 -1.2178  0.0982
 3983TIP3    H233585   3.641   5.708   2.633 -0.3030 -0.9500  0.9799
 3984TIP3   OH233586   6.723   0.802   0.451  0.2062  0.0918 -0.8745
 3984TIP3    H133587   6.792   0.843   0.399  0.7924  1.3978  0.8383
 3984TIP3    H233588   6.768   0.737   0.505  0.2562  1.2979  0.6168
 3985TIP3   OH233589   6.430   0.915   1.994 -0.0059 -0.3434 -0.2650
 3985TIP3    H133590   6.427   0.861   2.073 -1.3013  0.2310  0.1145
 3985TIP3    H233591   6.519   0.904   1.961  0.4226 -0.9768  1.0016
 3986TIP3   OH233592   2.159   6.522   2.127 -0.1623  0.1107  0.1468
 3986TIP3    H133593   2.209   6.448   2.091  1.1301  1.5777 -1.2062
 3986TIP3    H233594   2.142   6.578   2.052 -0.6743  1.4603  1.2322
 3987TIP3   OH233595   1.144   5.698   2.062  0.3391  0.3751 -0.1926
 3987TIP3    H133596   1.191   5.774   2.029 -2.0738  1.5540 -1.1476
 3987TIP3    H233597   1.073   5.684   1.999 -2.5387  0.6967  2.7129
 3988TIP3   OH233598   5.791   2.156   0.240  0.3017 -0.2400 -0.9040
 3988TIP3    H133599   5.812   2.070   0.205 -0.8200 -1.7145  1.7697
 3988TIP3    H233600   5.876   2.195   0.260  0.7926 -1.6730 -0.0743
 3989TIP3   OH233601   5.479   5.170   3.305 -0.4617  0.3765  0.0044
 3989TIP3    H133602   5.462   5.141   3.216  0.1703 -0.7872  0.2443
 3989TIP3    H233603   5.467   5.092   3.359 -1.5749  1.2159  1.0553
 3990TIP3   OH233604   4.285   2.681   1.869  0.0478 -0.7413 -0.1259
 3990TIP3    H133605   4.374   2.717   1.875 -0.3850  0.1679  1.2829
 3990TIP3    H233606   4.260   2.695   1.778  1.2158 -0.7010 -0.4620
 3991TIP3   OH233607   5.184   2.473   1.121  0.6742 -0.1840 -0.2771
 3991TIP3    H133608   5.101   2.505   1.156  0.9561 -0.8992  1.1025
 3991TIP3    H233609   5.213   2.407   1.184  2.0080 -0.3569 -1.0369
 3992TIP3   OH233610   1.076   1.454   0.756 -0.1289  0.5483  0.0887
 3992TIP3    H133611   1.000   1.396   0.756  0.0413  0.3254 -0.0041
 3992TIP3    H233612   1.046   1.533   0.802 -0.6821  0.8099 -0.7010
 3993TIP3   OH233613   1.364   3.116   1.436  0.1584 -0.5607  0.3581
 3993TIP3    H133614   1.292   3.108   1.498  0.2902 -0.2462  0.5550
 3993TIP3    H233615   1.333   3.071   1.357 -0.7264  0.5933  0.0210
 3994TIP3   OH233616   0.988   2.101   1.258  0.1854  0.3007 -0.1732
 3994TIP3    H133617   0.917   2.040   1.241  0.6138  0.1085 -1.3738
 3994TIP3    H233618   0.953   2.162   1.323  0.3079 -2.1969  2.4530
 3995TIP3   OH233619   6.223   0.451   3.382 -0.5492  0.4224  0.0448
 3995TIP3    H133620   6.147   0.483   3.432 -1.2993 -0.8292 -0.2496
 3995TIP3    H233621   6.271   0.397   3.444 -0.6089  0.1714 -0.1247
 3996TIP3   OH233622   5.127   4.110   1.712  0.3656  0.0061 -0.1831
 3996TIP3    H133623   5.038   4.102   1.747  0.6691 -1.5068  0.3188
 3996TIP3    H233624   5.126   4.058   1.632  0.8253 -0.0713 -0.1411
 3997TIP3   OH233625   5.314   6.369   3.047  0.0493  0.6401 -0.2627
 3997TIP3    H133626   5.312   6.438   2.980  1.2742  1.2746  0.3284
 3997TIP3    H233627   5.314   6.416   3.130  3.3735  0.0921  0.1664
 3998TIP3   OH233628   3.509   4.851   1.313  0.0447  0.0812  0.0402
 3998TIP3    H133629   3.417   4.859   1.336 -0.4842  1.0599 -2.1356
 3998TIP3    H233630   3.513   4.876   1.220  2.5153  0.1760  0.0992
 3999TIP3   OH233631   3.173   3.002   1.896 -0.5517 -0.3039  0.4441
 3999TIP3    H133632   3.223   2.928   1.931 -1.5244 -1.1334  0.1192
 3999TIP3    H233633   3.128   3.039   1.972 -0.6618 -0.5114  0.4783
 4000TIP3   OH233634   3.621   5.490   8.734  0.6154 -0.0658 -0.1592
 4000TIP3    H133635   3.601   5.453   8.648 -0.1932  0.5658 -0.2573
 4000TIP3    H233636   3.635   5.583   8.717  0.8116  0.0020  0.3506
 4001TIP3   OH233637   1.583   2.159   1.810  0.1113  0.1597  0.3381
 4001TIP3    H133638   1.531   2.183   1.733  0.3078 -1.6975 -0.4117
 4001TIP3    H233639   1.526   2.180   1.884 -0.9557 -0.0449 -0.3932
 4002TIP3   OH233640   2.990   0.721   0.791 -0.4076 -0.0099 -0.1347
 4002TIP3    H133641   2.906   0.767   0.784 -0.0887  0.3297 -2.3134
 4002TIP3    H233642   3.016   0.705   0.701  1.6130 -0.6291  0.5131
 4003TIP3   OH233643   3.959   5.391   3.777 -0.2597 -0.2217 -0.8406
 4003TIP3    H133644   3.890   5.373   3.841  0.4221  0.6810  0.1902
 4003TIP3    H233645   4.023   5.321   3.793 -0.6485 -0.7110 -1.3895
 4004TIP3   OH233646   6.775   0.004   0.443 -0.1808 -0.0281 -0.2531
 4004TIP3    H133647   6.851   0.009   0.502 -0.2202  0.3993 -0.2394
 4004TIP3    H233648   6.739  -0.083   0.459  1.9240 -1.3811 -2.2727
 4005TIP3   OH233649   6.477   2.191   3.228 -0.2709 -0.1127  0.7357
 4005TIP3    H133650   6.389   2.224   3.251 -1.7832 -2.5403 -1.0749
 4005TIP3    H233651   6.482   2.106   3.272 -0.6119 -1.8808 -2.3612
 4006TIP3   OH233652   1.527   5.438   2.143  0.3307  0.7930  0.2194
 4006TIP3    H133653   1.488   5.394   2.068 -3.3634  1.0022  1.8073
 4006TIP3    H233654   1.508   5.531   2.130 -1.0622  0.7519  1.7042
 4007TIP3   OH233655   0.038   0.701   8.021 -0.2433 -0.7530  0.6845
 4007TIP3    H133656   0.063   0.649   7.944 -0.2590 -0.0605  0.2010
 4007TIP3    H233657  -0.001   0.638   8.081 -0.1922 -1.3122  0.1421
 4008TIP3   OH233658   1.302   1.048   3.401  0.0614 -1.0356  0.2008
 4008TIP3    H133659   1.277   0.996   3.324 -1.9159 -0.4742  0.4204
 4008TIP3    H233660   1.357   0.988   3.452  1.9778 -1.2145 -1.8936
 4009TIP3   OH233661   0.944   1.757   2.419  0.3970 -0.0676  0.1441
 4009TIP3    H133662   1.013   1.759   2.352  1.0964 -0.5244  0.8294
 4009TIP3    H233663   0.863   1.766   2.370  0.8423 -1.2066 -0.8643
 4010TIP3   OH233664   6.578   5.129   1.605  0.2810 -0.2652  0.2643
 4010TIP3    H133665   6.498   5.135   1.553  0.7107  0.3817 -0.3414
 4010TIP3    H233666   6.638   5.077   1.551  1.6816  2.6331 -1.2130
 4011TIP3   OH233667   5.280   1.405   3.526 -0.0486  0.5481 -0.0056
 4011TIP3    H133668   5.241   1.486   3.492 -0.5849  1.1227  1.8665
 4011TIP3    H233669   5.360   1.433   3.570  0.5573 -0.1582 -0.6272
 4012TIP3   OH233670   3.020   0.742   0.025  0.7975  0.1019  0.0623
 4012TIP3    H133671   2.940   0.787   0.051  2.2983  1.9943  1.7066
 4012TIP3    H233672   3.046   0.785  -0.057  0.8684  0.4530  0.2685
 4013TIP3   OH233673   5.293   2.495   0.849  0.3353 -0.5483 -0.5220
 4013TIP3    H133674   5.322   2.586   0.834  2.2798 -1.2429 -1.3497
 4013TIP3    H233675   5.239   2.500   0.927 -1.3799  1.6435 -1.7255
 4014TIP3   OH233676   4.656   6.056   2.081 -0.2626 -0.1886 -0.3114
 4014TIP3    H133677   4.709   5.978   2.070  0.3282  0.2146 -0.3512
 4014TIP3    H233678   4.621   6.049   2.170 -1.9868 -1.5676 -1.0344
 4015TIP3   OH233679   4.801   2.785   2.231 -0.2112  0.1933 -0.0268
 4015TIP3    H133680   4.735   2.817   2.169 -0.1223 -1.0778 -0.8164
 4015TIP3    H233681   4.779   2.829   2.314 -1.6183  0.3412 -0.4455
 4016TIP3   OH233682   4.196   4.173   3.371 -0.2941 -0.1071 -0.1033
 4016TIP3    H133683   4.207   4.268   3.362  0.3976 -0.1096  0.6080
 4016TIP3    H233684   4.249   4.150   3.448  0.1523 -1.1785 -0.7087
 4017TIP3   OH233685   1.353   4.044   3.467  0.0853  0.2623 -0.6658
 4017TIP3    H133686   1.309   4.002   3.393  2.0856 -0.5494 -1.4668
 4017TIP3    H233687   1.320   4.134   3.467 -0.9222 -0.0898 -1.7156
 4018TIP3   OH233688   2.882   6.497   0.028  0.6966 -0.1336  0.3009
 4018TIP3    H133689   2.892   6.592   0.027 -0.2035 -0.0311 -0.1788
 4018TIP3    H233690   2.895   6.470  -0.063 -1.7756 -0.1316 -0.1234
 4019TIP3   OH233691   5.888   0.850   0.362  0.3192  0.0721 -0.2203
 4019TIP3    H133692   5.871   0.784   0.429  1.6139 -0.3179 -0.2388
 4019TIP3    H233693   5.849   0.813   0.282 -2.5884  1.2260  0.5393
 4020TIP3   OH233694   0.757   5.310   3.724 -0.9749  0.2966 -0.5226
 4020TIP3    H133695   0.731   5.393   3.762  1.0786 -0.4752  2.9843
 4020TIP3    H233696   0.851   5.319   3.706 -0.4397 -1.4915  0.9732
 4021TIP3   OH233697   6.407   4.149   0.900 -0.8402 -0.8214 -0.3959
 4021TIP3    H133698   6.367   4.223   0.944 -2.3138 -2.1406  0.5969
 4021TIP3    H233699   6.356   4.138   0.820  1.1861  0.9310 -2.0624
 4022TIP3   OH233700   2.717   6.760   1.496 -0.6823  0.1532  0.3759
 4022TIP3    H133701   2.645   6.786   1.439 -1.2168 -1.7049  0.1150
 4022TIP3    H233702   2.717   6.825   1.566 -1.7771  0.9256 -0.3109
 4023TIP3   OH233703   2.778   1.270   1.005 -0.4791  0.5020  0.0995
 4023TIP3    H133704   2.794   1.336   1.072 -0.8240  2.2378 -1.4370
 4023TIP3    H233705   2.683   1.261   1.003 -0.3873 -1.2833  1.3759
 4024TIP3   OH233706   3.807   6.768   8.336  0.1078  0.1246 -0.1033
 4024TIP3    H133707   3.841   6.709   8.269  1.7738  0.5056  0.3762
 4024TIP3    H233708   3.867   6.843   8.335 -1.0236  1.0742  0.4306
 4025TIP3   OH233709   6.133   0.182   8.844  0.4198 -0.3014 -0.2293
 4025TIP3    H133710   6.184   0.102   8.858  1.3312 -0.1450 -2.2213
 4025TIP3    H233711   6.136   0.195   8.749 -3.1069 -0.0974 -0.4326
 4026TIP3   OH233712   0.861   5.562   3.444  0.0038 -0.0724 -0.3144
 4026TIP3    H133713   0.826   5.579   3.532  0.4786  1.9717 -0.4614
 4026TIP3    H233714   0.956   5.559   3.457  0.1065  0.7267 -0.8054
 4027TIP3   OH233715   5.441   2.281   1.865  0.0189  0.0836  0.7043
 4027TIP3    H133716   5.437   2.304   1.958 -1.1381 -1.9523  1.2290
 4027TIP3    H233717   5.487   2.197   1.862 -2.1232 -1.1572 -0.2108
 4028TIP3   OH233718   5.321   4.362   0.457  0.3023 -0.0567  0.3198
 4028TIP3    H133719   5.260   4.295   0.487  0.1677 -0.2248 -0.3173
 4028TIP3    H233720   5.343   4.336   0.368  0.6021  0.5010  0.2275
 4029TIP3   OH233721   3.067   1.349   1.008 -0.3226  0.5327 -0.1160
 4029TIP3    H133722   3.020   1.306   1.079  1.5498  0.9750  1.4574
 4029TIP3    H233723   3.091   1.278   0.948 -0.2151 -0.1236  0.6980
 4030TIP3   OH233724   1.171   6.191   0.672  0.2280 -0.4830 -0.5939
 4030TIP3    H133725   1.081   6.225   0.673  0.2984 -0.2847 -0.9054
 4030TIP3    H233726   1.174   6.136   0.594  0.5480 -0.0225 -0.9109
 4031TIP3   OH233727   6.519   6.135   3.192 -0.4010 -0.4841  0.3492
 4031TIP3    H133728   6.470   6.216   3.183 -0.1032 -0.0247  2.3671
 4031TIP3    H233729   6.592   6.144   3.131  0.1039  1.1500  1.1530
 4032TIP3   OH233730   1.337   2.572   1.707 -0.4841 -0.5684  0.6744
 4032TIP3    H133731   1.291   2.528   1.636 -0.4215 -0.7246  0.7305
 4032TIP3    H233732   1.276   2.640   1.736 -0.0282  0.2940 -0.3224
 4033TIP3   OH233733   5.340   0.566   8.625 -0.0898 -0.2228 -0.1441
 4033TIP3    H133734   5.302   0.503   8.686  0.5590 -1.8768 -1.3645
 4033TIP3    H233735   5.399   0.619   8.678 -2.2864  0.8827  1.3311
 4034TIP3   OH233736   3.433   1.034   0.256  0.5446 -0.3620 -0.1519
 4034TIP3    H133737   3.431   1.128   0.239  1.0082 -0.5447 -1.2452
 4034TIP3    H233738   3.341   1.009   0.261  0.3693 -0.2662 -2.2727
 4035TIP3   OH233739   1.532   0.840   1.835  0.3276  0.3484 -0.1439
 4035TIP3    H133740   1.458   0.798   1.879  0.3418  0.4201 -0.0500
 4035TIP3    H233741   1.545   0.789   1.755 -0.5526  1.0056 -0.7249
 4036TIP3   OH233742   6.217   1.074   1.230  0.1976  0.7071 -0.0063
 4036TIP3    H133743   6.194   0.981   1.230  2.5894  0.0576  0.3628
 4036TIP3    H233744   6.138   1.118   1.261 -0.6300 -1.3037  0.9313
 4037TIP3   OH233745   6.760   4.249   1.209  0.0785  0.0701 -0.2689
 4037TIP3    H133746   6.827   4.304   1.250 -0.4847  0.0024  0.7911
 4037TIP3    H233747   6.677   4.290   1.233 -0.3047 -0.5909 -0.4319
 4038TIP3   OH233748   6.520   6.121   2.296 -0.7239 -0.1554  0.4457
 4038TIP3    H133749   6.582   6.111   2.224 -0.5693 -0.5322  0.6296
 4038TIP3    H233750   6.551   6.199   2.343 -1.4640  0.7456 -0.5167
 4039TIP3   OH233751   1.186   3.110   1.648 -0.6561  0.1437  0.0428
 4039TIP3    H133752   1.199   3.132   1.740  0.5513  0.6264 -0.2185
 4039TIP3    H233753   1.094   3.127   1.631 -0.8163  0.3644  1.0736
 4040TIP3   OH233754   4.595   2.595   8.871  0.0709 -0.1242  0.6183
 4040TIP3    H133755   4.586   2.569   8.780  0.4025 -0.4618  0.6793
 4040TIP3    H233756   4.577   2.514   8.921 -0.9997  0.2592  0.8864
 4041TIP3   OH233757   6.061   3.621   1.419 -0.7142  0.1850  0.3193
 4041TIP3    H133758   6.023   3.639   1.504 -0.0294 -0.4335  0.7661
 4041TIP3    H233759   6.093   3.706   1.388 -0.7952  0.3738  0.7559
 4042TIP3   OH233760   4.516   3.165   3.197  0.0703 -0.1068 -0.6411
 4042TIP3    H133761   4.575   3.126   3.261 -0.0387 -0.9434 -1.0348
 4042TIP3    H233762   4.497   3.094   3.135  0.7969  0.8739 -2.0525
 4043TIP3   OH233763   6.513   4.473   0.039  0.5216  0.0212  0.2342
 4043TIP3    H133764   6.544   4.391   0.076  1.3161  1.2125  2.3408
 4043TIP3    H233765   6.592   4.520   0.011  0.3489  1.2604  1.7059
 4044TIP3   OH233766   5.711   3.066   0.462  0.1380  0.4281  0.1691
 4044TIP3    H133767   5.685   3.036   0.374  1.3432 -0.1094 -0.0341
 4044TIP3    H233768   5.778   3.132   0.446  0.8215 -0.1209  0.6747
 4045TIP3   OH233769   2.858   4.137   0.226  0.5113  0.2985 -0.1346
 4045TIP3    H133770   2.783   4.102   0.178  0.4062  1.6137 -0.9698
 4045TIP3    H233771   2.932   4.125   0.166  1.1644 -1.6462  0.9514
 4046TIP3   OH233772   2.627   2.411   3.685 -0.4755  0.4410 -0.7054
 4046TIP3    H133773   2.556   2.408   3.749 -0.9484 -0.5149 -1.2545
 4046TIP3    H233774   2.703   2.441   3.735 -0.9347  0.1423  0.2013
 4047TIP3   OH233775   0.898   3.883   2.333 -0.4565  0.1077  0.0847
 4047TIP3    H133776   0.872   3.964   2.378 -2.6830 -1.2108  1.4089
 4047TIP3    H233777   0.826   3.822   2.352  1.6316 -2.5243  0.0473
 4048TIP3   OH233778   2.545   5.274   3.494  0.9295 -0.1554 -0.6266
 4048TIP3    H133779   2.571   5.359   3.530 -0.3041  0.0412 -0.1419
 4048TIP3    H233780   2.628   5.227   3.481  1.5702 -0.9172  4.1415
 4049TIP3   OH233781   0.233   4.092   1.449  0.5950  0.0181 -0.0006
 4049TIP3    H133782   0.279   4.136   1.378  0.1704 -1.5019 -1.2874
 4049TIP3    H233783   0.143   4.085   1.418  0.4257 -0.7697  0.6296
 4050TIP3   OH233784   5.073   5.841   3.045 -0.2076 -0.0432  0.0810
 4050TIP3    H133785   4.977   5.832   3.048 -0.3660  0.5519 -1.6916
 4050TIP3    H233786   5.105   5.760   3.084 -1.4435 -0.4137  0.3988
 4051TIP3   OH233787   5.165   0.063   0.146  0.2772 -0.1988  0.3241
 4051TIP3    H133788   5.097   0.089   0.084  0.6152 -0.4681 -0.1657
 4051TIP3    H233789   5.118   0.048   0.228 -0.1947  0.0188  0.0983
 4052TIP3   OH233790   0.132   4.583   0.962  0.1201  0.0690  0.2778
 4052TIP3    H133791   0.176   4.647   0.906 -0.7274  0.1051 -0.3676
 4052TIP3    H233792   0.201   4.525   0.992  0.4767 -0.5297 -1.5893
 4053TIP3   OH233793   0.220   1.136   2.232  0.2074 -0.0634 -0.1955
 4053TIP3    H133794   0.237   1.202   2.165 -1.8377 -0.2045 -0.9060
 4053TIP3    H233795   0.212   1.186   2.313 -0.5205  0.4815 -0.5936
 4054TIP3   OH233796   5.428   2.787   0.960 -0.1431 -0.5911  0.0373
 4054TIP3    H133797   5.383   2.859   1.004  0.7084 -0.2456  0.3682
 4054TIP3    H233798   5.372   2.765   0.885 -0.9798 -0.3541  0.5865
 4055TIP3   OH233799   5.895   1.384   0.695 -0.3150  0.1444  0.7607
 4055TIP3    H133800   5.952   1.320   0.738 -1.4009 -2.6784 -1.6410
 4055TIP3    H233801   5.945   1.413   0.619 -0.8460  0.0691  0.3768
 4056TIP3   OH233802   2.875   0.247   1.720  0.3081 -0.0687 -0.5399
 4056TIP3    H133803   2.838   0.159   1.729  0.3734 -0.4877 -3.4101
 4056TIP3    H233804   2.800   0.302   1.699  0.6995 -0.1702 -2.3583
 4057TIP3   OH233805   5.712   2.095   2.097  0.1302 -0.2302  0.1187
 4057TIP3    H133806   5.799   2.075   2.062 -0.3111 -0.9971 -0.5921
 4057TIP3    H233807   5.714   2.188   2.118  1.2389 -0.3233  0.4730
 4058TIP3   OH233808   0.656   1.416   0.212 -0.0203 -0.1594  0.1288
 4058TIP3    H133809   0.610   1.333   0.222 -0.8733  0.0195 -1.8975
 4058TIP3    H233810   0.738   1.392   0.168 -0.8725  0.1811 -1.7204
 4059TIP3   OH233811   6.734   2.226   4.061  0.0591  0.4293 -0.2447
 4059TIP3    H133812   6.750   2.302   4.118 -2.4198  0.6319  0.2914
 4059TIP3    H233813   6.821   2.195   4.038  1.1867  1.1185  2.6357
 4060TIP3   OH233814   0.629   6.528   0.368  0.4392 -0.0961 -0.2331
 4060TIP3    H133815   0.633   6.542   0.274 -2.6991  0.4882 -0.3858
 4060TIP3    H233816   0.540   6.496   0.384  0.9358 -0.3875  2.5205
 4061TIP3   OH233817   6.207   3.614   0.150 -0.4532 -0.3151 -0.4545
 4061TIP3    H133818   6.258   3.614   0.069 -0.0517 -1.3015 -0.2267
 4061TIP3    H233819   6.235   3.534   0.195 -1.0467 -0.0462  0.4177
 4062TIP3   OH233820   0.464   3.367   0.870  0.4847 -0.0697 -0.0023
 4062TIP3    H133821   0.396   3.418   0.824 -1.1941 -0.2514  2.1182
 4062TIP3    H233822   0.474   3.288   0.818 -0.8431  0.0389 -0.4655
 4063TIP3   OH233823   5.858   5.078   0.242  0.5418  0.3345  0.1510
 4063TIP3    H133824   5.857   5.067   0.147 -0.4708  0.1982  0.1600
 4063TIP3    H233825   5.905   5.159   0.257 -0.5311  1.1199 -0.5745
 4064TIP3   OH233826   0.873   5.184   1.713  0.4090  0.0370 -0.3253
 4064TIP3    H133827   0.844   5.142   1.794 -1.1756  0.7918 -0.4570
 4064TIP3    H233828   0.858   5.118   1.646 -1.1782  0.4355 -0.4001
 4065TIP3   OH233829   6.517   4.050   3.294 -0.3527 -0.6099 -0.1917
 4065TIP3    H133830   6.608   4.077   3.288 -0.7923  1.2020  0.7201
 4065TIP3    H233831   6.515   3.987   3.367  0.5538 -2.7271 -1.8773
 4066TIP3   OH233832   1.322   3.280   1.045  0.1643  0.3410  0.2309
 4066TIP3    H133833   1.399   3.314   0.999  0.6525 -0.6881  0.2635
 4066TIP3    H233834   1.358   3.227   1.116 -0.3974 -3.2765 -1.9113
 4067TIP3   OH233835   0.589   4.542   1.872 -0.0272 -0.0191 -0.5942
 4067TIP3    H133836   0.615   4.615   1.928 -2.3763 -0.1304  0.7590
 4067TIP3    H233837   0.597   4.576   1.783  0.1859  1.4537 -0.0342
 4068TIP3   OH233838   1.148   5.511   8.072 -0.5953 -0.4766  0.2388
 4068TIP3    H133839   1.085   5.580   8.094  0.7344  0.8764 -0.0130
 4068TIP3    H233840   1.233   5.548   8.096  0.1677 -1.9946 -0.0294
 4069TIP3   OH233841   1.808   4.894   2.695 -0.5865 -0.3192 -0.2078
 4069TIP3    H133842   1.851   4.904   2.610  1.5837  1.3941  0.9887
 4069TIP3    H233843   1.869   4.841   2.746 -0.4720  1.0665  1.1442
 4070TIP3   OH233844   4.967   1.610   2.391 -0.1300  0.0788 -0.1952
 4070TIP3    H133845   4.992   1.579   2.304  0.0539  0.6994 -0.3663
 4070TIP3    H233846   5.042   1.662   2.420  0.7137 -1.8176  1.2170
 4071TIP3   OH233847   6.768   1.343   2.257 -0.2770 -0.2578  0.3408
 4071TIP3    H133848   6.858   1.367   2.279 -1.1642  1.4940  2.5013
 4071TIP3    H233849   6.754   1.379   2.169  1.2756 -1.0523 -0.2553
 4072TIP3   OH233850   4.007   2.039   1.333  0.3359  0.8875 -0.2559
 4072TIP3    H133851   3.992   1.992   1.415 -0.2238  2.0873  0.3547
 4072TIP3    H233852   4.065   2.111   1.357  3.3928 -0.9141 -1.6773
 4073TIP3   OH233853   3.672   1.147   2.300  0.6347 -0.0843 -0.2445
 4073TIP3    H133854   3.652   1.083   2.232 -1.3333 -0.0992  0.2872
 4073TIP3    H233855   3.612   1.220   2.285  0.3545  0.0438  1.2580
 4074TIP3   OH233856   5.688   4.788   1.516  0.0789 -0.6284 -0.3170
 4074TIP3    H133857   5.667   4.702   1.553 -0.4558 -0.0199  0.8277
 4074TIP3    H233858   5.689   4.773   1.421 -0.8624 -1.7233 -0.1779
 4075TIP3   OH233859   6.525   0.457   8.433  0.0108 -0.3835  0.1433
 4075TIP3    H133860   6.591   0.391   8.412  0.4277  0.1915 -0.3942
 4075TIP3    H233861   6.499   0.436   8.523  2.3193  0.4719  1.1045
 4076TIP3   OH233862   6.300   5.930   8.380  0.4068 -0.4094 -0.3433
 4076TIP3    H133863   6.316   5.935   8.286  0.0807  0.0112 -0.3789
 4076TIP3    H233864   6.213   5.891   8.387 -0.6397  1.7913 -0.3010
 4077TIP3   OH233865   6.686   0.776   3.951 -0.4893 -0.2343  0.0037
 4077TIP3    H133866   6.759   0.837   3.936  1.2033 -2.3659 -0.9046
 4077TIP3    H233867   6.722   0.709   4.009 -1.4407 -1.7938 -1.1306
 4078TIP3   OH233868   2.996   2.829   8.131  0.1958  0.6362  0.1186
 4078TIP3    H133869   2.912   2.843   8.175  0.3310  0.3984  0.4621
 4078TIP3    H233870   2.992   2.883   8.053  0.7705  2.7689  1.4767
 4079TIP3   OH233871   4.407   5.953   3.270 -0.8141 -0.4380  0.3524
 4079TIP3    H133872   4.340   6.019   3.254  0.4092  0.8691  0.4715
 4079TIP3    H233873   4.454   5.984   3.347  0.4450 -0.9078 -0.2026
 4080TIP3   OH233874   1.510   4.262   0.674  0.0800  0.1047  0.5476
 4080TIP3    H133875   1.427   4.273   0.629  0.2216 -0.0204  0.2469
 4080TIP3    H233876   1.531   4.349   0.708 -0.2583  0.0977  0.7772
 4081TIP3   OH233877   4.224   0.185   1.570 -0.3287 -0.1542 -0.1229
 4081TIP3    H133878   4.134   0.167   1.597  0.5026  0.5863  3.6816
 4081TIP3    H233879   4.242   0.273   1.605  2.1566 -0.6966  0.1086
 4082TIP3   OH233880   5.034   4.260   2.260 -0.2802 -0.1352 -0.3333
 4082TIP3    H133881   4.968   4.233   2.323 -0.8358  0.4080 -0.6699
 4082TIP3    H233882   5.013   4.210   2.181 -0.0231 -0.2840 -0.3081
 4083TIP3   OH233883   0.154   1.356   1.568 -0.4211  0.6428 -0.0390
 4083TIP3    H133884   0.214   1.430   1.562 -0.8458  0.9989  0.1026
 4083TIP3    H233885   0.187   1.293   1.503 -0.9778  1.6121 -1.2938
 4084TIP3   OH233886   1.466   6.567   2.944  0.2932  0.2645  0.4153
 4084TIP3    H133887   1.377   6.558   2.979  0.6648 -1.0796  1.0705
 4084TIP3    H233888   1.489   6.658   2.960 -0.7567  0.4846  0.7433
 4085TIP3   OH233889   2.411   4.222   1.511 -0.3443  0.5039  0.0465
 4085TIP3    H133890   2.399   4.157   1.579  2.0496 -1.1368 -0.9365
 4085TIP3    H233891   2.445   4.299   1.556  1.7550 -0.7458  0.7477
 4086TIP3   OH233892   4.590   0.185   0.468 -0.5153  0.9666  0.5663
 4086TIP3    H133893   4.502   0.216   0.488 -0.0585  0.8692  3.0253
 4086TIP3    H233894   4.642   0.266   0.460 -0.2585  1.0125  2.2670
 4087TIP3   OH233895   5.953   6.647   8.649  0.5279 -0.0637 -0.1076
 4087TIP3    H133896   6.038   6.673   8.613  0.8675 -0.5448  0.3373
 4087TIP3    H233897   5.898   6.633   8.572  1.6271 -2.4325 -0.5354
 4088TIP3   OH233898   0.094   4.119   2.122 -0.2185 -0.4304 -0.0079
 4088TIP3    H133899   0.063   4.209   2.125 -0.8826 -0.6339 -0.4014
 4088TIP3    H233900   0.181   4.124   2.083  0.2405  0.1497  1.0584
 4089TIP3   OH233901   3.061   2.687   2.975  0.1505 -0.0987  0.0640
 4089TIP3    H133902   3.091   2.742   2.902 -1.6445  0.5377 -0.2476
 4089TIP3    H233903   3.022   2.611   2.934  1.3624 -0.9684  0.4654
 4090TIP3   OH233904   1.555   0.354   1.494  0.2512 -0.0277  0.3855
 4090TIP3    H133905   1.498   0.420   1.533 -1.9774 -1.9695  0.6733
 4090TIP3    H233906   1.644   0.386   1.509 -0.7051  2.1796  1.7377
 4091TIP3   OH233907   4.885   0.289   8.104  0.1310  0.5523 -0.5404
 4091TIP3    H133908   4.926   0.205   8.120 -1.0680  0.1854  0.9194
 4091TIP3    H233909   4.956   0.347   8.078  1.2368 -0.5007  0.0644
 4092TIP3   OH233910   4.720   2.098   3.123 -0.2012  0.2063 -0.3543
 4092TIP3    H133911   4.683   2.015   3.154 -0.2797  0.6889  0.8931
 4092TIP3    H233912   4.797   2.073   3.072 -0.9788 -0.6963 -1.1356
 4093TIP3   OH233913   5.777   5.697   2.817  0.1708 -0.3490  0.1516
 4093TIP3    H133914   5.777   5.746   2.899 -0.6727 -1.0884  0.6189
 4093TIP3    H233915   5.684   5.690   2.793  0.3930 -0.2354 -0.8181
 4094TIP3   OH233916   2.070   0.024   0.626  0.1321 -0.2246  0.1873
 4094TIP3    H133917   2.023   0.089   0.573 -1.4922 -1.7259 -0.3117
 4094TIP3    H233918   2.001  -0.031   0.664  1.4112 -1.1310  1.3070
 4095TIP3   OH233919   2.260   2.340   1.138 -0.7388 -0.0050  0.2813
 4095TIP3    H133920   2.282   2.383   1.221 -2.1643  1.2321  0.0724
 4095TIP3    H233921   2.207   2.265   1.164  0.1902 -0.5832  0.5552
 4096TIP3   OH233922   2.296   2.078   0.453  0.1715  0.4324  0.4602
 4096TIP3    H133923   2.219   2.086   0.509  0.0642  0.5022  0.3026
 4096TIP3    H233924   2.334   1.994   0.476  1.0574  1.1699  1.8250
 4097TIP3   OH233925   5.940   1.188   2.984 -0.7617  0.0664  0.0052
 4097TIP3    H133926   5.905   1.101   2.962  0.8578 -0.9425  1.2006
 4097TIP3    H233927   5.989   1.214   2.907  0.5115 -1.0809  0.3846
 4098TIP3   OH233928   2.014   3.641   1.753  0.1741 -0.9016  0.3999
 4098TIP3    H133929   2.028   3.560   1.803 -0.9835 -0.9797  0.6137
 4098TIP3    H233930   1.970   3.612   1.673  0.5334 -0.5707  0.0771
 4099TIP3   OH233931   2.847   2.327   8.561 -0.2340 -0.0981  0.0977
 4099TIP3    H133932   2.886   2.405   8.522 -2.2829  1.3700  0.7773
 4099TIP3    H233933   2.839   2.265   8.488  1.0994  0.4433 -0.5345
 4100TIP3   OH233934   2.650   0.864   2.230  0.1276  0.0641 -0.3443
 4100TIP3    H133935   2.574   0.847   2.175 -1.4293 -0.1431  1.7238
 4100TIP3    H233936   2.678   0.777   2.259 -0.3591  0.2413  0.7395
 4101TIP3   OH233937   4.302   2.528   2.437  0.1710  0.0242  0.1169
 4101TIP3    H133938   4.270   2.480   2.514  0.9084  1.0589  1.1027
 4101TIP3    H233939   4.326   2.459   2.374 -1.1067 -0.8212  0.5235
 4102TIP3   OH233940   6.621   0.597   0.179 -0.3859  0.1625  0.6012
 4102TIP3    H133941   6.699   0.541   0.183 -1.0337 -0.7269  1.1822
 4102TIP3    H233942   6.653   0.684   0.202  1.3649  0.9447 -3.8686
 4103TIP3   OH233943   0.813   2.802   3.602  0.3636 -0.5322  0.6713
 4103TIP3    H133944   0.732   2.816   3.553  0.4594  1.3935  1.0025
 4103TIP3    H233945   0.853   2.726   3.560 -0.9711 -0.7232 -0.3259
 4104TIP3   OH233946   3.935   4.535   8.541  0.2272  0.3023  0.4281
 4104TIP3    H133947   3.906   4.582   8.619 -0.7981  0.9789 -0.3294
 4104TIP3    H233948   3.896   4.448   8.550 -0.1972  0.4957  0.5033
 4105TIP3   OH233949   4.330   0.843   0.168 -0.0868 -0.0837  0.0615
 4105TIP3    H133950   4.330   0.939   0.172 -0.8474 -0.0992  0.5641
 4105TIP3    H233951   4.415   0.821   0.129 -0.6133  0.8661 -1.7710
 4106TIP3   OH233952   3.413   3.344   1.664 -0.9339  0.4162 -0.5820
 4106TIP3    H133953   3.352   3.270   1.667 -0.2940 -0.1175 -0.3284
 4106TIP3    H233954   3.406   3.385   1.749  1.0363 -1.3198  0.5269
 4107TIP3   OH233955   1.471   3.570   2.319  0.1478  0.2338 -0.7558
 4107TIP3    H133956   1.449   3.480   2.297 -1.1995 -0.1951  1.8611
 4107TIP3    H233957   1.567   3.573   2.315  0.1623 -1.0000 -1.9175
 4108TIP3   OH233958   0.990   2.373   2.110 -0.1401  1.1875 -0.6642
 4108TIP3    H133959   0.914   2.390   2.166 -0.5356 -0.1100 -0.7808
 4108TIP3    H233960   0.953   2.354   2.024  0.2303 -0.5244 -0.4704
 4109TIP3   OH233961   1.434   1.275   4.441  0.2644 -0.3928 -0.2625
 4109TIP3    H133962   1.395   1.332   4.507  0.1662 -1.0094  0.2156
 4109TIP3    H233963   1.455   1.334   4.368  0.0074  0.2231  0.1550
 4110TIP3   OH233964   6.405   6.370   3.114  0.3202 -0.0426 -0.0108
 4110TIP3    H133965   6.360   6.366   3.029 -1.7360 -0.9176  1.0244
 4110TIP3    H233966   6.439   6.459   3.119 -0.7011  0.4591 -1.2078
 4111TIP3   OH233967   4.333   4.636   3.708  0.4048  0.2546  0.1005
 4111TIP3    H133968   4.417   4.646   3.754  1.2063 -2.2519 -0.6909
 4111TIP3    H233969   4.299   4.551   3.737 -1.3136  0.6926 -0.4961
 4112TIP3   OH233970   5.494   3.888   3.902  0.5379 -0.0979 -0.0131
 4112TIP3    H133971   5.581   3.886   3.862  0.4972  0.8435 -0.1756
 4112TIP3    H233972   5.490   3.809   3.955  0.8845 -0.9952 -1.2738
 4113TIP3   OH233973   0.306   3.881   0.226 -0.0541  0.0205 -0.3697
 4113TIP3    H133974   0.394   3.914   0.242 -0.9204  1.6757  1.2956
 4113TIP3    H233975   0.260   3.954   0.186 -1.8679  0.8139  2.8945
 4114TIP3   OH233976   6.080   5.636   2.486 -0.1659 -0.1212 -0.0819
 4114TIP3    H133977   6.150   5.637   2.421 -0.9688 -1.6723 -1.0513
 4114TIP3    H233978   5.999   5.641   2.434 -0.8245  2.5284  1.0506
 4115TIP3   OH233979   6.292   1.389   1.927  0.1359  0.7958 -0.1598
 4115TIP3    H133980   6.197   1.395   1.934  0.1061  0.0384  0.1470
 4115TIP3    H233981   6.315   1.308   1.972  0.9386  1.0124 -0.1573
 4116TIP3   OH233982   2.874   2.465   2.937  0.3226 -0.2193  0.5331
 4116TIP3    H133983   2.937   2.440   2.870  1.1048 -0.2299  1.2444
 4116TIP3    H233984   2.790   2.469   2.892  0.9006  0.2230 -0.5298
 4117TIP3   OH233985   2.272   4.357   1.036  0.0127  0.2264  0.2943
 4117TIP3    H133986   2.185   4.392   1.056  0.2955  0.8440  0.4893
 4117TIP3    H233987   2.325   4.380   1.113  0.2650 -0.4463  0.3242
 4118TIP3   OH233988   6.125   4.267   1.943 -0.3894 -0.0530 -0.1348
 4118TIP3    H133989   6.110   4.240   2.033 -1.5318  0.6831 -0.0729
 4118TIP3    H233990   6.119   4.363   1.946 -2.2485 -0.0832 -1.2537
 4119TIP3   OH233991   4.409   4.387   0.900  0.2922  0.2311 -0.3456
 4119TIP3    H133992   4.345   4.353   0.838  0.6050  1.2749 -1.2575
 4119TIP3    H233993   4.486   4.330   0.888 -0.4920 -1.1730  0.9194
 4120TIP3   OH233994   1.474   1.617   3.509 -0.4503 -0.6770 -0.1281
 4120TIP3    H133995   1.536   1.560   3.554 -0.2023  0.0980  0.5306
 4120TIP3    H233996   1.403   1.558   3.482 -0.1119 -1.3263  0.3701
 4121TIP3   OH233997   2.533   3.839   0.409 -0.5132  0.6997 -0.2551
 4121TIP3    H133998   2.441   3.846   0.380  0.0523 -0.6920 -2.6469
 4121TIP3    H233999   2.580   3.901   0.353  0.3875 -0.8149 -1.2507
 4122TIP3   OH234000   1.675   0.136   2.443 -0.3839  0.1375 -0.2686
 4122TIP3    H134001   1.584   0.162   2.457 -0.1066  0.2582  1.5924
 4122TIP3    H234002   1.706   0.192   2.371 -1.5481  0.6499 -0.3845
 4123TIP3   OH234003   5.354   4.839   2.998  0.1070 -0.8070 -0.0433
 4123TIP3    H134004   5.444   4.853   2.967  0.7974 -1.1768  1.6935
 4123TIP3    H234005   5.305   4.914   2.964  1.3902  0.1737  0.2132
 4124TIP3   OH234006   6.185   5.928   2.396  0.1513 -0.0831 -0.2228
 4124TIP3    H134007   6.152   5.839   2.382  0.9174 -0.5506  0.8453
 4124TIP3    H234008   6.228   5.951   2.314  0.4293 -0.9093 -0.3126
 4125TIP3   OH234009   6.520   0.454   1.874  0.1744  0.3351 -0.3546
 4125TIP3    H134010   6.476   0.437   1.958  0.0807 -0.6467 -0.5938
 4125TIP3    H234011   6.604   0.409   1.882  0.6540  1.2127 -0.3559
 4126TIP3   OH234012   3.495   6.316   0.588 -0.4185  0.4028 -0.4206
 4126TIP3    H134013   3.402   6.293   0.589 -0.3539  0.1186 -0.5686
 4126TIP3    H234014   3.536   6.250   0.645 -0.0041 -0.9370 -2.1640
 4127TIP3   OH234015   0.476   5.220   3.065  0.6557 -0.2910  0.1428
 4127TIP3    H134016   0.547   5.190   3.008  2.7624  0.7093  2.0681
 4127TIP3    H234017   0.478   5.161   3.140 -0.4649 -0.1310  0.3221
 4128TIP3   OH234018   5.642   3.027   1.260 -0.1601  0.2241  0.5724
 4128TIP3    H134019   5.656   3.063   1.173  0.9566 -1.3635  0.0527
 4128TIP3    H234020   5.726   3.035   1.304 -0.5496  0.4518  1.3043
 4129TIP3   OH234021   4.858   3.940   0.412 -0.1054 -0.2558 -1.0635
 4129TIP3    H134022   4.902   3.862   0.444  0.4277 -0.1766 -1.5898
 4129TIP3    H234023   4.881   3.944   0.319 -1.7123 -0.5527 -1.5056
 4130TIP3   OH234024   0.144   3.347   1.006 -0.3769  0.7316 -0.0924
 4130TIP3    H134025   0.174   3.259   1.029 -1.3712  0.2452 -0.6011
 4130TIP3    H234026   0.123   3.387   1.090  2.0972  1.2818  0.3452
 4131TIP3   OH234027   0.157   6.794   1.920 -0.5472  0.1733 -0.8245
 4131TIP3    H134028   0.072   6.790   1.875 -0.8350  2.0025 -0.4979
 4131TIP3    H234029   0.206   6.860   1.872  0.7858 -0.9728 -1.1004
 4132TIP3   OH234030   1.851   4.205   1.004  0.8675 -0.1466 -0.8232
 4132TIP3    H134031   1.943   4.179   0.996  0.9198  0.0655 -0.9020
 4132TIP3    H234032   1.812   4.184   0.919  0.9305  0.1126 -0.9176
 4133TIP3   OH234033   5.603   2.404   2.561 -0.8992 -0.0948 -0.3100
 4133TIP3    H134034   5.696   2.384   2.561 -0.3458  1.8306  2.4690
 4133TIP3    H234035   5.569   2.359   2.639 -1.6646  1.4906  0.3077
 4134TIP3   OH234036   0.852   2.282   1.669 -0.9543  0.2883  0.1552
 4134TIP3    H134037   0.804   2.206   1.634 -0.5244  0.6870 -1.3618
 4134TIP3    H234038   0.861   2.263   1.762  0.4364 -2.2728 -0.3970
 4135TIP3   OH234039   4.002   2.215   2.333  1.0386  0.5579  0.2709
 4135TIP3    H134040   3.930   2.256   2.381  0.1065 -1.5050  0.7527
 4135TIP3    H234041   4.051   2.166   2.399  0.4443 -1.3493 -0.6240
 4136TIP3   OH234042   1.425   1.979   8.556 -0.3260  0.0056  0.0510
 4136TIP3    H134043   1.468   1.901   8.593 -0.7446 -0.4273 -0.3661
 4136TIP3    H234044   1.489   2.049   8.568  0.2346 -0.4925  0.0339
 4137TIP3   OH234045   4.595   0.520   7.700  0.4342  0.5852 -0.5204
 4137TIP3    H134046   4.616   0.530   7.792 -2.2173  0.7322  0.1680
 4137TIP3    H234047   4.582   0.426   7.688 -1.0523  0.7113 -0.2031
 4138TIP3   OH234048   6.335   2.334   1.827 -0.1091  0.5712 -0.5557
 4138TIP3    H134049   6.362   2.252   1.786  0.9943  0.5083  0.2451
 4138TIP3    H234050   6.397   2.399   1.793  1.2911  0.3925  1.4553
 4139TIP3   OH234051   4.406   5.494   3.219 -0.0395  0.5433 -0.1805
 4139TIP3    H134052   4.375   5.518   3.132 -0.0606 -1.1894 -0.6886
 4139TIP3    H234053   4.497   5.524   3.222 -0.0834  0.7348 -0.7437
 4140TIP3   OH234054   0.040   3.859   3.029 -0.0348  0.1362 -0.2728
 4140TIP3    H134055   0.008   3.879   2.941 -0.5037 -0.4669 -0.2486
 4140TIP3    H234056  -0.039   3.845   3.081  0.2256 -2.1111 -0.3898
 4141TIP3   OH234057   5.381   2.007   2.161  0.1806  0.5456 -0.5108
 4141TIP3    H134058   5.387   2.102   2.174  3.2195  0.4471 -0.3912
 4141TIP3    H234059   5.467   1.975   2.187 -0.7544 -2.2670 -0.6254
 4142TIP3   OH234060   1.192   2.029   1.427 -0.5985 -0.1099 -0.1148
 4142TIP3    H134061   1.145   2.044   1.509  0.9939  0.4321  0.7574
 4142TIP3    H234062   1.137   2.069   1.360  0.4282  4.2830  1.3217
 4143TIP3   OH234063   1.572   6.074   3.556 -0.1223  0.0345 -0.3951
 4143TIP3    H134064   1.558   6.132   3.632  0.9237  0.0359 -0.1957
 4143TIP3    H234065   1.536   5.990   3.584  1.9324 -0.4885  0.8525
 4144TIP3   OH234066   2.144   2.831   1.376  0.0341 -0.4327 -0.1798
 4144TIP3    H134067   2.127   2.795   1.463 -0.5607 -0.7836 -0.4331
 4144TIP3    H234068   2.057   2.852   1.341  0.2887 -0.0025 -0.5668
 4145TIP3   OH234069   5.009   1.400   3.744  0.2104  0.3231 -0.4828
 4145TIP3    H134070   5.099   1.382   3.773  0.2068 -1.2470 -1.3186
 4145TIP3    H234071   4.957   1.399   3.824  0.6634 -0.7719 -0.1829
 4146TIP3   OH234072   5.947   0.287   3.027 -0.1103  0.4651 -0.4633
 4146TIP3    H134073   5.966   0.193   3.035 -0.0087  0.4262 -1.1607
 4146TIP3    H234074   5.932   0.315   3.117  3.1578  0.4792  0.1863
 4147TIP3   OH234075   4.673   1.061   3.542  0.5084 -0.3625  0.5177
 4147TIP3    H134076   4.689   1.026   3.629  1.5463  0.1547  0.5584
 4147TIP3    H234077   4.626   0.992   3.495 -0.2311 -0.5680  1.5368
 4148TIP3   OH234078   1.964   3.243   1.583  0.4858  0.1843 -0.5375
 4148TIP3    H134079   1.915   3.199   1.514 -0.4522 -2.4488  1.6138
 4148TIP3    H234080   2.056   3.234   1.556  0.4606 -4.1919  0.1261
 4149TIP3   OH234081   2.251   2.655   2.288 -0.0834 -1.1699  0.1822
 4149TIP3    H134082   2.275   2.571   2.249 -0.6689 -0.4468 -1.8536
 4149TIP3    H234083   2.169   2.637   2.334  0.8656 -2.1510  1.5711
 4150TIP3   OH234084   4.230   0.123   2.618  0.7684 -0.2630 -0.3469
 4150TIP3    H134085   4.201   0.073   2.541  0.3054 -0.5469  0.0109
 4150TIP3    H234086   4.218   0.214   2.592 -0.0104 -0.3673 -0.3791
 4151TIP3   OH234087   5.176   5.736   8.680 -0.2333  0.4690 -0.1156
 4151TIP3    H134088   5.175   5.650   8.724 -0.5657  0.1043 -0.8229
 4151TIP3    H234089   5.101   5.733   8.621  1.9520 -0.3092 -3.0844
 4152TIP3   OH234090   4.918   4.254   8.037 -0.5250 -0.3465  0.0380
 4152TIP3    H134091   4.880   4.314   8.101  1.4605  1.0696 -0.0502
 4152TIP3    H234092   5.012   4.254   8.056 -0.1786 -1.6440 -1.4595
 4153TIP3   OH234093   6.558   3.813   3.108 -0.5003  0.4488  0.1226
 4153TIP3    H134094   6.519   3.883   3.160 -1.8464 -0.4541  0.3892
 4153TIP3    H234095   6.609   3.762   3.171 -2.0119 -0.5604  0.6018
 4154TIP3   OH234096   3.251   2.474   3.449  0.4077 -0.3058  0.1438
 4154TIP3    H134097   3.175   2.489   3.506  0.3203 -0.2863  0.0229
 4154TIP3    H234098   3.275   2.561   3.417 -0.8493 -0.5188 -1.5188
 4155TIP3   OH234099   0.920   5.567   1.147 -0.2045  0.4790 -0.2307
 4155TIP3    H134100   0.958   5.502   1.207 -0.2033 -0.3496 -1.1028
 4155TIP3    H234101   0.869   5.625   1.204 -1.6226 -1.2964  0.4130
 4156TIP3   OH234102   0.627   4.358   2.491 -0.4112 -0.1435  0.0561
 4156TIP3    H134103   0.706   4.323   2.532  1.2640  1.7572 -1.3439
 4156TIP3    H234104   0.639   4.342   2.398 -1.0809  1.2286 -0.2901
 4157TIP3   OH234105   6.539   3.535   0.464  0.1472 -0.4958  0.0020
 4157TIP3    H134106   6.507   3.529   0.554  0.6959  0.1460  0.2497
 4157TIP3    H234107   6.482   3.477   0.415  0.5151 -1.7059  0.9438
 4158TIP3   OH234108   1.670   3.126   2.969 -0.1251  0.1189 -0.2086
 4158TIP3    H134109   1.680   3.196   3.034 -0.2642 -0.5727  0.5691
 4158TIP3    H234110   1.666   3.172   2.885  0.5358  0.9962  0.2234
 4159TIP3   OH234111   1.282   5.262   0.304  0.1394 -0.0977  0.3086
 4159TIP3    H134112   1.209   5.272   0.365 -0.8258  2.4052 -1.0846
 4159TIP3    H234113   1.344   5.331   0.328  1.1293 -0.9334  0.2311
 4160TIP3   OH234114   1.563   4.119   1.862  0.2453 -0.3373  0.0389
 4160TIP3    H134115   1.529   4.200   1.898 -0.5051 -0.2901 -0.7399
 4160TIP3    H234116   1.502   4.052   1.892  1.0737 -0.6976  1.0021
 4161TIP3   OH234117   2.819   4.815   8.265  0.5456 -0.0730  0.2740
 4161TIP3    H134118   2.823   4.860   8.349 -2.0458  1.4295 -0.2798
 4161TIP3    H234119   2.800   4.885   8.202  0.3643 -1.4256 -1.2290
 4162TIP3   OH234120   0.240   3.922   3.316  0.2936  0.2152 -0.4785
 4162TIP3    H134121   0.251   3.971   3.397  0.7389  1.0945 -1.0431
 4162TIP3    H234122   0.278   3.836   3.333  0.1263  0.2958  0.3184
 4163TIP3   OH234123   0.212   5.360   3.198 -0.1055  0.4329 -0.1730
 4163TIP3    H134124   0.237   5.338   3.108 -0.6803  1.7607 -0.6896
 4163TIP3    H234125   0.265   5.303   3.253 -0.5552 -1.1890 -1.3746
 4164TIP3   OH234126   6.307   3.811   2.413 -0.0096 -0.0565  0.1048
 4164TIP3    H134127   6.340   3.884   2.360 -1.4517 -0.5346 -1.5336
 4164TIP3    H234128   6.229   3.781   2.367  0.8054 -2.9832  0.4261
 4165TIP3   OH234129   4.102   2.614   0.907  0.0070  0.6850 -0.4940
 4165TIP3    H134130   4.027   2.657   0.867 -0.1725  1.1308  0.3147
 4165TIP3    H234131   4.073   2.591   0.995 -0.9250 -3.6873 -1.6933
 4166TIP3   OH234132   3.311   0.173   8.810 -0.3844  0.5836  0.8851
 4166TIP3    H134133   3.318   0.080   8.793 -0.4982  0.7758 -0.2639
 4166TIP3    H234134   3.400   0.201   8.831 -0.3569  0.2215  1.2735
 4167TIP3   OH234135   2.712   2.814   2.278 -0.0027 -0.1983 -0.2876
 4167TIP3    H134136   2.753   2.852   2.356 -0.0256 -1.1996  0.2267
 4167TIP3    H234137   2.667   2.736   2.310 -0.9481 -0.0119 -1.1275
 4168TIP3   OH234138   2.590   4.416   7.867  0.1343 -1.2631 -0.2542
 4168TIP3    H134139   2.589   4.427   7.772  1.2516  1.6328 -0.0119
 4168TIP3    H234140   2.602   4.321   7.879  1.6531 -1.5472 -3.0119
 4169TIP3   OH234141   1.790   2.046   1.971  0.4652 -0.2174 -0.3136
 4169TIP3    H134142   1.834   1.993   1.904 -0.9628 -1.7954 -0.0680
 4169TIP3    H234143   1.717   2.088   1.924  0.7329  0.4121 -0.1844
 4170TIP3   OH234144   5.899   5.876   2.999 -0.0648 -0.2631 -0.5907
 4170TIP3    H134145   5.839   5.950   2.990 -2.1208 -2.0274 -2.8410
 4170TIP3    H234146   5.883   5.842   3.087  0.9956  1.9152  0.5238
 4171TIP3   OH234147   0.591   1.731   1.711  0.3018 -0.3226  0.2553
 4171TIP3    H134148   0.576   1.818   1.674  0.1688 -0.2693  0.4304
 4171TIP3    H234149   0.578   1.743   1.805  1.3045 -0.3017  0.4069
 4172TIP3   OH234150   2.144   0.293   1.945 -0.2396  0.3427 -0.4842
 4172TIP3    H134151   2.080   0.225   1.923 -1.8489  1.2082  1.1560
 4172TIP3    H234152   2.195   0.306   1.866 -1.9316 -0.6128 -1.7886
 4173TIP3   OH234153   3.863   2.637   3.687  1.0277  0.2285 -0.5295
 4173TIP3    H134154   3.770   2.619   3.674  1.4308 -3.4417  0.6443
 4173TIP3    H234155   3.866   2.699   3.760 -0.5332 -1.7336  1.3156
 4174TIP3   OH234156   1.893   3.452   0.234  0.3274  0.3161 -0.2245
 4174TIP3    H134157   1.988   3.464   0.230  0.2699  0.4668 -1.8761
 4174TIP3    H234158   1.876   3.379   0.175 -0.6617  0.8951 -0.6851
 4175TIP3   OH234159   2.299   5.944   2.869  0.0520  0.0146  0.5120
 4175TIP3    H134160   2.314   5.853   2.845 -3.8539 -1.2682  2.1218
 4175TIP3    H234161   2.373   5.967   2.926  2.3333 -1.2450 -1.7548
 4176TIP3   OH234162   6.043   0.849   2.712  0.0422 -0.3309 -0.0670
 4176TIP3    H134163   6.030   0.755   2.696 -0.2691 -0.2620 -0.2309
 4176TIP3    H234164   6.134   0.856   2.741  0.1270 -0.6610 -0.2476
 4177TIP3   OH234165   0.087   4.945   3.077 -0.0842 -0.1672  0.2352
 4177TIP3    H134166   0.182   4.935   3.072 -0.1301 -0.1997 -1.1090
 4177TIP3    H234167   0.056   4.913   2.992 -1.1086  1.8272 -0.1917
 4178TIP3   OH234168   6.439   2.881   1.893 -0.8121 -0.2274 -0.1678
 4178TIP3    H134169   6.520   2.920   1.858  0.5984 -0.5867  2.3880
 4178TIP3    H234170   6.460   2.864   1.985 -2.7918 -3.1829 -0.1415
 4179TIP3   OH234171   2.378   2.711   2.703 -0.3828  0.0142 -0.0461
 4179TIP3    H134172   2.444   2.751   2.759 -2.6062  2.2635  1.1659
 4179TIP3    H234173   2.406   2.731   2.614  1.8993 -1.4596  0.2487
 4180TIP3   OH234174   0.021   3.735   2.099  0.0391  0.2119 -0.1469
 4180TIP3    H134175   0.001   3.649   2.062 -0.5668  0.5818 -0.7075
 4180TIP3    H234176   0.115   3.733   2.114 -0.1255 -0.9718  0.9567
 4181TIP3   OH234177   6.117   2.400   3.740 -0.2742 -0.0704  0.2728
 4181TIP3    H134178   6.052   2.330   3.737  0.5607 -0.8625 -0.1114
 4181TIP3    H234179   6.105   2.441   3.825 -3.0914  1.6263 -0.8193
 4182TIP3   OH234180   6.693   3.139   2.419 -0.3291 -0.3562 -0.0328
 4182TIP3    H134181   6.618   3.085   2.447 -1.4916  1.0864 -0.2266
 4182TIP3    H234182   6.737   3.161   2.501  0.7450 -2.3138 -0.0057
 4183TIP3   OH234183   0.796   0.533   2.487  0.5700 -0.8713  0.4762
 4183TIP3    H134184   0.776   0.563   2.576 -1.2802 -2.0629  0.5004
 4183TIP3    H234185   0.730   0.468   2.468  0.3187  0.0484 -2.1767
 4184TIP3   OH234186   3.548   0.004   1.099 -0.3778  0.2905  0.2071
 4184TIP3    H134187   3.455   0.009   1.078 -0.7460  0.0180  1.6193
 4184TIP3    H234188   3.591  -0.017   1.016 -1.7285 -1.0002 -0.2174
 4185TIP3   OH234189   1.376   6.686   8.554 -0.0016  0.0555 -0.3679
 4185TIP3    H134190   1.436   6.692   8.628 -4.1298  0.0031  3.4445
 4185TIP3    H234191   1.367   6.776   8.523  0.8069  0.3043  0.0994
 4186TIP3   OH234192   4.627   0.419   2.122  0.5154  0.1941 -0.5772
 4186TIP3    H134193   4.550   0.467   2.093  1.1287  0.6346 -1.5269
 4186TIP3    H234194   4.605   0.327   2.106  0.4670  0.3671 -1.5767
 4187TIP3   OH234195   1.407   5.689   0.247  0.1885  0.3394  0.0146
 4187TIP3    H134196   1.484   5.663   0.195  0.1534  4.9182 -2.9007
 4187TIP3    H234197   1.332   5.666   0.192 -0.0652  1.9774 -0.3729
 4188TIP3   OH234198   2.753   6.255   0.556 -0.2766 -0.4336 -0.3484
 4188TIP3    H134199   2.749   6.178   0.501  1.2034 -0.8634  0.0920
 4188TIP3    H234200   2.662   6.271   0.583 -0.5676 -2.2391 -0.1462
 4189TIP3   OH234201   1.700   1.544   1.217  0.6950  0.5183  0.1999
 4189TIP3    H134202   1.626   1.497   1.256 -0.7928  2.2092 -0.4424
 4189TIP3    H234203   1.741   1.589   1.291  2.9854 -2.6780  1.0652
 4190TIP3   OH234204   4.493   5.779   3.934 -0.7010 -0.3438 -0.4168
 4190TIP3    H134205   4.446   5.744   4.009 -0.7821 -1.0229 -0.7784
 4190TIP3    H234206   4.426   5.827   3.884 -0.6647  0.0354 -0.1033
 4191TIP3   OH234207   2.852   2.109   1.416 -0.3254  0.0428  0.1372
 4191TIP3    H134208   2.849   2.180   1.352  1.0062  0.9018  0.9920
 4191TIP3    H234209   2.791   2.043   1.382  1.0247  0.0473 -2.5163
 4192TIP3   OH234210   5.376   4.148   3.234  0.2139  0.3084  0.1059
 4192TIP3    H134211   5.419   4.095   3.167 -2.2259 -0.9899 -0.5679
 4192TIP3    H234212   5.379   4.093   3.313  0.9320  0.7890  0.4216
 4193TIP3   OH234213   3.616   4.009   8.791  0.2253 -0.2240 -0.4542
 4193TIP3    H134214   3.675   4.079   8.820  1.0896 -1.4083  0.7421
 4193TIP3    H234215   3.580   4.041   8.708 -0.7218  2.3976  0.8441
 4194TIP3   OH234216   4.832   4.977   0.415  0.1505 -0.1477  0.0492
 4194TIP3    H134217   4.888   5.050   0.388  0.3569 -0.3457 -0.0635
 4194TIP3    H234218   4.759   5.018   0.461  1.1364  0.0396  1.5284
 4195TIP3   OH234219   4.041   3.782   8.708 -0.1637 -0.2278  0.2402
 4195TIP3    H134220   4.087   3.830   8.638 -0.3122 -1.8348 -1.0266
 4195TIP3    H234221   3.977   3.728   8.661 -0.2269 -1.3976  1.6222
 4196TIP3   OH234222   3.170   2.005   0.026 -0.1426 -0.3706 -0.1364
 4196TIP3    H134223   3.127   1.925   0.056 -0.9392  0.1839  0.2311
 4196TIP3    H234224   3.262   1.993   0.050 -0.0632 -1.5498 -0.8860
 4197TIP3   OH234225   3.248   0.117   1.251  0.2108 -0.1804  0.2573
 4197TIP3    H134226   3.290   0.107   1.337 -0.4823 -1.4138  0.4686
 4197TIP3    H234227   3.199   0.036   1.238 -2.0392  1.1253 -0.0218
 4198TIP3   OH234228   1.814   1.249   2.931  0.3453 -0.2356 -0.6555
 4198TIP3    H134229   1.850   1.337   2.934  0.4508 -0.0471 -3.8519
 4198TIP3    H234230   1.750   1.246   3.001  0.8838  2.1089  0.0123
 4199TIP3   OH234231   4.010   5.599   0.880  0.1020  0.3192 -0.5350
 4199TIP3    H134232   3.956   5.671   0.913  0.2363  0.6220 -0.9736
 4199TIP3    H234233   4.072   5.641   0.821  0.6334 -0.0682 -0.2561
 4200TIP3   OH234234   0.338   2.777   3.142 -0.5002  0.2548 -0.5618
 4200TIP3    H134235   0.294   2.750   3.224 -0.1603  2.3776  0.3909
 4200TIP3    H234236   0.266   2.786   3.079 -1.0191  0.3999  0.0346
 4201TIP3   OH234237   0.892   5.798   3.717 -0.2222  0.0838 -0.4378
 4201TIP3    H134238   0.980   5.826   3.690 -0.3293  1.2173  0.3174
 4201TIP3    H234239   0.845   5.880   3.733 -0.4879 -0.4897  2.0962
 4202TIP3   OH234240   0.428   1.808   2.489  0.0418 -0.4990  1.0733
 4202TIP3    H134241   0.356   1.818   2.551 -0.4569 -2.8133  0.9758
 4202TIP3    H234242   0.385   1.807   2.403  0.2231 -1.3323  0.9828
 4203TIP3   OH234243   1.908   2.164   8.492  0.3947 -0.0515  0.2033
 4203TIP3    H134244   1.858   2.089   8.524 -0.4391 -0.4663 -1.9000
 4203TIP3    H234245   1.914   2.223   8.567 -1.1461 -1.1010  1.1969
 4204TIP3   OH234246   1.874   6.090   0.380  0.2575  0.0936 -0.4488
 4204TIP3    H134247   1.949   6.140   0.348 -0.9075  1.2550 -1.4711
 4204TIP3    H234248   1.890   6.080   0.474  2.2245 -0.6837 -0.7991
 4205TIP3   OH234249   4.890   6.740   8.674  0.0071  0.0123  0.2036
 4205TIP3    H134250   4.975   6.775   8.646 -0.3970  1.2703  0.4765
 4205TIP3    H234251   4.827   6.806   8.645 -0.6926 -0.0474  1.5438
 4206TIP3   OH234252   2.635   5.233   8.859 -0.1432  1.0082  0.2081
 4206TIP3    H134253   2.685   5.282   8.792  0.2481 -1.2403 -1.2535
 4206TIP3    H234254   2.544   5.243   8.832  0.0859 -0.8844 -1.4737
 4207TIP3   OH234255   5.187   0.385   8.814  0.0283 -0.3008 -0.5082
 4207TIP3    H134256   5.200   0.390   8.909 -0.4878  0.6243 -0.4727
 4207TIP3    H234257   5.095   0.360   8.804  0.3539 -1.4407 -0.7712
 4208TIP3   OH234258   5.692   0.629   0.461 -0.0386 -0.1836  0.3793
 4208TIP3    H134259   5.659   0.614   0.373 -0.2188 -1.9995  0.7268
 4208TIP3    H234260   5.617   0.611   0.518  0.3126  0.1386  0.9582
 4209TIP3   OH234261   5.648   1.136   2.753  0.6388  0.5935 -0.0240
 4209TIP3    H134262   5.580   1.159   2.816  0.6897 -0.2839  0.3663
 4209TIP3    H234263   5.710   1.082   2.802  0.0493 -1.1454 -1.0655
 4210TIP3   OH234264   0.239   5.172   2.958  0.0789  0.5646  0.5715
 4210TIP3    H134265   0.322   5.218   2.945 -0.4606  1.2553 -0.5822
 4210TIP3    H234266   0.261   5.097   3.013  1.7601 -0.0851 -0.9014
 4211TIP3   OH234267   6.049   3.224   2.301  0.1799  0.6699 -0.1608
 4211TIP3    H134268   6.089   3.139   2.285 -0.2815  0.1022  1.4469
 4211TIP3    H234269   6.112   3.270   2.356 -0.3667  0.6423  0.5024
 4212TIP3   OH234270   5.312   6.413   1.997  0.1545  0.1355 -0.0735
 4212TIP3    H134271   5.238   6.441   2.052  0.7369 -0.5449  1.0836
 4212TIP3    H234272   5.386   6.464   2.030  0.2711  0.6448 -1.0805
 4213TIP3   OH234273   0.655   5.377   1.730  0.0365 -0.1857 -0.4027
 4213TIP3    H134274   0.716   5.305   1.714  2.4368  2.0110 -1.9956
 4213TIP3    H234275   0.639   5.414   1.643 -3.6193 -0.5477 -0.0528
 4214TIP3   OH234276   0.756   2.519   3.441  0.3056  0.0076  0.2040
 4214TIP3    H134277   0.680   2.568   3.474 -0.2814  0.9020 -2.2674
 4214TIP3    H234278   0.766   2.447   3.503 -0.9517  1.2878  2.0418
 4215TIP3   OH234279   3.539   2.124   3.062 -0.1655  0.2700 -0.0278
 4215TIP3    H134280   3.460   2.166   3.028 -0.2497  0.6109  0.5664
 4215TIP3    H234281   3.607   2.191   3.054  0.1439 -0.1434 -0.8608
 4216TIP3   OH234282   3.441   0.460   2.259 -0.0589  0.0008  0.0502
 4216TIP3    H134283   3.450   0.432   2.168  0.0099 -0.7819  0.2863
 4216TIP3    H234284   3.489   0.394   2.309 -0.9043 -0.1177  0.7267
 4217TIP3   OH234285   0.193   0.715   0.823 -0.6256  0.3471 -0.1534
 4217TIP3    H134286   0.222   0.799   0.860  0.1753  0.4477 -0.9913
 4217TIP3    H234287   0.233   0.649   0.880  0.6657  0.4986 -0.8546
 4218TIP3   OH234288   4.330   4.142   8.052  0.8599  0.1604 -0.5660
 4218TIP3    H134289   4.385   4.075   8.011  0.7726  0.5483 -1.3323
 4218TIP3    H234290   4.332   4.215   7.990  1.1258  0.9483  0.3625
 4219TIP3   OH234291   0.584   0.339   3.433 -0.4356 -0.4189 -0.3475
 4219TIP3    H134292   0.531   0.407   3.393  0.9413  1.0489  0.2123
 4219TIP3    H234293   0.521   0.285   3.481 -1.5156  0.8735 -0.2333
 4220TIP3   OH234294   2.078   1.094   1.992  0.0240  0.4374 -0.2066
 4220TIP3    H134295   1.983   1.099   1.980 -0.2235  2.1957  1.7978
 4220TIP3    H234296   2.113   1.162   1.936 -0.5067  3.7193  3.0809
 4221TIP3   OH234297   1.011   5.298   0.393  0.2170  0.2361  0.0982
 4221TIP3    H134298   0.965   5.281   0.476 -0.3151  0.7456 -0.0898
 4221TIP3    H234299   0.986   5.387   0.370  0.6694  0.2277 -0.4200
 4222TIP3   OH234300   2.576   2.128   0.057  0.3481  0.4419 -0.1518
 4222TIP3    H134301   2.552   2.136  -0.035 -0.3855 -0.5316 -0.0530
 4222TIP3    H234302   2.645   2.061   0.058 -2.2223 -2.4089  0.3568
 4223TIP3   OH234303   3.407   5.459   8.287 -0.2689 -0.1466 -0.1700
 4223TIP3    H134304   3.347   5.498   8.224  0.0352  0.3784 -0.1414
 4223TIP3    H234305   3.403   5.365   8.269 -1.2783 -0.1471 -0.0055
 4224TIP3   OH234306   4.228   1.804   0.346 -0.2309  0.2791  0.5653
 4224TIP3    H134307   4.141   1.819   0.309  0.1338 -2.2709 -1.6249
 4224TIP3    H234308   4.249   1.886   0.391 -3.1390  1.4968 -0.0561
 4225TIP3   OH234309   0.384   2.425   2.095 -0.0805  0.0160  0.4739
 4225TIP3    H134310   0.341   2.506   2.118 -0.4016 -0.7153  2.6478
 4225TIP3    H234311   0.334   2.357   2.139  0.8578 -1.2698 -0.3469
 4226TIP3   OH234312   5.581   0.461   0.199  0.6731 -0.0519 -0.3688
 4226TIP3    H134313   5.522   0.533   0.174 -1.4358 -0.7052  2.3010
 4226TIP3    H234314   5.526   0.383   0.194  1.8953 -0.9682  0.2958
 4227TIP3   OH234315   2.781   1.321   1.742 -0.0503  0.4686  0.2244
 4227TIP3    H134316   2.802   1.372   1.821  2.4067 -1.6562  1.1030
 4227TIP3    H234317   2.827   1.366   1.672 -2.4215  2.4973 -0.1552
 4228TIP3   OH234318   1.148   2.334   3.355 -0.2779  0.3128 -0.3678
 4228TIP3    H134319   1.133   2.415   3.403  0.9092 -0.0266  0.6254
 4228TIP3    H234320   1.222   2.353   3.297 -0.2551  0.0654 -0.4249
 4229TIP3   OH234321   5.294   6.436   1.711  0.3726  0.3509  0.3769
 4229TIP3    H134322   5.213   6.479   1.682 -0.3208 -1.8251 -1.2272
 4229TIP3    H234323   5.300   6.455   1.804 -2.2139  0.2394  0.6186
 4230TIP3   OH234324   2.788   3.814   0.232 -0.0660  0.7354  0.4850
 4230TIP3    H134325   2.760   3.842   0.144  1.4635  0.0118 -0.2850
 4230TIP3    H234326   2.884   3.821   0.229  0.0443  0.0655  1.8950
 4231TIP3   OH234327   2.901   6.469   0.500  0.0201 -0.2560  0.4861
 4231TIP3    H134328   2.864   6.413   0.569  1.8349  1.0789  2.6762
 4231TIP3    H234329   2.895   6.558   0.536 -0.2022  0.6685 -1.6983
 4232TIP3   OH234330   0.330   6.653   0.749  0.1284 -0.2685  0.0282
 4232TIP3    H134331   0.380   6.657   0.830  0.1109  0.6174  0.0067
 4232TIP3    H234332   0.286   6.568   0.752 -1.4097  0.5155  1.8744
 4233TIP3   OH234333   6.153   2.935   1.027  0.4948  0.0828  0.3005
 4233TIP3    H134334   6.135   2.945   1.121 -2.3769 -2.3933  0.1704
 4233TIP3    H234335   6.085   2.987   0.984 -1.1976 -2.4148 -0.2793
 4234TIP3   OH234336   5.652   6.024   0.188  0.1592  0.1511  0.1523
 4234TIP3    H134337   5.629   6.114   0.168  0.7645  0.6520  1.6018
 4234TIP3    H234338   5.690   5.990   0.107  1.1202  1.5959 -0.0274
 4235TIP3   OH234339   5.638   5.264   1.210 -0.0436 -0.2407  0.2825
 4235TIP3    H134340   5.622   5.198   1.143  1.6929 -0.9495  0.5005
 4235TIP3    H234341   5.581   5.337   1.187 -0.7832 -1.1658 -0.9239
 4236TIP3   OH234342   4.948   4.505   2.553 -0.0858  0.4225 -0.0647
 4236TIP3    H134343   4.880   4.559   2.512 -0.5237 -0.3315 -0.3614
 4236TIP3    H234344   4.931   4.513   2.647  0.1412  1.1635 -0.0857
 4237TIP3   OH234345   3.718   4.926   0.863 -0.0334 -0.2552 -0.7281
 4237TIP3    H134346   3.654   4.980   0.908  0.1801  0.0208 -0.7493
 4237TIP3    H234347   3.701   4.941   0.770  0.4334  0.2758 -0.7357
 4238TIP3   OH234348   4.051   4.950   1.312  0.7470  0.3700 -0.1431
 4238TIP3    H134349   4.135   4.972   1.352  1.3399 -0.4567 -0.8974
 4238TIP3    H234350   4.052   4.854   1.305 -0.3322  0.3336 -0.0124
 4239TIP3   OH234351   0.607   1.523   0.474  0.0953 -0.1090  0.0907
 4239TIP3    H134352   0.667   1.597   0.482  0.4269 -0.1826 -1.4583
 4239TIP3    H234353   0.626   1.485   0.388 -1.5109 -0.7150 -0.0335
 4240TIP3   OH234354   4.719   2.695   1.203 -0.4934  0.7082 -0.0980
 4240TIP3    H134355   4.730   2.613   1.155 -0.1607  0.6631  0.0569
 4240TIP3    H234356   4.647   2.739   1.157 -0.8506  0.2177 -0.0246
 4241TIP3   OH234357   6.226   5.260   8.821  0.9649  0.0055 -0.0490
 4241TIP3    H134358   6.164   5.226   8.757  1.7421 -0.3929 -0.5906
 4241TIP3    H234359   6.285   5.188   8.839  0.4271 -0.0792  1.5603
 4242TIP3   OH234360   0.097   4.758   1.249 -0.5790 -0.5183 -0.6670
 4242TIP3    H134361   0.109   4.677   1.199 -0.5896 -0.4428 -0.7900
 4242TIP3    H234362   0.007   4.753   1.281 -1.9336  1.2204 -3.8365
 4243TIP3   OH234363   3.042   4.512   1.782 -0.2081  0.1795 -0.3766
 4243TIP3    H134364   3.048   4.589   1.725  0.0078  1.3255  1.1232
 4243TIP3    H234365   3.124   4.465   1.767  0.4393  1.1756 -0.0779
 4244TIP3   OH234366   2.311   1.832   8.625 -0.0288 -0.1166  0.0401
 4244TIP3    H134367   2.229   1.880   8.612  0.4965  0.4507 -1.4566
 4244TIP3    H234368   2.293   1.744   8.594 -0.2135 -0.1280  0.1798
 4245TIP3   OH234369   5.533   4.481   0.834  0.1568 -0.4892  0.3957
 4245TIP3    H134370   5.517   4.387   0.844 -0.6475 -0.5609 -1.2199
 4245TIP3    H234371   5.620   4.487   0.795  0.1376 -0.5683  0.3410
 4246TIP3   OH234372   0.922   5.564   0.359 -0.2868  0.2440  0.6986
 4246TIP3    H134373   0.843   5.560   0.412 -1.2578 -1.0306 -0.7785
 4246TIP3    H234374   0.909   5.640   0.302 -0.2938  0.2095  0.6547
 4247TIP3   OH234375   4.837   3.176   8.629  0.1004  0.7340  0.6866
 4247TIP3    H134376   4.797   3.249   8.583  0.3191  0.8731  0.7150
 4247TIP3    H234377   4.811   3.188   8.720 -0.6358  0.2559  0.5530
 4248TIP3   OH234378   6.727   1.683   3.048  0.3840 -0.0709 -0.4495
 4248TIP3    H134379   6.750   1.746   3.117  0.4587  0.3775 -0.8842
 4248TIP3    H234380   6.641   1.712   3.018  0.7984  0.3559 -1.2550
 4249TIP3   OH234381   6.604   2.332   1.692 -0.3993  0.1723 -0.6977
 4249TIP3    H134382   6.574   2.364   1.606 -1.1577 -1.2421 -0.9796
 4249TIP3    H234383   6.569   2.244   1.699 -0.8172  0.4399  1.3209
 4250TIP3   OH234384   6.166   0.042   2.538  0.6355 -0.1069 -0.2854
 4250TIP3    H134385   6.189   0.013   2.626  1.1231  2.3684  0.4831
 4250TIP3    H234386   6.249   0.071   2.500  0.7079 -2.4485 -2.1903
 4251TIP3   OH234387   6.476   0.095   7.901 -0.2161 -0.4833 -0.6340
 4251TIP3    H134388   6.393   0.051   7.919  1.5341 -3.4304  0.8394
 4251TIP3    H234389   6.531   0.028   7.861  1.9375  0.9627 -0.2334
 4252TIP3   OH234390   2.964   3.592   2.186 -0.2057 -0.5967  0.8025
 4252TIP3    H134391   3.051   3.553   2.178 -0.9037 -1.8931 -1.0762
 4252TIP3    H234392   2.909   3.543   2.125 -1.4722  2.5001 -0.8215
 4253TIP3   OH234393   5.473   6.046   2.427 -0.6780  0.1273 -0.3336
 4253TIP3    H134394   5.438   5.957   2.433  0.6697 -0.3572  0.6453
 4253TIP3    H234395   5.567   6.034   2.413 -0.1542  1.3826  1.7845
 4254TIP3   OH234396   6.089   2.407   1.256 -0.0561 -0.3694 -0.2880
 4254TIP3    H134397   6.138   2.366   1.327 -1.0168 -1.3226 -0.1457
 4254TIP3    H234398   6.113   2.357   1.178 -0.3867 -0.4894 -0.3131
 4255TIP3   OH234399   0.003   1.009   0.755 -0.0634  0.6819 -0.5321
 4255TIP3    H134400   0.028   1.066   0.682 -0.5612  1.3236 -0.2067
 4255TIP3    H234401  -0.080   0.970   0.728 -0.7284  1.6477  0.0792
 4256TIP3   OH234402   4.721   3.843   3.427  0.2605 -0.9681  0.7228
 4256TIP3    H134403   4.803   3.864   3.471  0.8900 -1.0217 -0.3992
 4256TIP3    H234404   4.653   3.866   3.491  1.0901  0.2803  1.1826
 4257TIP3   OH234405   2.298   6.298   0.607 -0.3480 -0.4484  0.5304
 4257TIP3    H134406   2.339   6.274   0.523 -0.8717 -0.2740  0.2200
 4257TIP3    H234407   2.296   6.393   0.607  2.1506 -0.3044  1.9728
 4258TIP3   OH234408   5.992   3.437   1.938 -0.2555 -0.3433  0.3059
 4258TIP3    H134409   6.042   3.375   1.991 -1.0075 -1.1032  0.1369
 4258TIP3    H234410   5.902   3.406   1.942 -0.7369  1.0101  0.6019
 4259TIP3   OH234411   5.230   6.540   8.210  0.2980 -0.0683 -0.0823
 4259TIP3    H134412   5.164   6.571   8.147 -0.1869  0.3984  0.6325
 4259TIP3    H234413   5.313   6.574   8.177 -0.1573  1.5861  0.3802
 4260TIP3   OH234414   4.208   1.834   8.504  0.1544 -0.0551 -0.5220
 4260TIP3    H134415   4.166   1.762   8.456 -1.7632 -0.0224  0.9649
 4260TIP3    H234416   4.178   1.913   8.460  0.0123 -0.0836 -0.4768
 4261TIP3   OH234417   5.937   6.456   0.694  0.2017 -0.0587 -0.5318
 4261TIP3    H134418   5.972   6.403   0.765 -1.4368 -0.9971 -0.3927
 4261TIP3    H234419   6.012   6.509   0.665  1.5802 -1.5843  0.1003
 4262TIP3   OH234420   3.106   2.125   1.585  0.3484  0.1519  0.1047
 4262TIP3    H134421   3.114   2.051   1.524 -0.5171 -1.5050  1.8770
 4262TIP3    H234422   3.015   2.151   1.578  0.7672  1.4455 -0.8775
 4263TIP3   OH234423   2.472   5.998   8.372  0.3027  0.3628 -0.4757
 4263TIP3    H134424   2.400   5.943   8.342 -1.0208  2.0407 -0.5479
 4263TIP3    H234425   2.493   6.053   8.296  0.6980  0.8440 -0.0318
 4264TIP3   OH234426   3.519   6.465   1.714  0.6105  0.6742 -0.4468
 4264TIP3    H134427   3.524   6.476   1.619 -3.0247 -1.7654 -1.1412
 4264TIP3    H234428   3.584   6.397   1.733  0.6609  0.4585 -1.3361
 4265TIP3   OH234429   2.959   5.711   1.096 -0.6300 -0.1625  0.1897
 4265TIP3    H134430   3.049   5.677   1.105 -0.5406  0.0943  0.2791
 4265TIP3    H234431   2.957   5.788   1.153 -0.8480 -0.0489  0.0294
 4266TIP3   OH234432   3.621   6.258   1.361 -0.2108  0.1784 -0.0929
 4266TIP3    H134433   3.613   6.236   1.454  0.9844  0.9531  0.2053
 4266TIP3    H234434   3.536   6.233   1.324 -0.8562  0.2395  1.2730
 4267TIP3   OH234435   1.695   1.429   2.575 -0.4245 -0.0651 -0.0483
 4267TIP3    H134436   1.741   1.349   2.551  0.9080  0.6139  0.1176
 4267TIP3    H234437   1.751   1.500   2.542 -0.2050  0.8256  2.0611
 4268TIP3   OH234438   5.479   0.506   1.076 -0.4943  0.3448 -0.0409
 4268TIP3    H134439   5.535   0.484   1.002 -2.8478 -0.8598 -1.5785
 4268TIP3    H234440   5.451   0.596   1.060  1.3567  1.1847  1.0641
 4269TIP3   OH234441   0.895   3.609   2.145  0.2757 -0.5052 -0.4238
 4269TIP3    H134442   0.919   3.618   2.238  0.1314  1.7611 -0.5414
 4269TIP3    H234443   0.971   3.642   2.097 -1.0171  2.0346 -0.9305
 4270TIP3   OH234444   5.151   0.027   7.983  0.3570  0.1411  0.2032
 4270TIP3    H134445   5.144   0.061   7.894 -2.1728 -0.7283 -0.0157
 4270TIP3    H234446   5.118  -0.063   7.977 -0.4513  0.2630  2.1060
 4271TIP3   OH234447   4.462   1.382   3.419  0.3148  0.9511 -0.0420
 4271TIP3    H134448   4.550   1.380   3.458  0.1205  0.4917  0.3855
 4271TIP3    H234449   4.467   1.322   3.345  2.2012  5.5439 -4.1565
 4272TIP3   OH234450   6.185   0.283   8.277  0.1142  0.1320 -0.2820
 4272TIP3    H134451   6.258   0.223   8.264 -0.2677 -0.6618  1.0122
 4272TIP3    H234452   6.214   0.366   8.239  1.7534 -0.1128  0.3776
 4273TIP3   OH234453   4.877   3.902   2.210 -0.1030  0.5581 -0.4301
 4273TIP3    H134454   4.811   3.961   2.175 -0.5522  0.2194 -0.1546
 4273TIP3    H234455   4.953   3.915   2.153 -0.2287  1.3262 -0.4315
 4274TIP3   OH234456   4.254   5.690   2.527  0.3225 -0.2214 -0.2894
 4274TIP3    H134457   4.260   5.658   2.618  1.0051 -0.4869 -0.4241
 4274TIP3    H234458   4.237   5.784   2.536  0.6913 -0.1901  0.1132
 4275TIP3   OH234459   1.440   0.536   1.246 -0.1768  0.1684 -0.2878
 4275TIP3    H134460   1.431   0.440   1.245 -0.6090  0.2069 -0.3830
 4275TIP3    H234461   1.532   0.551   1.268 -0.3249 -0.2546  0.6949
 4276TIP3   OH234462   4.336   3.133   1.141 -0.2468 -0.3124  0.8365
 4276TIP3    H134463   4.301   3.090   1.063  1.9865  0.3808 -0.6467
 4276TIP3    H234464   4.383   3.064   1.187  0.6373 -0.1920  0.1457
 4277TIP3   OH234465   3.319   5.377   8.781  0.1975 -0.1115 -0.2762
 4277TIP3    H134466   3.345   5.305   8.839  1.1493 -0.9035 -1.6308
 4277TIP3    H234467   3.402   5.419   8.756  0.0309 -1.0574 -2.6373
 4278TIP3   OH234468   4.988   1.694   0.379  0.4942 -0.0704 -0.5809
 4278TIP3    H134469   4.999   1.613   0.428  1.1244  1.1524  1.4065
 4278TIP3    H234470   5.077   1.720   0.355  0.4335  0.7610  0.0520
 4279TIP3   OH234471   1.490   4.427   2.603  0.6342 -0.3180 -0.1010
 4279TIP3    H134472   1.533   4.394   2.524  1.2464  0.4427 -0.1064
 4279TIP3    H234473   1.543   4.504   2.628  0.5530 -0.6408  1.1363
 4280TIP3   OH234474   2.952   1.703   0.367 -0.6078  0.0097  0.0719
 4280TIP3    H134475   2.886   1.736   0.306  1.5730  0.4056 -2.2539
 4280TIP3    H234476   2.910   1.706   0.453 -4.2213 -1.4720 -1.4390
 4281TIP3   OH234477   1.980   5.229   0.572  0.6106 -0.3922  0.2872
 4281TIP3    H134478   1.985   5.212   0.666 -0.1740  0.2380  0.4487
 4281TIP3    H234479   1.961   5.143   0.533 -0.1594 -0.4614  0.8046
 4282TIP3   OH234480   1.986   4.123   3.134  0.3620  0.1627  0.3135
 4282TIP3    H134481   1.964   4.062   3.063  2.1124 -2.1737  1.6051
 4282TIP3    H234482   1.910   4.122   3.191 -0.3524  0.6496 -0.6148
 4283TIP3   OH234483   2.060   5.826   3.490 -0.0564 -0.2322 -0.4906
 4283TIP3    H134484   2.128   5.767   3.522  1.4805  0.8620 -1.5896
 4283TIP3    H234485   2.084   5.843   3.399 -1.5016  0.6508 -0.7429
 4284TIP3   OH234486   5.485   4.025   3.020  0.0522 -0.0597 -0.2644
 4284TIP3    H134487   5.512   4.052   2.933 -0.6426 -1.1273 -0.8204
 4284TIP3    H234488   5.544   3.953   3.043 -0.9208 -0.9853 -0.6146
 4285TIP3   OH234489   2.389   6.480   3.676  0.0975 -0.4504  0.4038
 4285TIP3    H134490   2.309   6.500   3.725 -0.3321  0.6810 -0.7095
 4285TIP3    H234491   2.432   6.564   3.665 -1.0347 -0.1484 -3.1779
 4286TIP3   OH234492   1.770   3.655   1.159 -0.6326 -0.0800  1.2188
 4286TIP3    H134493   1.815   3.731   1.196 -1.7246  1.1392  0.1389
 4286TIP3    H234494   1.699   3.693   1.106 -1.7670 -1.8802  1.3789
 4287TIP3   OH234495   5.885   1.564   1.397  0.5090  0.4401 -0.6146
 4287TIP3    H134496   5.974   1.536   1.377  0.0555 -0.4199 -1.5468
 4287TIP3    H234497   5.870   1.640   1.340  1.1924  1.6601  0.7600
 4288TIP3   OH234498   3.974   5.507   2.533 -0.7375  0.3668  0.3716
 4288TIP3    H134499   4.000   5.596   2.511  0.5065  0.1279  0.7412
 4288TIP3    H234500   3.884   5.499   2.502 -0.1831  1.0781 -1.5433
 4289TIP3   OH234501   2.163   4.467   8.585 -0.0996 -0.6103  0.1597
 4289TIP3    H134502   2.149   4.560   8.597 -0.4367 -0.8793  2.4236
 4289TIP3    H234503   2.189   4.457   8.494  2.0625  1.9582  0.3877
 4290TIP3   OH234504   4.225   0.642   0.661  0.5446  0.0804  0.0151
 4290TIP3    H134505   4.228   0.563   0.609 -0.3160 -0.8582  1.3260
 4290TIP3    H234506   4.149   0.690   0.629 -0.5391 -0.9348  0.9499
 4291TIP3   OH234507   3.881   0.928   3.106  0.9094  0.3544 -0.2308
 4291TIP3    H134508   3.894   0.885   3.022  0.0997 -1.6358  0.5935
 4291TIP3    H234509   3.900   0.859   3.171 -1.1473  0.9912  1.1492
 4292TIP3   OH234510   4.246   5.690   1.479 -0.2411 -0.2572 -0.0181
 4292TIP3    H134511   4.287   5.631   1.416  2.4659  2.4045 -0.9827
 4292TIP3    H234512   4.218   5.766   1.427 -2.7032 -0.1363  1.3091
 4293TIP3   OH234513   4.847   5.291   2.407  0.3340 -0.3361  0.4805
 4293TIP3    H134514   4.930   5.265   2.448 -0.4345 -0.3266  2.1030
 4293TIP3    H234515   4.842   5.385   2.421  0.0176 -0.3482  0.4530
 4294TIP3   OH234516   4.401   6.129   0.818  0.2058 -0.0906 -0.8421
 4294TIP3    H134517   4.489   6.098   0.797  0.0957 -1.2262  0.2363
 4294TIP3    H234518   4.373   6.176   0.740  0.7067 -2.0801 -2.3099
 4295TIP3   OH234519   4.301   6.459   3.901 -0.1624 -0.1968  0.4765
 4295TIP3    H134520   4.248   6.402   3.846 -0.6845  0.0133  0.7478
 4295TIP3    H234521   4.242   6.531   3.924  0.0504 -0.2717  1.2915
 4296TIP3   OH234522   1.961   0.680   2.844  0.0139 -0.0889 -0.8009
 4296TIP3    H134523   1.937   0.641   2.928  1.0497 -1.8795 -1.2907
 4296TIP3    H234524   2.047   0.718   2.858  1.0455 -2.0250 -1.4592
 4297TIP3   OH234525   5.156   0.114   0.988 -0.0430  0.0821  0.3440
 4297TIP3    H134526   5.108   0.160   0.920 -0.3451  0.4769  0.8138
 4297TIP3    H234527   5.186   0.183   1.047 -0.1684 -0.2877  0.8482
 4298TIP3   OH234528   3.853   2.109   3.361 -0.3350  0.6597  0.0878
 4298TIP3    H134529   3.825   2.087   3.272  0.8998  1.2875 -0.4717
 4298TIP3    H234530   3.801   2.052   3.417 -0.9116  0.0374 -1.0506
 4299TIP3   OH234531   5.089   0.680   0.419  0.0913  0.7696 -0.2665
 4299TIP3    H134532   5.019   0.745   0.419 -0.6290  0.1897 -3.7658
 4299TIP3    H234533   5.051   0.604   0.463 -0.2419  1.5372  0.8163
 4300TIP3   OH234534   4.447   2.752   1.008  0.6557  0.1586  0.5148
 4300TIP3    H134535   4.455   2.828   0.950 -0.0616 -0.9802 -1.1463
 4300TIP3    H234536   4.360   2.762   1.048  1.0438  0.8079  1.2183
 4301TIP3   OH234537   5.559   0.581   3.533 -0.1377  0.2275  0.0619
 4301TIP3    H134538   5.562   0.531   3.452  0.4215 -2.5860  1.6620
 4301TIP3    H234539   5.632   0.643   3.526  0.3790 -0.4884 -1.2817
 4302TIP3   OH234540   4.904   4.204   1.314 -0.6554  0.2116  0.2796
 4302TIP3    H134541   4.851   4.133   1.351  0.3559  0.4410  2.3342
 4302TIP3    H234542   4.994   4.170   1.314 -0.1938  1.3613  1.0357
 4303TIP3   OH234543   3.320   6.219   2.467  0.3669  0.7756 -0.4148
 4303TIP3    H134544   3.227   6.243   2.474  0.5361  1.9824 -1.8952
 4303TIP3    H234545   3.353   6.270   2.393  2.9104  2.5215  1.7486
 4304TIP3   OH234546   4.449   0.074   8.678  0.0224 -0.1422 -0.2029
 4304TIP3    H134547   4.451  -0.000   8.617 -0.7034 -0.4360  0.1156
 4304TIP3    H234548   4.398   0.141   8.632  1.3918  0.4910 -0.8385
 4305TIP3   OH234549   1.711   4.664   3.925  0.2785  0.1809  0.6702
 4305TIP3    H134550   1.629   4.714   3.927 -0.1321 -0.1995 -2.3726
 4305TIP3    H234551   1.684   4.575   3.900  1.4723 -0.3953  1.3549
 4306TIP3   OH234552   3.731   5.789   8.813 -0.1333  0.1948  0.1843
 4306TIP3    H134553   3.787   5.864   8.832 -0.5319  0.5933 -0.2106
 4306TIP3    H234554   3.778   5.714   8.851  1.1452  0.3719 -0.9902
 4307TIP3   OH234555   1.068   4.855   3.383  0.4247  0.3731  0.7167
 4307TIP3    H134556   1.111   4.830   3.465 -2.8003 -1.8159  1.9714
 4307TIP3    H234557   1.011   4.929   3.407 -0.3626 -0.1241  0.4316
 4308TIP3   OH234558   4.038   3.331   1.022  0.5364  0.1189  0.4217
 4308TIP3    H134559   4.090   3.324   0.942  0.4910  1.5275  0.2530
 4308TIP3    H234560   3.955   3.288   0.999  0.5527  0.4343 -0.2603
 4309TIP3   OH234561   3.638   6.483   1.210  0.9426  0.3608  0.3132
 4309TIP3    H134562   3.656   6.393   1.238  0.9322  0.2584 -0.0101
 4309TIP3    H234563   3.724   6.521   1.192  0.8319 -0.4819 -2.3364
 4310TIP3   OH234564   4.280   1.083   2.867  0.2532  0.0959  0.0956
 4310TIP3    H134565   4.214   1.082   2.797  0.1816  1.9789  0.0960
 4310TIP3    H234566   4.344   1.148   2.838  0.7314  0.1946  1.3359
 4311TIP3   OH234567   3.337   1.524   3.478 -0.4386 -0.0204  0.0877
 4311TIP3    H134568   3.300   1.585   3.541 -1.5883 -0.3089 -0.2969
 4311TIP3    H234569   3.418   1.567   3.448 -0.4372  0.5984  0.9468
 4312TIP3   OH234570   4.172   6.101   3.253 -0.2743  0.2487 -0.0116
 4312TIP3    H134571   4.113   6.172   3.230 -1.1472 -0.8996 -1.4592
 4312TIP3    H234572   4.140   6.070   3.339 -0.9980  0.4542 -0.2006
 4313TIP3   OH234573   2.441   5.425   8.626  0.6113 -0.3794 -0.0606
 4313TIP3    H134574   2.364   5.372   8.606 -0.3185  0.0813  1.9935
 4313TIP3    H234575   2.409   5.515   8.624  1.1880 -0.1567  0.3664
 4314TIP3   OH234576   2.283   5.103   7.642  0.2204 -0.1018  0.3574
 4314TIP3    H134577   2.348   5.103   7.712  0.8950 -0.5843 -0.2529
 4314TIP3    H234578   2.318   5.164   7.577 -0.0356 -0.2064  0.1207
 4315TIP3   OH234579   3.296   0.637   0.018 -0.4061  0.0055  0.6036
 4315TIP3    H134580   3.223   0.692  -0.010  0.3208 -0.0104 -1.5632
 4315TIP3    H234581   3.254   0.556   0.048 -1.3686  0.8569  1.6108
 4316TIP3   OH234582   5.761   3.106   8.864 -0.2152  0.1046 -0.0927
 4316TIP3    H134583   5.734   3.193   8.834  0.4814  0.3408 -0.0292
 4316TIP3    H234584   5.851   3.097   8.835 -0.4639 -0.8422 -0.6338
 4317TIP3   OH234585   5.567   1.266   0.762 -0.1894  0.5888 -0.2668
 4317TIP3    H134586   5.611   1.195   0.716  0.8375  0.0659  1.4115
 4317TIP3    H234587   5.553   1.333   0.695  2.6484  0.5370 -1.0573
 4318TIP3   OH234588   1.927   4.922   3.423 -0.4426 -0.4693  0.4191
 4318TIP3    H134589   1.936   5.017   3.415  0.6537 -0.5265  0.6880
 4318TIP3    H234590   1.833   4.906   3.416 -0.5959  0.5773 -0.1738
 4319TIP3   OH234591   1.061   5.012   3.913 -0.3264  0.4104 -0.1943
 4319TIP3    H134592   0.968   5.023   3.891 -0.3559  0.9977  0.2034
 4319TIP3    H234593   1.079   5.083   3.975  0.6399  0.9249 -1.0357
 4320TIP3   OH234594   2.358   6.791   3.399  0.0995 -0.2728 -0.0547
 4320TIP3    H134595   2.405   6.762   3.477  1.6188 -0.5800 -1.0303
 4320TIP3    H234596   2.298   6.719   3.379 -2.3518  0.9306  2.3229
 4321TIP3   OH234597   5.570   1.671   3.448  0.1620 -1.0555  0.3133
 4321TIP3    H134598   5.484   1.660   3.407  1.0267 -1.4449 -1.4871
 4321TIP3    H234599   5.602   1.581   3.460  0.0478 -0.9349  1.6204
 4322TIP3   OH234600   0.598   4.017   2.447 -0.0859  0.1111  0.5441
 4322TIP3    H134601   0.518   4.016   2.500  0.4902  0.3039  1.4500
 4322TIP3    H234602   0.602   3.931   2.407 -0.2819 -0.2222  1.2261
 4323TIP3   OH234603   0.570   1.891   0.633  0.5705 -0.2604 -0.6584
 4323TIP3    H134604   0.498   1.952   0.617 -1.9403 -2.2837  1.8278
 4323TIP3    H234605   0.624   1.934   0.699  0.7333  0.5666 -1.3093
 4324TIP3   OH234606   3.049   3.132   3.101  0.2151  0.6889  0.4604
 4324TIP3    H134607   3.100   3.185   3.164 -1.3835  2.2710  0.5057
 4324TIP3    H234608   2.961   3.169   3.105 -0.6371 -1.1362 -0.5628
 4325TIP3   OH234609   4.045   0.707   8.551  0.3248 -0.1842  0.5107
 4325TIP3    H134610   3.985   0.710   8.625 -0.0328  0.4057  0.1970
 4325TIP3    H234611   4.069   0.614   8.543 -0.3399 -0.3805  0.7908
 4326TIP3   OH234612   6.592   5.404   0.091 -0.0993 -0.1068 -0.1980
 4326TIP3    H134613   6.523   5.347   0.126 -0.6350  0.4703 -0.2893
 4326TIP3    H234614   6.568   5.492   0.121 -0.1333  0.2887 -1.3155
 4327TIP3   OH234615   2.929   3.860   2.111 -0.0452  0.5165  0.5306
 4327TIP3    H134616   3.008   3.832   2.065 -1.6524  0.6324 -2.5635
 4327TIP3    H234617   2.898   3.781   2.155  0.2779 -0.2883 -0.6425
 4328TIP3   OH234618   4.045   6.460   2.769 -0.0027 -0.2319 -0.1950
 4328TIP3    H134619   4.023   6.370   2.794  0.8962  0.1976  2.4803
 4328TIP3    H234620   4.141   6.461   2.766 -0.0114  0.5936 -0.3520
 4329TIP3   OH234621   3.249   6.514   3.839  0.7049 -0.1234  0.4817
 4329TIP3    H134622   3.235   6.490   3.930  2.4454 -2.5055  0.2060
 4329TIP3    H234623   3.231   6.608   3.836 -0.9855 -0.2904  2.8941
 4330TIP3   OH234624   0.346   5.484   2.369  0.0554 -0.2603  0.5819
 4330TIP3    H134625   0.428   5.521   2.403 -1.2554  2.2493  1.2104
 4330TIP3    H234626   0.364   5.466   2.277  0.7957  2.0646  0.2170
 4331TIP3   OH234627   2.176   4.413   0.082 -0.1296  0.4893 -0.0077
 4331TIP3    H134628   2.180   4.371   0.168 -0.1859 -1.6225 -0.9604
 4331TIP3    H234629   2.259   4.460   0.074  0.6668 -0.7876  0.4957
 4332TIP3   OH234630   6.520   2.736   3.131 -1.1829 -0.4025  0.3050
 4332TIP3    H134631   6.486   2.673   3.195  0.3944 -0.3536  1.2378
 4332TIP3    H234632   6.607   2.759   3.163 -1.1657  1.2181 -0.7612
 4333TIP3   OH234633   5.026   1.142   8.591 -0.1892 -0.0031 -0.2385
 4333TIP3    H134634   4.964   1.071   8.573  0.9495 -1.5421  1.5359
 4333TIP3    H234635   5.024   1.196   8.512 -0.8454 -2.1987 -1.8257
 4334TIP3   OH234636   1.812   3.531   2.710  0.5582  0.4814  0.6071
 4334TIP3    H134637   1.768   3.447   2.695  2.4470 -0.6537  1.0398
 4334TIP3    H234638   1.794   3.582   2.630 -0.2343 -0.5035  0.1346
 4335TIP3   OH234639   3.996   5.562   1.555  0.6369  0.1055 -0.2932
 4335TIP3    H134640   4.057   5.633   1.535 -0.6292  0.9933 -1.1150
 4335TIP3    H234641   3.921   5.576   1.497 -1.0484 -0.0567  1.7162
 4336TIP3   OH234642   0.421   2.115   8.487 -0.2879  0.4956 -0.6382
 4336TIP3    H134643   0.442   2.198   8.530 -0.3230  0.2013 -0.0351
 4336TIP3    H234644   0.393   2.140   8.399 -1.7651  1.2765  0.0019
 4337TIP3   OH234645   0.437   4.984   0.586 -0.1391 -0.3787  0.6043
 4337TIP3    H134646   0.419   4.896   0.555  3.9635 -1.4856  0.8895
 4337TIP3    H234647   0.525   5.004   0.555  0.5670  2.1449  3.6794
 4338TIP3   OH234648   3.746   4.201   1.851  0.0381 -0.0461 -0.1544
 4338TIP3    H134649   3.659   4.200   1.813 -0.3575 -0.2754  0.7284
 4338TIP3    H234650   3.799   4.251   1.789 -0.9503  0.9824 -0.1995
 4339TIP3   OH234651   3.240   0.396   1.480 -0.2611  0.0728  0.4685
 4339TIP3    H134652   3.179   0.343   1.532 -0.1522  0.1046  0.6302
 4339TIP3    H234653   3.327   0.369   1.509 -0.1951 -0.1123  0.0949
 4340TIP3   OH234654   1.883   6.446   0.298 -0.9815  0.0327 -0.0844
 4340TIP3    H134655   1.842   6.375   0.248  0.5402 -1.5492  0.7974
 4340TIP3    H234656   1.967   6.461   0.254 -0.0683 -0.6850  1.3387
 4341TIP3   OH234657   6.315   6.540   3.884  0.3356  0.1992  0.3881
 4341TIP3    H134658   6.301   6.633   3.902 -0.0035  0.5708 -1.5499
 4341TIP3    H234659   6.227   6.505   3.868  0.6380  0.1182 -1.2612
 4342TIP3   OH234660   0.070   3.083   3.348 -0.2938  0.2048  0.1090
 4342TIP3    H134661   0.155   3.046   3.369  0.5315  1.6298 -0.5628
 4342TIP3    H234662   0.084   3.131   3.266 -1.0978  2.5591  1.2732
 4343TIP3   OH234663   5.255   3.422   0.641 -0.3067  0.1720  0.0604
 4343TIP3    H134664   5.346   3.393   0.653  0.6127  2.6096 -0.4093
 4343TIP3    H234665   5.222   3.434   0.730  0.6473  1.4890  0.2681
 4344TIP3   OH234666   5.760   4.612   1.949 -0.1341 -0.0874 -0.0634
 4344TIP3    H134667   5.756   4.668   2.027 -1.1343  1.5064 -1.2036
 4344TIP3    H234668   5.674   4.570   1.945 -1.0628  1.8023 -1.6347
 4345TIP3   OH234669   6.309   0.002   3.430 -0.0316 -0.4026 -0.5369
 4345TIP3    H134670   6.272  -0.068   3.376  0.8440 -1.4830  0.2069
 4345TIP3    H234671   6.371   0.047   3.374  1.1864 -1.7851 -0.3457
 4346TIP3   OH234672   5.618   5.095   0.400  0.6658 -0.0027 -0.1498
 4346TIP3    H134673   5.701   5.103   0.353  1.4572 -1.1446  0.9865
 4346TIP3    H234674   5.644   5.070   0.489 -0.7641  2.1062  0.9452
 4347TIP3   OH234675   2.007   5.619   2.639  0.3466 -0.1075  0.1562
 4347TIP3    H134676   2.037   5.613   2.549 -0.9513  0.7150 -0.3516
 4347TIP3    H234677   1.921   5.577   2.639  0.5678 -0.6058  1.1422
 4348TIP3   OH234678   6.111   1.903   0.868  0.0879 -0.2446 -0.2126
 4348TIP3    H134679   6.150   1.915   0.954  1.3298  1.4190 -0.9487
 4348TIP3    H234680   6.059   1.982   0.853  1.1830  0.2709 -1.5956
 4349TIP3   OH234681   3.895   6.723   2.782 -0.4883  0.0484 -0.0083
 4349TIP3    H134682   3.814   6.679   2.756 -0.1521 -0.2246 -0.6245
 4349TIP3    H234683   3.963   6.656   2.769 -0.0184  0.6329 -0.5999
 4350TIP3   OH234684   5.260   0.470   0.213  0.1820 -0.5620  0.6666
 4350TIP3    H134685   5.192   0.535   0.233 -0.2025 -1.1308  1.2265
 4350TIP3    H234686   5.245   0.399   0.275  0.5336 -1.2396 -0.0004
 4351TIP3   OH234687   6.301   1.308   2.329  0.0898  0.0845  0.1779
 4351TIP3    H134688   6.218   1.354   2.314  0.2929  0.6936  0.9180
 4351TIP3    H234689   6.368   1.368   2.299  0.2484 -0.7393 -1.2182
 4352TIP3   OH234690   0.111   5.616   1.730 -0.1863 -0.6729 -0.0838
 4352TIP3    H134691   0.174   5.553   1.696  0.3877 -0.7523  1.0516
 4352TIP3    H234692   0.090   5.672   1.656  1.0658 -0.7871 -0.5525
 4353TIP3   OH234693   1.005   2.575   8.600 -0.2927 -0.1637 -0.6525
 4353TIP3    H134694   1.049   2.506   8.550 -1.4319 -0.9956 -0.5493
 4353TIP3    H234695   1.007   2.652   8.542  0.7486 -0.3463 -0.8791
 4354TIP3   OH234696   0.384   0.155   1.824  0.3669  0.2647  0.5426
 4354TIP3    H134697   0.367   0.248   1.840 -0.9423  0.3104 -0.8059
 4354TIP3    H234698   0.475   0.151   1.794  0.5058  1.0830  0.8504
 4355TIP3   OH234699   5.118   6.662   2.856  0.3829 -0.0555 -0.5376
 4355TIP3    H134700   5.026   6.677   2.878  0.1878 -0.1247 -1.2574
 4355TIP3    H234701   5.115   6.622   2.769  1.0206 -1.3922  0.0084
 4356TIP3   OH234702   3.137   3.630   8.606 -0.2806 -0.0005  0.0559
 4356TIP3    H134703   3.167   3.668   8.524  0.8326 -0.3380  0.2845
 4356TIP3    H234704   3.043   3.648   8.608 -0.1007  1.1690 -0.6682
 4357TIP3   OH234705   2.825   2.306   3.468 -0.2995 -0.2505  0.7211
 4357TIP3    H134706   2.894   2.363   3.502 -0.6676  0.6670 -0.0353
 4357TIP3    H234707   2.853   2.284   3.380 -0.8648 -0.0430  0.4840
 4358TIP3   OH234708   4.588   6.180   1.205  0.1957  0.1882 -0.4001
 4358TIP3    H134709   4.607   6.124   1.130 -0.9274 -1.7127  0.6543
 4358TIP3    H234710   4.528   6.246   1.172  0.7444  0.1837 -1.4427
 4359TIP3   OH234711   6.110   4.734   2.567  0.0458 -0.5038  0.2087
 4359TIP3    H134712   6.107   4.640   2.580  0.0255 -0.6695 -0.9018
 4359TIP3    H234713   6.203   4.757   2.573  0.1890 -0.7900 -0.7054
 4360TIP3   OH234714   0.635   4.674   0.389  0.6085 -0.2543  0.3360
 4360TIP3    H134715   0.556   4.711   0.429  0.2200 -0.8305  0.1190
 4360TIP3    H234716   0.688   4.750   0.366  0.6744  0.0977  1.5960
 4361TIP3   OH234717   3.070   1.000   4.308 -0.6299  0.2264  0.2268
 4361TIP3    H134718   3.142   1.062   4.296  1.3919 -2.0446  0.1357
 4361TIP3    H234719   3.006   1.025   4.241  1.0338  0.9649 -1.1716
 4362TIP3   OH234720   4.650   1.950   2.826 -0.3549  0.4413 -0.0919
 4362TIP3    H134721   4.567   1.902   2.834 -0.3644  0.6238  1.1136
 4362TIP3    H234722   4.624   2.042   2.821 -0.2357  0.5169  0.5155
 4363TIP3   OH234723   2.142   4.620   0.770 -0.4948 -0.0717 -0.0267
 4363TIP3    H134724   2.209   4.560   0.801 -0.7031 -1.0277 -1.3491
 4363TIP3    H234725   2.182   4.665   0.696 -1.0089  0.0021 -0.2661
 4364TIP3   OH234726   2.204   4.965   2.692  0.3259  0.2120 -0.2792
 4364TIP3    H134727   2.178   4.880   2.657  2.9602 -0.6086 -0.4696
 4364TIP3    H234728   2.250   5.008   2.620  3.2041 -0.2670  1.1000
 4365TIP3   OH234729   3.276   0.532   1.233 -0.1185 -0.4481 -0.0550
 4365TIP3    H134730   3.251   0.498   1.319 -1.5359  0.8318  0.0763
 4365TIP3    H234731   3.303   0.622   1.250  2.5216 -1.0604 -0.5465
 4366TIP3   OH234732   3.580   1.157   2.910 -0.7751 -0.7409 -0.1342
 4366TIP3    H134733   3.573   1.212   2.832 -0.6737 -0.5180  0.0113
 4366TIP3    H234734   3.543   1.073   2.884  1.3004 -1.4097 -1.1141
 4367TIP3   OH234735   1.626   1.812   8.888  0.0163  0.0581  0.1699
 4367TIP3    H134736   1.587   1.810   8.801  1.2546 -2.8386 -0.4294
 4367TIP3    H234737   1.598   1.730   8.929  2.1642 -0.2397  1.1918
 4368TIP3   OH234738   5.071   2.090   7.995  0.3809 -0.4975 -0.6409
 4368TIP3    H134739   5.080   2.180   7.963  0.4650 -1.2646 -2.9746
 4368TIP3    H234740   4.990   2.090   8.046  0.8639  1.0803  0.1897
 4369TIP3   OH234741   3.951   5.817   3.152  0.3653  0.0773  0.3088
 4369TIP3    H134742   3.926   5.757   3.082 -1.1712  0.3480  0.5786
 4369TIP3    H234743   4.041   5.794   3.173  0.5124 -0.6884 -1.0502
 4370TIP3   OH234744   1.657   2.086   0.542  0.0403 -0.0019  0.3186
 4370TIP3    H134745   1.618   2.110   0.457 -0.9701 -0.7388  0.5505
 4370TIP3    H234746   1.610   2.007   0.568  1.5776 -0.8178  0.7338
 4371TIP3   OH234747   0.226   5.164   0.481  0.1631  0.3939 -0.6307
 4371TIP3    H134748   0.296   5.105   0.509 -0.1833 -0.6163 -1.8220
 4371TIP3    H234749   0.241   5.244   0.531  0.3473 -0.8491  1.4215
 4372TIP3   OH234750   2.252   5.876   8.276  0.8985 -0.3589  0.2989
 4372TIP3    H134751   2.305   5.853   8.200 -1.1005  0.4985 -1.4894
 4372TIP3    H234752   2.190   5.941   8.242 -2.9742 -3.0956  1.4852
 4373TIP3   OH234753   3.308   2.563   8.228 -0.2708 -0.2786  0.5628
 4373TIP3    H134754   3.391   2.600   8.257  0.5910 -1.4749 -0.2752
 4373TIP3    H234755   3.330   2.476   8.196 -1.3859  0.3322 -2.1742
 4374TIP3   OH234756   6.672   2.307   2.139  0.1918 -0.1881 -0.1202
 4374TIP3    H134757   6.657   2.391   2.095  0.3922 -0.1973 -0.2088
 4374TIP3    H234758   6.714   2.253   2.073  0.6028 -0.1644  0.1163
 4375TIP3   OH234759   5.675   1.106   2.479 -0.2307 -0.1530  0.3178
 4375TIP3    H134760   5.653   1.110   2.572 -0.3363  1.0651  0.2534
 4375TIP3    H234761   5.748   1.044   2.474  0.0155  0.0448  1.2570
 4376TIP3   OH234762   1.345   3.385   2.558 -0.1385 -0.1133 -0.0636
 4376TIP3    H134763   1.403   3.330   2.505  0.6401 -0.1841  0.8520
 4376TIP3    H234764   1.400   3.457   2.589 -0.8674  0.5534 -0.2789
 4377TIP3   OH234765   6.369   6.188   3.729  0.3312  0.5645  0.1039
 4377TIP3    H134766   6.435   6.142   3.678  0.7631  0.9042  0.3460
 4377TIP3    H234767   6.405   6.191   3.818  0.7299  2.1289 -0.0774
 4378TIP3   OH234768   1.230   3.389   8.796  0.1954 -0.1127  0.1457
 4378TIP3    H134769   1.188   3.474   8.806  0.7390  0.1563  0.1748
 4378TIP3    H234770   1.322   3.404   8.821  0.4186 -0.5780 -0.3676
 4379TIP3   OH234771   2.484   1.548   1.397 -0.2463 -0.3797 -0.3123
 4379TIP3    H134772   2.575   1.532   1.420  0.5222  1.7074 -1.6250
 4379TIP3    H234773   2.486   1.571   1.304 -1.6564  2.4879  0.2460
 4380TIP3   OH234774   4.276   5.005   0.505  0.7171  0.2529 -0.7525
 4380TIP3    H134775   4.233   4.945   0.565 -1.5576  1.9496 -0.5233
 4380TIP3    H234776   4.249   4.975   0.418  1.5082 -0.4063 -0.7785
 4381TIP3   OH234777   6.303   1.504   3.058  0.4833 -0.2292  0.7134
 4381TIP3    H134778   6.279   1.535   2.971 -0.9821  2.4053  1.9356
 4381TIP3    H234779   6.223   1.462   3.091  1.0714 -1.3385  0.7601
 4382TIP3   OH234780   5.572   5.355   0.205  0.3032  0.2881  0.2497
 4382TIP3    H134781   5.636   5.338   0.137 -0.4081  0.3673 -0.4522
 4382TIP3    H234782   5.544   5.268   0.234 -0.1099  0.2520 -0.2502
 4383TIP3   OH234783   1.834   6.649   8.809 -0.1340  0.2832 -0.1436
 4383TIP3    H134784   1.910   6.590   8.808  1.1178  1.7480 -2.5489
 4383TIP3    H234785   1.871   6.735   8.826 -1.4068  0.8830 -0.2975
 4384TIP3   OH234786   6.196   0.060   1.231 -0.1021  0.1336 -0.1287
 4384TIP3    H134787   6.113   0.015   1.248  0.4693 -1.0022 -0.2258
 4384TIP3    H234788   6.206   0.057   1.136 -0.2557  0.8568 -0.1736
 4385TIP3   OH234789   4.321   5.609   2.261 -0.4010 -0.2138  0.3353
 4385TIP3    H134790   4.365   5.665   2.197 -1.2468  0.2120  0.1152
 4385TIP3    H234791   4.313   5.664   2.339 -2.0570  0.3191 -0.1758
 4386TIP3   OH234792   0.637   1.788   4.188  0.0705  0.0537  0.1702
 4386TIP3    H134793   0.665   1.806   4.098  0.6514  1.5239  0.6007
 4386TIP3    H234794   0.583   1.864   4.211 -1.0539 -0.8800  0.6764
 4387TIP3   OH234795   4.108   5.366   3.125  0.3421  0.5435  0.0380
 4387TIP3    H134796   4.155   5.436   3.081  0.6436 -0.5455 -1.4505
 4387TIP3    H234797   4.174   5.298   3.138 -0.2123  0.0610  0.3654
 4388TIP3   OH234798   6.074   0.479   1.787  0.0911  0.3903  0.1758
 4388TIP3    H134799   6.007   0.423   1.825 -1.6533  1.2853 -1.3946
 4388TIP3    H234800   6.107   0.532   1.860 -1.3255  0.3048  0.8945
 4389TIP3   OH234801   6.793   4.442   1.701  0.1835  0.7086  0.3091
 4389TIP3    H134802   6.728   4.377   1.727 -0.2193  0.7522 -0.5463
 4389TIP3    H234803   6.751   4.489   1.629  0.7861  1.3848  0.3982
 4390TIP3   OH234804   6.044   5.727   2.720 -0.6678 -0.2312 -0.5132
 4390TIP3    H134805   6.055   5.675   2.641 -2.2129 -1.4790  0.0295
 4390TIP3    H234806   5.957   5.702   2.752 -0.0060  0.1035  1.6647
 4391TIP3   OH234807   0.447   5.681   1.347 -0.2208 -0.0729 -0.3181
 4391TIP3    H134808   0.482   5.757   1.393  1.0321 -0.4592 -0.5896
 4391TIP3    H234809   0.440   5.709   1.256  0.9574 -0.5007 -0.5527
 4392TIP3   OH234810   5.418   0.529   8.363 -0.3088  0.5471 -0.1035
 4392TIP3    H134811   5.508   0.559   8.373  0.0337 -0.6422  0.5335
 4392TIP3    H234812   5.375   0.551   8.445 -0.3934  0.4324 -0.1166
 4393TIP3   OH234813   0.989   5.353   0.895 -0.3748  0.6801 -0.1241
 4393TIP3    H134814   0.957   5.423   0.952 -0.9538 -0.7072  1.3494
 4393TIP3    H234815   1.077   5.333   0.929  0.4109  1.6427 -1.4856
 4394TIP3   OH234816   2.087   0.236   2.540  0.0357  0.1184 -0.4812
 4394TIP3    H134817   2.163   0.181   2.521  1.6344  1.6498  1.0589
 4394TIP3    H234818   2.016   0.174   2.556  1.3734 -1.4411 -0.3068
 4395TIP3   OH234819   5.051   6.682   1.050  0.0744  0.1095  0.5494
 4395TIP3    H134820   5.016   6.636   0.974  4.7522 -4.0695  0.3945
 4395TIP3    H234821   5.087   6.763   1.016  0.2978 -0.7328 -1.2972
 4396TIP3   OH234822   0.333   3.445   3.134 -0.2864 -0.2143 -0.7176
 4396TIP3    H134823   0.387   3.495   3.072  1.6144 -0.0070  1.0298
 4396TIP3    H234824   0.243   3.476   3.117  0.5934  2.4727 -0.9416
 4397TIP3   OH234825   3.187   2.973   0.812 -0.0436  0.0412 -0.0345
 4397TIP3    H134826   3.259   3.020   0.854  0.5779 -0.4019 -0.5832
 4397TIP3    H234827   3.108   3.015   0.846  0.4536  0.1248  1.0743
 4398TIP3   OH234828   2.383   6.288   3.485  0.0283  0.1380 -1.0031
 4398TIP3    H134829   2.456   6.244   3.529  0.2994  0.6567 -0.9359
 4398TIP3    H234830   2.371   6.370   3.533 -0.3953  0.2029 -1.2100
 4399TIP3   OH234831   3.864   3.676   8.510 -0.1019  0.1219  0.8893
 4399TIP3    H134832   3.903   3.620   8.442  0.8899  1.2185  0.5297
 4399TIP3    H234833   3.778   3.699   8.475  0.7750  1.4789 -0.4963
 4400TIP3   OH234834   4.706   0.138   0.227 -0.3809 -0.0889  0.9759
 4400TIP3    H134835   4.652   0.172   0.298 -0.6188 -0.2250  0.8582
 4400TIP3    H234836   4.656   0.066   0.190  0.0055 -0.4014  1.0526
 4401TIP3   OH234837   5.674   5.575   8.003  0.2304  0.5335 -0.2734
 4401TIP3    H134838   5.601   5.587   7.942 -0.3226  0.8262  0.4277
 4401TIP3    H234839   5.738   5.523   7.955  0.8801  2.7639 -1.9572
 4402TIP3   OH234840   3.103   1.971   3.085  0.5757  0.4762  0.5148
 4402TIP3    H134841   3.015   1.995   3.055  0.6826 -1.0348 -1.2307
 4402TIP3    H234842   3.160   2.035   3.044  0.4905 -0.1042 -0.5505
 4403TIP3   OH234843   4.578   5.107   3.687 -0.0160  0.0129 -0.4322
 4403TIP3    H134844   4.500   5.087   3.739  0.7936  1.8292  1.6190
 4403TIP3    H234845   4.641   5.040   3.712  0.3713  0.8752  1.0288
 4404TIP3   OH234846   5.058   1.643   3.050 -0.0282  0.8605  0.8164
 4404TIP3    H134847   4.993   1.581   3.016 -1.0579  1.2226  2.0943
 4404TIP3    H234848   5.104   1.594   3.118  0.8219  0.7263  0.1654
 4405TIP3   OH234849   0.787   3.436   0.234  0.1499 -0.0645 -0.1101
 4405TIP3    H134850   0.706   3.468   0.193  0.4040  0.8550  0.0741
 4405TIP3    H234851   0.788   3.477   0.320  2.0476  2.0321 -1.0267
 4406TIP3   OH234852   6.129   4.659   1.651  0.0234  0.2294  0.1145
 4406TIP3    H134853   6.186   4.598   1.697 -2.2371 -3.6332 -1.6656
 4406TIP3    H234854   6.060   4.679   1.714  0.3825  0.2833  0.4885
 4407TIP3   OH234855   5.247   2.309   2.179 -0.2510 -0.2509 -0.4072
 4407TIP3    H134856   5.199   2.364   2.116  0.2088  2.3466  1.3386
 4407TIP3    H234857   5.337   2.343   2.175 -0.0011 -0.7317  0.9078
 4408TIP3   OH234858   4.919   5.342   2.137 -0.3246 -0.0712 -0.8184
 4408TIP3    H134859   4.907   5.331   2.231 -0.7138 -1.9738 -1.0524
 4408TIP3    H234860   4.857   5.280   2.098 -0.6586  1.1703 -2.3575
 4409TIP3   OH234861   4.814   1.698   0.781  0.3819  0.0068 -0.5298
 4409TIP3    H134862   4.817   1.751   0.701  2.4653  1.0748  0.1980
 4409TIP3    H234863   4.790   1.610   0.750 -1.6806  0.9822 -1.9365
 4410TIP3   OH234864   0.341   5.972   0.151 -0.7088 -0.7949  0.0595
 4410TIP3    H134865   0.407   5.914   0.186  0.2729  1.5784  2.4593
 4410TIP3    H234866   0.353   5.968   0.056  2.4608 -0.9820  0.3717
 4411TIP3   OH234867   2.747   3.147   0.635 -0.1921  0.0784 -0.0358
 4411TIP3    H134868   2.830   3.126   0.593 -1.1525  1.1835 -2.6817
 4411TIP3    H234869   2.762   3.233   0.676 -0.0981  0.3935 -0.7259
 4412TIP3   OH234870   6.383   0.741   0.163 -0.0215 -0.3366 -0.0349
 4412TIP3    H134871   6.454   0.686   0.196 -0.0100 -0.4880 -0.3131
 4412TIP3    H234872   6.314   0.680   0.138 -0.1734 -0.2009  0.0525
 4413TIP3   OH234873   5.410   5.492   8.198 -0.2681  0.0145 -0.2986
 4413TIP3    H134874   5.334   5.435   8.209  0.6069 -0.7876  2.2879
 4413TIP3    H234875   5.373   5.580   8.190 -1.4880 -0.4751 -0.3291
 4414TIP3   OH234876   3.004   3.008   0.545  0.2415 -0.8483  0.0151
 4414TIP3    H134877   3.081   3.052   0.581 -0.3489 -0.6098  1.0141
 4414TIP3    H234878   2.967   2.960   0.619 -0.1261 -1.6112 -0.6480
 4415TIP3   OH234879   1.442   2.196   1.568 -0.3502 -0.1136  0.2813
 4415TIP3    H134880   1.363   2.148   1.543  0.3428 -0.5580 -1.1035
 4415TIP3    H234881   1.427   2.285   1.537 -0.8496  0.1335  1.1986
 4416TIP3   OH234882   6.378   3.250   2.005  0.1529  0.4779 -0.3365
 4416TIP3    H134883   6.368   3.278   2.096  0.1150 -0.5704 -0.0074
 4416TIP3    H234884   6.457   3.296   1.975  0.7777  0.0163  0.5594
 4417TIP3   OH234885   4.291   3.186   1.762 -0.2864 -0.4934 -0.5873
 4417TIP3    H134886   4.196   3.183   1.747 -0.3221  0.7331 -0.7602
 4417TIP3    H234887   4.310   3.108   1.813 -1.7077  0.1363  1.0064
 4418TIP3   OH234888   6.445   3.097   0.318  0.3589  0.6509 -0.5506
 4418TIP3    H134889   6.503   3.045   0.262  0.7081  0.2096  0.2114
 4418TIP3    H234890   6.483   3.090   0.405 -0.9032  0.2677 -0.0083
 4419TIP3   OH234891   4.273   5.241   1.281 -0.4645 -0.2783 -0.4359
 4419TIP3    H134892   4.307   5.304   1.218 -0.0529  0.4269  0.4750
 4419TIP3    H234893   4.337   5.169   1.279  1.9004  1.5533  2.1393
 4420TIP3   OH234894   5.719   5.641   1.294 -0.4451  0.3419 -0.3678
 4420TIP3    H134895   5.665   5.612   1.220 -0.4136 -3.2749  0.8276
 4420TIP3    H234896   5.676   5.720   1.326 -2.6153 -0.0949 -1.9762
 4421TIP3   OH234897   4.096   2.083   1.639 -0.2042 -0.0374 -0.9839
 4421TIP3    H134898   4.158   2.153   1.660  0.0213 -0.8827  1.6094
 4421TIP3    H234899   4.150   2.004   1.636 -1.1422 -1.1541  3.5077
 4422TIP3   OH234900   3.996   1.248   2.173  0.0881  1.2902  0.0017
 4422TIP3    H134901   3.923   1.256   2.235  1.1431  1.1680  1.3123
 4422TIP3    H234902   4.026   1.158   2.182 -0.3300  0.9834 -1.4210
 4423TIP3   OH234903   2.753   1.679   1.521 -0.2315  0.1485 -0.3788
 4423TIP3    H134904   2.749   1.740   1.595 -0.8435  1.3898 -1.3863
 4423TIP3    H234905   2.817   1.613   1.547  1.6401  2.0673  0.1655
 4424TIP3   OH234906   4.404   2.936   3.060 -0.4635 -0.4150 -0.3459
 4424TIP3    H134907   4.456   2.856   3.067  0.6968  0.2712 -0.7158
 4424TIP3    H234908   4.317   2.906   3.035 -0.1541 -1.5826 -0.1026
 4425TIP3   OH234909   2.889   6.319   1.247 -0.5254  0.0254 -0.6893
 4425TIP3    H134910   2.961   6.271   1.287  0.5018  2.8477  1.1772
 4425TIP3    H234911   2.931   6.393   1.202 -2.1557  0.7155 -1.1785
 4426TIP3   OH234912   3.605   2.978   2.733  0.4990 -0.3988  0.2465
 4426TIP3    H134913   3.648   2.985   2.648 -1.9895  2.3249 -0.9619
 4426TIP3    H234914   3.651   3.041   2.788  0.4093 -0.1796  0.0726
 4427TIP3   OH234915   0.987   4.763   2.908  0.1266  0.2812  0.6253
 4427TIP3    H134916   1.071   4.771   2.955  0.0349 -0.2110  0.8784
 4427TIP3    H234917   0.921   4.760   2.978 -0.0703  0.2576  0.4373
 4428TIP3   OH234918   5.005   0.058   8.214 -0.0445 -0.3726 -0.1882
 4428TIP3    H134919   4.952  -0.019   8.234  0.8572 -0.9355  0.0966
 4428TIP3    H234920   5.067   0.028   8.147  0.1958  0.1527 -0.2059
 4429TIP3   OH234921   3.878   1.828   0.489  0.3891  0.7775 -0.0300
 4429TIP3    H134922   3.815   1.846   0.419 -0.1934  0.5272  0.4293
 4429TIP3    H234923   3.906   1.915   0.518  0.5841  0.8849 -0.5221
 4430TIP3   OH234924   1.523   1.152   2.266  0.2680  0.2593  0.1103
 4430TIP3    H134925   1.515   1.129   2.358  0.5976 -2.0700 -0.3812
 4430TIP3    H234926   1.613   1.130   2.243  0.1350  0.6371 -0.8069
 4431TIP3   OH234927   3.816   0.568   0.992 -0.6003  0.0706  0.1546
 4431TIP3    H134928   3.755   0.498   0.974 -0.3357  0.3233 -2.0257
 4431TIP3    H234929   3.854   0.547   1.078 -2.4338 -0.9909  0.7401
 4432TIP3   OH234930   2.721   5.279   0.619  0.1651 -0.4293  0.3411
 4432TIP3    H134931   2.798   5.274   0.674 -0.0847  1.1928  0.8869
 4432TIP3    H234932   2.684   5.191   0.621  1.8457 -1.1663  0.2637
 4433TIP3   OH234933   2.483   5.727   1.015 -0.0463  0.5203 -0.0918
 4433TIP3    H134934   2.459   5.688   0.932  0.8849  0.5901 -0.4108
 4433TIP3    H234935   2.579   5.737   1.010  0.1636 -0.4398  1.3982
 4434TIP3   OH234936   0.065   1.722   1.623  0.2318  0.7463 -0.4403
 4434TIP3    H134937   0.085   1.809   1.589  0.3953  1.4593  1.3974
 4434TIP3    H234938   0.069   1.731   1.718 -1.0535 -0.9563 -0.1662
 4435TIP3   OH234939   3.137   1.902   0.318  0.4507 -0.4728 -0.4629
 4435TIP3    H134940   3.077   1.834   0.349 -1.5584  1.2022 -0.4836
 4435TIP3    H234941   3.219   1.884   0.365 -0.9500 -1.0448  1.9570
 4436TIP3   OH234942   0.078   0.408   1.146  0.6374  0.7052  0.2908
 4436TIP3    H134943   0.087   0.379   1.056  0.5177 -2.1044  1.0938
 4436TIP3    H234944   0.167   0.405   1.182  0.3287 -0.9943  0.9955
 4437TIP3   OH234945   2.887   0.578   0.998  0.3991  0.5624  0.5826
 4437TIP3    H134946   2.935   0.630   0.934 -1.7935 -0.0384 -1.6990
 4437TIP3    H234947   2.898   0.624   1.081  1.4279  2.6729 -0.6731
 4438TIP3   OH234948   1.699   5.906   0.476 -0.6528  0.1098 -0.3060
 4438TIP3    H134949   1.755   5.959   0.421  0.7823  0.5452  1.4830
 4438TIP3    H234950   1.749   5.893   0.557 -1.2537 -3.2804 -0.3211
 4439TIP3   OH234951   0.441   1.107   8.826  0.3218 -0.0896  0.3748
 4439TIP3    H134952   0.470   1.041   8.889 -2.3244 -1.2793  0.4919
 4439TIP3    H234953   0.431   1.059   8.744  0.5434  0.6934 -0.1167
 4440TIP3   OH234954   5.289   4.515   0.705 -0.2452 -0.1013 -0.0530
 4440TIP3    H134955   5.374   4.530   0.747  0.3036  0.2032 -1.2307
 4440TIP3    H234956   5.308   4.453   0.635 -1.0089 -0.0230 -0.3320
 4441TIP3   OH234957   6.718   2.814   3.286 -0.2546  0.0256 -0.1022
 4441TIP3    H134958   6.792   2.845   3.235  0.7466  2.6064  2.6136
 4441TIP3    H234959   6.754   2.744   3.341 -0.9989 -1.7783 -1.7877
 4442TIP3   OH234960   4.117   4.615   1.293 -0.3587  0.4615  0.0517
 4442TIP3    H134961   4.074   4.554   1.233 -1.4185  0.6822  0.5668
 4442TIP3    H234962   4.210   4.595   1.285 -0.6745 -1.1553  0.1406
 4443TIP3   OH234963   5.179   5.204   2.038  0.2422  0.3076 -0.4198
 4443TIP3    H134964   5.149   5.149   1.966  1.3203  0.9281 -1.3828
 4443TIP3    H234965   5.129   5.285   2.029 -1.3282 -0.4399  0.9824
 4444TIP3   OH234966   2.219   1.191   0.772 -0.0665  0.2144  0.2195
 4444TIP3    H134967   2.295   1.241   0.742  0.5706 -0.1808  1.1021
 4444TIP3    H234968   2.208   1.123   0.705 -1.3952  1.9076 -1.3765
 4445TIP3   OH234969   3.297   6.618   0.886 -0.1792  0.4966 -0.2917
 4445TIP3    H134970   3.277   6.599   0.794 -2.4030 -0.0137  0.2307
 4445TIP3    H234971   3.384   6.582   0.899 -0.8108 -1.7285 -1.5969
 4446TIP3   OH234972   6.456   1.916   0.651  0.1009  0.4417 -0.0564
 4446TIP3    H134973   6.517   1.989   0.656  0.3746  0.1564  0.8974
 4446TIP3    H234974   6.378   1.945   0.697 -0.3625  0.6651 -0.9492
 4447TIP3   OH234975   4.374   2.104   0.213 -0.2222  0.3154 -0.3965
 4447TIP3    H134976   4.448   2.052   0.180 -0.5779  0.2077 -1.0509
 4447TIP3    H234977   4.368   2.081   0.306  1.0023  0.8577 -0.1619
 4448TIP3   OH234978   3.969   4.755   1.622 -0.2787 -0.0163  0.2104
 4448TIP3    H134979   3.893   4.802   1.656 -0.5687  0.8113 -1.4684
 4448TIP3    H234980   3.956   4.755   1.527  3.4432  3.1992 -0.5465
 4449TIP3   OH234981   5.866   5.685   0.539  0.4144  0.2114  0.4253
 4449TIP3    H134982   5.822   5.607   0.505  1.4103 -0.0965 -0.1981
 4449TIP3    H234983   5.835   5.757   0.484  1.0674 -0.0871 -0.3522
 4450TIP3   OH234984   4.037   5.171   1.153 -0.0710 -0.2814 -0.3072
 4450TIP3    H134985   4.120   5.210   1.180 -0.1591  0.4926 -1.1052
 4450TIP3    H234986   4.025   5.097   1.212  0.8780 -0.0308  0.2226
 4451TIP3   OH234987   3.693   1.896   4.000  0.3759 -0.6808 -0.2221
 4451TIP3    H134988   3.729   1.981   3.977 -0.6196 -0.1160  0.2104
 4451TIP3    H234989   3.764   1.834   3.984  1.4201  0.3356  0.3208
 4452TIP3   OH234990   5.912   4.801   3.652  0.4082 -0.0560  0.0896
 4452TIP3    H134991   5.828   4.774   3.614 -0.4835  3.7065 -1.0874
 4452TIP3    H234992   5.955   4.851   3.583  1.8304  1.3729  1.8888
 4453TIP3   OH234993   1.737   0.451   1.269  0.1481  0.2329  0.0363
 4453TIP3    H134994   1.761   0.359   1.257  0.6422  0.2525  0.8063
 4453TIP3    H234995   1.762   0.493   1.186 -0.2294 -0.3500 -0.3798
 4454TIP3   OH234996   0.531   0.463   1.664  0.4886  0.7333 -0.4616
 4454TIP3    H134997   0.603   0.443   1.723  1.5583  0.3141 -1.8629
 4454TIP3    H234998   0.554   0.420   1.582 -1.4270  0.4682 -0.9199
 4455TIP3   OH234999   6.175   6.727   2.786  0.6876  0.5269  0.2248
 4455TIP3    H135000   6.085   6.731   2.818  0.2390  0.4520 -0.9828
 4455TIP3    H235001   6.181   6.645   2.738  0.9748  1.1838 -0.9037
 4456TIP3   OH235002   2.565   1.509   0.185  0.5920  1.2305 -0.1207
 4456TIP3    H135003   2.515   1.489   0.264  1.1591 -1.6938 -0.3652
 4456TIP3    H235004   2.515   1.578   0.142 -1.0787  1.1539  1.5552
 4457TIP3   OH235005   5.487   1.729   1.009 -0.5028  0.4345  0.6388
 4457TIP3    H135006   5.416   1.671   0.982 -0.3323  1.0781 -1.3789
 4457TIP3    H235007   5.460   1.816   0.979 -0.0034  1.1282  2.1200
 4458TIP3   OH235008   5.022   3.196   0.805  0.6869 -0.0542 -0.2947
 4458TIP3    H135009   5.011   3.131   0.735 -0.2805  0.6724 -0.8343
 4458TIP3    H235010   4.996   3.150   0.885  0.1933 -0.3816 -0.6424
 4459TIP3   OH235011   3.355   3.186   0.153 -0.0758 -0.1443  0.6308
 4459TIP3    H135012   3.411   3.238   0.095 -0.6527  0.0374  0.2270
 4459TIP3    H235013   3.400   3.188   0.238  0.8439 -0.5126  0.1676
 4460TIP3   OH235014   1.766   0.036   0.879 -0.2730 -0.4618  0.0990
 4460TIP3    H135015   1.700   0.088   0.835 -0.0020 -0.2592 -0.0685
 4460TIP3    H235016   1.736  -0.055   0.869 -0.3853 -0.3915 -0.2056
 4461TIP3   OH235017   5.271   1.584   0.193  0.0121 -0.1501  0.3668
 4461TIP3    H135018   5.230   1.611   0.111  0.9692 -1.9533 -0.7719
 4461TIP3    H235019   5.283   1.665   0.242 -0.5637  0.9757 -1.2899
 4462TIP3   OH235020   6.143   0.813   1.283  0.0904  0.5411 -0.2047
 4462TIP3    H135021   6.183   0.741   1.235 -2.4393 -0.5223 -0.8827
 4462TIP3    H235022   6.154   0.790   1.375  2.2401  1.0409 -0.2793
 4463TIP3   OH235023   4.949   4.186   0.509  0.0908 -0.3646 -0.2435
 4463TIP3    H135024   5.037   4.166   0.541  1.3440  0.6177 -2.7985
 4463TIP3    H235025   4.914   4.102   0.480  0.5904 -0.6181 -0.1281
 4464TIP3   OH235026   2.196   0.534   3.885 -0.1200  0.6807 -0.2934
 4464TIP3    H135027   2.209   0.624   3.855  0.3236  0.1860 -1.6745
 4464TIP3    H235028   2.264   0.521   3.950  0.2005  1.1497 -0.5255
 4465TIP3   OH235029   5.313   3.934   2.463  0.1348  0.0854  0.4475
 4465TIP3    H135030   5.230   3.951   2.508 -0.9020 -1.5230 -0.7460
 4465TIP3    H235031   5.380   3.949   2.529 -1.0325  2.1499  1.2522
 4466TIP3   OH235032   3.518   1.062   3.285  0.5200  0.2349  0.2964
 4466TIP3    H135033   3.608   1.093   3.299 -0.2504  2.0348  1.8017
 4466TIP3    H235034   3.475   1.135   3.240 -0.3522 -0.3026  0.2399
 4467TIP3   OH235035   0.609   0.719   1.744  0.2035  0.4281 -0.0495
 4467TIP3    H135036   0.553   0.651   1.706  2.8070 -1.0280 -1.6003
 4467TIP3    H235037   0.618   0.695   1.836 -0.5197 -0.1667 -0.1263
 4468TIP3   OH235038   2.395   3.815   2.269 -0.1902  0.5537  0.3048
 4468TIP3    H135039   2.309   3.855   2.277 -0.9057 -1.1015  1.3813
 4468TIP3    H235040   2.439   3.835   2.352 -0.1596  0.0157  0.4221
 4469TIP3   OH235041   3.533   6.472   0.919  0.6206 -0.3508 -0.3607
 4469TIP3    H135042   3.496   6.384   0.916  0.6022 -0.3206 -1.2040
 4469TIP3    H235043   3.563   6.483   1.010 -0.8450 -0.6215  0.1837
 4470TIP3   OH235044   2.889   2.035   2.942 -0.0290 -0.9751 -0.2270
 4470TIP3    H135045   2.832   2.098   2.897  2.2234 -0.4917 -2.6276
 4470TIP3    H235046   2.945   2.000   2.873  2.0965 -1.9570  1.8712
 4471TIP3   OH235047   2.390   4.340   0.789  0.1757  0.1837  0.5249
 4471TIP3    H135048   2.417   4.431   0.805  0.4742 -0.0004  1.0742
 4471TIP3    H235049   2.346   4.313   0.870  0.1665 -0.1942  0.3950
 4472TIP3   OH235050   3.426   6.238   0.897  0.3022  0.3899  0.1089
 4472TIP3    H135051   3.390   6.198   0.818 -0.9829  2.4272 -0.3921
 4472TIP3    H235052   3.379   6.195   0.969  0.1477 -0.1800 -0.3271
 4473TIP3   OH235053   3.923   5.303   2.913 -0.1930 -0.3479 -0.5186
 4473TIP3    H135054   3.947   5.362   2.984 -1.0916 -1.1524  0.4742
 4473TIP3    H235055   4.006   5.275   2.875  0.2954 -0.0373  0.3093
 4474TIP3   OH235056   4.879   5.953   2.380  0.7158 -0.1179  0.3465
 4474TIP3    H135057   4.879   5.933   2.286  1.2312  0.5958  0.1856
 4474TIP3    H235058   4.939   5.889   2.418  0.5962 -0.3330  0.1769
 4475TIP3   OH235059   2.456   5.287   2.373 -0.2094  0.0184  0.6046
 4475TIP3    H135060   2.373   5.300   2.327 -0.4368 -2.2510  0.2585
 4475TIP3    H235061   2.478   5.195   2.358  0.3802 -0.5225  3.9227
 4476TIP3   OH235062   6.486   1.469   2.223  0.3121 -0.3374  0.4333
 4476TIP3    H135063   6.493   1.447   2.131 -2.7068 -0.0160  0.0211
 4476TIP3    H235064   6.524   1.557   2.230  0.5530 -0.3637 -0.5096
 4477TIP3   OH235065   2.555   3.241   2.084 -0.2163 -0.7070  0.1408
 4477TIP3    H135066   2.630   3.247   2.144 -1.2284  1.8823  1.3020
 4477TIP3    H235067   2.533   3.148   2.083 -0.0072 -0.9581  3.7033
 4478TIP3   OH235068   0.573   3.515   2.495 -0.2337 -0.6797 -0.0230
 4478TIP3    H135069   0.520   3.438   2.516  1.7282 -1.5709  2.1054
 4478TIP3    H235070   0.662   3.481   2.485  0.8023  1.2978  1.5974
 4479TIP3   OH235071   1.502   0.754   2.729 -0.2859  0.2302 -0.3148
 4479TIP3    H135072   1.476   0.748   2.821  2.5496 -1.3030  0.5235
 4479TIP3    H235073   1.425   0.788   2.684 -2.1448 -0.0100  2.4414
 4480TIP3   OH235074   4.913   0.544   3.181 -0.0544 -0.4682  0.2578
 4480TIP3    H135075   4.879   0.500   3.104 -0.6814 -0.3806  0.4776
 4480TIP3    H235076   4.953   0.475   3.233  0.7704 -0.4594 -0.3533
 4481TIP3   OH235077   0.583   3.671   1.672 -0.1064  0.4311 -0.4882
 4481TIP3    H135078   0.674   3.697   1.660  0.6590 -1.1620  1.2585
 4481TIP3    H235079   0.572   3.666   1.767 -1.8563 -0.0012 -0.6714
 4482TIP3   OH235080   2.802   3.535   2.850  0.9336  0.2665 -0.4730
 4482TIP3    H135081   2.858   3.458   2.844  0.5983  0.1329 -2.4233
 4482TIP3    H235082   2.804   3.574   2.763  1.1299  2.5246  0.4694
 4483TIP3   OH235083   3.118   3.187   2.436 -0.0741 -0.7037  0.2900
 4483TIP3    H135084   3.207   3.174   2.471  0.0468 -0.9914 -0.1189
 4483TIP3    H235085   3.094   3.275   2.465  1.3666  0.4496 -1.7258
 4484TIP3   OH235086   1.341   2.157   4.061  0.1193  0.6667  0.1394
 4484TIP3    H135087   1.270   2.215   4.034  1.0886  1.7886 -0.0372
 4484TIP3    H235088   1.404   2.214   4.104  0.0157 -0.6077  2.1185
 4485TIP3   OH235089   2.655   3.898   0.787  0.2557  0.2837 -0.1228
 4485TIP3    H135090   2.634   3.990   0.770  1.6213  0.2179 -2.6894
 4485TIP3    H235091   2.597   3.849   0.729 -1.2264 -0.6216  2.0029
 4486TIP3   OH235092   3.110   5.023   1.182  0.2966  0.1479  0.3137
 4486TIP3    H135093   3.070   4.937   1.166 -1.2594  0.9712 -0.4630
 4486TIP3    H235094   3.047   5.085   1.146  0.6504  1.7128  2.2321
 4487TIP3   OH235095   5.292   6.312   1.473  0.2409  1.2581 -0.1555
 4487TIP3    H135096   5.309   6.341   1.562  1.8073  1.0447 -0.3511
 4487TIP3    H235097   5.205   6.271   1.477  0.2860  1.2543  1.2648
 4488TIP3   OH235098   3.633   1.351   1.489 -0.2948 -0.0499 -0.6265
 4488TIP3    H135099   3.669   1.275   1.535  0.1511  0.9030  0.6619
 4488TIP3    H235100   3.645   1.331   1.396  1.7576 -0.6538 -0.2844
 4489TIP3   OH235101   1.761   6.275   4.023  0.0088 -0.0787  0.1898
 4489TIP3    H135102   1.817   6.323   3.962 -2.6209  1.2167 -1.3760
 4489TIP3    H235103   1.811   6.274   4.105  3.0321 -0.5776 -1.5049
 4490TIP3   OH235104   5.109   5.799   3.808  0.4084  0.6207  0.2903
 4490TIP3    H135105   5.092   5.879   3.858 -0.1815  0.3694  0.4937
 4490TIP3    H235106   5.141   5.736   3.872 -2.8462 -0.5709  0.9547
 4491TIP3   OH235107   2.502   5.006   8.438  0.1800  0.1043 -0.0658
 4491TIP3    H135108   2.422   5.014   8.490  0.5471 -0.3177  0.5726
 4491TIP3    H235109   2.472   4.972   8.353 -0.3262  0.0376  0.1334
 4492TIP3   OH235110   6.704   1.151   3.358  0.1159 -0.0035 -0.0722
 4492TIP3    H135111   6.654   1.186   3.431 -1.3519  2.4328 -2.1186
 4492TIP3    H235112   6.769   1.218   3.338  0.3397 -0.5073 -1.1473
 4493TIP3   OH235113   1.405   5.895   2.867 -0.0341  0.0997  0.2120
 4493TIP3    H135114   1.483   5.945   2.889  0.4186  0.1385 -1.3544
 4493TIP3    H235115   1.335   5.935   2.918  0.1398  2.9054 -1.5687
 4494TIP3   OH235116   3.668   6.428   8.599 -1.1285 -0.2541 -0.7342
 4494TIP3    H135117   3.661   6.341   8.639  0.5462  0.1508  0.5253
 4494TIP3    H235118   3.651   6.489   8.670 -2.0276  0.4820 -1.5550
 4495TIP3   OH235119   5.582   1.109   0.173 -0.0552 -0.0182  0.0820
 4495TIP3    H135120   5.518   1.179   0.183  1.2466  1.2836 -0.4828
 4495TIP3    H235121   5.579   1.062   0.256 -0.6582  0.9381  0.6205
 4496TIP3   OH235122   4.041   0.431   3.683 -0.8524  0.5322  0.2814
 4496TIP3    H135123   4.020   0.460   3.772  1.7084 -2.5425  2.1011
 4496TIP3    H235124   4.077   0.343   3.695  0.5357  0.3815 -3.7446
 4497TIP3   OH235125   0.655   4.459   8.456  0.5713 -0.3502 -1.1018
 4497TIP3    H135126   0.707   4.494   8.529  1.8380 -0.3002 -1.9806
 4497TIP3    H235127   0.564   4.469   8.484  1.0010 -2.6419  1.5222
 4498TIP3   OH235128   2.461   2.765   2.427  0.0729 -0.9185  0.4069
 4498TIP3    H135129   2.377   2.746   2.385  0.3406 -0.6266 -0.2785
 4498TIP3    H235130   2.473   2.859   2.416  0.8679 -1.0792 -0.2354
 4499TIP3   OH235131   1.146   0.349   0.329  0.0854  0.3332  0.5581
 4499TIP3    H135132   1.223   0.406   0.319 -0.2286  0.5069 -1.0661
 4499TIP3    H235133   1.135   0.341   0.424  1.4800  1.1508  0.8218
 4500TIP3   OH235134   4.705   3.535   0.634 -0.3231  0.1543 -0.5421
 4500TIP3    H135135   4.724   3.484   0.713  0.3036  0.3521 -0.5613
 4500TIP3    H235136   4.612   3.555   0.641  0.0722  1.7041  1.0690
 4501TIP3   OH235137   4.723   2.587   1.728 -0.0378 -0.1234  0.1379
 4501TIP3    H135138   4.674   2.509   1.701 -1.2365  0.1388  1.4399
 4501TIP3    H235139   4.759   2.622   1.646  1.8693 -2.8544 -0.3483
 4502TIP3   OH235140   1.945   0.873   0.501 -0.3350  0.2722  0.4184
 4502TIP3    H135141   1.940   0.909   0.412  0.2766  0.1116  0.3141
 4502TIP3    H235142   1.947   0.778   0.488 -0.5728  0.2381  0.6225
 4503TIP3   OH235143   2.694   2.968   1.370  0.0313  0.1300 -0.7999
 4503TIP3    H135144   2.766   2.924   1.415 -1.1558 -1.5183 -0.4098
 4503TIP3    H235145   2.629   2.982   1.438 -0.3212  0.9284 -1.2941
 4504TIP3   OH235146   0.416   6.431   0.529  0.0973  0.3645  0.1324
 4504TIP3    H135147   0.330   6.392   0.542 -0.6138  1.7525 -0.1645
 4504TIP3    H235148   0.453   6.439   0.616 -0.0183 -0.3549  0.2498
 4505TIP3   OH235149   3.574   1.903   0.005  0.5048 -0.2161 -0.2255
 4505TIP3    H135150   3.595   1.977  -0.053  0.3510 -1.3539 -1.7964
 4505TIP3    H235151   3.610   1.827  -0.040  0.7857 -1.1003  1.4342
 4506TIP3   OH235152   6.461   0.960   0.334 -0.0012  0.0693  0.4568
 4506TIP3    H135153   6.483   0.900   0.405 -0.6221 -0.1052  0.5071
 4506TIP3    H235154   6.420   0.904   0.268 -1.1397  0.5318  0.7636
 4507TIP3   OH235155   5.097   0.821   8.275  0.4667  0.1411 -0.1958
 4507TIP3    H135156   5.091   0.779   8.190  0.3392  2.9634 -1.7249
 4507TIP3    H235157   5.041   0.899   8.267  2.8569  2.2075  1.3267
 4508TIP3   OH235158   6.736   4.783   1.896  0.1679  0.6339  0.4498
 4508TIP3    H135159   6.646   4.760   1.919  0.2860  1.0218  1.3524
 4508TIP3    H235160   6.732   4.804   1.803 -0.3454 -0.9334  0.1019
 4509TIP3   OH235161   2.011   3.232   0.923 -0.0198  0.3179 -0.2086
 4509TIP3    H135162   1.975   3.312   0.883 -1.5629 -0.6565 -0.8468
 4509TIP3    H235163   1.944   3.204   0.985  1.5070  0.7302  1.7254
 4510TIP3   OH235164   6.216   1.341   0.167 -0.1115 -0.3557 -0.2501
 4510TIP3    H135165   6.237   1.340   0.261  2.1247 -2.8144 -0.6328
 4510TIP3    H235166   6.295   1.375   0.125  0.3066 -2.5589 -1.3833
 4511TIP3   OH235167   1.814   1.146   1.969 -0.1214 -0.3009 -0.9757
 4511TIP3    H135168   1.857   1.228   1.947  0.7192 -0.2119  0.7950
 4511TIP3    H235169   1.735   1.144   1.915  0.7135  0.8358 -2.2983
 4512TIP3   OH235170   4.805   0.384   2.979 -0.5594 -0.1872 -0.2965
 4512TIP3    H135171   4.775   0.300   2.943  2.0911 -2.0787  1.4985
 4512TIP3    H235172   4.842   0.430   2.903 -1.7562 -0.7538 -1.2588
 4513TIP3   OH235173   2.581   0.169   3.194 -0.9021  0.3607  0.2917
 4513TIP3    H135174   2.508   0.211   3.149  0.0072  1.0088 -0.6414
 4513TIP3    H235175   2.576   0.201   3.284 -1.3859  0.9121  0.0723
 4514TIP3   OH235176   4.130   6.029   0.006  0.1848  0.5713 -0.0641
 4514TIP3    H135177   4.141   5.970  -0.068 -2.4361  0.9881 -0.8860
 4514TIP3    H235178   4.144   6.117  -0.030  0.7842  0.6590  0.3758
 4515TIP3   OH235179   0.808   6.086   0.590  0.0711 -0.4595 -0.1533
 4515TIP3    H135180   0.771   6.167   0.555  1.4238 -0.0009 -0.5586
 4515TIP3    H235181   0.899   6.085   0.559  0.8553 -0.8338  1.9907
 4516TIP3   OH235182   1.028   4.602   3.326  0.3563 -0.0308  0.2065
 4516TIP3    H135183   1.047   4.696   3.332 -0.0332  0.0352  0.4410
 4516TIP3    H235184   0.943   4.599   3.282 -0.1366 -0.2326  1.1633
 4517TIP3   OH235185   6.641   4.821   3.566  0.0875  0.1092  0.1573
 4517TIP3    H135186   6.733   4.847   3.570 -0.1301  1.0797 -0.7712
 4517TIP3    H235187   6.595   4.884   3.621 -0.0671 -0.1451  0.3211
 4518TIP3   OH235188   5.120   2.680   2.729  0.4971 -0.1209  0.3861
 4518TIP3    H135189   5.202   2.631   2.736 -0.0170 -0.7691  2.4652
 4518TIP3    H235190   5.133   2.758   2.782  0.1665  0.3823 -0.2540
 4519TIP3   OH235191   3.827   3.434   2.826 -0.5111  0.3967  0.1617
 4519TIP3    H135192   3.765   3.368   2.856  0.5282 -0.3563  0.7018
 4519TIP3    H235193   3.890   3.442   2.898  1.1492 -0.3194 -1.1586
 4520TIP3   OH235194   6.717   3.657   3.267  0.2345  0.1351 -0.5836
 4520TIP3    H135195   6.731   3.670   3.361 -1.1362  2.8992 -0.6464
 4520TIP3    H235196   6.649   3.591   3.262 -0.1801  0.4632  0.4094
 4521TIP3   OH235197   3.821   4.770   2.011 -0.1403 -0.0974  0.0556
 4521TIP3    H135198   3.815   4.802   2.101  0.0238  1.5000 -0.4637
 4521TIP3    H235199   3.901   4.810   1.977 -1.5264  1.4802 -1.5759
 4522TIP3   OH235200   1.874   1.397   1.011 -0.5736 -0.0221 -0.2011
 4522TIP3    H135201   1.814   1.445   1.068 -0.5048 -0.6237  0.3820
 4522TIP3    H235202   1.876   1.449   0.930 -1.2503  0.4307  0.0630
 4523TIP3   OH235203   1.247   6.756   3.160 -0.1029 -0.4490  0.3209
 4523TIP3    H135204   1.298   6.791   3.233  0.2475  2.8593 -1.2955
 4523TIP3    H235205   1.168   6.721   3.200  0.4681  0.4474  2.3659
 4524TIP3   OH235206   1.995   1.728   3.478  0.5613  0.4052  0.7193
 4524TIP3    H135207   2.011   1.717   3.572  1.2563  1.0515  0.6834
 4524TIP3    H235208   2.029   1.815   3.458  1.9883 -0.3941 -0.4701
 4525TIP3   OH235209   4.082   6.500   0.316 -0.2074 -0.7297 -0.6241
 4525TIP3    H135210   3.998   6.460   0.336 -0.2544 -0.7330 -0.8291
 4525TIP3    H235211   4.063   6.593   0.303 -0.0972 -0.6370 -0.1424
 4526TIP3   OH235212   3.694   0.087   1.337  0.2163 -0.4837 -0.0869
 4526TIP3    H135213   3.650   0.022   1.392  0.2865 -0.7678 -0.3646
 4526TIP3    H235214   3.658   0.073   1.250  1.6328 -1.4607 -0.5482
 4527TIP3   OH235215   4.379   3.328   3.498 -0.0904  0.8619  0.6651
 4527TIP3    H135216   4.343   3.404   3.542 -0.1594  1.2801 -0.0905
 4527TIP3    H235217   4.469   3.320   3.530  0.1544  1.7023  0.2062
 4528TIP3   OH235218   1.669   6.597   0.782  0.4632  0.0539  0.3728
 4528TIP3    H135219   1.584   6.635   0.762  0.5189 -0.0369 -0.0394
 4528TIP3    H235220   1.710   6.582   0.697  0.4676 -0.8572  0.5178
 4529TIP3   OH235221   5.297   6.389   8.424  0.5509 -0.3300 -0.2797
 4529TIP3    H135222   5.300   6.441   8.344  3.0756  0.6770  0.3907
 4529TIP3    H235223   5.347   6.310   8.404 -1.4064 -1.5722 -0.5858
 4530TIP3   OH235224   3.751   1.088   1.301 -0.5131 -0.5019 -0.6821
 4530TIP3    H135225   3.694   1.012   1.305  0.6045 -1.3394 -0.2773
 4530TIP3    H235226   3.815   1.067   1.233 -0.4131  0.2486 -0.8356
 4531TIP3   OH235227   1.045   0.904   8.877  0.2116 -0.0787 -0.6416
 4531TIP3    H135228   0.979   0.963   8.914 -0.6205 -0.0433 -2.1117
 4531TIP3    H235229   1.121   0.961   8.862  1.0432 -0.3177  2.0011
 4532TIP3   OH235230   3.775   6.331   2.391  0.5842 -0.1966  0.5023
 4532TIP3    H135231   3.783   6.248   2.345 -0.2807  0.6017 -1.1947
 4532TIP3    H235232   3.719   6.313   2.466  0.8072 -1.2364  0.4236
 4533TIP3   OH235233   1.238   5.104   2.858 -0.1552 -0.8694 -0.5977
 4533TIP3    H135234   1.251   5.093   2.763 -0.5767  0.0845 -0.7880
 4533TIP3    H235235   1.251   5.017   2.895  0.6245 -1.1325 -1.4625
 4534TIP3   OH235236   5.285   0.037   0.578  0.2238 -0.0293 -0.2999
 4534TIP3    H135237   5.324   0.027   0.665  0.5483 -0.5524 -0.4997
 4534TIP3    H235238   5.217  -0.031   0.574  1.7537 -1.6021 -1.2894
 4535TIP3   OH235239   4.658   6.261   2.924  0.4213 -0.2535 -0.1195
 4535TIP3    H135240   4.670   6.230   2.834 -1.4855 -0.1281 -0.4668
 4535TIP3    H235241   4.632   6.182   2.972  0.7245 -0.1871  0.1484
 4536TIP3   OH235242   6.022   2.646   1.032 -0.2431  0.4609 -0.2707
 4536TIP3    H135243   6.093   2.635   1.094 -0.5170  1.1162  0.1706
 4536TIP3    H235244   6.038   2.580   0.965  1.2921  1.1801 -0.6613
 4537TIP3   OH235245   5.455   2.058   3.381  0.3590  0.2512  0.0854
 4537TIP3    H135246   5.413   2.141   3.358  0.8249  0.3097 -0.5938
 4537TIP3    H235247   5.390   2.012   3.434 -0.5212  0.3719 -0.8578
 4538TIP3   OH235248   5.742   3.345   1.922  0.3360  0.0103 -0.6062
 4538TIP3    H135249   5.665   3.352   1.978  0.1424 -1.7263 -0.5774
 4538TIP3    H235250   5.714   3.381   1.838 -0.3115 -0.0275 -0.4115
 4539TIP3   OH235251   0.816   0.912   4.126 -0.4922  0.4258  0.0209
 4539TIP3    H135252   0.853   0.996   4.153 -0.7977  0.6983 -0.3947
 4539TIP3    H235253   0.796   0.923   4.033 -6.2426  2.1291  1.0348
 4540TIP3   OH235254   5.359   3.053   4.032 -0.5499  0.0308  0.6764
 4540TIP3    H135255   5.447   3.080   4.060 -0.5020  0.0793  0.4787
 4540TIP3    H235256   5.356   2.959   4.052 -0.4704  0.0378  0.7253
 4541TIP3   OH235257   3.631   3.708   4.080  0.6134  0.1588 -0.2206
 4541TIP3    H135258   3.566   3.684   4.014  1.3831 -0.5045 -0.7503
 4541TIP3    H235259   3.699   3.641   4.072  0.5706 -0.1465  1.4731
 4542TIP3   OH235260   5.972   0.549   2.924  0.0654 -0.3420 -0.1269
 4542TIP3    H135261   6.036   0.540   2.853  1.9348 -1.5228  1.6062
 4542TIP3    H235262   5.973   0.465   2.969 -2.0831 -0.0794  0.5269
 4543TIP3   OH235263   5.968   2.085   2.262 -0.2478 -0.0727  0.4505
 4543TIP3    H135264   6.030   2.065   2.332 -0.5674 -0.3559  0.6552
 4543TIP3    H235265   5.884   2.052   2.294 -0.6562  0.9702  0.5026
 4544TIP3   OH235266   3.522   3.433   8.552 -0.0787 -0.3927  0.3439
 4544TIP3    H135267   3.458   3.466   8.615 -0.8420 -0.7838 -0.2047
 4544TIP3    H235268   3.582   3.506   8.538 -0.8239  0.2324  0.3392
 4545TIP3   OH235269   3.039   0.835   3.206  0.1370  0.3917  0.3230
 4545TIP3    H135270   3.100   0.761   3.205 -0.1851  0.1231 -0.4517
 4545TIP3    H235271   2.999   0.834   3.119  1.2944  2.4450 -0.2997
 4546TIP3   OH235272   4.373   3.187   0.014  0.0553 -0.8734  0.1221
 4546TIP3    H135273   4.388   3.134   0.093  2.8014 -2.1316 -1.0973
 4546TIP3    H235274   4.312   3.254   0.041 -0.5191 -2.3499  2.8325
 4547TIP3   OH235275   0.726   5.583   3.691  0.5426  0.3257  0.1297
 4547TIP3    H135276   0.633   5.591   3.714  0.6926  0.6025  0.6606
 4547TIP3    H235277   0.765   5.665   3.722  1.2318 -0.3826  1.2257
 4548TIP3   OH235278   2.808   1.457   3.691 -0.6663 -0.1630 -0.1445
 4548TIP3    H135279   2.720   1.424   3.710 -1.5557  2.2042  0.0942
 4548TIP3    H235280   2.864   1.410   3.752 -1.7797 -1.4220 -0.0164
 4549TIP3   OH235281   6.292   3.692   2.665  0.3252 -0.3585 -0.2534
 4549TIP3    H135282   6.288   3.712   2.571 -0.2365 -0.0646 -0.1666
 4549TIP3    H235283   6.385   3.677   2.682  0.6691  1.3131 -0.5021
 4550TIP3   OH235284   2.539   2.209   2.404  0.3566  0.0688  0.2031
 4550TIP3    H135285   2.545   2.117   2.427  0.1894 -0.0450 -0.2054
 4550TIP3    H235286   2.606   2.222   2.338  1.2558  0.5366  1.1701
 4551TIP3   OH235287   5.311   0.295   2.914  0.1824  0.1321 -0.1482
 4551TIP3    H135288   5.298   0.228   2.848  1.2910 -0.4293  0.1722
 4551TIP3    H235289   5.253   0.366   2.888 -0.1207 -0.4662 -1.1672
 4552TIP3   OH235290   6.024   5.844   1.900 -0.2739  0.1870  0.6787
 4552TIP3    H135291   6.111   5.843   1.860 -0.8788 -1.4087 -0.6946
 4552TIP3    H235292   6.020   5.928   1.947  1.7638  0.5539  0.2761
 4553TIP3   OH235293   5.034   1.335   1.017 -0.0082 -0.1030 -0.0117
 4553TIP3    H135294   5.031   1.431   1.018  0.0807 -0.1023  0.3744
 4553TIP3    H235295   4.959   1.310   0.964  0.8147  0.2049 -1.3562
 4554TIP3   OH235296   2.147   4.822   2.188 -0.2049  0.1820  0.7016
 4554TIP3    H135297   2.195   4.772   2.122 -1.7264 -1.4205  0.7196
 4554TIP3    H235298   2.143   4.911   2.153 -0.4729 -0.4999 -1.1150
 4555TIP3   OH235299   0.976   5.115   2.939  0.9715  0.4549 -0.0102
 4555TIP3    H135300   1.068   5.117   2.914  1.2036  0.2788  0.8142
 4555TIP3    H235301   0.929   5.113   2.856  1.7299 -0.1450 -0.4404
 4556TIP3   OH235302   4.632   5.355   0.269 -0.4857  0.0302 -0.4707
 4556TIP3    H135303   4.581   5.279   0.241  1.0800 -1.0725 -0.4145
 4556TIP3    H235304   4.590   5.383   0.351 -0.9313 -0.9232 -0.3679
 4557TIP3   OH235305   1.951   2.990   1.131 -0.0830 -0.7274  0.5471
 4557TIP3    H135306   2.020   3.014   1.070 -0.2298 -1.4566  0.0883
 4557TIP3    H235307   1.895   2.930   1.082 -1.0989 -0.0706  0.8716
 4558TIP3   OH235308   5.432   0.763   2.735 -0.3540 -0.0232  0.2548
 4558TIP3    H135309   5.494   0.691   2.723 -1.3822 -1.0364  0.8394
 4558TIP3    H235310   5.404   0.756   2.826 -0.2667  1.2974  0.3969
 4559TIP3   OH235311   6.487   4.206   3.075  0.1152 -0.4227 -0.1290
 4559TIP3    H135312   6.458   4.136   3.017  1.3141 -1.0719  0.0037
 4559TIP3    H235313   6.499   4.162   3.160  1.8830 -0.3213 -0.2949
 4560TIP3   OH235314   4.771   3.798   2.656 -0.3045  0.1305 -0.0344
 4560TIP3    H135315   4.796   3.848   2.733  1.0056 -0.8742  0.2149
 4560TIP3    H235316   4.823   3.836   2.585 -0.5726  0.2288 -0.1793
 4561TIP3   OH235317   6.421   3.340   2.276  0.6312 -0.5160 -0.7246
 4561TIP3    H135318   6.434   3.435   2.275 -1.0779 -0.2184  0.3715
 4561TIP3    H235319   6.509   3.304   2.279  1.3019  1.1048  0.7852
 4562TIP3   OH235320   1.510   0.210   0.707  0.1204 -0.1960 -0.2252
 4562TIP3    H135321   1.517   0.117   0.686  1.6149 -0.0964 -0.3187
 4562TIP3    H235322   1.532   0.255   0.625  0.7085  0.2168  0.1486
 4563TIP3   OH235323   3.604   4.067   1.168 -0.2616  0.7282 -0.4238
 4563TIP3    H135324   3.663   4.111   1.107 -0.2748  1.2311 -0.0869
 4563TIP3    H235325   3.523   4.118   1.164  0.8324  3.0719  2.6169
 4564TIP3   OH235326   0.589   5.230   2.704 -0.4641  1.4172  0.0044
 4564TIP3    H135327   0.576   5.156   2.763  2.2466  0.3501 -0.5620
 4564TIP3    H235328   0.562   5.198   2.618 -0.7259  1.6123  0.0134
 4565TIP3   OH235329   3.869   1.174   2.921  0.4125  0.1578  0.5246
 4565TIP3    H135330   3.774   1.162   2.928  0.2871  1.3112  0.9984
 4565TIP3    H235331   3.906   1.087   2.936 -0.5735 -0.3402  0.1371
 4566TIP3   OH235332   2.781   3.812   2.466 -0.6975 -0.2326 -0.0632
 4566TIP3    H135333   2.814   3.883   2.521 -1.8353  0.6808 -0.5195
 4566TIP3    H235334   2.854   3.789   2.410 -0.4596  0.9393 -0.2571
 4567TIP3   OH235335   6.762   1.290   8.272  0.2331  0.2907  0.8735
 4567TIP3    H135336   6.763   1.290   8.176 -0.3603  1.9158  0.8374
 4567TIP3    H235337   6.849   1.319   8.297  1.3589 -2.7708  0.9456
 4568TIP3   OH235338   6.221   5.086   3.051  0.2062  0.3718 -0.1192
 4568TIP3    H135339   6.134   5.088   3.092 -0.0451 -0.6906 -0.5712
 4568TIP3    H235340   6.280   5.061   3.123 -0.2063 -1.2768 -0.3140
 4569TIP3   OH235341   2.775   3.262   3.206 -0.0816  0.0054  0.2657
 4569TIP3    H135342   2.733   3.348   3.202  0.7093  0.3788 -0.1843
 4569TIP3    H235343   2.832   3.266   3.282  0.3802  0.0777 -0.0807
 4570TIP3   OH235344   6.685   5.393   2.730  0.1361  0.1948  0.2964
 4570TIP3    H135345   6.771   5.351   2.737  0.5100  1.1197  2.2674
 4570TIP3    H235346   6.635   5.337   2.672  1.5295 -1.3227  0.4756
 4571TIP3   OH235347   3.217   5.435   1.292  0.2496  0.5172  0.2747
 4571TIP3    H135348   3.144   5.492   1.318 -0.5511  0.4797 -1.7066
 4571TIP3    H235349   3.194   5.349   1.328 -1.2072  0.2819 -1.0881
 4572TIP3   OH235350   2.062   3.353   2.476 -0.2326  0.2833  0.0109
 4572TIP3    H135351   1.993   3.301   2.517 -1.5194  1.1360 -1.0000
 4572TIP3    H235352   2.142   3.302   2.491 -1.3555 -1.7793 -0.5418
 4573TIP3   OH235353   1.514   0.024   3.025  0.1830 -0.6186 -0.7947
 4573TIP3    H135354   1.593   0.053   3.071  0.2177 -0.6193 -0.8534
 4573TIP3    H235355   1.445   0.027   3.091  0.3250 -1.0618 -0.6236
 4574TIP3   OH235356   4.755   4.676   2.476 -0.2292 -0.3674 -0.1501
 4574TIP3    H135357   4.771   4.749   2.416 -1.9573 -0.0517 -0.2838
 4574TIP3    H235358   4.667   4.691   2.509 -0.3215 -1.9799  0.4354
 4575TIP3   OH235359   1.051   1.174   2.960 -0.2640  0.4260  0.3655
 4575TIP3    H135360   1.044   1.217   2.875 -0.0121  0.2597  0.2597
 4575TIP3    H235361   1.111   1.230   3.010 -2.9873  2.4564  1.6482
 4576TIP3   OH235362   1.118   2.828   1.069  0.4089 -0.4971 -0.2447
 4576TIP3    H135363   1.173   2.851   0.993  0.0605 -0.4014 -0.4694
 4576TIP3    H235364   1.091   2.738   1.053  0.9799 -0.7492  0.1597
 4577TIP3   OH235365   3.871   6.710   3.605 -0.3543 -0.3335  0.3433
 4577TIP3    H135366   3.936   6.657   3.652 -0.7927 -0.7123  0.5313
 4577TIP3    H235367   3.867   6.672   3.518  0.3644  0.2882  0.0299
 4578TIP3   OH235368   5.037   5.674   3.462 -0.7717  0.4838  0.7637
 4578TIP3    H135369   5.014   5.665   3.369  1.8605  0.6031  0.0412
 4578TIP3    H235370   4.976   5.741   3.495 -1.8225  0.3702 -0.8251
 4579TIP3   OH235371   0.212   0.158   0.253 -0.0750 -0.0876  0.0529
 4579TIP3    H135372   0.153   0.224   0.288  1.5156  2.0192 -0.9990
 4579TIP3    H235373   0.261   0.126   0.329 -2.5266 -1.9885  0.9657
 4580TIP3   OH235374   3.430   2.849   8.857  0.6272 -0.3429  0.4008
 4580TIP3    H135375   3.506   2.898   8.889 -0.3381  1.3441  0.2295
 4580TIP3    H235376   3.355   2.904   8.880 -0.4158 -1.1809 -0.8782
 4581TIP3   OH235377   6.641   2.854   2.215 -0.0882  0.7942 -0.5404
 4581TIP3    H135378   6.648   2.853   2.310 -0.6726  0.9580 -0.4959
 4581TIP3    H235379   6.580   2.784   2.194  0.0832  0.7213 -0.7995
 4582TIP3   OH235380   2.603   3.262   1.711 -0.3046 -0.2920  0.4295
 4582TIP3    H135381   2.551   3.300   1.782  0.8818  0.7456  0.7863
 4582TIP3    H235382   2.622   3.173   1.740 -0.2209 -0.0288  1.1893
 4583TIP3   OH235383   3.651   3.496   3.532  0.3407 -0.2395  0.0057
 4583TIP3    H135384   3.587   3.435   3.495 -0.2730 -0.4456  1.3252
 4583TIP3    H235385   3.608   3.581   3.527 -0.5220 -0.5115  1.7964
 4584TIP3   OH235386   0.953   2.924   3.822 -0.0688 -0.1580 -0.3061
 4584TIP3    H135387   1.033   2.871   3.821  0.3405  0.2059 -4.1885
 4584TIP3    H235388   0.904   2.895   3.745 -2.8889  0.8594  0.9760
 4585TIP3   OH235389   2.700   3.899   1.552  0.4347  0.4580  0.2069
 4585TIP3    H135390   2.771   3.932   1.498  0.8242 -0.3003  0.2427
 4585TIP3    H235391   2.674   3.816   1.511 -2.7422  2.2414 -1.8358
 4586TIP3   OH235392   1.393   1.089   8.328  0.0037 -0.3024  0.4154
 4586TIP3    H135393   1.365   1.016   8.383  1.2274 -0.9902  0.1722
 4586TIP3    H235394   1.400   1.052   8.240 -1.9787  0.7956 -0.2658
 4587TIP3   OH235395   3.625   3.039   0.024 -0.9213  0.0050 -0.4032
 4587TIP3    H135396   3.686   3.045   0.097  1.1682 -2.4409 -1.7865
 4587TIP3    H235397   3.646   3.114  -0.032 -1.1206  0.7075  0.4406
 4588TIP3   OH235398   0.177   0.355   3.304  0.8653 -0.8166 -0.0597
 4588TIP3    H135399   0.254   0.303   3.325  1.8177  0.4350 -0.2741
 4588TIP3    H235400   0.199   0.398   3.221 -0.0411 -0.3901 -0.0969
 4589TIP3   OH235401   3.878   6.606   8.852 -0.1005 -0.0606  0.2343
 4589TIP3    H135402   3.936   6.628   8.778  0.7692 -0.0852  0.8881
 4589TIP3    H235403   3.912   6.659   8.925 -0.4234 -0.6585  0.8260
 4590TIP3   OH235404   0.515   2.881   2.798 -0.0396 -0.6047 -0.5342
 4590TIP3    H135405   0.501   2.793   2.763  0.0968 -0.8272 -0.0375
 4590TIP3    H235406   0.427   2.915   2.812 -0.1034 -0.3788 -1.4082
 4591TIP3   OH235407   5.889   5.013   0.790 -0.3479  0.1383 -0.1234
 4591TIP3    H135408   5.905   4.920   0.774 -0.7831 -0.2232  1.3301
 4591TIP3    H235409   5.953   5.059   0.736 -0.9802 -0.9446 -1.8745
 4592TIP3   OH235410   2.068   4.140   0.743  0.9733  0.0806 -0.1929
 4592TIP3    H135411   1.975   4.163   0.744  0.9788  0.1115 -0.2912
 4592TIP3    H235412   2.080   4.082   0.818  0.2153 -2.4748 -1.9255
 4593TIP3   OH235413   2.423   6.750   0.755  0.5016 -0.5842  0.1600
 4593TIP3    H135414   2.483   6.760   0.829  1.8955  0.3540 -1.0304
 4593TIP3    H235415   2.480   6.743   0.679 -0.8573  2.0373 -1.2395
 4594TIP3   OH235416   3.095   3.747   2.491  0.5535 -0.8869 -0.1851
 4594TIP3    H135417   3.065   3.784   2.575 -1.0879 -0.2559 -1.0105
 4594TIP3    H235418   3.174   3.797   2.471  0.8287 -0.8688  0.8607
 4595TIP3   OH235419   3.276   6.297   3.128 -0.3916 -0.8860 -0.4308
 4595TIP3    H135420   3.313   6.386   3.124 -1.8661 -0.1604  0.7292
 4595TIP3    H235421   3.347   6.240   3.098  0.9108  0.6073 -0.3478
 4596TIP3   OH235422   0.688   3.053   1.035  0.2836  0.3953 -0.4706
 4596TIP3    H135423   0.725   3.138   1.010  0.3736  0.2809 -0.7264
 4596TIP3    H235424   0.700   2.998   0.958  0.0906  0.1918 -0.3562
 4597TIP3   OH235425   1.894   3.895   2.494 -0.4571 -0.4299 -0.6884
 4597TIP3    H135426   1.927   3.967   2.548 -0.5909  0.5885 -1.9170
 4597TIP3    H235427   1.962   3.882   2.428 -0.3081 -1.6364 -0.3184
 4598TIP3   OH235428   1.233   1.176   1.867 -0.1314 -0.4148 -0.4665
 4598TIP3    H135429   1.233   1.254   1.922 -0.0079 -0.4414 -0.4285
 4598TIP3    H235430   1.303   1.121   1.903 -0.1049 -0.4678 -0.5988
 4599TIP3   OH235431   1.798   4.414   1.256  0.5845 -0.7294  0.5367
 4599TIP3    H135432   1.753   4.427   1.172 -0.2885 -1.4554  0.8877
 4599TIP3    H235433   1.890   4.431   1.236  0.2822 -0.0979 -0.3869
 4600TIP3   OH235434   3.624   0.369   1.924  0.2865  0.1389  0.2962
 4600TIP3    H135435   3.613   0.299   1.989  2.2042 -0.0298  0.4752
 4600TIP3    H235436   3.555   0.432   1.945  0.1127 -0.4876  1.7228
 4601TIP3   OH235437   4.617   1.943   2.413 -0.5135 -0.0821 -0.4816
 4601TIP3    H135438   4.525   1.968   2.405  0.1315  2.5002 -0.8473
 4601TIP3    H235439   4.660   1.988   2.341  1.0516 -1.2228 -0.3005
 4602TIP3   OH235440   0.824   1.648   1.896  0.4707 -0.6049 -0.8641
 4602TIP3    H135441   0.806   1.741   1.905 -0.5407 -0.9119  0.9518
 4602TIP3    H235442   0.744   1.612   1.857  0.7410 -0.7549 -1.2841
 4603TIP3   OH235443   1.666   1.121   3.439  0.3485  0.1707  0.4409
 4603TIP3    H135444   1.586   1.077   3.465  0.4097  0.1352  0.5712
 4603TIP3    H235445   1.728   1.102   3.510  0.4987  0.1201  0.2981
 4604TIP3   OH235446   5.303   2.870   8.499  0.0018 -0.0174 -0.1222
 4604TIP3    H135447   5.325   2.897   8.410  0.8674 -0.4334 -0.0472
 4604TIP3    H235448   5.339   2.781   8.506 -2.4143 -1.0845 -0.2390
 4605TIP3   OH235449   4.828   4.206   0.082 -0.3934  0.0725 -0.1262
 4605TIP3    H135450   4.815   4.253   0.165  0.4630 -0.1215  0.1245
 4605TIP3    H235451   4.740   4.199   0.045 -0.6827  0.8806  0.3726
 4606TIP3   OH235452   1.455   1.985   2.667 -0.2163  0.3876  0.3543
 4606TIP3    H135453   1.462   1.963   2.575 -0.3485 -0.5634  0.5653
 4606TIP3    H235454   1.482   1.906   2.714 -0.7027  0.6627  1.1302
 4607TIP3   OH235455   2.958   4.444   2.291 -0.0207 -0.6457 -0.3885
 4607TIP3    H135456   2.944   4.411   2.380 -2.3849 -0.7280 -0.7137
 4607TIP3    H235457   2.986   4.535   2.303  1.2356 -1.1185  0.4382
 4608TIP3   OH235458   3.087   3.323   8.596  0.7695 -0.8532  0.1465
 4608TIP3    H135459   3.052   3.408   8.569  1.4068 -0.5993  0.1114
 4608TIP3    H235460   3.132   3.340   8.678 -1.6713 -1.7369  1.7924
 4609TIP3   OH235461   0.385   0.747   3.627  0.1212  0.5071 -0.1596
 4609TIP3    H135462   0.291   0.749   3.610  0.1166  2.1403 -0.0943
 4609TIP3    H235463   0.425   0.771   3.544  0.3669  2.0221  0.3665
 4610TIP3   OH235464   6.788   0.941   3.220  0.0485  0.2164  0.4802
 4610TIP3    H135465   6.758   1.022   3.262 -0.8368  0.0459  0.2102
 4610TIP3    H235466   6.732   0.932   3.143  2.8592  1.5383 -1.9188
 4611TIP3   OH235467   1.273   1.115   1.410 -0.3111 -0.4744 -0.2249
 4611TIP3    H135468   1.214   1.040   1.411 -0.7076 -0.1642 -0.0973
 4611TIP3    H235469   1.242   1.171   1.481  0.1250 -0.3027 -0.1695
 4612TIP3   OH235470   5.516   2.348   2.128 -0.7226  0.1556 -0.2227
 4612TIP3    H135471   5.574   2.305   2.191  0.6897  0.1542 -1.4843
 4612TIP3    H235472   5.528   2.441   2.144 -0.4061  0.1540 -0.4425
 4613TIP3   OH235473   4.390   2.736   2.834  0.1077  0.2073  0.0374
 4613TIP3    H135474   4.457   2.671   2.856  1.0459  0.7190 -1.2346
 4613TIP3    H235475   4.307   2.692   2.855  0.7295 -1.2893 -0.5170
 4614TIP3   OH235476   6.778   4.675   0.292  0.0739 -0.2396 -0.3766
 4614TIP3    H135477   6.868   4.664   0.262  0.0217 -0.5681 -0.4109
 4614TIP3    H235478   6.742   4.586   0.295 -1.2374  0.0877 -3.3413
 4615TIP3   OH235479   2.416   3.239   0.166  0.2158 -0.3192 -0.3962
 4615TIP3    H135480   2.340   3.296   0.165 -0.3509 -1.0582 -1.2411
 4615TIP3    H235481   2.491   3.297   0.180 -0.2716  0.7216 -1.9483
 4616TIP3   OH235482   6.113   5.226   3.917  0.5869 -0.4126 -0.1582
 4616TIP3    H135483   6.028   5.255   3.948  1.7906  1.3800  1.6650
 4616TIP3    H235484   6.146   5.298   3.863  0.9966 -1.0665 -0.8210
 4617TIP3   OH235485   1.441   3.068   0.461 -0.2215 -0.2909 -0.2476
 4617TIP3    H135486   1.495   3.129   0.410  0.9249 -1.2309 -0.2174
 4617TIP3    H235487   1.503   3.024   0.519 -1.5668  1.1045  2.3819
 4618TIP3   OH235488   2.954   5.299   1.577  0.2000 -0.1691 -0.3689
 4618TIP3    H135489   2.892   5.342   1.517 -1.2791 -0.7110  0.7237
 4618TIP3    H235490   2.983   5.368   1.636 -1.6479 -0.4525  0.9495
 4619TIP3   OH235491   1.327   5.450   1.334  0.1314  0.3823  0.2670
 4619TIP3    H135492   1.266   5.508   1.288  0.5315  1.3479  0.9108
 4619TIP3    H235493   1.337   5.490   1.420 -0.1611 -1.0738  1.0109
 4620TIP3   OH235494   1.803   1.102   3.954 -0.0429  0.3811  0.6787
 4620TIP3    H135495   1.869   1.047   3.912  0.1223  0.7024  0.5178
 4620TIP3    H235496   1.853   1.175   3.992 -0.2921  0.5648  0.6545
 4621TIP3   OH235497   3.611   0.566   3.051 -0.6890  0.4651 -0.2051
 4621TIP3    H135498   3.658   0.487   3.079 -0.9562  0.8549  1.4683
 4621TIP3    H235499   3.659   0.596   2.974  1.9909  0.9613  1.5233
 4622TIP3   OH235500   3.795   2.682   1.432 -0.2313  0.3316 -0.1457
 4622TIP3    H135501   3.856   2.610   1.449  0.0042  0.4831 -0.3280
 4622TIP3    H235502   3.772   2.672   1.340 -0.8428  0.0053  0.0404
 4623TIP3   OH235503   0.829   1.985   0.374 -0.1826  0.1963  0.0313
 4623TIP3    H135504   0.851   1.900   0.338 -0.0588 -0.3650  1.3727
 4623TIP3    H235505   0.906   2.039   0.355  0.6154 -0.5763  0.9590
 4624TIP3   OH235506   2.741   6.389   3.212 -0.1142  0.0423 -0.4913
 4624TIP3    H135507   2.759   6.431   3.296 -0.4849 -1.2803  0.2858
 4624TIP3    H235508   2.649   6.362   3.219  0.4839 -2.0960 -0.3880
 4625TIP3   OH235509   2.758   6.586   1.284  0.2351  0.2969 -0.6487
 4625TIP3    H135510   2.758   6.665   1.229  0.6543  1.0819  0.4552
 4625TIP3    H235511   2.836   6.595   1.339  0.2842 -0.8898 -0.4913
 4626TIP3   OH235512   3.042   5.165   3.093 -0.4130 -0.5332 -0.2160
 4626TIP3    H135513   3.087   5.212   3.023 -0.7653 -1.0592 -0.8099
 4626TIP3    H235514   3.106   5.159   3.163  0.1187 -0.4354 -0.6835
 4627TIP3   OH235515   5.874   3.516   0.268 -0.0070  0.2310  0.4434
 4627TIP3    H135516   5.899   3.482   0.182  1.8903  0.5114  0.8327
 4627TIP3    H235517   5.938   3.584   0.286 -0.1260 -0.0819  2.2540
 4628TIP3   OH235518   5.564   0.581   2.523 -0.2258  0.1505  0.0079
 4628TIP3    H135519   5.515   0.522   2.580 -0.1504  0.0134 -0.0682
 4628TIP3    H235520   5.652   0.585   2.562 -0.5755  1.2014  0.7301
 4629TIP3   OH235521   2.359   0.937   3.619 -0.0320 -0.0503  0.1944
 4629TIP3    H135522   2.285   0.904   3.669  0.1148  1.6721  1.6528
 4629TIP3    H235523   2.372   0.873   3.549 -2.1482 -0.9781  0.5916
 4630TIP3   OH235524   5.826   4.598   3.219  0.2679 -0.3391  0.1066
 4630TIP3    H135525   5.883   4.608   3.295  0.1355 -0.2115  0.1906
 4630TIP3    H235526   5.872   4.536   3.162  1.0653  0.7090 -0.4050
 4631TIP3   OH235527   4.629   1.126   2.399  0.2571  0.0416 -0.0479
 4631TIP3    H135528   4.542   1.162   2.417  0.4394  0.1362  0.6711
 4631TIP3    H235529   4.627   1.104   2.306 -0.0783  1.2920 -0.3501
 4632TIP3   OH235530   4.796   5.217   0.721 -0.3525 -0.5382  0.1430
 4632TIP3    H135531   4.809   5.122   0.723 -0.1316 -0.4901  2.0968
 4632TIP3    H235532   4.735   5.235   0.791 -1.5832  0.6421 -1.1715
 4633TIP3   OH235533   3.321   6.321   1.617  0.0386 -0.2059  0.1573
 4633TIP3    H135534   3.400   6.277   1.650  1.2890  0.2107 -2.1357
 4633TIP3    H235535   3.297   6.381   1.687  2.5293  0.5943  0.4280
 4634TIP3   OH235536   4.856   4.675   8.763 -0.1429 -0.0304  0.1044
 4634TIP3    H135537   4.912   4.608   8.802  0.0636  0.3029  0.3782
 4634TIP3    H235538   4.912   4.752   8.753  0.0269 -0.3173 -1.5142
 4635TIP3   OH235539   4.451   1.054   3.099 -0.1503  0.6289 -0.1999
 4635TIP3    H135540   4.419   1.050   3.009  0.5452  3.4584 -0.7018
 4635TIP3    H235541   4.539   1.017   3.094 -1.0800 -1.7701 -0.0300
 4636TIP3   OH235542   2.665   4.324   1.388 -0.2358  0.1357  0.2781
 4636TIP3    H135543   2.738   4.262   1.382 -1.4260 -1.6655  2.6536
 4636TIP3    H235544   2.610   4.289   1.457 -3.1278  1.7005 -1.0524
 4637TIP3   OH235545   5.544   5.634   0.597 -0.9554  0.8474 -0.1047
 4637TIP3    H135546   5.548   5.651   0.691 -0.2175  0.6483 -0.0932
 4637TIP3    H235547   5.478   5.565   0.587  0.2136 -0.3808  0.4609
 4638TIP3   OH235548   3.931   1.346   0.143  0.0906  0.0285 -0.4592
 4638TIP3    H135549   3.890   1.428   0.169 -1.4836 -0.8635  0.0453
 4638TIP3    H235550   3.885   1.321   0.062  0.3059 -0.5284 -0.4152
 4639TIP3   OH235551   2.933   0.036   0.479 -0.1654 -0.4654  0.0601
 4639TIP3    H135552   2.868   0.102   0.456 -2.4469 -2.0015  1.5939
 4639TIP3    H235553   2.923  -0.032   0.413 -0.6989 -1.0541  0.7309
 4640TIP3   OH235554   0.483   3.642   0.589 -0.8811  0.1714  0.6140
 4640TIP3    H135555   0.392   3.612   0.585 -0.8208 -1.3358  5.0727
 4640TIP3    H235556   0.532   3.565   0.619  1.9619  0.9642 -1.5725
 4641TIP3   OH235557   6.159   3.748   8.667 -0.8100  0.8470  0.0323
 4641TIP3    H135558   6.223   3.779   8.731  0.2957 -0.1524 -0.5421
 4641TIP3    H235559   6.147   3.655   8.688 -0.2826  0.4494 -1.2997
 4642TIP3   OH235560   0.395   0.737   0.621 -0.1649 -0.1599 -0.5665
 4642TIP3    H135561   0.458   0.795   0.664 -0.2638 -0.9512  0.6857
 4642TIP3    H235562   0.314   0.748   0.672  0.2814 -2.6704  0.8297
 4643TIP3   OH235563   2.958   3.753   0.818  0.4799  0.5388  0.3425
 4643TIP3    H135564   2.930   3.724   0.905 -0.2366 -2.0431 -0.6534
 4643TIP3    H235565   2.883   3.732   0.761  1.5341  0.6767 -1.1358
 4644TIP3   OH235566   1.372   6.241   0.852 -0.2746 -0.3180  0.4945
 4644TIP3    H135567   1.424   6.309   0.810  1.8440 -1.4547  1.1469
 4644TIP3    H235568   1.300   6.225   0.791  0.1927  1.2106 -0.5145
 4645TIP3   OH235569   3.478   2.892   1.627  0.2999 -1.1281 -0.1079
 4645TIP3    H135570   3.474   2.897   1.531  1.1225  0.3749 -0.0941
 4645TIP3    H235571   3.547   2.829   1.645  0.2465 -1.3069 -0.5074
 4646TIP3   OH235572   5.927   5.712   1.119  0.4530 -0.0719  0.3869
 4646TIP3    H135573   5.876   5.702   1.200 -0.1255 -1.4961 -0.1346
 4646TIP3    H235574   5.930   5.625   1.081  0.8986  0.5368 -1.0401
 4647TIP3   OH235575   0.571   5.556   0.184  0.7212  0.6961 -0.4400
 4647TIP3    H135576   0.502   5.490   0.176 -0.4239  1.6318  1.0899
 4647TIP3    H235577   0.597   5.552   0.276  0.2857  2.6643 -0.1899
 4648TIP3   OH235578   5.083   5.978   0.478 -0.6106 -0.2338  0.8423
 4648TIP3    H135579   5.130   5.938   0.550  0.2078  0.5085  0.7352
 4648TIP3    H235580   5.099   5.920   0.403 -0.3623 -0.3049  0.9507
 4649TIP3   OH235581   0.386   3.262   2.872 -0.6239 -0.1489  0.2171
 4649TIP3    H135582   0.330   3.185   2.862  0.8715 -1.3693  0.8113
 4649TIP3    H235583   0.418   3.256   2.963 -0.6489  1.2925  0.3375
 4650TIP3   OH235584   0.100   5.746   2.009  0.1886  0.0848  0.0432
 4650TIP3    H135585   0.049   5.823   1.981 -1.2742 -0.3554  1.3854
 4650TIP3    H235586   0.101   5.689   1.932 -0.4120  0.5893 -0.3484
 4651TIP3   OH235587   1.820   2.331   0.564  0.2590 -0.0744  0.3892
 4651TIP3    H135588   1.739   2.382   0.563 -0.1482 -0.6948  1.0601
 4651TIP3    H235589   1.795   2.244   0.534  0.6064 -0.3683  0.9292
 4652TIP3   OH235590   6.087   2.680   0.365  0.4492 -0.5121  0.3577
 4652TIP3    H135591   6.088   2.717   0.453 -1.5089 -0.8680  0.5699
 4652TIP3    H235592   6.021   2.731   0.318  0.5013 -1.2042 -0.4996
 4653TIP3   OH235593   6.693   2.536   3.007  0.2211  0.4957 -0.1866
 4653TIP3    H135594   6.632   2.572   3.071 -1.3817 -0.9401 -0.8328
 4653TIP3    H235595   6.730   2.459   3.049 -1.3738 -0.8754 -1.1396
 4654TIP3   OH235596   3.886   0.929   1.947  0.0717 -0.1306 -0.8324
 4654TIP3    H135597   3.812   0.990   1.955 -0.6649 -0.9819 -0.9840
 4654TIP3    H235598   3.928   0.953   1.864  1.7324  2.2269  0.5746
 4655TIP3   OH235599   3.673   0.189   2.123 -0.1225 -0.0473  0.2869
 4655TIP3    H135600   3.716   0.251   2.182  1.1786  1.2705 -1.8997
 4655TIP3    H235601   3.728   0.111   2.126  0.2293  0.2047  0.3994
 4656TIP3   OH235602   6.141   3.576   3.603 -0.0823 -0.1054  1.0441
 4656TIP3    H135603   6.132   3.482   3.590  0.6420  0.1355 -1.6924
 4656TIP3    H235604   6.056   3.612   3.578  0.4709  0.1359 -0.6259
 4657TIP3   OH235605   0.642   0.902   0.989 -0.1703 -0.1363 -0.7178
 4657TIP3    H135606   0.708   0.867   1.049  1.8498  0.9320 -2.2145
 4657TIP3    H235607   0.562   0.904   1.041  1.3636  0.2967  1.8060
 4658TIP3   OH235608   4.006   3.558   0.047 -0.2455 -0.0312 -0.0245
 4658TIP3    H135609   4.029   3.552  -0.046 -1.1551 -1.7530 -0.1768
 4658TIP3    H235610   3.951   3.636   0.053 -0.3777 -0.0345 -0.9823
 4659TIP3   OH235611   6.511   1.089   3.898  0.4891  0.2450 -0.3106
 4659TIP3    H135612   6.489   1.037   3.975  0.4353  1.4799  0.5386
 4659TIP3    H235613   6.594   1.132   3.922  0.5487  0.5202 -1.0036
 4660TIP3   OH235614   4.104   5.547   2.788 -0.2721  0.1427 -0.7101
 4660TIP3    H135615   4.025   5.598   2.806 -1.2883 -1.6292  0.0671
 4660TIP3    H235616   4.080   5.492   2.713  0.3705 -0.1269 -0.7224
 4661TIP3   OH235617   3.371   1.934   1.754  0.5937  0.4774 -0.0276
 4661TIP3    H135618   3.342   1.846   1.780  1.6412  0.2787  0.5315
 4661TIP3    H235619   3.441   1.918   1.691 -0.9208  0.9575 -1.9372
 4662TIP3   OH235620   4.364   4.537   2.166  0.4750 -0.1995 -0.5599
 4662TIP3    H135621   4.449   4.521   2.207  0.2068 -0.2296  0.0004
 4662TIP3    H235622   4.377   4.614   2.112  0.3863  0.9825  1.0148
 4663TIP3   OH235623   4.487   2.944   1.637 -0.2118  0.3206 -0.4097
 4663TIP3    H135624   4.434   2.979   1.709 -1.2803 -1.0040 -0.5094
 4663TIP3    H235625   4.571   2.924   1.677  0.0138  1.7665 -0.0799
 4664TIP3   OH235626   3.716   6.024   2.802 -0.0600  0.2591 -0.7349
 4664TIP3    H135627   3.734   5.938   2.763 -1.5061 -0.0203 -0.8433
 4664TIP3    H235628   3.774   6.084   2.756  0.9160 -0.6482 -0.7116
 4665TIP3   OH235629   0.805   0.431   0.369 -0.3723  0.3213  0.0436
 4665TIP3    H135630   0.816   0.497   0.438 -2.8102  0.3247  0.5290
 4665TIP3    H235631   0.830   0.349   0.410 -0.3973  0.5214  0.4676
 4666TIP3   OH235632   5.712   6.646   0.385 -0.0154 -0.0499  0.2241
 4666TIP3    H135633   5.727   6.645   0.479 -1.5058 -1.0641  0.4921
 4666TIP3    H235634   5.622   6.676   0.375  0.3919  0.8684 -0.9483
 4667TIP3   OH235635   5.277   3.688   0.892  0.2103  0.2900  0.4481
 4667TIP3    H135636   5.335   3.616   0.868  1.6373  1.4671  0.2456
 4667TIP3    H235637   5.234   3.659   0.973  1.0599 -0.6082  0.5899
 4668TIP3   OH235638   2.211   0.093   4.172  0.4076 -0.1500 -0.1613
 4668TIP3    H135639   2.196   0.187   4.170 -3.1629 -0.5301  1.6057
 4668TIP3    H235640   2.282   0.081   4.235 -1.3757  1.2898  2.3028
 4669TIP3   OH235641   3.141   6.125   1.738 -0.6950 -0.0833  0.0823
 4669TIP3    H135642   3.161   6.125   1.831 -0.5655  1.3597  0.0753
 4669TIP3    H235643   3.197   6.194   1.702 -2.1727  0.7218 -0.7346
 4670TIP3   OH235644   1.885   3.662   3.434 -0.4238  0.1663  0.5389
 4670TIP3    H135645   1.931   3.739   3.467 -1.0453 -0.0195  1.9105
 4670TIP3    H235646   1.949   3.591   3.441  0.2385  0.5740 -0.9777
 4671TIP3   OH235647   3.453   0.171   8.338  0.6338 -0.0286 -0.0027
 4671TIP3    H135648   3.394   0.126   8.278 -0.4696  0.4493  0.6924
 4671TIP3    H235649   3.453   0.119   8.417 -0.9537  1.3272  0.9475
 4672TIP3   OH235650   5.377   3.937   2.208 -0.1550 -0.1202 -0.0077
 4672TIP3    H135651   5.337   3.860   2.168 -0.5052  0.5326 -0.9584
 4672TIP3    H235652   5.336   3.943   2.294 -0.5119 -0.6933 -0.1303
 4673TIP3   OH235653   4.283   3.085   2.151  0.1593 -0.0818  0.3752
 4673TIP3    H135654   4.352   3.146   2.178  0.1148 -0.2399  0.8515
 4673TIP3    H235655   4.212   3.101   2.214  0.1558 -0.6392  0.5139
 4674TIP3   OH235656   1.730   0.364   1.967 -0.2547 -0.1800 -0.2429
 4674TIP3    H135657   1.774   0.319   1.895 -1.0462 -0.0233 -0.8434
 4674TIP3    H235658   1.771   0.451   1.969 -0.5088 -0.0377 -0.7920
 4675TIP3   OH235659   1.234   6.432   0.442 -0.3531  0.1605 -0.1761
 4675TIP3    H135660   1.290   6.434   0.364 -0.4775  1.9199 -0.2539
 4675TIP3    H235661   1.145   6.427   0.407 -0.4723  1.9469 -0.2313
 4676TIP3   OH235662   3.270   2.382   2.173  0.1384 -0.9643  0.4410
 4676TIP3    H135663   3.330   2.453   2.149  1.2431 -2.3220 -1.0413
 4676TIP3    H235664   3.276   2.375   2.268  0.6530  0.3583  0.5183
 4677TIP3   OH235665   4.358   3.991   3.069  0.7937 -0.4157 -0.1175
 4677TIP3    H135666   4.265   3.982   3.091  0.6543  0.0759 -0.5082
 4677TIP3    H235667   4.403   3.980   3.153  0.4163 -1.1068  0.0092
 4678TIP3   OH235668   4.646   1.626   3.649  0.2062  0.3040  0.1638
 4678TIP3    H135669   4.652   1.544   3.602  2.1419  0.5254 -0.0844
 4678TIP3    H235670   4.641   1.601   3.742 -1.1085 -0.0925 -0.0017
 4679TIP3   OH235671   6.023   3.458   2.620  0.5775  0.6844  0.0841
 4679TIP3    H135672   5.982   3.506   2.547  0.0839 -1.7983 -1.3840
 4679TIP3    H235673   6.113   3.443   2.591  1.2238  2.0326  1.2575
 4680TIP3   OH235674   3.158   5.410   1.015  0.3422  0.4670  0.2114
 4680TIP3    H135675   3.063   5.403   1.020  0.4401 -1.0334  0.3547
 4680TIP3    H235676   3.188   5.412   1.106  0.6060 -2.3993  0.2836
 4681TIP3   OH235677   6.381   2.985   3.079 -0.6528 -0.0282 -0.2160
 4681TIP3    H135678   6.299   3.018   3.114 -0.7458 -0.9877  0.5114
 4681TIP3    H235679   6.392   2.898   3.119 -0.2899 -0.7828 -1.8470
 4682TIP3   OH235680   2.464   6.563   2.747  0.1671  0.2999  0.0086
 4682TIP3    H135681   2.518   6.614   2.808  0.5615  0.1929 -0.2427
 4682TIP3    H235682   2.520   6.490   2.722  0.7316  1.3154 -1.9122
 4683TIP3   OH235683   3.728   6.797   3.012 -0.1007  0.2198 -0.4791
 4683TIP3    H135684   3.689   6.784   2.925 -1.2831 -0.6869  0.1531
 4683TIP3    H235685   3.822   6.803   2.995 -0.4227  1.9484 -2.0075
 4684TIP3   OH235686   0.593   5.504   3.029  0.0314 -0.0271  0.5005
 4684TIP3    H135687   0.560   5.419   3.056 -0.3030 -0.6332 -1.6319
 4684TIP3    H235688   0.688   5.500   3.044  0.4996 -1.9453 -2.2379
 4685TIP3   OH235689   4.770   0.281   2.517 -0.6426 -0.0561 -0.3691
 4685TIP3    H135690   4.705   0.212   2.503 -1.1035  0.3180 -0.0913
 4685TIP3    H235691   4.737   0.330   2.592  1.6006 -1.8237  1.9737
 4686TIP3   OH235692   3.606   6.127   2.164  0.3590  0.2817  0.7768
 4686TIP3    H135693   3.602   6.203   2.107 -0.4436 -0.2792  0.0581
 4686TIP3    H235694   3.520   6.085   2.154  1.1998 -1.4069  0.1593
 4687TIP3   OH235695   0.119   2.824   1.913 -0.9362 -0.3788 -0.3041
 4687TIP3    H135696   0.171   2.844   1.991 -1.1947  1.4913 -0.5685
 4687TIP3    H235697   0.176   2.849   1.840 -1.1985 -0.8626 -0.6790
 4688TIP3   OH235698   1.950   2.093   3.528 -0.6848  0.1970 -0.3903
 4688TIP3    H135699   1.900   2.175   3.521 -2.0966 -0.6693 -0.7444
 4688TIP3    H235700   1.991   2.097   3.615 -0.7682  1.2441 -0.3845
 4689TIP3   OH235701   3.488   3.968   0.297  0.4442 -0.1528 -0.5389
 4689TIP3    H135702   3.499   3.874   0.280  0.3898 -0.1659 -0.5032
 4689TIP3    H235703   3.399   3.976   0.332  1.1409 -0.3731  1.4386
 4690TIP3   OH235704   4.899   1.483   8.471 -0.1622 -0.3580  0.6409
 4690TIP3    H135705   4.929   1.433   8.395 -2.4054 -0.7909 -0.0369
 4690TIP3    H235706   4.964   1.464   8.539  1.0392 -1.2328 -0.6869
 4691TIP3   OH235707   4.271   1.942   3.750 -0.0994 -0.0947 -0.5035
 4691TIP3    H135708   4.230   2.026   3.733  2.7298  0.9947 -2.7497
 4691TIP3    H235709   4.348   1.964   3.804  1.0860 -1.0606 -1.7346
 4692TIP3   OH235710   4.776   6.015   3.378  0.1646 -0.7191  0.5219
 4692TIP3    H135711   4.738   6.078   3.439  2.3494  1.7646 -0.4365
 4692TIP3    H235712   4.835   5.962   3.431 -0.8578 -1.2526  1.1602
 4693TIP3   OH235713   0.342   0.455   0.536 -0.1631 -0.6836 -0.0152
 4693TIP3    H135714   0.362   0.541   0.574  3.8738 -1.1694 -0.6160
 4693TIP3    H235715   0.341   0.396   0.611  1.9226 -0.7693 -0.0127
 4694TIP3   OH235716   4.362   2.393   0.268  0.0418  0.1998  1.0606
 4694TIP3    H135717   4.435   2.418   0.211 -2.0785  1.0227 -1.4805
 4694TIP3    H235718   4.349   2.300   0.251 -1.2052  0.6454 -0.6804
 4695TIP3   OH235719   1.164   0.981   2.419 -0.5258 -0.0304  0.2652
 4695TIP3    H135720   1.071   0.996   2.437 -0.5850  1.2762 -0.9385
 4695TIP3    H235721   1.165   0.939   2.333  0.0278  1.3753 -0.4418
 4696TIP3   OH235722   6.569   4.933   3.138 -0.1270 -0.2271  0.1187
 4696TIP3    H135723   6.553   4.961   3.228 -0.3521  0.5489 -0.1526
 4696TIP3    H235724   6.664   4.941   3.127 -0.1332 -0.0192  0.1987
 4697TIP3   OH235725   2.926   5.920   3.302 -0.0471 -0.2533  0.1182
 4697TIP3    H135726   2.974   5.985   3.250  0.3321 -1.4142 -1.0587
 4697TIP3    H235727   2.987   5.847   3.311 -1.3233 -1.5141 -0.8789
 4698TIP3   OH235728   5.469   2.350   2.831 -0.0193  0.2266  0.1210
 4698TIP3    H135729   5.417   2.426   2.803  0.4481  0.2523 -0.6874
 4698TIP3    H235730   5.469   2.356   2.927 -0.9147  0.6215  0.1055
 4699TIP3   OH235731   5.663   4.451   0.182 -0.1366 -0.6236 -0.1982
 4699TIP3    H135732   5.730   4.512   0.214 -1.0916  0.2920  0.1118
 4699TIP3    H235733   5.660   4.466   0.088 -0.2078 -0.3444 -0.1532
 4700TIP3   OH235734   6.003   4.874   3.885 -0.1071  0.3331 -0.2032
 4700TIP3    H135735   5.979   4.840   3.799 -2.9689  2.8657 -0.5640
 4700TIP3    H235736   5.921   4.907   3.922  0.9072 -1.1011  3.7997
 4701TIP3   OH235737   2.843   1.615   2.718 -0.5802 -0.3241 -0.1808
 4701TIP3    H135738   2.924   1.601   2.668 -1.2266 -3.0156 -0.5991
 4701TIP3    H235739   2.784   1.660   2.657 -0.4470 -1.1538 -0.9246
 4702TIP3   OH235740   0.803   5.136   0.000  0.3658 -0.0157 -0.1641
 4702TIP3    H135741   0.712   5.106  -0.009  0.0340  0.0017  2.3070
 4702TIP3    H235742   0.797   5.231  -0.005  0.3202 -0.0330 -0.4611
 4703TIP3   OH235743   6.105   0.044   0.227 -0.4924 -0.0479  0.1757
 4703TIP3    H135744   6.011   0.063   0.222 -0.4188  1.1239  2.2103
 4703TIP3    H235745   6.147   0.129   0.211  0.1642 -0.2199  0.9739
 4704TIP3   OH235746   5.067   5.566   8.155  0.3504  0.4343 -0.4167
 4704TIP3    H135747   5.139   5.629   8.150  0.3159  0.4014 -1.3753
 4704TIP3    H235748   5.107   5.488   8.194  0.2373  1.2284  1.4333
 4705TIP3   OH235749   2.982   4.744   3.939  0.2284 -0.1030 -0.2777
 4705TIP3    H135750   3.060   4.698   3.906  1.6683  0.8035  1.6369
 4705TIP3    H235751   2.951   4.690   4.011 -0.5741 -0.1606 -0.6648
 4706TIP3   OH235752   2.365   0.153   0.371  0.2863  0.6946  0.2133
 4706TIP3    H135753   2.355   0.064   0.403  1.0036  0.9759  1.2529
 4706TIP3    H235754   2.429   0.193   0.429  0.2717  1.7752 -0.4797
 4707TIP3   OH235755   5.135   3.716   2.915  0.6212 -0.1786  0.1891
 4707TIP3    H135756   5.180   3.648   2.965  0.0444 -0.5569  0.1944
 4707TIP3    H235757   5.166   3.798   2.954  1.2177 -0.4369  0.2673
 4708TIP3   OH235758   4.373   3.948   3.332 -0.2395  0.1198  0.2065
 4708TIP3    H135759   4.316   4.018   3.363 -0.4086 -0.2525  0.7539
 4708TIP3    H235760   4.363   3.879   3.397 -0.4815 -0.6281 -0.6139
 4709TIP3   OH235761   3.852   4.886   0.303  0.5029  0.0287  0.5244
 4709TIP3    H135762   3.801   4.953   0.258  1.4225 -0.1365 -0.8201
 4709TIP3    H235763   3.833   4.805   0.256  3.9449  0.3613 -1.8552
 4710TIP3   OH235764   4.351   4.464   2.765 -0.3824  0.1704 -0.0877
 4710TIP3    H135765   4.385   4.411   2.838 -0.6920 -0.5480 -0.4591
 4710TIP3    H235766   4.385   4.421   2.687 -2.9146 -1.1682 -0.5359
 4711TIP3   OH235767   1.486   0.888   3.568  0.5884 -0.0628 -0.0107
 4711TIP3    H135768   1.444   0.828   3.629  1.1571  0.2147  0.6590
 4711TIP3    H235769   1.550   0.936   3.621  0.2480  1.0293 -0.5553
 4712TIP3   OH235770   6.398   6.422   2.828  0.2184  0.4267 -0.7588
 4712TIP3    H135771   6.356   6.439   2.744 -1.1420  0.5201 -0.0982
 4712TIP3    H235772   6.392   6.327   2.839  1.8526  0.2212 -1.4764
 4713TIP3   OH235773   0.849   0.119   8.065  0.0136 -0.0708 -0.4350
 4713TIP3    H135774   0.909   0.048   8.090 -1.4244 -1.3546 -0.5131
 4713TIP3    H235775   0.870   0.189   8.126 -0.3272 -1.5322  1.4637
 4714TIP3   OH235776   6.583   3.442   3.732 -0.3189 -0.3038 -0.1082
 4714TIP3    H135777   6.622   3.473   3.814 -0.8509  0.1728 -0.0268
 4714TIP3    H235778   6.506   3.498   3.720 -0.7981 -1.0186 -0.4314
 4715TIP3   OH235779   1.744   0.642   8.529  0.2604  0.1999  1.1355
 4715TIP3    H135780   1.659   0.647   8.571 -1.7047 -2.0339 -2.1102
 4715TIP3    H235781   1.752   0.725   8.481 -1.2379 -0.4456 -0.3250
 4716TIP3   OH235782   1.465   2.613   2.776 -0.0725  0.1430  0.2228
 4716TIP3    H135783   1.450   2.681   2.842  1.2159  0.9030 -0.2353
 4716TIP3    H235784   1.378   2.597   2.739 -0.6351  0.4751  1.3488
 4717TIP3   OH235785   5.831   4.950   1.702 -0.3414  0.0157  0.0602
 4717TIP3    H135786   5.803   4.885   1.637 -1.2941 -0.1289  0.6035
 4717TIP3    H235787   5.871   4.898   1.772  2.9996  0.2944 -1.4352
 4718TIP3   OH235788   5.051   2.773   3.182  0.1752  0.7832  0.2134
 4718TIP3    H135789   5.123   2.712   3.167  2.1033  2.9343  0.0540
 4718TIP3    H235790   5.003   2.773   3.099 -0.1847 -0.8320  0.3874
 4719TIP3   OH235791   3.433   3.727   1.938 -0.4734  0.7503 -0.2838
 4719TIP3    H135792   3.469   3.742   2.025 -3.0977  0.0266  1.0431
 4719TIP3    H235793   3.471   3.795   1.883  1.8002  0.7826  1.2385
 4720TIP3   OH235794   1.482   5.873   0.763 -0.3455 -0.3185 -0.3381
 4720TIP3    H135795   1.526   5.954   0.736 -1.0586  0.2772  0.2599
 4720TIP3    H235796   1.472   5.823   0.681  1.5457 -0.5447 -0.4756
 4721TIP3   OH235797   6.770   4.373   2.153 -0.2038 -0.2143 -0.2761
 4721TIP3    H135798   6.802   4.416   2.232  1.5404 -1.6300 -0.1570
 4721TIP3    H235799   6.800   4.428   2.081 -0.8672  0.4987 -0.0274
 4722TIP3   OH235800   4.240   1.427   1.799  0.0390  0.6667 -0.1976
 4722TIP3    H135801   4.174   1.370   1.839  0.3221  0.9427  0.6904
 4722TIP3    H235802   4.234   1.409   1.705  0.6828 -1.4284  0.1060
 4723TIP3   OH235803   6.418   4.755   0.417 -0.5122  0.3530 -0.0289
 4723TIP3    H135804   6.505   4.779   0.447 -0.0011  0.0739 -1.2206
 4723TIP3    H235805   6.360   4.777   0.490  0.4540  1.2517  0.4857
 4724TIP3   OH235806   1.151   3.129   8.795 -0.0448  0.4172 -0.0337
 4724TIP3    H135807   1.200   3.211   8.803  0.9418 -0.1652  0.0942
 4724TIP3    H235808   1.218   3.061   8.804 -0.6056 -0.3944 -1.6425
 4725TIP3   OH235809   0.642   4.740   4.004  0.4465 -0.5641 -0.2336
 4725TIP3    H135810   0.639   4.816   4.062  1.2504  0.1187 -1.0574
 4725TIP3    H235811   0.552   4.708   4.001  0.1458  0.2114  0.3135
 4726TIP3   OH235812   1.996   4.371   2.708  0.2898 -0.3821 -0.0061
 4726TIP3    H135813   2.001   4.294   2.651  0.9301 -0.3803  0.0451
 4726TIP3    H235814   1.922   4.352   2.766  0.5647 -1.0507  0.1380
 4727TIP3   OH235815   5.627   5.691   2.285  0.1703 -0.1850  0.0976
 4727TIP3    H135816   5.610   5.670   2.193  0.3020 -0.6166  0.1666
 4727TIP3    H235817   5.585   5.620   2.333  1.1775 -0.6482  0.3129
 4728TIP3   OH235818   2.998   5.416   2.101  0.2082 -0.6085 -0.7083
 4728TIP3    H135819   2.937   5.397   2.030  1.0397 -0.9265 -1.3394
 4728TIP3    H235820   3.070   5.464   2.060 -0.0684  0.6405  0.2049
 4729TIP3   OH235821   4.874   0.977   1.704  0.3054  0.1399 -0.1752
 4729TIP3    H135822   4.831   1.035   1.641 -0.4721 -0.1403  0.0882
 4729TIP3    H235823   4.967   0.983   1.682  0.0405 -0.0392 -1.4313
 4730TIP3   OH235824   6.059   2.571   0.081  0.5000  0.1896  0.2061
 4730TIP3    H135825   6.054   2.612   0.168 -1.9894  0.8437 -0.1828
 4730TIP3    H235826   6.076   2.479   0.100 -1.2387  0.0885  1.5047
 4731TIP3   OH235827   0.322   3.939   3.056  0.3224  0.2539 -0.2921
 4731TIP3    H135828   0.296   3.962   3.145  1.7668 -2.3904  0.9351
 4731TIP3    H235829   0.240   3.919   3.011 -0.2752 -1.8567  1.5771
 4732TIP3   OH235830   3.238   2.181   2.950  0.2891 -0.2856 -0.3046
 4732TIP3    H135831   3.207   2.226   2.872 -1.1167  0.2020  0.5058
 4732TIP3    H235832   3.217   2.240   3.022  0.8940 -1.0459  0.5142
 4733TIP3   OH235833   0.257   0.481   3.074 -0.0570  0.0110  0.3409
 4733TIP3    H135834   0.333   0.523   3.034 -0.0285  0.2395  0.6318
 4733TIP3    H235835   0.185   0.499   3.013  0.2372 -0.7474 -0.2605
 4734TIP3   OH235836   4.402   0.131   3.186 -0.4313 -0.0026 -0.4597
 4734TIP3    H135837   4.468   0.083   3.237 -3.1460 -1.6210  1.8012
 4734TIP3    H235838   4.441   0.218   3.174  2.3151 -1.0274  0.2733
 4735TIP3   OH235839   5.618   3.092   2.401 -0.0352  0.2456 -0.0258
 4735TIP3    H135840   5.526   3.084   2.425  0.4212  0.2410  1.9409
 4735TIP3    H235841   5.637   3.186   2.406  0.4427  0.1030  1.2959
 4736TIP3   OH235842   2.186   6.419   3.074 -0.0304 -0.4778 -0.2904
 4736TIP3    H135843   2.175   6.449   2.984  0.8537 -0.8242 -0.5174
 4736TIP3    H235844   2.166   6.326   3.071  0.5180 -0.6002 -0.2311
 4737TIP3   OH235845   5.855   0.352   3.277 -0.2622 -0.4699 -0.0438
 4737TIP3    H135846   5.782   0.294   3.300 -1.8127  1.3783 -0.0887
 4737TIP3    H235847   5.857   0.418   3.346  1.4217 -0.4826 -0.0288
 4738TIP3   OH235848   1.311   2.936   8.606  0.4376 -0.9083 -0.2331
 4738TIP3    H135849   1.395   2.905   8.640  1.2407 -0.3529 -1.6352
 4738TIP3    H235850   1.281   2.865   8.549  1.2534 -0.0612 -1.7812
 4739TIP3   OH235851   2.336   6.752   3.068  0.1500 -0.4267  0.2475
 4739TIP3    H135852   2.293   6.703   3.138 -0.9696  1.3870  0.8880
 4739TIP3    H235853   2.358   6.837   3.108  4.7839 -1.3171  0.1155
 4740TIP3   OH235854   5.547   1.630   2.660 -0.1486  0.3228 -0.6133
 4740TIP3    H135855   5.565   1.704   2.719 -1.0991  1.1670 -1.3591
 4740TIP3    H235856   5.631   1.586   2.652  0.5534  1.5755 -0.4926
 4741TIP3   OH235857   5.544   0.118   1.417 -0.4396  0.0077 -0.2098
 4741TIP3    H135858   5.491   0.081   1.347 -1.9084  1.3548  0.1467
 4741TIP3    H235859   5.523   0.065   1.494  1.6803 -1.9111 -0.8389
 4742TIP3   OH235860   1.998   3.961   1.597 -0.4473  0.5105 -0.8218
 4742TIP3    H135861   2.029   3.888   1.544  1.2483  0.8648 -0.3855
 4742TIP3    H235862   1.996   4.035   1.535 -0.2019  0.5316 -0.8063
 4743TIP3   OH235863   4.283   6.505   0.679 -0.6491 -0.4018  0.6700
 4743TIP3    H135864   4.327   6.454   0.611 -0.7597 -0.3815  0.5836
 4743TIP3    H235865   4.190   6.488   0.665 -0.8098  1.2096 -0.4700
 4744TIP3   OH235866   6.457   6.770   1.287  0.1435  0.0391 -0.3656
 4744TIP3    H135867   6.475   6.856   1.325  0.8976  0.3860 -1.4687
 4744TIP3    H235868   6.366   6.775   1.257 -0.0253  0.2169  0.1702
 4745TIP3   OH235869   5.946   2.654   3.691  0.3825  0.3616 -0.1417
 4745TIP3    H135870   5.984   2.593   3.628 -0.1125  0.6391 -0.7204
 4745TIP3    H235871   6.014   2.665   3.757 -0.0777 -2.0127  0.8329
 4746TIP3   OH235872   6.488   5.137   0.679  0.2829  0.3136  0.3491
 4746TIP3    H135873   6.551   5.208   0.674  1.8953 -0.8699  2.2097
 4746TIP3    H235874   6.465   5.118   0.588  2.1252  1.2289 -0.3506
 4747TIP3   OH235875   1.609   6.457   3.180 -0.3505  0.2884 -0.1218
 4747TIP3    H135876   1.557   6.479   3.103 -0.0014  0.1083 -0.4125
 4747TIP3    H235877   1.662   6.382   3.153  0.7009  1.0064 -0.1078
 4748TIP3   OH235878   1.752   2.419   0.123  0.5364 -0.4238 -0.7624
 4748TIP3    H135879   1.723   2.508   0.138  0.6513 -0.2154 -1.7045
 4748TIP3    H235880   1.739   2.404   0.029 -0.2683 -1.6823 -0.4804
 4749TIP3   OH235881   5.036   1.146   3.265  0.0936 -0.1667  0.3348
 4749TIP3    H135882   5.095   1.219   3.284 -0.6276  0.2143  1.1703
 4749TIP3    H235883   5.076   1.070   3.308  0.7726 -0.2521 -0.4202
 4750TIP3   OH235884   3.292   1.686   4.178 -0.2606 -0.1103  0.1943
 4750TIP3    H135885   3.273   1.594   4.160 -2.0628  0.5903 -1.9172
 4750TIP3    H235886   3.206   1.728   4.181  0.5146  1.5057  1.2467
 4751TIP3   OH235887   1.801   5.948   3.138 -0.0769  0.0720  0.0510
 4751TIP3    H135888   1.868   5.968   3.203 -2.0983  1.0233  1.9793
 4751TIP3    H235889   1.765   6.034   3.115 -0.7761 -0.4333 -0.7832
 4752TIP3   OH235890   0.875   0.187   0.444  0.6611 -0.5373  0.3792
 4752TIP3    H135891   0.820   0.108   0.445  0.6633 -0.5458  0.0123
 4752TIP3    H235892   0.960   0.157   0.475  0.7920 -0.7831 -0.1907
 4753TIP3   OH235893   4.168   6.591   3.556 -0.0099 -0.0258  0.6063
 4753TIP3    H135894   4.234   6.644   3.599 -0.6347  0.8376  0.5395
 4753TIP3    H235895   4.137   6.646   3.484  0.6739 -1.2471 -0.6655
 4754TIP3   OH235896   6.789   6.703   8.027  0.1977  0.0636  0.3241
 4754TIP3    H135897   6.870   6.660   8.001 -0.8739 -1.0968 -1.3214
 4754TIP3    H235898   6.746   6.640   8.085 -0.0948  0.1034  0.1557
 4755TIP3   OH235899   0.294   3.395   0.303  0.4362  0.2998 -0.2484
 4755TIP3    H135900   0.315   3.343   0.381  0.5610  1.0447  0.2228
 4755TIP3    H235901   0.291   3.485   0.334  0.7357  0.6383 -1.1591
 4756TIP3   OH235902   1.027   1.535   1.633  0.1388 -0.5080  0.5727
 4756TIP3    H135903   0.936   1.513   1.657  0.2791  0.4848  2.2261
 4756TIP3    H235904   1.019   1.608   1.572 -0.1818 -1.2597 -0.3091
 4757TIP3   OH235905   3.895   6.346   8.806 -0.5525  0.2977 -0.3953
 4757TIP3    H135906   3.964   6.372   8.745 -0.0177 -0.3926 -0.0932
 4757TIP3    H235907   3.859   6.429   8.837  0.1156  0.6652 -0.5794
 4758TIP3   OH235908   5.162   4.311   1.494  0.1452 -0.3064  0.3479
 4758TIP3    H135909   5.118   4.315   1.579  0.7828  0.0440  0.6743
 4758TIP3    H235910   5.213   4.392   1.490 -0.7159  0.1911 -0.8464
 4759TIP3   OH235911   1.100   5.208   3.258 -0.5147 -0.0659  0.3557
 4759TIP3    H135912   1.081   5.159   3.178  0.4192 -0.5587  0.4264
 4759TIP3    H235913   1.168   5.157   3.302 -1.3356 -0.0384  1.6992
 4760TIP3   OH235914   0.166   4.795   3.333  0.0945  0.5581  0.1313
 4760TIP3    H135915   0.103   4.849   3.285 -0.7328 -0.8791 -0.4625
 4760TIP3    H235916   0.143   4.809   3.425 -1.3118 -0.1233 -0.0762
 4761TIP3   OH235917   0.439   5.505   8.467  0.4280  0.3539 -0.3813
 4761TIP3    H135918   0.353   5.527   8.503  0.2842  0.3544 -0.7215
 4761TIP3    H235919   0.493   5.484   8.543  0.3656  1.1875 -0.0906
 4762TIP3   OH235920   2.173   2.672   2.989  0.1352 -0.1477  0.4273
 4762TIP3    H135921   2.149   2.628   3.070 -0.7532  0.9704  0.8005
 4762TIP3    H235922   2.267   2.658   2.981  0.0864 -1.0120  1.1852
 4763TIP3   OH235923   6.340   4.476   1.510  0.2445 -0.1236  0.1555
 4763TIP3    H135924   6.282   4.538   1.466  0.7471 -0.5393 -1.1328
 4763TIP3    H235925   6.353   4.513   1.597 -1.2928  0.3967  0.1941
 4764TIP3   OH235926   3.494   2.028   2.004  0.7581 -0.4221  0.1288
 4764TIP3    H135927   3.518   1.968   1.934  1.4972 -0.2698  0.2351
 4764TIP3    H235928   3.412   2.068   1.975  0.2197 -1.5145  0.0896
 4765TIP3   OH235929   2.525   4.928   8.172 -0.0704  0.1466  0.1017
 4765TIP3    H135930   2.591   4.909   8.105 -0.0387 -0.4482  0.2906
 4765TIP3    H235931   2.480   5.006   8.140 -1.2122 -1.1022 -1.4764
 4766TIP3   OH235932   5.736   1.840   7.964 -0.4943 -0.4567  0.3898
 4766TIP3    H135933   5.772   1.772   7.906 -1.3192 -0.1944 -0.4745
 4766TIP3    H235934   5.641   1.834   7.950 -0.6243  0.3763  0.8766
 4767TIP3   OH235935   4.339   5.200   0.704  0.3702 -0.6642  0.6684
 4767TIP3    H135936   4.286   5.245   0.769  0.2178  0.0815  0.0451
 4767TIP3    H235937   4.276   5.149   0.652  0.3533 -0.3913  0.4181
 4768TIP3   OH235938   6.320   0.887   1.597 -0.1693  0.2460 -0.1209
 4768TIP3    H135939   6.232   0.851   1.594 -1.2663  2.7309 -1.1309
 4768TIP3    H235940   6.362   0.844   1.671 -2.5206 -0.3960  0.9242
 4769TIP3   OH235941   6.144   2.091   2.515  0.3536  0.0402  0.1794
 4769TIP3    H135942   6.061   2.090   2.563  0.3193  2.0028  0.2373
 4769TIP3    H235943   6.156   2.001   2.487 -2.5732 -0.0725 -1.1124
 4770TIP3   OH235944   5.152   2.894   2.926 -0.5994 -0.6530  0.1322
 4770TIP3    H135945   5.239   2.935   2.926  0.1437 -2.0949 -1.4870
 4770TIP3    H235946   5.095   2.958   2.884  0.0265 -0.3377 -0.2573
 4771TIP3   OH235947   4.865   3.809   0.814  0.2023 -0.2528  0.3285
 4771TIP3    H135948   4.943   3.804   0.869 -0.1193  0.7681  0.9279
 4771TIP3    H235949   4.897   3.797   0.725  1.3133  1.6504  0.4005
 4772TIP3   OH235950   2.203   0.015   0.953 -0.3783 -0.5033  0.2225
 4772TIP3    H135951   2.254   0.003   0.873  0.5024 -2.7693  1.0399
 4772TIP3    H235952   2.184  -0.074   0.983  0.1488  0.2323  3.0341
 4773TIP3   OH235953   2.297   0.467   1.403 -0.3310  0.3794  0.3607
 4773TIP3    H135954   2.268   0.460   1.312  0.7996  0.9784 -0.0638
 4773TIP3    H235955   2.296   0.561   1.422  0.8841  0.3974  0.4507
 4774TIP3   OH235956   1.177   4.155   0.238 -0.1367 -0.0041  0.0350
 4774TIP3    H135957   1.188   4.163   0.144 -0.0557 -2.0811 -0.1797
 4774TIP3    H235958   1.263   4.129   0.270  0.1796  1.9698  0.8869
 4775TIP3   OH235959   3.046   4.511   1.113 -0.2824 -0.5906  0.0539
 4775TIP3    H135960   3.098   4.434   1.136  0.7005  0.0014 -0.1228
 4775TIP3    H235961   2.992   4.483   1.039  1.1557 -0.7019 -0.9930
 4776TIP3   OH235962   1.351   4.766   0.312 -0.2986 -0.4563 -0.2397
 4776TIP3    H135963   1.418   4.704   0.341 -2.4401 -2.9248 -0.2410
 4776TIP3    H235964   1.282   4.760   0.378 -1.3084  0.6752 -1.1442
 4777TIP3   OH235965   6.655   5.677   1.851  0.1042  0.5873 -0.2000
 4777TIP3    H135966   6.605   5.601   1.880 -0.8548  0.8396 -1.1441
 4777TIP3    H235967   6.735   5.641   1.812 -0.1236  0.0910 -0.2082
 4778TIP3   OH235968   6.219   6.780   7.914  0.1917  0.4573  0.2402
 4778TIP3    H135969   6.192   6.695   7.878 -1.3119  0.9987 -0.0070
 4778TIP3    H235970   6.233   6.763   8.007 -2.1305  0.3127  0.6221
 4779TIP3   OH235971   4.530   5.489   2.633  0.0585 -0.3211  0.3228
 4779TIP3    H135972   4.554   5.397   2.647  1.9688 -0.1394 -1.3776
 4779TIP3    H235973   4.570   5.535   2.707  1.3180 -0.5734 -0.1770
 4780TIP3   OH235974   3.708   0.970   0.788  0.3311  0.3951 -0.0482
 4780TIP3    H135975   3.616   0.998   0.793  0.1699  0.3402 -2.0599
 4780TIP3    H235976   3.707   0.881   0.824 -0.8326 -0.3973 -1.8453
 4781TIP3   OH235977   0.749   6.036   3.719  0.0749  0.6148 -0.1498
 4781TIP3    H135978   0.791   6.121   3.704  0.4568  1.0705  2.7677
 4781TIP3    H235979   0.658   6.058   3.739 -0.6996 -0.0307 -2.7123
 4782TIP3   OH235980   2.366   2.392   3.817  0.3486  0.2497 -0.6717
 4782TIP3    H135981   2.279   2.365   3.847  0.6613 -1.7238 -1.3863
 4782TIP3    H235982   2.399   2.317   3.768  1.2939  2.0113 -2.9143
 4783TIP3   OH235983   4.533   2.731   0.558  0.2229  0.4054  0.2132
 4783TIP3    H135984   4.441   2.752   0.541 -0.1689 -1.9898 -1.1484
 4783TIP3    H235985   4.535   2.700   0.648 -0.6806 -1.0375 -0.2220
 4784TIP3   OH235986   4.244   3.777   0.185 -0.1407  0.1058  0.0489
 4784TIP3    H135987   4.338   3.760   0.180  0.3445  2.2188  0.8088
 4784TIP3    H235988   4.213   3.718   0.254  0.9101  0.3423  0.7511
 4785TIP3   OH235989   0.610   0.336   2.392 -0.6045 -0.3524 -0.3919
 4785TIP3    H135990   0.604   0.302   2.481 -0.4252 -0.5248 -0.4454
 4785TIP3    H235991   0.666   0.273   2.345  2.0721  1.4275  0.2057
 4786TIP3   OH235992   2.423   4.065   0.272  0.3961 -0.5629  0.7333
 4786TIP3    H135993   2.410   4.087   0.364 -1.0641  1.2736  0.1545
 4786TIP3    H235994   2.345   4.015   0.248  0.4988 -0.5589  0.3790
 4787TIP3   OH235995   3.374   0.379   1.802  0.4607 -0.1603 -0.3205
 4787TIP3    H135996   3.281   0.397   1.785 -0.4796 -3.0135  1.1095
 4787TIP3    H235997   3.408   0.346   1.719 -0.1387 -0.2867 -0.5194
 4788TIP3   OH235998   2.532   4.850   8.705 -0.1647  0.3005  0.6454
 4788TIP3    H135999   2.467   4.918   8.687  1.3504  1.9630  1.2577
 4788TIP3    H236000   2.508   4.779   8.645  0.0577  2.5797 -2.3610
 4789TIP3   OH236001   1.160   4.387   3.029 -0.3066 -1.0488  0.0424
 4789TIP3    H136002   1.171   4.378   2.934  1.8445 -1.1060  0.2353
 4789TIP3    H236003   1.243   4.424   3.058 -0.2185 -2.7247  2.1252
 4790TIP3   OH236004   1.311   4.531   1.548  0.4331  0.4101  0.0957
 4790TIP3    H136005   1.303   4.511   1.642  1.2419  0.3390  0.1535
 4790TIP3    H236006   1.393   4.489   1.522 -0.4621 -0.7492 -0.9649
 4791TIP3   OH236007   6.548   5.806   0.961  0.4049  0.2748  0.4392
 4791TIP3    H136008   6.641   5.788   0.949  0.1918 -0.2626 -0.6120
 4791TIP3    H236009   6.512   5.725   0.996  0.1804  0.1284 -0.1078
 4792TIP3   OH236010   6.673   4.932   2.140 -0.6666  0.1555 -0.1588
 4792TIP3    H136011   6.731   4.865   2.178  1.2286  1.0334 -1.3936
 4792TIP3    H236012   6.687   4.925   2.046 -1.5402  1.3606 -0.3949
 4793TIP3   OH236013   5.098   5.786   0.274 -0.7087  0.4962 -0.4273
 4793TIP3    H136014   5.038   5.746   0.212 -1.4827 -0.0624  0.6461
 4793TIP3    H236015   5.183   5.783   0.231 -0.8657 -1.6787 -0.6868
 4794TIP3   OH236016   3.491   0.917   1.995  0.4221  0.2815  0.8867
 4794TIP3    H136017   3.554   0.949   1.930  0.5521  0.2215  0.9827
 4794TIP3    H236018   3.541   0.855   2.048  0.1494 -0.1450  0.6497
 4795TIP3   OH236019   6.230   5.040   1.989  0.3085  0.0600  0.0347
 4795TIP3    H136020   6.297   5.052   1.922 -0.3861  0.9163 -0.5239
 4795TIP3    H236021   6.263   5.088   2.065  1.0065 -0.7542  0.2668
 4796TIP3   OH236022   3.249   4.770   1.754 -0.3393 -0.5215 -0.7209
 4796TIP3    H136023   3.164   4.812   1.741 -2.2460 -3.3679  1.4351
 4796TIP3    H236024   3.242   4.686   1.710  1.0166 -1.1956  0.2666
 4797TIP3   OH236025   4.833   5.815   3.586 -0.2273  0.1433 -0.0750
 4797TIP3    H136026   4.789   5.850   3.664  1.2176  1.7373  0.0853
 4797TIP3    H236027   4.796   5.727   3.575 -0.1960 -0.2959  2.6313
 4798TIP3   OH236028   6.011   5.325   2.392  0.3490 -0.5420 -0.4484
 4798TIP3    H136029   5.969   5.399   2.437 -0.9249 -1.5768  0.1043
 4798TIP3    H236030   5.976   5.329   2.303  0.2597 -0.5024 -0.4120
 4799TIP3   OH236031   6.506   2.920   8.792  0.1879  0.4044 -0.1473
 4799TIP3    H136032   6.450   2.963   8.727 -2.1425  2.2821  2.8214
 4799TIP3    H236033   6.592   2.959   8.779 -0.6892  2.2397 -0.8759
 4800TIP3   OH236034   3.130   0.225   1.668 -0.2433 -0.1900  0.3416
 4800TIP3    H136035   3.139   0.133   1.643 -0.1556  0.0464 -0.5580
 4800TIP3    H236036   3.035   0.239   1.673 -0.2939 -0.0445 -0.7157
 4801TIP3   OH236037   0.562   5.825   0.232 -0.4752  0.8353 -0.6948
 4801TIP3    H136038   0.558   5.737   0.196  0.1877  0.4563  0.1311
 4801TIP3    H236039   0.645   5.828   0.280 -0.4665  1.9171 -0.7364
 4802TIP3   OH236040   1.414   3.297   2.243  0.0972  0.1477 -0.9835
 4802TIP3    H136041   1.431   3.203   2.229  2.5662 -0.2647  3.0530
 4802TIP3    H236042   1.320   3.306   2.231 -0.1218 -2.6684 -2.3091
 4803TIP3   OH236043   4.417   1.074   1.320  0.2092 -0.1783  0.3682
 4803TIP3    H136044   4.482   1.015   1.358 -0.0048 -0.7337 -0.1113
 4803TIP3    H236045   4.336   1.023   1.320  0.3486 -0.4611 -1.4657
 4804TIP3   OH236046   6.411   3.235   1.442 -0.4636 -0.2546  0.0790
 4804TIP3    H136047   6.458   3.297   1.498 -0.7731  1.2555 -1.2724
 4804TIP3    H236048   6.343   3.199   1.499  0.1490  0.1227  1.0866
 4805TIP3   OH236049   6.677   4.260   0.820  0.5526  0.0189  0.2265
 4805TIP3    H136050   6.616   4.187   0.813  0.2420  0.2858  0.1264
 4805TIP3    H236051   6.627   4.330   0.862  0.7503  0.2787  0.0322
 4806TIP3   OH236052   3.881   1.273   3.587  0.0542 -0.4320 -0.2053
 4806TIP3    H136053   3.833   1.321   3.654  2.7248  0.8301  0.9838
 4806TIP3    H236054   3.889   1.184   3.621 -0.3002 -0.3046  0.2047
 4807TIP3   OH236055   0.897   2.918   0.303  0.3977  0.4557 -0.0752
 4807TIP3    H136056   0.938   2.845   0.257 -0.7960  0.2097 -0.7558
 4807TIP3    H236057   0.910   2.993   0.246  1.4162  0.7618  0.5179
 4808TIP3   OH236058   1.409   2.861   3.598 -0.0142 -0.2695  0.7819
 4808TIP3    H136059   1.482   2.920   3.582 -0.4118 -0.0833 -0.4886
 4808TIP3    H236060   1.360   2.901   3.670  1.1718 -0.4583  1.7192
 4809TIP3   OH236061   1.449   5.931   3.215  0.3508 -0.2673  0.6341
 4809TIP3    H136062   1.357   5.940   3.194  0.3586 -1.0875  0.2191
 4809TIP3    H236063   1.493   5.923   3.130  0.8080  0.1366  0.8268
 4810TIP3   OH236064   6.683   1.844   2.328  0.3668  0.0425 -0.4042
 4810TIP3    H136065   6.611   1.781   2.331 -0.4323  0.9398 -0.0560
 4810TIP3    H236066   6.640   1.930   2.330  1.4298  0.6065 -0.6913
 4811TIP3   OH236067   1.253   3.711   3.284  0.0211  0.1127 -0.4684
 4811TIP3    H136068   1.235   3.652   3.357 -2.3967 -0.9851 -1.8165
 4811TIP3    H236069   1.346   3.698   3.264  0.5035 -0.2345  1.7654
 4812TIP3   OH236070   3.787   2.983   8.349 -0.1628 -0.2214  0.4713
 4812TIP3    H136071   3.786   2.996   8.444 -0.0953  0.6641  0.3667
 4812TIP3    H236072   3.788   3.072   8.313 -2.8479 -0.4465 -0.3925
 4813TIP3   OH236073   3.426   5.999   2.717 -0.4042  0.5107  0.2227
 4813TIP3    H136074   3.492   5.964   2.657 -1.7294  0.2131 -1.1194
 4813TIP3    H236075   3.343   5.974   2.678 -1.3417  0.0223  2.3677
 4814TIP3   OH236076   3.221   6.726   8.613  0.1826  0.0466 -0.0846
 4814TIP3    H136077   3.233   6.749   8.521 -1.3169 -0.4070 -0.4110
 4814TIP3    H236078   3.128   6.743   8.630 -0.0812 -1.9501  0.7265
 4815TIP3   OH236079   4.290   2.388   1.931 -0.2798 -0.1828  0.1640
 4815TIP3    H136080   4.233   2.368   2.005  0.4294 -0.6853  0.5939
 4815TIP3    H236081   4.290   2.483   1.926 -0.1466 -0.1269  0.9825
 4816TIP3   OH236082   6.163   0.714   3.567  0.3778 -0.5604  0.1697
 4816TIP3    H136083   6.086   0.766   3.589  0.2166 -0.6384 -0.2070
 4816TIP3    H236084   6.152   0.633   3.617 -0.5880 -1.2380 -1.0634
 4817TIP3   OH236085   6.058   5.849   3.384 -0.0840 -0.3433  0.7285
 4817TIP3    H136086   6.114   5.910   3.335  0.7362 -0.4639  1.4745
 4817TIP3    H236087   6.052   5.889   3.471  1.0321 -1.6376  1.4385
 4818TIP3   OH236088   0.830   6.258   1.016 -0.2573  0.2240 -0.0217
 4818TIP3    H136089   0.925   6.269   1.022 -0.3482  0.3791  1.4036
 4818TIP3    H236090   0.803   6.229   1.103 -1.5489  0.3617 -0.3471
 4819TIP3   OH236091   4.963   5.629   0.639  0.8779 -0.0720  0.7920
 4819TIP3    H136092   4.988   5.634   0.547  0.1869 -2.8497  0.3523
 4819TIP3    H236093   4.998   5.544   0.668  1.2457  0.8177  3.1705
 4820TIP3   OH236094   5.159   0.716   0.721  0.2195 -0.0053 -0.0259
 4820TIP3    H136095   5.122   0.680   0.641 -0.8349  3.0641 -1.0601
 4820TIP3    H236096   5.088   0.708   0.786  1.3279 -3.1915  0.9693
 4821TIP3   OH236097   3.262   3.109   2.893  0.4802 -0.6650  0.3865
 4821TIP3    H136098   3.242   3.173   2.825 -1.3423 -2.3258 -0.7539
 4821TIP3    H236099   3.205   3.134   2.966  1.5189  0.3803  0.8620
 4822TIP3   OH236100   4.969   5.624   0.083  0.0318 -0.1659  0.2123
 4822TIP3    H136101   4.920   5.570   0.021  0.2509 -1.5339  1.1674
 4822TIP3    H236102   5.060   5.600   0.069 -0.0030 -1.6822  2.0204
 4823TIP3   OH236103   6.557   6.473   3.582  0.3373 -0.4138 -0.2758
 4823TIP3    H136104   6.587   6.382   3.581  1.1760 -0.1858  1.3525
 4823TIP3    H236105   6.611   6.516   3.648 -2.0485  0.5569  1.1808
 4824TIP3   OH236106   2.834   2.928   8.308 -0.1258  0.1941 -0.2197
 4824TIP3    H136107   2.891   3.002   8.330 -0.7918  0.9272 -0.8888
 4824TIP3    H236108   2.766   2.966   8.253  1.2132 -1.4565 -3.2261
 4825TIP3   OH236109   0.420   2.923   8.631  0.8650  0.7728 -0.0537
 4825TIP3    H136110   0.345   2.869   8.607  1.4802 -1.1409  2.0155
 4825TIP3    H236111   0.426   2.987   8.560 -1.5330 -0.1813 -1.2607
 4826TIP3   OH236112   4.093   1.872   2.510  0.1894  1.0144 -0.3459
 4826TIP3    H136113   4.055   1.830   2.433 -0.6687  2.0922 -0.5245
 4826TIP3    H236114   4.020   1.884   2.570  0.5814  1.4950  0.0517
 4827TIP3   OH236115   5.985   2.286   0.386 -0.0774 -0.5807  0.2512
 4827TIP3    H136116   6.058   2.281   0.448 -0.3051  1.4754  0.7491
 4827TIP3    H236117   5.924   2.348   0.425 -1.2667 -0.9134 -0.9990
 4828TIP3   OH236118   3.752   5.276   2.194 -0.2481  0.0687  0.2059
 4828TIP3    H136119   3.838   5.249   2.225  0.9098  0.7874 -2.1311
 4828TIP3    H236120   3.714   5.197   2.156  1.0075  0.4853 -2.0853
 4829TIP3   OH236121   4.321   0.686   3.366 -0.1701 -0.3026  0.1626
 4829TIP3    H136122   4.386   0.711   3.433 -0.8828  3.2599 -0.2663
 4829TIP3    H236123   4.239   0.679   3.415 -0.7125  2.4098 -0.1780
 4830TIP3   OH236124   0.243   5.240   2.419 -0.2658 -0.5535  0.1140
 4830TIP3    H136125   0.258   5.333   2.401 -0.3660 -0.2949  1.3072
 4830TIP3    H236126   0.148   5.229   2.416 -0.2993 -0.4564  0.6882
 4831TIP3   OH236127   4.137   4.320   8.489  0.2651 -0.4921 -0.2878
 4831TIP3    H136128   4.064   4.347   8.544  1.0040  1.4982 -0.1840
 4831TIP3    H236129   4.097   4.292   8.407 -0.6852 -1.0771  0.3564
 4832TIP3   OH236130   5.999   1.384   0.432  0.5832  0.0870 -0.4182
 4832TIP3    H136131   5.939   1.433   0.376  2.3549  0.6823 -1.9342
 4832TIP3    H236132   5.968   1.294   0.428 -1.9864  0.7974  1.3926
 4833TIP3   OH236133   3.789   5.582   8.032 -0.3642 -0.4190  0.2071
 4833TIP3    H136134   3.761   5.660   7.985  0.5794  0.7011  1.4457
 4833TIP3    H236135   3.763   5.597   8.123  3.1842  0.2855  1.2534
 4834TIP3   OH236136   0.697   4.503   0.609 -0.3692  0.3345 -0.0887
 4834TIP3    H136137   0.705   4.565   0.536 -0.9848  0.0670 -0.3900
 4834TIP3    H236138   0.741   4.546   0.682  3.5655 -0.8815 -1.4974
 4835TIP3   OH236139   6.613   1.688   2.090  0.1711  0.1037 -0.7644
 4835TIP3    H136140   6.578   1.634   2.019  1.1960 -1.1192 -0.3987
 4835TIP3    H236141   6.699   1.716   2.059 -0.4641  1.8370 -1.0674
 4836TIP3   OH236142   1.746   4.983   3.837  0.3901  0.6824  0.2278
 4836TIP3    H136143   1.659   4.942   3.836  0.1052  1.2708 -1.5826
 4836TIP3    H236144   1.805   4.912   3.864 -0.4279 -0.2105 -0.2600
 4837TIP3   OH236145   1.381   0.077   2.417  0.0036  0.0623  0.1227
 4837TIP3    H136146   1.330   0.156   2.398 -0.8362 -0.2653  0.9472
 4837TIP3    H236147   1.378   0.069   2.512 -0.2020 -1.1448  0.0303
 4838TIP3   OH236148   5.576   3.754   2.846 -0.3608  0.1129  0.8593
 4838TIP3    H136149   5.615   3.713   2.769  2.5027  2.1244  1.0539
 4838TIP3    H236150   5.516   3.819   2.811 -3.1885 -2.4754  0.5317
 4839TIP3   OH236151   2.911   5.013   0.835 -0.7320 -0.7678 -0.2318
 4839TIP3    H136152   2.926   5.063   0.755  0.5483  0.3060  0.6172
 4839TIP3    H236153   2.930   5.076   0.905 -0.5058 -2.0482  0.8952
 4840TIP3   OH236154   4.558   3.479   2.907  0.1517 -0.2378 -0.1152
 4840TIP3    H136155   4.635   3.536   2.906  0.8336 -1.0735  1.3698
 4840TIP3    H236156   4.586   3.400   2.860  0.5055 -0.8687  1.1100
 4841TIP3   OH236157   3.982   0.252   0.642 -0.0976  0.4555 -0.0583
 4841TIP3    H136158   4.066   0.254   0.596 -0.1318  2.0093 -0.1188
 4841TIP3    H236159   3.986   0.327   0.702 -1.6991  0.9829 -0.5646
 4842TIP3   OH236160   4.016   3.523   3.607 -0.4410  0.0985  0.1747
 4842TIP3    H136161   4.111   3.515   3.611 -0.4630 -0.6663 -0.5051
 4842TIP3    H236162   3.998   3.550   3.517 -0.8262  1.1183  0.5418
 4843TIP3   OH236163   3.499   3.306   2.721  0.1352 -0.0968  0.1371
 4843TIP3    H136164   3.515   3.400   2.730  0.4615 -0.1027 -0.3490
 4843TIP3    H236165   3.495   3.274   2.812 -0.1301  0.4044  0.3097
 4844TIP3   OH236166   5.239   2.085   2.456 -0.0880  0.2951  0.5224
 4844TIP3    H136167   5.315   2.137   2.431  0.2465  0.0534  1.0324
 4844TIP3    H236168   5.275   2.002   2.487 -0.6118 -0.2117 -0.1865
 4845TIP3   OH236169   4.216   2.761   0.615 -0.5487 -0.2938 -0.0521
 4845TIP3    H136170   4.143   2.816   0.589 -0.2200  0.0242 -0.3160
 4845TIP3    H236171   4.190   2.725   0.700 -1.2941 -0.7187 -0.4473
 4846TIP3   OH236172   4.621   6.335   1.964  0.2169 -0.0317  0.1789
 4846TIP3    H136173   4.638   6.241   1.961 -0.1625 -0.0760 -1.3613
 4846TIP3    H236174   4.547   6.344   2.025 -0.3571 -0.8501 -0.3749
 4847TIP3   OH236175   6.039   5.622   0.213  0.0358 -0.4153 -0.1800
 4847TIP3    H136176   6.106   5.625   0.145  0.7838 -1.0858  0.5008
 4847TIP3    H236177   5.989   5.702   0.201  1.1385  0.2492 -0.5473
 4848TIP3   OH236178   6.635   6.173   2.649  0.0595 -0.2157  0.2010
 4848TIP3    H136179   6.605   6.248   2.597  0.1621 -0.0784  0.3370
 4848TIP3    H236180   6.566   6.107   2.638  0.1900 -0.2725 -0.2874
 4849TIP3   OH236181   3.477   4.085   3.561 -0.4589 -0.2419  0.4328
 4849TIP3    H136182   3.546   4.144   3.530 -0.5949 -0.5326 -0.4554
 4849TIP3    H236183   3.397   4.138   3.557 -0.6559 -0.5932 -0.7985
 4850TIP3   OH236184   5.436   4.014   8.640 -0.1101 -0.1654  0.0776
 4850TIP3    H136185   5.437   4.103   8.675 -3.5923  0.2279 -0.4922
 4850TIP3    H236186   5.362   3.971   8.684 -0.3488 -1.8276 -1.7781
 4851TIP3   OH236187   0.361   4.484   1.091  0.2251 -0.0341  0.2349
 4851TIP3    H136188   0.399   4.563   1.129  0.5622  0.4179 -1.0158
 4851TIP3    H236189   0.436   4.431   1.065  0.0880  0.9012 -2.3329
 4852TIP3   OH236190   5.925   2.106   2.682  0.0511 -0.4748 -0.1077
 4852TIP3    H136191   5.952   2.051   2.755  2.4416  2.8865  1.8442
 4852TIP3    H236192   5.831   2.120   2.695  0.1472 -1.1426  1.4804
 4853TIP3   OH236193   0.072   1.906   2.139 -0.3570  0.1231 -0.4929
 4853TIP3    H136194   0.009   1.876   2.204  1.9367 -1.0867  1.3077
 4853TIP3    H236195   0.039   1.992   2.111 -2.2040 -0.0019  1.1208
 4854TIP3   OH236196   1.113   5.138   2.302  0.5715  0.3406 -0.0643
 4854TIP3    H136197   1.101   5.191   2.381  1.1112  1.4318 -0.6862
 4854TIP3    H236198   1.204   5.155   2.276 -0.4193  2.4717 -2.6172
 4855TIP3   OH236199   0.595   3.004   8.811 -0.2153 -0.0372 -0.6419
 4855TIP3    H136200   0.636   3.076   8.763 -0.3733 -0.4280 -1.3847
 4855TIP3    H236201   0.542   2.959   8.745  1.9899 -2.4676 -0.8851
 4856TIP3   OH236202   0.881   5.664   2.226 -0.3945  0.2352 -0.4050
 4856TIP3    H136203   0.872   5.604   2.300  0.4365  1.3169  0.6058
 4856TIP3    H236204   0.888   5.751   2.266 -0.3188  0.8875 -1.7747
 4857TIP3   OH236205   1.765   5.057   7.724  0.2820  0.2203  0.0746
 4857TIP3    H136206   1.746   5.148   7.701 -0.1342  0.5526  1.6065
 4857TIP3    H236207   1.855   5.043   7.692  0.7463  1.5108  0.7240
 4858TIP3   OH236208   2.346   2.617   1.427 -0.6733 -0.3466  0.8652
 4858TIP3    H136209   2.297   2.697   1.410 -0.4406 -0.0580  1.5034
 4858TIP3    H236210   2.280   2.548   1.427 -1.0508  0.0047  1.4598
 4859TIP3   OH236211   3.964   5.776   1.273 -0.3375 -0.1816 -0.1511
 4859TIP3    H136212   3.923   5.861   1.263 -2.9830 -1.5097 -1.8836
 4859TIP3    H236213   4.055   5.795   1.292 -1.1226  2.9973  1.0048
 4860TIP3   OH236214   0.491   3.023   1.979 -0.1412  0.1084 -0.0223
 4860TIP3    H136215   0.431   3.064   1.918 -1.6478 -0.4547  1.0117
 4860TIP3    H236216   0.575   3.065   1.963 -0.6629  0.5173 -1.9085
 4861TIP3   OH236217   3.941   5.019   3.804 -0.1643  0.3416 -0.1916
 4861TIP3    H136218   4.025   5.065   3.807  0.6824 -1.1863  1.6448
 4861TIP3    H236219   3.964   4.927   3.818 -2.1871 -0.0395  1.0035
 4862TIP3   OH236220   1.711   4.832   1.616  0.4966 -0.2526  1.2099
 4862TIP3    H136221   1.616   4.841   1.604  0.3140 -2.1087  1.0180
 4862TIP3    H236222   1.748   4.899   1.559 -0.6668 -1.3010 -0.9156
 4863TIP3   OH236223   0.885   6.599   0.700 -0.0988  0.1636  0.1581
 4863TIP3    H136224   0.970   6.640   0.715  1.3430 -1.1981 -3.1419
 4863TIP3    H236225   0.906   6.507   0.681 -2.4750 -0.5264  0.4907
 4864TIP3   OH236226   2.922   2.047   2.209 -0.3209  0.3000 -0.3900
 4864TIP3    H136227   2.909   2.023   2.300 -2.5411  0.6059 -0.5696
 4864TIP3    H236228   2.954   2.137   2.213  0.0835  0.1403  0.0857
 4865TIP3   OH236229   3.718   2.359   3.021 -0.7814  0.9578  0.1883
 4865TIP3    H136230   3.760   2.422   3.079  0.3652  0.9684 -0.6150
 4865TIP3    H236231   3.638   2.403   2.992  0.4038  2.4335 -1.0174
 4866TIP3   OH236232   1.114   5.116   1.507 -0.2338 -0.2528 -0.1357
 4866TIP3    H136233   1.130   5.117   1.412  0.7722  2.1489 -0.0215
 4866TIP3    H236234   1.038   5.059   1.518  1.0209 -2.4492 -2.1115
 4867TIP3   OH236235   1.619   5.042   2.376 -0.4712  0.1586  0.0587
 4867TIP3    H136236   1.603   5.092   2.456  0.3279  0.4904  0.0219
 4867TIP3    H236237   1.563   5.083   2.310 -1.1452 -0.1252  0.4352
 4868TIP3   OH236238   4.054   4.933   2.507 -0.2095  0.0637 -0.1564
 4868TIP3    H136239   4.079   4.847   2.539  0.3648  0.5947  0.8839
 4868TIP3    H236240   4.027   4.981   2.585 -1.9451  0.3789 -0.8956
 4869TIP3   OH236241   4.672   6.265   3.506  0.0502  0.2940  0.4874
 4869TIP3    H136242   4.726   6.294   3.579  3.6593 -1.0188 -1.4294
 4869TIP3    H236243   4.662   6.342   3.451 -0.9203  0.7695  1.2924
 4870TIP3   OH236244   5.306   1.851   3.866 -0.5854  0.5527 -0.2101
 4870TIP3    H136245   5.348   1.785   3.810  0.7928  1.6286 -0.5203
 4870TIP3    H236246   5.379   1.899   3.904 -1.5073  0.2188  2.1140
 4871TIP3   OH236247   1.246   1.785   2.303 -0.5410 -0.0388  0.5778
 4871TIP3    H136248   1.313   1.828   2.357  1.4811  0.0015 -1.7986
 4871TIP3    H236249   1.278   1.696   2.291  0.9457  0.8167 -3.1776
 4872TIP3   OH236250   2.057   4.007   2.219  0.1235  0.4165  0.3684
 4872TIP3    H136251   2.007   4.074   2.172  0.2263  0.2290 -0.0094
 4872TIP3    H236252   2.146   4.044   2.225  0.1701  0.3337  0.1972
 4873TIP3   OH236253   4.668   4.890   2.992  0.0826 -0.5832 -0.4661
 4873TIP3    H136254   4.590   4.836   3.005  0.4991 -0.7055  2.2904
 4873TIP3    H236255   4.737   4.844   3.040  1.3136  0.6213 -1.0148
 4874TIP3   OH236256   3.803   6.219   0.950 -0.2120  0.3777 -0.6285
 4874TIP3    H136257   3.896   6.244   0.942 -0.3094  1.1167  0.3907
 4874TIP3    H236258   3.778   6.247   1.038 -1.5194  0.5474 -1.0304
 4875TIP3   OH236259   0.204   2.116   3.570 -0.4273 -0.3253 -0.4310
 4875TIP3    H136260   0.163   2.078   3.648 -0.0616  1.7050  0.8085
 4875TIP3    H236261   0.265   2.048   3.540  0.3703 -0.6977  1.8350
 4876TIP3   OH236262   5.854   4.130   0.880  0.1944 -0.2678  0.2521
 4876TIP3    H136263   5.827   4.205   0.935  0.5466 -0.6320  0.9363
 4876TIP3    H236264   5.779   4.114   0.824  0.9562  2.1388 -1.6356
 4877TIP3   OH236265   2.969   3.085   2.064 -0.4072  0.7563 -0.4279
 4877TIP3    H136266   2.897   3.116   2.119 -2.0471 -1.6109 -1.0735
 4877TIP3    H236267   2.931   3.014   2.012  2.1969 -0.0550 -1.4141
 4878TIP3   OH236268   4.014   3.493   3.022 -0.2766 -0.0474 -0.4153
 4878TIP3    H136269   3.997   3.421   3.082  1.3084  1.7521  2.4030
 4878TIP3    H236270   4.109   3.507   3.027 -0.6237  2.8588  0.0230
 4879TIP3   OH236271   1.788   2.597   0.935 -0.1802 -0.4064 -0.5541
 4879TIP3    H136272   1.807   2.538   1.008 -2.5816 -0.5613  0.0389
 4879TIP3    H236273   1.873   2.630   0.907  1.2161 -3.5645 -0.4357
 4880TIP3   OH236274   3.224   3.523   2.172  0.0696  0.1525 -0.1288
 4880TIP3    H136275   3.246   3.431   2.157 -2.4502 -0.5029 -0.3041
 4880TIP3    H236276   3.287   3.553   2.237  0.9022 -1.7258 -0.0207
 4881TIP3   OH236277   3.344   4.318   2.666  0.4844  0.3912 -0.3138
 4881TIP3    H136278   3.350   4.304   2.571 -0.5122  2.0198 -0.6582
 4881TIP3    H236279   3.254   4.347   2.680  1.5043  3.4368  0.6228
 4882TIP3   OH236280   0.950   3.567   3.027 -0.1996 -0.3484 -0.0997
 4882TIP3    H136281   0.971   3.631   3.095 -1.3943  1.8434 -1.6412
 4882TIP3    H236282   0.856   3.580   3.011 -0.4641 -2.4890 -0.5218
 4883TIP3   OH236283   1.047   0.564   0.864 -0.7049 -0.0193 -0.6705
 4883TIP3    H136284   1.062   0.656   0.847  0.7844 -0.1047  0.0321
 4883TIP3    H236285   1.095   0.546   0.945 -0.9052 -1.4207 -0.8345
 4884TIP3   OH236286   6.324   5.341   2.851  0.8412  0.3434 -0.1989
 4884TIP3    H136287   6.281   5.272   2.902  1.6647 -0.7496 -0.9480
 4884TIP3    H236288   6.320   5.311   2.760  0.9131  1.4513 -0.5927
 4885TIP3   OH236289   6.483   0.073   0.652 -0.1734  0.1934 -0.1892
 4885TIP3    H136290   6.475   0.050   0.559 -0.8546  2.4550 -0.7461
 4885TIP3    H236291   6.393   0.087   0.682  0.1084  0.5900  0.5037
 4886TIP3   OH236292   6.277   4.341   1.115 -0.0798 -0.3580 -0.2887
 4886TIP3    H136293   6.273   4.418   1.058 -2.7251  0.0020  0.2396
 4886TIP3    H236294   6.354   4.356   1.169  0.0650  1.4194 -0.9059
 4887TIP3   OH236295   1.204   5.703   0.798 -0.0957 -0.0645  0.5914
 4887TIP3    H136296   1.192   5.778   0.740  3.6295  0.2328 -0.1028
 4887TIP3    H236297   1.256   5.737   0.871 -1.1699 -1.3371  2.0227
 4888TIP3   OH236298   2.800   6.092   1.365 -0.1935  0.1072  0.2310
 4888TIP3    H136299   2.803   6.136   1.450 -0.5181 -0.0305  0.3130
 4888TIP3    H236300   2.787   6.163   1.302 -0.6046  0.1385  0.3530
 4889TIP3   OH236301   2.928   5.175   2.758 -0.0374  0.5279 -0.4330
 4889TIP3    H136302   2.862   5.155   2.692  0.5854 -2.1383 -0.3352
 4889TIP3    H236303   2.934   5.097   2.812 -0.1195  2.3896  2.5278
 4890TIP3   OH236304   1.680   3.488   1.588 -0.5121  0.6359  0.1781
 4890TIP3    H136305   1.678   3.484   1.684  0.7343  1.0645  0.2394
 4890TIP3    H236306   1.627   3.413   1.560  2.0943 -1.8246  1.2199
 4891TIP3   OH236307   2.161   1.710   2.423  0.0313 -0.5325  0.3753
 4891TIP3    H136308   2.138   1.735   2.513  1.2875 -1.0817  0.8730
 4891TIP3    H236309   2.142   1.616   2.418  0.7626 -0.6879  0.3500
 4892TIP3   OH236310   1.417   1.295   3.871 -0.4564 -0.8563  0.0307
 4892TIP3    H136311   1.393   1.204   3.889  0.3047 -0.8965  0.9513
 4892TIP3    H236312   1.434   1.333   3.957  0.8713 -0.3249 -0.4390
 4893TIP3   OH236313   4.577   5.084   0.502  0.1192  0.4057 -0.0704
 4893TIP3    H136314   4.508   5.051   0.560  2.1404 -0.9560  1.7142
 4893TIP3    H236315   4.578   5.179   0.518 -2.1160  0.6815 -1.1264
 4894TIP3   OH236316   4.746   0.258   1.271 -0.0388 -0.0066 -0.1788
 4894TIP3    H136317   4.778   0.177   1.311 -1.0881 -1.0099 -1.2903
 4894TIP3    H236318   4.786   0.328   1.323  1.1509 -1.2232  0.6049
 4895TIP3   OH236319   6.589   1.632   1.321 -0.3757  0.4724  0.4933
 4895TIP3    H136320   6.672   1.584   1.321 -0.6655 -0.0333  0.3580
 4895TIP3    H236321   6.552   1.616   1.234  0.0837  1.9329  0.0033
 4896TIP3   OH236322   3.979   1.945   8.720  0.3091 -0.1875  0.0042
 4896TIP3    H136323   3.908   1.883   8.703  0.0367 -0.5709  2.1921
 4896TIP3    H236324   4.058   1.892   8.721  0.2607 -0.2549  0.4004
 4897TIP3   OH236325   4.005   2.627   0.189 -0.5512 -0.4286  0.2235
 4897TIP3    H136326   4.086   2.643   0.237 -0.5275  0.1206  0.0103
 4897TIP3    H236327   4.016   2.540   0.152  0.4375  0.0806 -0.7552
 4898TIP3   OH236328   4.164   6.172   2.290 -0.3331 -0.1217 -0.2830
 4898TIP3    H136329   4.173   6.078   2.309  1.2976 -1.1200 -4.6881
 4898TIP3    H236330   4.070   6.186   2.282 -0.6482 -1.1326  1.1826
 4899TIP3   OH236331   6.402   4.034   2.884 -0.5786  0.0290  0.4587
 4899TIP3    H136332   6.308   4.041   2.864 -0.5025  1.3884  0.4916
 4899TIP3    H236333   6.436   3.972   2.819 -1.3658  0.0568  0.0037
 4900TIP3   OH236334   3.941   2.219   2.949  0.8859 -0.5025  0.1699
 4900TIP3    H136335   3.961   2.217   2.856  1.4955  1.3999  0.2146
 4900TIP3    H236336   3.859   2.269   2.955 -0.1364 -2.1360  0.5567
 4901TIP3   OH236337   4.855   4.379   3.740 -0.5352 -0.0062 -0.2974
 4901TIP3    H136338   4.774   4.409   3.783 -0.7788  0.4941 -1.0689
 4901TIP3    H236339   4.923   4.390   3.806 -1.1384 -0.7086  0.4635
 4902TIP3   OH236340   1.157   6.086   0.379  0.0681  0.3155  0.4027
 4902TIP3    H136341   1.108   6.010   0.348 -1.8063  1.4799  0.4064
 4902TIP3    H236342   1.113   6.161   0.339  2.2333  1.4080 -0.0868
 4903TIP3   OH236343   0.403   6.312   2.071 -0.0971 -0.0303 -0.2948
 4903TIP3    H136344   0.441   6.400   2.065  0.4278  0.0496  2.6964
 4903TIP3    H236345   0.450   6.270   2.143 -1.6071 -2.1113 -0.4280
 4904TIP3   OH236346   2.724   0.410   8.845 -0.7875 -0.3172 -0.0066
 4904TIP3    H136347   2.795   0.401   8.782 -0.1563  1.7384  0.3398
 4904TIP3    H236348   2.689   0.498   8.829 -2.5320 -0.8713  0.5717
 4905TIP3   OH236349   3.378   6.168   1.218 -0.3653 -0.7540 -0.0336
 4905TIP3    H136350   3.353   6.260   1.212 -2.6239 -1.1190  1.8672
 4905TIP3    H236351   3.336   6.126   1.142  1.6217 -0.1133 -1.5507
 4906TIP3   OH236352   2.154   5.479   2.320 -0.7613 -0.2543  0.5957
 4906TIP3    H136353   2.096   5.553   2.338 -1.4062 -0.3938 -0.7792
 4906TIP3    H236354   2.106   5.425   2.257  0.2341 -1.1782  0.5960
 4907TIP3   OH236355   3.035   3.460   1.642  0.7002 -0.0727  0.1175
 4907TIP3    H136356   3.057   3.389   1.701  1.1517 -0.1722 -0.1604
 4907TIP3    H236357   2.987   3.523   1.696 -1.3039 -1.3730 -0.0139
 4908TIP3   OH236358   5.925   2.631   8.369 -0.4176  0.4269 -0.5612
 4908TIP3    H136359   5.951   2.695   8.304  0.9875 -0.2628 -0.7201
 4908TIP3    H236360   5.840   2.660   8.400  0.3806  2.6257 -0.2939
 4909TIP3   OH236361   2.364   2.096   2.649  0.4070 -0.3694 -0.0429
 4909TIP3    H136362   2.271   2.078   2.632  0.8290 -1.1535 -1.7866
 4909TIP3    H236363   2.402   2.010   2.667  0.8539 -0.1020  0.2967
 4910TIP3   OH236364   3.094   6.507   3.278 -0.4643  0.2141 -0.8233
 4910TIP3    H136365   3.108   6.434   3.338 -2.9861  1.2622  1.2344
 4910TIP3    H236366   3.174   6.559   3.284 -0.5464  0.1954  1.5993
 4911TIP3   OH236367   4.016   2.617   1.941  0.4563  0.2108 -0.4545
 4911TIP3    H136368   4.089   2.677   1.954  1.2853 -0.6411 -0.9981
 4911TIP3    H236369   4.011   2.567   2.022  0.9857 -0.2449 -0.6946
 4912TIP3   OH236370   1.659   2.027   1.075  0.4202 -0.4939 -0.1583
 4912TIP3    H136371   1.589   1.963   1.057  0.7293 -0.9067  0.0932
 4912TIP3    H236372   1.679   2.065   0.989 -0.4535 -0.0117 -0.1605
 4913TIP3   OH236373   5.517   4.677   1.017 -0.0563 -0.3493  0.2329
 4913TIP3    H136374   5.523   4.626   0.936  1.0535  0.3344 -0.1401
 4913TIP3    H236375   5.423   4.687   1.032 -0.2794 -0.9028 -0.7044
 4914TIP3   OH236376   1.370   0.166   8.513 -0.0121  0.5042 -0.3042
 4914TIP3    H136377   1.375   0.255   8.548  0.5444  0.3038  0.1521
 4914TIP3    H236378   1.280   0.157   8.483  0.0236  1.3392 -0.6835
 4915TIP3   OH236379   5.377   5.458   2.816 -0.8937 -0.3463 -0.3512
 4915TIP3    H136380   5.294   5.444   2.770 -0.9599 -0.1851 -0.2841
 4915TIP3    H236381   5.436   5.491   2.749 -0.8321 -0.6302 -0.4380
 4916TIP3   OH236382   1.511   0.086   1.573 -0.3621 -0.1327 -0.2518
 4916TIP3    H136383   1.577   0.032   1.529 -0.1612  0.6062 -0.8829
 4916TIP3    H236384   1.527   0.174   1.540 -0.4530  0.3802  1.0294
 4917TIP3   OH236385   2.139   2.164   0.657 -0.1185  0.2679 -0.4949
 4917TIP3    H136386   2.160   2.136   0.746  1.1307 -2.3591 -1.5255
 4917TIP3    H236387   2.184   2.248   0.647 -0.5332  0.7542  1.4075
 4918TIP3   OH236388   0.102   5.392   0.228 -0.3206  0.1611 -0.4784
 4918TIP3    H136389   0.109   5.316   0.286  0.6306  1.6238  1.4466
 4918TIP3    H236390   0.012   5.390   0.197 -0.5309 -1.3253  0.1519
 4919TIP3   OH236391   3.927   5.071   2.759 -0.2440  0.3218  0.0343
 4919TIP3    H136392   3.892   5.114   2.681 -1.3810 -0.2238  0.2259
 4919TIP3    H236393   3.893   5.122   2.832 -0.0580  0.1965  0.2107
 4920TIP3   OH236394   1.218   1.172   1.137  0.2337  0.1760  0.6761
 4920TIP3    H136395   1.303   1.140   1.105  0.3208  0.3098  0.7736
 4920TIP3    H236396   1.227   1.170   1.232 -0.0714 -0.3498  0.6972
 4921TIP3   OH236397   3.442   5.582   4.052 -0.3027  0.0113  0.1944
 4921TIP3    H136398   3.476   5.493   4.064 -1.6208 -0.4462  0.6677
 4921TIP3    H236399   3.520   5.637   4.051  0.5154 -1.1120  0.2260
 4922TIP3   OH236400   5.300   2.734   0.729 -0.2914  0.1818  0.0840
 4922TIP3    H136401   5.306   2.822   0.692  0.6799 -0.1821 -0.6493
 4922TIP3    H236402   5.228   2.693   0.682  0.4052 -0.0006 -0.8444
 4923TIP3   OH236403   4.200   6.525   8.849 -0.3687 -0.0959 -0.1648
 4923TIP3    H136404   4.189   6.619   8.832  0.0551 -0.0787 -0.3773
 4923TIP3    H236405   4.288   6.518   8.886 -0.4119 -0.4056 -0.1216
 4924TIP3   OH236406   1.206   5.840   2.326  0.2284  0.3415  0.1364
 4924TIP3    H136407   1.216   5.772   2.260 -3.6518 -2.0362  1.6146
 4924TIP3    H236408   1.169   5.915   2.279  0.5019 -0.1572 -0.8804
 4925TIP3   OH236409   6.255   5.274   2.600 -0.4812 -0.0789  0.0191
 4925TIP3    H136410   6.310   5.279   2.521 -1.7285 -1.0871 -0.9532
 4925TIP3    H236411   6.166   5.278   2.566 -1.0723 -1.8650  1.2593
 4926TIP3   OH236412   4.093   5.717   3.950  0.5819  0.0902 -0.1277
 4926TIP3    H136413   4.152   5.785   3.983  0.6207  0.0459 -0.1066
 4926TIP3    H236414   4.009   5.762   3.941  0.3817 -0.0879  0.7757
 4927TIP3   OH236415   5.582   4.390   1.992 -0.0739 -0.1856 -0.1693
 4927TIP3    H136416   5.489   4.396   2.014  0.2975 -1.5216  2.0710
 4927TIP3    H236417   5.594   4.299   1.964  1.1308 -1.1678  3.0699
 4928TIP3   OH236418   5.329   0.036   1.741 -0.3683 -0.0413  0.4171
 4928TIP3    H136419   5.400   0.098   1.725  0.5150 -0.5012  2.3406
 4928TIP3    H236420   5.354  -0.042   1.692 -0.7892  0.5950 -0.8703
 4929TIP3   OH236421   5.629   0.017   8.494  0.1947 -1.0391  0.1660
 4929TIP3    H136422   5.700  -0.046   8.482 -0.2901 -2.0525  2.2308
 4929TIP3    H236423   5.671   0.094   8.533  0.4909 -0.7786 -0.6528
 4930TIP3   OH236424   3.404   3.178   3.246 -0.2466  0.5836 -0.0229
 4930TIP3    H136425   3.465   3.203   3.315  1.4671  0.9210 -1.5759
 4930TIP3    H236426   3.413   3.084   3.238  0.3273  0.6724 -0.4628
 4931TIP3   OH236427   2.256   5.540   8.250  0.7305 -0.4489  0.2199
 4931TIP3    H136428   2.208   5.611   8.205  0.5397 -0.6926  0.0319
 4931TIP3    H236429   2.187   5.489   8.293  0.7467 -1.2079 -0.6309
 4932TIP3   OH236430   0.923   3.044   1.494 -0.6495 -0.1542 -0.1606
 4932TIP3    H136431   0.855   3.103   1.527  0.4853  0.2437  1.5462
 4932TIP3    H236432   0.889   3.015   1.409 -1.3772  2.7060 -0.9486
 4933TIP3   OH236433   0.660   4.437   8.113 -0.3470 -0.2828  0.6946
 4933TIP3    H136434   0.634   4.393   8.032  1.4588  1.5127 -0.9542
 4933TIP3    H236435   0.704   4.369   8.164 -1.5809 -1.4673  0.2404
 4934TIP3   OH236436   0.797   0.370   0.096 -0.2330 -0.2341 -0.2786
 4934TIP3    H136437   0.881   0.324   0.091  0.8183  1.7241 -2.1099
 4934TIP3    H236438   0.797   0.412   0.182  0.8475  0.0372 -0.3997
 4935TIP3   OH236439   5.314   1.800   0.721 -0.2704  0.5134 -0.2599
 4935TIP3    H136440   5.336   1.744   0.646 -1.0777  0.7237 -0.6577
 4935TIP3    H236441   5.338   1.888   0.692 -0.7736  0.6224 -0.3602
 4936TIP3   OH236442   5.235   5.601   3.054 -0.0051 -0.1008  0.2589
 4936TIP3    H136443   5.295   5.569   2.987 -0.7421 -0.0479 -0.4430
 4936TIP3    H236444   5.289   5.654   3.113  0.6711 -0.2544 -0.2240
 4937TIP3   OH236445   4.465   1.901   2.071  0.0460  0.2578 -0.3805
 4937TIP3    H136446   4.523   1.829   2.046  0.1335 -0.3096  1.2999
 4937TIP3    H236447   4.516   1.980   2.051  0.5037 -0.1772 -0.9809
 4938TIP3   OH236448   0.849   4.116   2.435  0.1356  0.2343 -0.1334
 4938TIP3    H136449   0.866   4.141   2.526  0.3202  3.9490 -1.0213
 4938TIP3    H236450   0.753   4.116   2.428  0.0606 -1.6176  0.3481
 4939TIP3   OH236451   3.090   4.139   2.694 -0.2815 -0.0168  0.0288
 4939TIP3    H136452   3.130   4.072   2.748 -0.8457 -0.6512 -0.3267
 4939TIP3    H236453   3.104   4.110   2.604 -1.5761 -0.2983 -0.1129
 4940TIP3   OH236454   5.180   6.377   0.492  0.6346  0.5764 -0.1666
 4940TIP3    H136455   5.235   6.334   0.426 -0.2073  0.6643 -0.9353
 4940TIP3    H236456   5.193   6.325   0.571 -0.0286 -0.8384 -0.9606
 4941TIP3   OH236457   3.028   2.257   1.867 -0.0551 -0.7373  0.0457
 4941TIP3    H136458   3.055   2.348   1.856 -0.9090 -0.4057  0.5685
 4941TIP3    H236459   2.969   2.240   1.793 -0.4160 -0.6544  0.3121
 4942TIP3   OH236460   2.247   2.023   2.941  0.4138  0.2899 -0.0345
 4942TIP3    H136461   2.208   1.935   2.949 -0.1606  0.4050 -1.2785
 4942TIP3    H236462   2.191   2.067   2.877  1.5317  1.0960 -0.4741
 4943TIP3   OH236463   2.257   5.339   0.767 -0.0650  0.3102 -0.6235
 4943TIP3    H136464   2.219   5.282   0.700  0.6623 -2.1232  0.9053
 4943TIP3    H236465   2.187   5.399   0.790 -0.9082  0.0217 -2.2503
 4944TIP3   OH236466   0.209   3.360   2.214  0.3430  0.4042 -0.2933
 4944TIP3    H136467   0.245   3.320   2.293  0.0009 -0.0886 -0.3849
 4944TIP3    H236468   0.124   3.394   2.241  0.9201  1.7049 -0.0371
 4945TIP3   OH236469   5.200   0.641   3.113 -0.3149  0.0494 -0.5633
 4945TIP3    H136470   5.143   0.623   3.188  0.2579  1.7268  0.3285
 4945TIP3    H236471   5.139   0.662   3.042 -0.8537  0.8382  0.1099
 4946TIP3   OH236472   0.572   4.188   3.792  0.0237 -1.0005  0.5070
 4946TIP3    H136473   0.550   4.189   3.699  1.1411  0.3045  0.2154
 4946TIP3    H236474   0.490   4.208   3.837  0.0600  1.5098 -0.3940
 4947TIP3   OH236475   5.850   2.916   3.860  0.2984 -0.0355  0.1954
 4947TIP3    H136476   5.803   2.892   3.939 -0.6353 -2.1402 -0.9311
 4947TIP3    H236477   5.935   2.873   3.868  0.6613  0.7246  0.5553
 4948TIP3   OH236478   2.807   6.407   2.673  0.0068  0.8316  0.2182
 4948TIP3    H136479   2.860   6.484   2.651  1.7268 -0.6419 -1.1976
 4948TIP3    H236480   2.870   6.335   2.674 -1.9427 -1.0412 -1.5083
 4949TIP3   OH236481   3.276   4.200   1.486  0.2316  0.2269 -0.3037
 4949TIP3    H136482   3.215   4.236   1.421  0.2439  1.5920  0.3986
 4949TIP3    H236483   3.293   4.110   1.456 -0.8767  0.3478 -1.3807
 4950TIP3   OH236484   4.062   6.343   8.295 -0.0253  0.3075 -0.3215
 4950TIP3    H136485   4.146   6.311   8.261  0.7480  1.0665  0.8105
 4950TIP3    H236486   4.001   6.271   8.279  1.1963 -0.9009  0.2686
 4951TIP3   OH236487   6.653   4.943   1.406 -0.2714 -0.2936  0.3165
 4951TIP3    H136488   6.591   4.900   1.347  0.8472 -1.6744  0.0829
 4951TIP3    H236489   6.707   4.998   1.349  0.3348 -1.0625  0.1245
 4952TIP3   OH236490   2.202   6.238   1.383  0.3137  0.0947 -0.3107
 4952TIP3    H136491   2.196   6.230   1.478 -0.0808  1.8107 -0.1613
 4952TIP3    H236492   2.126   6.290   1.358  1.0768  0.7213 -1.4203
 4953TIP3   OH236493   1.109   3.013   7.992  0.9286  0.0828  0.5158
 4953TIP3    H136494   1.043   3.081   7.976  2.3739  1.8511  1.6206
 4953TIP3    H236495   1.172   3.025   7.920  1.6957  0.6064  1.2588
 4954TIP3   OH236496   2.869   3.558   0.610  0.2656  0.3606 -0.1269
 4954TIP3    H136497   2.945   3.507   0.638  0.2768  0.6857  0.4479
 4954TIP3    H236498   2.800   3.536   0.674  0.8779  2.6336  1.4447
 4955TIP3   OH236499   3.035   3.245   0.213  0.1002 -0.1826  0.0937
 4955TIP3    H136500   2.999   3.215   0.296 -0.5867 -0.3913 -0.2700
 4955TIP3    H236501   3.127   3.218   0.215  0.3284  0.6271  1.1683
 4956TIP3   OH236502   4.837   3.211   4.092 -0.6299  0.3558  0.4360
 4956TIP3    H136503   4.753   3.168   4.081 -1.0606  0.9081  1.4523
 4956TIP3    H236504   4.896   3.142   4.123 -0.9350  0.1806  0.6177
 4957TIP3   OH236505   5.419   5.727   3.186 -0.0789 -0.1707  0.0008
 4957TIP3    H136506   5.395   5.792   3.252  0.7676  0.2299 -0.0589
 4957TIP3    H236507   5.478   5.667   3.232 -1.5841 -1.4878  0.3126
 4958TIP3   OH236508   2.124   4.324   0.322  0.2612 -0.6692  0.5392
 4958TIP3    H136509   2.159   4.270   0.393  2.0717 -0.6291 -0.2545
 4958TIP3    H236510   2.128   4.414   0.357  0.4703 -0.7168  0.6399
 4959TIP3   OH236511   1.967   5.000   0.160 -0.0866 -0.2695  0.5482
 4959TIP3    H136512   2.029   4.966   0.224  0.5738 -2.0364 -0.9426
 4959TIP3    H236513   1.884   4.958   0.181 -0.4243  0.8534  1.5535
 4960TIP3   OH236514   2.751   6.763   0.026  0.0984 -0.1110 -0.3096
 4960TIP3    H136515   2.742   6.746   0.120 -3.5808  1.3674 -0.2217
 4960TIP3    H236516   2.728   6.680  -0.016 -0.3574 -0.2005  0.1128
 4961TIP3   OH236517   0.253   3.640   0.398  0.3596 -0.1056 -0.0840
 4961TIP3    H136518   0.166   3.651   0.436 -0.0691  0.1268 -1.1085
 4961TIP3    H236519   0.271   3.724   0.355  0.7791 -0.4058 -0.5073
 4962TIP3   OH236520   0.661   0.367   8.352 -0.2298  0.1078 -0.2466
 4962TIP3    H136521   0.752   0.340   8.337  0.4381  0.4040  2.6716
 4962TIP3    H236522   0.660   0.459   8.327  0.7137  0.5099  1.0963
 4963TIP3   OH236523   6.445   1.845   1.694 -0.2903 -0.2004  0.0260
 4963TIP3    H136524   6.500   1.776   1.656 -0.5584 -0.8632  0.7955
 4963TIP3    H236525   6.374   1.797   1.738 -1.2332  0.6182 -0.5571
 4964TIP3   OH236526   5.379   2.024   8.720  1.2095 -0.1405 -0.5878
 4964TIP3    H136527   5.359   1.936   8.689 -0.4449  0.0918 -0.2708
 4964TIP3    H236528   5.419   2.011   8.806 -0.3464 -0.5651  0.1076
 4965TIP3   OH236529   0.446   6.699   1.007 -0.3225  0.2777  0.3220
 4965TIP3    H136530   0.541   6.689   1.010 -0.0567  2.3709  0.4299
 4965TIP3    H236531   0.413   6.624   1.056  1.2537 -0.5611  0.1769
 4966TIP3   OH236532   5.353   5.857   0.595  0.8102  1.2239 -0.3189
 4966TIP3    H136533   5.387   5.769   0.613  0.7528  0.9568 -1.4520
 4966TIP3    H236534   5.370   5.871   0.502 -1.8872  1.2136 -0.8768
 4967TIP3   OH236535   3.543   5.887   3.053 -0.4069 -0.1086 -0.1001
 4967TIP3    H136536   3.515   5.978   3.044 -0.1931  0.1428  1.4391
 4967TIP3    H236537   3.614   5.877   2.989 -0.1100  0.9552  0.0497
 4968TIP3   OH236538   5.720   1.383   2.921 -0.4684 -0.2059  0.6895
 4968TIP3    H136539   5.649   1.321   2.934 -0.3011 -0.5280  0.1050
 4968TIP3    H236540   5.791   1.350   2.977 -0.7902  0.1502  1.3195
 4969TIP3   OH236541   4.138   1.024   8.294  0.1026 -0.2840 -0.4103
 4969TIP3    H136542   4.048   0.990   8.294 -0.4636  1.0443  1.4826
 4969TIP3    H236543   4.191   0.949   8.321 -0.7760 -0.4754  0.9077
 4970TIP3   OH236544   6.148   4.114   1.476 -0.0754  0.0530 -0.7530
 4970TIP3    H136545   6.142   4.200   1.435  0.1944  0.1071 -0.6787
 4970TIP3    H236546   6.089   4.119   1.551  0.1430  0.2598 -0.5950
 4971TIP3   OH236547   0.155   3.165   1.305 -1.1136  0.6737 -0.3572
 4971TIP3    H136548   0.171   3.260   1.300  0.6618  0.3551 -1.6670
 4971TIP3    H236549   0.229   3.131   1.354 -0.6400 -0.2476 -1.6610
 4972TIP3   OH236550   1.135   5.569   2.503 -0.1140 -0.8429 -0.2795
 4972TIP3    H136551   1.066   5.632   2.481  0.8461  0.7936  1.0856
 4972TIP3    H236552   1.188   5.564   2.424  0.7270  1.4324  0.0502
 4973TIP3   OH236553   5.498   5.424   8.805  0.1925  0.1565  0.1499
 4973TIP3    H136554   5.537   5.488   8.745 -1.5842  0.5936 -0.6159
 4973TIP3    H236555   5.558   5.350   8.804  2.7498  2.0748  1.7276
 4974TIP3   OH236556   2.044   5.041   8.466  0.3481 -0.6580  0.2942
 4974TIP3    H136557   2.001   4.989   8.399 -0.7168 -0.6620  0.9602
 4974TIP3    H236558   1.978   5.104   8.494  0.8659 -0.4752  1.1442
 4975TIP3   OH236559   3.358   1.655   2.368 -0.8514 -0.0047 -0.5938
 4975TIP3    H136560   3.286   1.655   2.305  1.0695  0.9032 -2.9378
 4975TIP3    H236561   3.418   1.723   2.337  2.4024 -2.5679 -0.5144
 4976TIP3   OH236562   2.126   4.220   1.870 -0.6805  0.3661 -0.0080
 4976TIP3    H136563   2.092   4.234   1.959  1.0652  1.4850  0.5185
 4976TIP3    H236564   2.155   4.128   1.870 -0.6237  0.3772  0.6036
 4977TIP3   OH236565   3.303   0.985   4.018  0.2627 -0.6297 -0.2316
 4977TIP3    H136566   3.301   1.056   4.083  1.4831 -0.6490 -0.1616
 4977TIP3    H236567   3.319   0.906   4.070  1.8785 -0.5662 -0.6021
 4978TIP3   OH236568   3.837   5.340   0.187  0.3484 -0.3422  1.0026
 4978TIP3    H136569   3.823   5.341   0.282  0.5044  1.4468  1.0454
 4978TIP3    H236570   3.929   5.317   0.177  0.0240 -1.7899  1.2115
 4979TIP3   OH236571   1.303   4.709   1.978  0.3838 -0.4404 -0.5124
 4979TIP3    H136572   1.295   4.734   1.886  1.0958 -0.0804 -0.4820
 4979TIP3    H236573   1.292   4.791   2.027  0.8160 -0.4931 -0.3200
 4980TIP3   OH236574   1.409   1.051   2.029 -0.0676 -0.0372 -0.2058
 4980TIP3    H136575   1.438   1.103   2.104  1.5362  0.1692 -0.9200
 4980TIP3    H236576   1.473   0.979   2.025 -0.5014 -0.3802 -1.0083
 4981TIP3   OH236577   5.261   3.759   4.226 -0.2898 -0.3584 -0.5335
 4981TIP3    H136578   5.250   3.668   4.197 -1.2293 -0.5234  0.3084
 4981TIP3    H236579   5.337   3.791   4.176  0.8313 -1.9788  0.0488
 4982TIP3   OH236580   3.966   0.864   2.227 -0.6880  0.0805 -0.0337
 4982TIP3    H136581   3.898   0.895   2.167  0.0021  1.5762 -0.0781
 4982TIP3    H236582   3.926   0.867   2.313 -0.6268  1.1947 -0.0313
 4983TIP3   OH236583   5.857   0.708   0.655 -0.1469 -0.5701 -0.0958
 4983TIP3    H136584   5.830   0.675   0.569 -1.7741  1.5809 -0.4822
 4983TIP3    H236585   5.818   0.646   0.717 -1.2045 -0.6778 -0.8412
 4984TIP3   OH236586   0.882   5.285   0.638 -0.0568  0.1153 -0.0869
 4984TIP3    H136587   0.932   5.255   0.715 -0.9962 -0.8198  0.1971
 4984TIP3    H236588   0.803   5.324   0.675  0.3707  1.4332 -0.5331
 4985TIP3   OH236589   5.861   3.050   1.423 -0.1645 -0.2422  0.1738
 4985TIP3    H136590   5.889   2.963   1.451 -2.0438 -0.3034  2.0620
 4985TIP3    H236591   5.841   3.097   1.504 -0.4001  1.5580 -0.8505
 4986TIP3   OH236592   1.931   6.422   2.568 -0.2441  0.1166 -0.0214
 4986TIP3    H136593   2.015   6.443   2.528  0.5547 -0.8263  1.0696
 4986TIP3    H236594   1.887   6.365   2.505 -0.7492  1.7629 -1.2510
 4987TIP3   OH236595   1.759   6.269   0.119 -0.0039  0.4107 -0.2153
 4987TIP3    H136596   1.734   6.275   0.027  3.7004  0.3216 -1.4137
 4987TIP3    H236597   1.728   6.183   0.147  0.4969 -0.4005 -2.0190
 4988TIP3   OH236598   2.647   2.569   0.331 -0.1615  0.2665 -0.4430
 4988TIP3    H136599   2.668   2.475   0.331  0.4713  0.3948 -1.3531
 4988TIP3    H236600   2.667   2.597   0.421 -0.4984 -0.4922 -0.1202
 4989TIP3   OH236601   2.639   6.425   1.996 -0.2046  0.1496  0.0290
 4989TIP3    H136602   2.579   6.485   1.951 -1.0512 -0.2653  0.5862
 4989TIP3    H236603   2.715   6.418   1.937 -0.4418  1.1381 -0.4085
 4990TIP3   OH236604   5.495   0.569   1.414  0.5884 -0.1447  0.0463
 4990TIP3    H136605   5.557   0.586   1.342  4.1066  0.2961  2.8771
 4990TIP3    H236606   5.549   0.575   1.493 -3.0886 -0.2800  2.8005
 4991TIP3   OH236607   3.302   4.391   1.748 -0.3684 -0.2564  0.1271
 4991TIP3    H136608   3.293   4.305   1.708 -0.8431 -1.0625  1.8337
 4991TIP3    H236609   3.394   4.397   1.772 -0.2127 -0.0341 -0.5213
 4992TIP3   OH236610   0.632   4.354   1.111 -0.4197  0.6899 -0.3554
 4992TIP3    H136611   0.700   4.417   1.088 -0.7096  0.6488 -1.3448
 4992TIP3    H236612   0.669   4.305   1.185 -0.4487  2.4315  0.8692
 4993TIP3   OH236613   0.195   6.324   0.158 -0.5349 -0.0427 -0.1758
 4993TIP3    H136614   0.245   6.318   0.077 -0.4870  0.6037 -0.2039
 4993TIP3    H236615   0.199   6.417   0.181  0.2322 -0.3501  1.0522
 4994TIP3   OH236616   3.513   4.430   0.556 -0.3956 -0.4540 -0.6757
 4994TIP3    H136617   3.605   4.430   0.531 -0.2810 -0.4125 -0.2446
 4994TIP3    H236618   3.491   4.523   0.568 -0.3640 -0.4962 -0.2917
 4995TIP3   OH236619   2.889   6.611   1.652  0.2396  0.1139 -0.4370
 4995TIP3    H136620   2.840   6.665   1.589 -1.1504 -1.7921 -1.0599
 4995TIP3    H236621   2.981   6.631   1.634 -0.1844  0.7808 -2.0090
 4996TIP3   OH236622   0.493   2.355   1.828  0.2255 -0.1191 -0.0888
 4996TIP3    H136623   0.451   2.399   1.754 -2.6916  0.8954  1.9749
 4996TIP3    H236624   0.429   2.360   1.898  2.6520 -1.4206  2.4269
 4997TIP3   OH236625   6.761   5.108   2.878 -0.3362  0.2424 -0.6029
 4997TIP3    H136626   6.818   5.040   2.842  0.5388  0.7399 -0.1866
 4997TIP3    H236627   6.821   5.176   2.909 -1.0581 -0.0919  1.6820
 4998TIP3   OH236628   4.114   0.403   8.602  0.0446 -0.2771 -0.3149
 4998TIP3    H136629   4.085   0.399   8.511 -1.1417  2.0751 -0.1277
 4998TIP3    H236630   4.057   0.343   8.649 -0.1166 -0.6109 -0.9265
 4999TIP3   OH236631   0.419   5.711   2.976 -0.5543 -0.3667 -0.1716
 4999TIP3    H136632   0.481   5.643   3.002 -1.1120 -0.7306  0.2374
 4999TIP3    H236633   0.471   5.773   2.925 -0.3800 -2.0677 -2.2340
 5000TIP3   OH236634   0.130   6.595   0.215 -0.1933  0.2688  0.1260
 5000TIP3    H136635   0.048   6.547   0.207  0.3186 -1.1527  2.4115
 5000TIP3    H236636   0.108   6.669   0.272 -0.1875  0.6989 -0.4249
 5001TIP3   OH236637   3.439   6.146   2.938 -0.2863  0.0493  0.2603
 5001TIP3    H136638   3.430   6.092   2.859  1.1862  0.6086 -0.3295
 5001TIP3    H236639   3.421   6.235   2.909  0.6679  0.3125  0.4418
 5002TIP3   OH236640   5.527   2.199   2.391 -0.2276 -0.6546 -0.0407
 5002TIP3    H136641   5.560   2.281   2.430 -1.1034 -0.2508 -0.1093
 5002TIP3    H236642   5.567   2.130   2.444 -1.4087 -0.1216  1.6702
 5003TIP3   OH236643   0.591   3.948   8.855  0.5337  0.2083 -0.5149
 5003TIP3    H136644   0.593   3.948   8.951 -2.5469 -1.6715 -0.3149
 5003TIP3    H236645   0.655   3.882   8.830  0.4641 -0.1881  0.3161
 5004TIP3   OH236646   3.009   0.088   0.727 -0.9027 -0.0438 -0.1357
 5004TIP3    H136647   3.062   0.162   0.756  1.8899 -2.0415  0.2746
 5004TIP3    H236648   3.020   0.086   0.632 -2.4643  1.0285 -0.3875
 5005TIP3   OH236649   5.803   4.371   1.806 -0.7950 -0.0383 -0.0950
 5005TIP3    H136650   5.851   4.406   1.881 -1.1263 -0.7353  0.4458
 5005TIP3    H236651   5.711   4.387   1.827 -0.8266  1.6684 -1.3129
 5006TIP3   OH236652   5.360   2.620   3.170 -0.5013  0.0347 -0.1914
 5006TIP3    H136653   5.449   2.613   3.137 -0.1986  0.2502  0.5466
 5006TIP3    H236654   5.371   2.640   3.263 -1.3013 -3.0582  0.6666
 5007TIP3   OH236655   1.461   1.963   1.358  0.1413 -0.3857  0.1642
 5007TIP3    H136656   1.391   1.946   1.421 -0.0103  0.7195  0.3164
 5007TIP3    H236657   1.425   1.933   1.274 -0.4991  0.1069  0.2511
 5008TIP3   OH236658   0.527   0.911   8.147  0.3647 -0.5701  0.5919
 5008TIP3    H136659   0.439   0.944   8.131  0.1973 -0.6121  1.3866
 5008TIP3    H236660   0.547   0.857   8.070  0.9927  2.0313 -1.1782
 5009TIP3   OH236661   6.519   5.521   2.883  0.3254  0.1254  0.2235
 5009TIP3    H136662   6.592   5.475   2.841 -0.5267 -1.2880  0.2533
 5009TIP3    H236663   6.446   5.460   2.880 -1.0300  1.6927 -0.2179
 5010TIP3   OH236664   0.667   1.407   3.868  0.2458  0.4558  0.1886
 5010TIP3    H136665   0.750   1.365   3.848 -0.4700 -1.6590  1.3021
 5010TIP3    H236666   0.691   1.492   3.906  2.0415 -0.9670  2.5181
 5011TIP3   OH236667   2.844   0.604   1.697  0.1472 -0.1641  0.4004
 5011TIP3    H136668   2.877   0.570   1.614  1.1269  2.1670 -0.2621
 5011TIP3    H236669   2.765   0.653   1.674 -1.2619 -1.8849  1.3239
 5012TIP3   OH236670   0.605   4.742   8.752  0.7247  0.1842  0.4446
 5012TIP3    H136671   0.653   4.819   8.722  0.5376  0.1321  0.0156
 5012TIP3    H236672   0.648   4.668   8.708  0.2393  0.1390  0.0376
 5013TIP3   OH236673   2.699   5.620   1.278 -0.0845 -0.2724 -0.4531
 5013TIP3    H136674   2.616   5.603   1.323  0.1211 -1.2582 -0.4246
 5013TIP3    H236675   2.689   5.707   1.240 -2.2457 -1.4318 -2.8627
 5014TIP3   OH236676   1.406   1.554   2.214 -0.3016 -0.4561 -0.6982
 5014TIP3    H136677   1.416   1.500   2.292 -1.6058 -0.4166 -0.4773
 5014TIP3    H236678   1.473   1.521   2.153  2.1355  0.8392  1.1011
 5015TIP3   OH236679   1.609   1.717   1.028  0.0418  0.7625  0.1491
 5015TIP3    H136680   1.522   1.680   1.043  0.0211 -0.6045 -2.7814
 5015TIP3    H236681   1.666   1.667   1.086 -0.6714 -0.6534 -0.3186
 5016TIP3   OH236682   6.487   0.688   0.497  0.0429  0.0847  0.1180
 5016TIP3    H136683   6.482   0.609   0.551 -1.0998 -2.0088 -2.7843
 5016TIP3    H236684   6.578   0.691   0.467 -0.2299 -1.0212 -0.8956
 5017TIP3   OH236685   5.400   5.699   2.110  0.2909 -0.6815 -0.1412
 5017TIP3    H136686   5.425   5.694   2.018  1.7465 -1.1733  0.2508
 5017TIP3    H236687   5.330   5.635   2.120  0.5020 -1.0131 -0.7911
 5018TIP3   OH236688   6.310   6.416   8.810 -0.0536 -0.0989 -0.1225
 5018TIP3    H136689   6.247   6.344   8.807  0.0705 -0.4556  2.6007
 5018TIP3    H236690   6.363   6.405   8.731 -0.9884 -2.0960 -0.5479
 5019TIP3   OH236691   1.645   2.404   2.324 -0.1642  0.3750  0.3202
 5019TIP3    H136692   1.681   2.447   2.401 -1.3506  1.2676  0.4034
 5019TIP3    H236693   1.557   2.375   2.350 -0.6497  0.8315 -0.7303
 5020TIP3   OH236694   5.672   2.954   8.654  0.9789  0.6494  0.1277
 5020TIP3    H136695   5.671   3.039   8.610  1.8485  1.2893  1.2859
 5020TIP3    H236696   5.667   2.974   8.747 -3.5468 -0.7726  0.4025
 5021TIP3   OH236697   3.110   1.286   2.592  0.3248 -0.3598 -1.0019
 5021TIP3    H136698   3.198   1.250   2.587  0.5664  0.1847 -0.7822
 5021TIP3    H236699   3.058   1.233   2.531  0.4996 -1.5411 -0.1473
 5022TIP3   OH236700   3.783   5.099   8.515 -0.2156  0.1052  0.9339
 5022TIP3    H136701   3.770   5.124   8.424 -1.7098 -1.0603  0.7755
 5022TIP3    H236702   3.872   5.062   8.518  0.2219  1.0760  0.1902
 5023TIP3   OH236703   1.380   3.804   2.229  0.2422  0.2451  0.2196
 5023TIP3    H136704   1.446   3.873   2.233  0.0323  0.4283  0.6065
 5023TIP3    H236705   1.429   3.722   2.240  0.5726  0.2794 -0.8839
 5024TIP3   OH236706   0.421   0.298   0.823  0.4431  0.1151 -0.1900
 5024TIP3    H136707   0.490   0.238   0.853 -2.3589 -3.3541 -0.0735
 5024TIP3    H236708   0.352   0.289   0.888 -1.5995  0.5244 -2.1927
 5025TIP3   OH236709   0.218   1.074   2.891 -0.4704 -0.3288  0.2853
 5025TIP3    H136710   0.142   1.026   2.924 -1.0201  0.6823  0.5552
 5025TIP3    H236711   0.249   1.124   2.966 -1.0155  1.0972 -0.3811
 5026TIP3   OH236712   1.697   0.597   2.166 -0.0022 -0.4042 -0.2344
 5026TIP3    H136713   1.638   0.544   2.220  0.3668 -1.4238 -0.8087
 5026TIP3    H236714   1.770   0.619   2.225 -1.2283  1.4851  0.7073
 5027TIP3   OH236715   1.129   5.290   8.202  0.0818 -0.2235  0.4570
 5027TIP3    H136716   1.118   5.372   8.154  0.3625  1.4460  3.0345
 5027TIP3    H236717   1.042   5.252   8.207 -0.4141  0.9317  0.8370
 5028TIP3   OH236718   4.182   5.517   8.602 -0.4019 -0.1061 -0.0060
 5028TIP3    H136719   4.169   5.443   8.661  0.4482 -0.5660 -0.3650
 5028TIP3    H236720   4.188   5.477   8.515  0.3151  0.3424 -0.1769
 5029TIP3   OH236721   2.725   3.975   1.055  0.3881  0.1121  0.1776
 5029TIP3    H136722   2.706   3.903   1.116  2.7812 -0.5456  0.2379
 5029TIP3    H236723   2.726   3.933   0.969 -1.5210  0.7686 -0.2245
 5030TIP3   OH236724   2.990   5.649   0.792 -0.0098  0.1697 -0.0496
 5030TIP3    H136725   2.926   5.578   0.800 -0.1205 -0.1136 -2.5835
 5030TIP3    H236726   3.001   5.682   0.881 -1.9029 -1.3237  0.8029
 5031TIP3   OH236727   4.575   0.372   3.152 -1.0058  0.5822 -0.5087
 5031TIP3    H136728   4.662   0.370   3.111 -0.4989  0.3677  0.5206
 5031TIP3    H236729   4.593   0.391   3.244 -2.0269  0.1425 -0.1998
 5032TIP3   OH236730   3.216   5.967   1.432  0.1991  0.0486 -0.0592
 5032TIP3    H136731   3.306   5.935   1.429  0.0200 -0.4196 -0.8801
 5032TIP3    H236732   3.223   6.060   1.412  0.2850 -0.5301 -3.2185
 5033TIP3   OH236733   4.902   2.453   2.144  0.3576  0.8173  0.0491
 5033TIP3    H136734   4.891   2.390   2.073  2.2021  2.1365 -1.4965
 5033TIP3    H236735   4.826   2.510   2.138 -0.5380 -0.2782  0.4931
 5034TIP3   OH236736   2.530   1.077   0.328  0.2623  0.7266 -0.3808
 5034TIP3    H136737   2.462   1.143   0.313  0.2983  0.3050 -2.7335
 5034TIP3    H236738   2.577   1.072   0.245  0.8464 -1.6001  0.0308
 5035TIP3   OH236739   3.930   0.217   8.393  0.2660  0.0430 -0.1678
 5035TIP3    H136740   4.009   0.260   8.359  0.8274  0.1863  1.2650
 5035TIP3    H236741   3.861   0.284   8.385  0.7627  0.6470  0.5215
 5036TIP3   OH236742   4.696   5.602   0.773 -0.5246  0.0392  0.3157
 5036TIP3    H136743   4.702   5.570   0.683  0.7934  0.3672  0.2669
 5036TIP3    H236744   4.787   5.613   0.801 -0.8655 -1.4901  2.2282
 5037TIP3   OH236745   2.517   4.611   0.906  0.1215 -0.6064  0.1529
 5037TIP3    H136746   2.501   4.703   0.928 -3.9857 -1.4340  1.3718
 5037TIP3    H236747   2.554   4.574   0.987  0.0535 -0.4018  0.2793
 5038TIP3   OH236748   3.170   0.294   0.839  0.6020  0.3907 -0.6870
 5038TIP3    H136749   3.256   0.253   0.838  1.3292  1.8072  0.2997
 5038TIP3    H236750   3.185   0.382   0.804 -0.3935  0.7333 -0.2884
 5039TIP3   OH236751   3.242   5.419   1.702  0.1166 -0.0697  0.9277
 5039TIP3    H136752   3.200   5.505   1.698 -1.0760 -0.5929  1.6327
 5039TIP3    H236753   3.321   5.429   1.649  0.5704  1.7656  1.8350
 5040TIP3   OH236754   0.257   1.555   0.275 -0.3865  0.5615  0.2401
 5040TIP3    H136755   0.286   1.581   0.363 -0.2552  1.3318 -0.0290
 5040TIP3    H236756   0.183   1.612   0.257  0.2459  1.1312 -0.5834
 5041TIP3   OH236757   2.823   6.159   3.415 -0.0811  0.5076  0.4877
 5041TIP3    H136758   2.860   6.078   3.382  0.7613  0.3748  1.6794
 5041TIP3    H236759   2.794   6.206   3.337 -0.4364 -0.8549 -0.2283
 5042TIP3   OH236760   3.032   3.639   2.984 -0.3604 -0.1250  0.5603
 5042TIP3    H136761   2.971   3.643   3.057 -1.0497 -1.4634  0.0953
 5042TIP3    H236762   2.980   3.665   2.907 -0.0549 -0.2017  0.3243
 5043TIP3   OH236763   0.622   2.275   2.096 -0.1307 -0.2651  0.4120
 5043TIP3    H136764   0.547   2.307   2.045 -0.4227 -1.5008  0.0099
 5043TIP3    H236765   0.626   2.333   2.172 -3.2853 -1.7576  1.9225
 5044TIP3   OH236766   6.742   5.924   0.085  0.2493  0.2806  0.0948
 5044TIP3    H136767   6.771   5.921   0.176 -1.7618  1.1662  0.8258
 5044TIP3    H236768   6.747   5.833   0.055  1.3688  0.0509  0.9289
 5045TIP3   OH236769   3.607   6.739   2.737 -0.0444  0.5788 -0.0136
 5045TIP3    H136770   3.585   6.648   2.758 -0.8374  1.4606  3.4872
 5045TIP3    H236771   3.529   6.772   2.692 -0.2611 -0.1194 -0.1639
 5046TIP3   OH236772   3.077   6.533   1.232  0.4300 -0.2050  0.0519
 5046TIP3    H136773   3.149   6.472   1.213  0.5738 -0.5342  1.5285
 5046TIP3    H236774   3.088   6.603   1.168  0.2604 -1.6940 -1.7016
 5047TIP3   OH236775   6.688   6.683   1.132  0.0402 -0.5511  0.2590
 5047TIP3    H136776   6.608   6.726   1.161  0.3080 -0.5300  0.9691
 5047TIP3    H236777   6.696   6.708   1.040 -0.9974 -0.8971  0.0535
 5048TIP3   OH236778   6.535   5.684   2.478  0.0802 -0.4059  0.0087
 5048TIP3    H136779   6.628   5.669   2.495 -0.1222 -0.0180  1.6184
 5048TIP3    H236780   6.490   5.612   2.522 -0.4978  0.7978  1.4736
 5049TIP3   OH236781   2.410   5.876   0.102  0.0912 -0.1868  0.5776
 5049TIP3    H136782   2.500   5.909   0.109  1.0373 -2.1309 -1.2295
 5049TIP3    H236783   2.415   5.807   0.036 -2.7633 -0.3567  0.4204
 5050TIP3   OH236784   4.403   0.376   2.844 -0.3004  0.0741  0.2151
 5050TIP3    H136785   4.412   0.282   2.827 -0.1701  0.4070 -1.8566
 5050TIP3    H236786   4.387   0.382   2.938 -0.2936 -2.0159  0.4000
 5051TIP3   OH236787   4.253   1.183   7.832 -0.2016 -0.0020  0.5053
 5051TIP3    H136788   4.287   1.157   7.918 -0.1348  1.4388  0.9400
 5051TIP3    H236789   4.261   1.278   7.831  0.8356 -0.0554 -1.5452
 5052TIP3   OH236790   1.401   5.580   3.034 -0.9456  0.0960 -0.2653
 5052TIP3    H136791   1.312   5.616   3.040 -0.2495  1.8310  0.1160
 5052TIP3    H236792   1.410   5.554   2.943 -1.8155 -0.0433 -0.3223
 5053TIP3   OH236793   5.221   1.120   0.336 -0.0284 -0.5159  0.2499
 5053TIP3    H136794   5.305   1.165   0.324 -0.7736  0.9817  0.3263
 5053TIP3    H236795   5.228   1.079   0.422  0.1938  0.6650  0.8249
 5054TIP3   OH236796   6.695   6.322   4.186  0.0574  0.2743 -0.0324
 5054TIP3    H136797   6.635   6.396   4.195 -0.9788 -0.7054  1.6682
 5054TIP3    H236798   6.646   6.257   4.136  0.2399  0.0260  0.1068
 5055TIP3   OH236799   3.682   2.100   8.769 -0.2305 -0.3603 -0.5761
 5055TIP3    H136800   3.700   2.183   8.813 -1.0126  0.1147 -1.1042
 5055TIP3    H236801   3.744   2.098   8.696  0.2580 -0.5775 -0.1590
 5056TIP3   OH236802   1.664   1.091   0.026  0.7416 -0.1350 -0.2637
 5056TIP3    H136803   1.607   1.017   0.048  0.9965  0.1288  1.4960
 5056TIP3    H236804   1.688   1.078  -0.065 -1.4908 -0.6781 -0.8210
 5057TIP3   OH236805   1.693   2.428   8.759  0.0232  0.2074 -0.2965
 5057TIP3    H136806   1.606   2.467   8.771 -0.5846 -1.1874 -0.0228
 5057TIP3    H236807   1.728   2.473   8.681 -1.2766  0.2104 -0.9140
 5058TIP3   OH236808   2.956   3.388   0.006  0.1200 -0.0424  0.2899
 5058TIP3    H136809   2.899   3.331  -0.046  2.3245 -1.0531 -1.2184
 5058TIP3    H236810   2.984   3.333   0.080  1.6934 -0.7748 -0.7880
 5059TIP3   OH236811   3.324   1.361   1.091  0.1806  0.0572 -0.5908
 5059TIP3    H136812   3.235   1.361   1.056 -0.5883  0.5865  1.2356
 5059TIP3    H236813   3.312   1.354   1.186  2.0803  0.4942 -0.2827
 5060TIP3   OH236814   6.308   2.322   4.005 -0.9069  0.0272 -0.4490
 5060TIP3    H136815   6.334   2.410   3.978  0.7899  0.3163  1.8222
 5060TIP3    H236816   6.217   2.332   4.034 -1.1620  0.7135 -1.4315
 5061TIP3   OH236817   5.859   1.618   8.674 -0.1154 -0.7623 -0.5726
 5061TIP3    H136818   5.877   1.691   8.615  0.3522 -1.4753 -1.3312
 5061TIP3    H236819   5.778   1.642   8.719  0.9621  1.0570  0.5321
 5062TIP3   OH236820   0.056   0.449   0.142 -0.0703  0.8866 -0.0844
 5062TIP3    H136821   0.140   0.494   0.152  0.4616  0.0681 -0.7478
 5062TIP3    H236822   0.037   0.414   0.229  1.0418 -0.2043 -0.2454
 5063TIP3   OH236823   0.945   3.412   3.878  0.1089 -0.6373  0.0381
 5063TIP3    H136824   0.913   3.481   3.820  1.8839 -0.7696 -1.1783
 5063TIP3    H236825   1.040   3.420   3.874  0.3156 -2.3645  0.8408
 5064TIP3   OH236826   2.728   5.372   1.373 -0.3392  0.2367  0.0038
 5064TIP3    H136827   2.644   5.334   1.398 -1.1244  1.5189 -0.5888
 5064TIP3    H236828   2.705   5.445   1.316  1.1921  0.5439 -0.2566
 5065TIP3   OH236829   3.080   1.778   3.573  0.4480 -0.0733 -0.3499
 5065TIP3    H136830   3.056   1.864   3.538 -0.9919 -0.4098 -0.2425
 5065TIP3    H236831   3.173   1.787   3.595  0.8683  0.8266 -2.2333
 5066TIP3   OH236832   4.928   2.595   1.886 -0.2236 -0.0535  0.1300
 5066TIP3    H136833   4.853   2.584   1.828 -0.4134  0.3360  0.2994
 5066TIP3    H236834   4.923   2.686   1.916  1.1784  0.4590 -1.0499
 5067TIP3   OH236835   3.749   5.239   3.936  0.2996  0.4028  0.1026
 5067TIP3    H136836   3.786   5.276   4.016  0.9188 -0.4607  0.2321
 5067TIP3    H236837   3.795   5.156   3.925 -0.2276  0.2223 -0.8117
 5068TIP3   OH236838   2.241   3.354   1.022  0.2992  0.1914 -0.6173
 5068TIP3    H136839   2.171   3.295   0.992 -0.8329  0.6472  0.9658
 5068TIP3    H236840   2.222   3.437   0.977  1.2824 -0.3227 -2.0452
 5069TIP3   OH236841   4.341   4.418   3.347  0.3666 -0.0009  0.2041
 5069TIP3    H136842   4.402   4.482   3.382  1.2516 -0.2563 -0.8350
 5069TIP3    H236843   4.255   4.459   3.355  0.7325  0.5858  1.1648
 5070TIP3   OH236844   5.136   4.713   0.566 -0.3916 -0.1269 -0.4443
 5070TIP3    H136845   5.186   4.646   0.612  0.3803  0.3697 -0.5449
 5070TIP3    H236846   5.134   4.683   0.475  0.5109  0.2886 -0.6166
 5071TIP3   OH236847   2.882   6.070   2.345 -0.6015 -0.2455  0.3496
 5071TIP3    H136848   2.823   6.117   2.403  1.2040  4.3559 -1.1297
 5071TIP3    H236849   2.830   6.054   2.266 -1.1516 -0.5105  0.7571
 5072TIP3   OH236850   1.221   1.882   0.077 -0.2692 -0.1811 -0.1485
 5072TIP3    H136851   1.262   1.930   0.005 -1.0457  0.6872 -0.0352
 5072TIP3    H236852   1.288   1.879   0.145 -0.6721  2.1342  0.4322
 5073TIP3   OH236853   6.429   5.142   1.096 -1.0898  0.1444  0.0440
 5073TIP3    H136854   6.495   5.209   1.077 -0.4366 -0.8951 -1.5605
 5073TIP3    H236855   6.383   5.130   1.013 -0.6179 -1.9739  0.0357
 5074TIP3   OH236856   5.954   1.086   2.275  0.1969 -0.1858 -0.2422
 5074TIP3    H136857   5.883   1.049   2.327 -0.6005  1.0144 -0.4335
 5074TIP3    H236858   6.033   1.070   2.327 -0.5104  0.5325  1.1175
 5075TIP3   OH236859   2.211   3.767   1.906  0.3011 -0.0828  0.0697
 5075TIP3    H136860   2.148   3.740   1.839 -1.3509  1.8915  0.7182
 5075TIP3    H236861   2.245   3.685   1.941  0.2864 -1.1807 -2.2968
 5076TIP3   OH236862   6.073   0.513   0.346 -0.7689 -0.2256 -0.3318
 5076TIP3    H136863   6.074   0.439   0.284 -0.3810 -1.0340  0.6030
 5076TIP3    H236864   6.018   0.483   0.418 -2.0609  1.1058 -0.7316
 5077TIP3   OH236865   4.515   4.167   0.160 -0.0604  0.1409 -0.3404
 5077TIP3    H136866   4.547   4.146   0.072 -1.1630 -0.3356 -0.6437
 5077TIP3    H236867   4.433   4.118   0.168  0.3976 -0.4189  1.2326
 5078TIP3   OH236868   0.898   6.029   0.189 -0.2689  0.6704 -0.2151
 5078TIP3    H136869   0.808   6.052   0.213  0.7942  3.8809  1.2479
 5078TIP3    H236870   0.906   6.056   0.098  0.0715  3.8178  0.6266
 5079TIP3   OH236871   2.131   0.555   0.891 -0.3545 -0.4926  0.0185
 5079TIP3    H136872   2.182   0.534   0.813  1.1001 -0.8768  1.0429
 5079TIP3    H236873   2.137   0.650   0.898  0.0547 -0.5184  0.0263
 5080TIP3   OH236874   1.210   2.742   8.442  0.6966 -0.5021 -0.2630
 5080TIP3    H136875   1.119   2.768   8.427  1.1678  1.5878  0.1251
 5080TIP3    H236876   1.238   2.702   8.359 -0.6281 -1.3612 -0.3075
 5081TIP3   OH236877   3.407   5.101   1.479 -0.0082 -0.3335 -0.4015
 5081TIP3    H136878   3.418   5.047   1.557 -0.4884 -0.7115 -0.5975
 5081TIP3    H236879   3.321   5.142   1.490  0.2516  0.2248 -0.3633
 5082TIP3   OH236880   5.279   1.555   0.954  0.7434  0.1064  0.4818
 5082TIP3    H136881   5.260   1.552   0.860  1.5900  0.9750  0.2657
 5082TIP3    H236882   5.194   1.572   0.995  0.5421  0.8380 -0.2094
 5083TIP3   OH236883   1.603   3.074   1.900 -0.6664  0.3714  0.4911
 5083TIP3    H136884   1.613   3.118   1.984 -0.8304 -0.1702  0.7968
 5083TIP3    H236885   1.563   2.989   1.921  1.7436 -0.9247  0.1638
 5084TIP3   OH236886   0.498   6.175   3.736 -0.3046 -0.0556 -0.2451
 5084TIP3    H136887   0.420   6.127   3.763  0.0654 -0.4179  0.2000
 5084TIP3    H236888   0.519   6.231   3.811  0.1592 -0.3415 -0.1580
 5085TIP3   OH236889   1.606   4.267   8.839 -0.2612 -0.4911  0.3265
 5085TIP3    H136890   1.606   4.361   8.819  2.3147 -0.6481 -0.7646
 5085TIP3    H236891   1.690   4.252   8.882 -1.0809 -2.1573  1.4574
 5086TIP3   OH236892   4.649   0.897   8.293 -0.8384  0.3141  0.4785
 5086TIP3    H136893   4.633   0.971   8.351 -2.8627  0.6699 -0.4279
 5086TIP3    H236894   4.591   0.828   8.325  0.4284 -0.6260  0.8193
 5087TIP3   OH236895   0.724   4.183   0.286  0.4266 -0.2835 -0.9764
 5087TIP3    H136896   0.722   4.270   0.247 -0.2445 -0.8118 -2.1745
 5087TIP3    H236897   0.798   4.139   0.244  0.4721 -0.4405 -0.7336
 5088TIP3   OH236898   5.337   5.131   1.781  0.5839  0.0985 -0.2253
 5088TIP3    H136899   5.345   5.103   1.872 -1.5976  0.9010  0.2739
 5088TIP3    H236900   5.376   5.060   1.730 -0.8134 -1.8025  1.2034
 5089TIP3   OH236901   5.573   3.073   1.916 -0.1913 -0.4024 -0.0183
 5089TIP3    H136902   5.628   3.053   1.991  0.8476  1.4337 -0.2422
 5089TIP3    H236903   5.566   2.990   1.868  3.6196 -0.4682 -0.7697
 5090TIP3   OH236904   5.734   6.708   1.229  0.3267  0.4429  0.2620
 5090TIP3    H136905   5.723   6.625   1.277 -0.0530 -0.1611 -0.8331
 5090TIP3    H236906   5.659   6.711   1.170  0.0011  1.8846  0.7073
 5091TIP3   OH236907   4.805   3.432   0.411 -0.3184  0.5145  0.4225
 5091TIP3    H136908   4.785   3.456   0.501  0.6662  0.5029  0.6504
 5091TIP3    H236909   4.874   3.366   0.418 -1.0723 -0.3752 -0.2977
 5092TIP3   OH236910   0.376   2.820   0.004  0.1901 -0.3150 -0.5063
 5092TIP3    H136911   0.400   2.890  -0.057  1.8103  0.0073  0.4741
 5092TIP3    H236912   0.329   2.864   0.074  1.2661 -0.1768  0.1433
 5093TIP3   OH236913   3.377   2.536   1.225 -0.0108  0.2657 -0.1476
 5093TIP3    H136914   3.468   2.562   1.212 -0.3871  0.7028 -2.3498
 5093TIP3    H236915   3.328   2.591   1.164 -1.5570 -1.0635 -0.1584
 5094TIP3   OH236916   0.837   0.311   3.144 -0.2931 -0.0699 -0.3591
 5094TIP3    H136917   0.874   0.237   3.193  2.4074  1.8298  0.7389
 5094TIP3    H236918   0.849   0.386   3.202 -1.6846  1.4755 -1.9557
 5095TIP3   OH236919   2.011   5.965   8.119  0.0706 -0.2336 -0.0478
 5095TIP3    H136920   2.082   6.017   8.081 -0.1559  1.2526  1.4744
 5095TIP3    H236921   2.025   5.877   8.084  1.2270  0.5416 -1.6754
 5096TIP3   OH236922   5.855   5.382   1.392  0.0978  0.7503  0.8528
 5096TIP3    H136923   5.798   5.318   1.435 -0.9973 -0.0762 -1.6489
 5096TIP3    H236924   5.795   5.441   1.347  1.1552  2.4246  1.5843
 5097TIP3   OH236925   5.500   0.896   1.249  0.4535 -0.3221  0.2732
 5097TIP3    H136926   5.543   0.811   1.241  0.4829 -0.4393  1.4881
 5097TIP3    H236927   5.521   0.941   1.167  0.4423 -1.4723 -0.3913
 5098TIP3   OH236928   0.261   1.369   1.110 -0.2170  0.0014  0.9362
 5098TIP3    H136929   0.184   1.416   1.077 -0.1896 -0.5067  0.1154
 5098TIP3    H236930   0.335   1.424   1.084 -0.2930  0.5231  1.7827
 5099TIP3   OH236931   0.333   3.878   1.579  0.3207  0.2183  0.6334
 5099TIP3    H136932   0.267   3.939   1.547 -1.0237 -0.1600  2.5694
 5099TIP3    H236933   0.412   3.932   1.590 -0.3188  1.1960  0.5320
 5100TIP3   OH236934   5.810   6.549   2.265  0.6931  0.5561  0.0244
 5100TIP3    H136935   5.806   6.597   2.182  1.4839  0.7440  0.0903
 5100TIP3    H236936   5.843   6.612   2.328  0.8969  0.1785  0.3002
 5101TIP3   OH236937   4.960   2.472   0.878  0.6215  0.0954 -0.6148
 5101TIP3    H136938   4.996   2.389   0.908  1.8898  0.7751 -0.1836
 5101TIP3    H236939   4.904   2.449   0.804 -0.2402 -1.2916  0.4202
 5102TIP3   OH236940   5.055   5.306   8.881 -0.3819 -0.1199 -0.4968
 5102TIP3    H136941   4.962   5.309   8.902 -0.2326  1.2646  0.0708
 5102TIP3    H236942   5.079   5.397   8.862  1.2375 -0.1227  1.2130
 5103TIP3   OH236943   0.137   4.384   1.343 -0.0727  0.4680 -0.0679
 5103TIP3    H136944   0.173   4.358   1.428 -0.4006 -0.4734 -0.1985
 5103TIP3    H236945   0.205   4.439   1.304  1.3375 -1.3711 -0.3750
 5104TIP3   OH236946   4.435   0.591   0.869 -0.4410 -0.3179 -0.4430
 5104TIP3    H136947   4.374   0.585   0.796 -2.1486  1.5872  0.6870
 5104TIP3    H236948   4.383   0.563   0.945  0.9044 -1.0657  0.2347
 5105TIP3   OH236949   2.507   6.037   7.945 -0.4362 -0.1610 -0.1960
 5105TIP3    H136950   2.568   5.970   7.975  2.4517  2.0466 -0.6952
 5105TIP3    H236951   2.475   6.078   8.026 -0.5327 -0.6974  0.0445
 5106TIP3   OH236952   1.093   5.725   8.742  0.4782 -0.4992  0.3046
 5106TIP3    H136953   1.000   5.746   8.727 -0.5092 -2.7540  2.5221
 5106TIP3    H236954   1.132   5.728   8.655 -1.0452  2.8573 -0.4558
 5107TIP3   OH236955   4.983   6.504   1.865 -0.0553 -0.2959  0.0491
 5107TIP3    H136956   5.060   6.542   1.909  0.8245 -1.1183 -0.7371
 5107TIP3    H236957   4.972   6.418   1.906 -0.5892 -0.1658  0.1859
 5108TIP3   OH236958   5.039   2.508   3.511 -0.3043 -0.2487 -0.2343
 5108TIP3    H136959   4.995   2.535   3.592  0.9608 -0.2182  0.4607
 5108TIP3    H236960   5.003   2.566   3.444 -1.3498 -0.2522  0.2977
 5109TIP3   OH236961   5.428   3.238   3.184 -0.4947  0.0546 -0.1196
 5109TIP3    H136962   5.453   3.199   3.100  1.2037 -0.0335  0.3913
 5109TIP3    H236963   5.338   3.266   3.171 -0.0879  0.5803 -2.1796
 5110TIP3   OH236964   2.352   2.015   1.353  0.4468 -0.5617  0.2616
 5110TIP3    H136965   2.370   1.975   1.438  0.9644 -0.9893 -0.0449
 5110TIP3    H236966   2.422   2.079   1.341 -0.5488  0.6948  0.8917
 5111TIP3   OH236967   3.987   0.186   2.813 -0.1535 -0.0741 -0.3667
 5111TIP3    H136968   3.959   0.097   2.793  0.0398 -0.3019  0.3424
 5111TIP3    H236969   4.080   0.188   2.788 -0.5066  0.3831 -1.7708
 5112TIP3   OH236970   5.216   0.603   1.466  0.3322 -0.4978  0.2301
 5112TIP3    H136971   5.219   0.624   1.560  0.2425 -0.1108  0.1443
 5112TIP3    H236972   5.299   0.558   1.450  0.2961 -0.6745  0.5217
 5113TIP3   OH236973   5.288   3.491   4.147 -0.9230 -0.0651  0.5364
 5113TIP3    H136974   5.362   3.440   4.115 -0.4676 -0.0743  1.5801
 5113TIP3    H236975   5.216   3.428   4.151 -0.8626 -0.1726  0.0042
 5114TIP3   OH236976   4.368   1.781   0.105 -0.5901 -0.1795 -0.1074
 5114TIP3    H136977   4.351   1.787   0.199  0.5455 -1.0961  0.1693
 5114TIP3    H236978   4.442   1.722   0.097 -1.6710 -1.3977 -1.6987
 5115TIP3   OH236979   1.306   6.563   1.633  0.4475 -0.4521  0.2953
 5115TIP3    H136980   1.309   6.659   1.629  0.8541 -0.1229  4.5149
 5115TIP3    H236981   1.394   6.536   1.609  1.0515  0.4425  1.4018
 5116TIP3   OH236982   2.773   1.773   0.178 -0.0498 -0.4995 -0.1081
 5116TIP3    H136983   2.766   1.831   0.102  0.5438 -0.1801  0.0795
 5116TIP3    H236984   2.741   1.688   0.147  0.9635 -0.5882 -0.9504
 5117TIP3   OH236985   5.759   6.252   3.202  0.1546 -0.0424  0.2139
 5117TIP3    H136986   5.664   6.259   3.210  0.2097  1.3559  0.0350
 5117TIP3    H236987   5.792   6.326   3.254  1.0988  0.0760 -0.5372
 5118TIP3   OH236988   1.797   1.947   8.614  0.1481  0.7516  0.0774
 5118TIP3    H136989   1.809   1.946   8.709  3.7644 -0.3551 -0.2419
 5118TIP3    H236990   1.749   1.867   8.595  0.6799  0.2220  0.8947
 5119TIP3   OH236991   0.601   3.028   2.313 -0.6825  0.1208  0.5391
 5119TIP3    H136992   0.685   3.074   2.310 -0.0759 -0.7886  2.0382
 5119TIP3    H236993   0.624   2.939   2.343 -2.1225 -0.2824  0.5181
 5120TIP3   OH236994   2.257   3.108   2.089 -0.2282 -0.0952 -0.5527
 5120TIP3    H136995   2.281   3.148   2.172  1.9736 -0.4205 -0.9739
 5120TIP3    H236996   2.206   3.030   2.113  0.4808 -0.2413  0.4999
 5121TIP3   OH236997   3.573   3.240   0.401 -0.1458 -0.7187 -0.3171
 5121TIP3    H136998   3.622   3.219   0.480 -1.1220 -0.1328  0.4732
 5121TIP3    H236999   3.596   3.331   0.382 -1.0880 -0.3505  0.2149
 5122TIP3   OH237000   3.608   1.883   1.646 -0.0521 -0.0368  0.3715
 5122TIP3    H137001   3.651   1.806   1.608  0.3986 -0.4065  1.5976
 5122TIP3    H237002   3.618   1.951   1.580 -1.2299 -1.2535 -1.1353
 5123TIP3   OH237003   1.497   4.227   2.175  0.4875  0.7858  0.1000
 5123TIP3    H137004   1.521   4.293   2.240 -0.3497 -0.8144  2.1267
 5123TIP3    H237005   1.565   4.160   2.182 -1.6528 -1.3375  2.2935
 5124TIP3   OH237006   1.701   3.048   2.351  0.0237 -0.0540 -0.2696
 5124TIP3    H137007   1.643   3.025   2.424 -0.4591  3.1739  0.5110
 5124TIP3    H237008   1.758   2.972   2.342 -1.2878 -1.4542  2.0327
 5125TIP3   OH237009   1.250   5.489   0.658  0.0233 -0.1953  0.3710
 5125TIP3    H137010   1.199   5.561   0.696  0.7447  0.7755 -0.4597
 5125TIP3    H237011   1.245   5.504   0.564 -1.1633 -2.1731  0.0656
 5126TIP3   OH237012   3.995   4.314   1.996  0.5915 -0.2727  0.3976
 5126TIP3    H137013   3.981   4.388   1.937 -1.2646 -1.1151 -0.2942
 5126TIP3    H237014   3.994   4.352   2.083  0.1111  0.5727  0.0281
 5127TIP3   OH237015   0.827   6.255   1.956  0.1971 -0.5517 -0.1869
 5127TIP3    H137016   0.843   6.301   1.873 -2.4626 -1.7350 -1.5117
 5127TIP3    H237017   0.836   6.323   2.023 -1.9462  1.6285 -1.8863
 5128TIP3   OH237018   1.173   2.657   2.019 -0.2977 -0.2831  0.5881
 5128TIP3    H137019   1.101   2.657   1.956 -1.0529  0.9647  1.4201
 5128TIP3    H237020   1.132   2.679   2.102  0.4389 -3.1934  1.8748
 5129TIP3   OH237021   0.523   0.933   0.137 -0.2492 -0.1066  0.0735
 5129TIP3    H137022   0.615   0.957   0.151 -0.9217  2.2413  0.8277
 5129TIP3    H237023   0.495   0.899   0.222  0.2503 -2.2803 -0.5541
 5130TIP3   OH237024   2.830   1.273   3.912 -0.0583 -0.7729  0.4112
 5130TIP3    H137025   2.895   1.204   3.927  1.8561  0.3017 -2.1062
 5130TIP3    H237026   2.854   1.342   3.974  0.6270 -0.7872  0.1758
 5131TIP3   OH237027   5.732   5.073   1.912  0.0522 -0.6179 -0.2016
 5131TIP3    H137028   5.814   5.076   1.962  0.0155 -1.4895 -0.0708
 5131TIP3    H237029   5.758   5.039   1.826  0.2779  1.7390 -1.1599
 5132TIP3   OH237030   2.869   4.164   2.210  0.3633 -0.2619 -0.0492
 5132TIP3    H137031   2.911   4.249   2.226 -0.5436 -0.1541  2.1887
 5132TIP3    H237032   2.881   4.116   2.292 -2.0192 -1.0063 -0.0647
 5133TIP3   OH237033   6.157   4.226   2.567  0.1234 -0.0447  1.0645
 5133TIP3    H137034   6.224   4.248   2.502 -0.8398  0.0612  0.0824
 5133TIP3    H237035   6.074   4.249   2.524 -0.6476 -1.5755  1.6715
 5134TIP3   OH237036   5.800   2.799   3.482  0.1687 -0.3201  0.5006
 5134TIP3    H137037   5.837   2.783   3.568 -2.4177  0.3545  1.8315
 5134TIP3    H237038   5.855   2.868   3.444  1.8714 -1.2531  1.2059
 5135TIP3   OH237039   0.354   2.769   0.375 -0.6070 -0.1389  0.1171
 5135TIP3    H137040   0.298   2.781   0.299 -1.6751 -2.3847  0.4489
 5135TIP3    H237041   0.436   2.812   0.353 -1.4383  0.6100 -1.6380
 5136TIP3   OH237042   3.489   1.595   1.377  0.1980 -0.7386 -0.7364
 5136TIP3    H137043   3.509   1.510   1.415  0.6614 -0.0926  0.4938
 5136TIP3    H237044   3.427   1.635   1.438  0.4453  0.0524 -0.9903
 5137TIP3   OH237045   3.121   5.937   8.453  0.5669 -0.6809 -0.7716
 5137TIP3    H137046   3.056   5.982   8.507  0.8921  0.4543 -1.2806
 5137TIP3    H237047   3.203   5.946   8.503  0.6563 -0.6069 -0.9321
 5138TIP3   OH237048   2.794   3.365   0.804  0.1259  0.5660 -0.1476
 5138TIP3    H137049   2.700   3.364   0.823 -0.1978 -0.9632 -1.5141
 5138TIP3    H237050   2.836   3.366   0.890 -1.1995 -2.2377  0.6535
 5139TIP3   OH237051   0.305   1.315   1.967  0.1742  0.5838 -0.4713
 5139TIP3    H137052   0.335   1.231   2.000 -2.8640 -1.3605 -2.1643
 5139TIP3    H237053   0.382   1.353   1.925  2.0429 -0.5131  1.7336
 5140TIP3   OH237054   5.511   1.744   1.826  0.3368 -0.0406  0.5546
 5140TIP3    H137055   5.583   1.697   1.784  1.3364  0.1720  1.9634
 5140TIP3    H237056   5.460   1.676   1.870  2.4484  0.1724  3.5862
 5141TIP3   OH237057   5.613   6.606   2.866  0.0632 -0.0790  0.2495
 5141TIP3    H137058   5.555   6.679   2.889 -2.4505 -1.9891  0.5239
 5141TIP3    H237059   5.694   6.624   2.913 -1.0045  1.7713  1.5244
 5142TIP3   OH237060   0.071   0.395   4.116  0.6328  0.0272  0.7315
 5142TIP3    H137061   0.137   0.442   4.066 -1.3434 -0.7132 -2.9187
 5142TIP3    H237062   0.111   0.310   4.134  1.6041  0.5232  1.0285
 5143TIP3   OH237063   3.549   1.044   1.044  0.5958 -0.0962 -0.1733
 5143TIP3    H137064   3.617   0.977   1.048 -1.3209 -2.2478 -0.9850
 5143TIP3    H237065   3.507   1.030   0.959 -1.7262  0.1577  0.8496
 5144TIP3   OH237066   4.704   0.572   0.989  0.0213  0.3103  0.6911
 5144TIP3    H137067   4.658   0.555   0.907 -0.8892 -0.7933  1.4033
 5144TIP3    H237068   4.659   0.519   1.054  1.7233 -0.0993  1.6131
 5145TIP3   OH237069   0.562   3.369   1.895  0.6537  0.1620 -0.0685
 5145TIP3    H137070   0.531   3.360   1.986 -0.2178  0.6598 -0.3046
 5145TIP3    H237071   0.488   3.341   1.842  1.5589 -1.2710 -0.6378
 5146TIP3   OH237072   2.522   6.137   8.778  0.3604 -0.0602 -0.9302
 5146TIP3    H137073   2.569   6.195   8.719  1.0203  0.5842  0.1944
 5146TIP3    H237074   2.574   6.136   8.858 -1.0096 -0.1143  0.0050
 5147TIP3   OH237075   1.123   2.278   3.956 -0.1315  0.4555 -0.5086
 5147TIP3    H137076   1.056   2.302   3.893  0.8447  0.9998 -1.3651
 5147TIP3    H237077   1.075   2.236   4.027 -1.2909  0.1999 -1.4178
 5148TIP3   OH237078   6.049   6.033   7.912 -0.1880  0.4252  0.2200
 5148TIP3    H137079   6.042   5.967   7.844 -0.2974  0.6183  0.0406
 5148TIP3    H237080   6.021   5.989   7.992 -0.1432  0.2232  0.1237
 5149TIP3   OH237081   3.864   3.284   3.651  0.7966 -0.0786  0.0243
 5149TIP3    H137082   3.810   3.290   3.573 -0.6666 -0.3164  0.9769
 5149TIP3    H237083   3.923   3.359   3.645 -0.2913  0.7620 -0.5840
 5150TIP3   OH237084   2.324   1.942   3.217  0.0231 -0.0409 -0.0653
 5150TIP3    H137085   2.242   1.918   3.261  0.4908 -3.3983 -0.7451
 5150TIP3    H237086   2.297   1.983   3.135 -0.9282  0.6149  0.5637
 5151TIP3   OH237087   4.118   0.001   0.358  0.3176 -0.6444 -0.2782
 5151TIP3    H137088   4.157   0.021   0.443 -0.1596 -1.8689  0.2625
 5151TIP3    H237089   4.189   0.009   0.295  0.6303  0.4714  0.1983
 5152TIP3   OH237090   6.424   0.704   1.805  1.2638  0.2974  0.3010
 5152TIP3    H137091   6.401   0.737   1.892  0.3701 -1.1615  0.6539
 5152TIP3    H237092   6.445   0.612   1.819 -0.7102 -0.4648 -1.2606
 5153TIP3   OH237093   1.133   6.001   1.015 -0.1734  0.3806 -0.2507
 5153TIP3    H137094   1.137   6.006   0.919 -1.9177  1.0327 -0.3122
 5153TIP3    H237095   1.198   5.933   1.037  2.7253  2.4641 -1.6131
 5154TIP3   OH237096   1.223   3.922   8.513 -0.1607 -0.1843 -0.7620
 5154TIP3    H137097   1.189   3.990   8.455  1.4759  1.8955  0.5381
 5154TIP3    H237098   1.303   3.892   8.470 -0.2120 -0.3780 -0.7235
 5155TIP3   OH237099   3.492   4.614   1.497  0.5806  0.4900 -0.3409
 5155TIP3    H137100   3.503   4.687   1.436  2.2325  0.5062 -0.0626
 5155TIP3    H237101   3.528   4.646   1.580  0.1303 -0.2095  0.1409
 5156TIP3   OH237102   4.853   4.606   3.388  0.4573 -0.1259 -0.1894
 5156TIP3    H137103   4.829   4.653   3.468 -2.7278 -0.6219 -0.7152
 5156TIP3    H237104   4.901   4.529   3.419  0.2095  0.2327  1.1550
 5157TIP3   OH237105   3.104   2.162   0.252  0.0002  0.5514  0.2365
 5157TIP3    H137106   3.143   2.209   0.325  0.2881  0.2997  0.2489
 5157TIP3    H237107   3.119   2.070   0.272 -0.1312  0.4721 -0.0234
 5158TIP3   OH237108   4.723   1.464   0.688  0.2334  0.6556  0.0319
 5158TIP3    H137109   4.800   1.408   0.696  0.9282  1.3423 -1.4278
 5158TIP3    H237110   4.681   1.434   0.607  0.0929  1.6027 -0.2518
 5159TIP3   OH237111   4.499   6.761   3.539  0.2501 -0.1728 -0.3922
 5159TIP3    H137112   4.454   6.838   3.574  0.8565 -0.5610  1.3766
 5159TIP3    H237113   4.516   6.707   3.616  2.1596 -0.8565 -1.2351
 5160TIP3   OH237114   6.418   2.995   1.099  0.0238 -0.4946  0.3682
 5160TIP3    H137115   6.466   2.925   1.056 -1.4092 -0.4195 -1.4860
 5160TIP3    H237116   6.326   2.972   1.088 -0.4767  1.4186  0.0798
 5161TIP3   OH237117   4.725   1.444   3.178  0.6790 -0.4724 -0.7139
 5161TIP3    H137118   4.691   1.492   3.254 -0.6362 -1.4579 -0.6479
 5161TIP3    H237119   4.744   1.357   3.212 -0.4499 -1.0942 -1.6208
 5162TIP3   OH237120   0.211   2.936   0.964 -0.0432  0.1477 -0.0006
 5162TIP3    H137121   0.291   2.981   0.991 -0.0114  0.6262 -0.8606
 5162TIP3    H237122   0.190   2.973   0.878 -0.1465 -1.3030 -0.6355
 5163TIP3   OH237123   3.085   4.731   8.241  0.3341 -0.7287 -0.1472
 5163TIP3    H137124   2.996   4.736   8.205  0.6701  2.9251 -0.9186
 5163TIP3    H237125   3.073   4.726   8.336 -0.7995  0.6862 -0.1769
 5164TIP3   OH237126   0.840   5.800   1.343 -0.0679  0.7166  0.1621
 5164TIP3    H137127   0.818   5.765   1.429  0.7986  1.0991  0.5517
 5164TIP3    H237128   0.766   5.856   1.320 -1.4242 -1.2311 -0.4249
 5165TIP3   OH237129   6.739   3.002   2.021  0.2879 -0.3440 -0.1865
 5165TIP3    H137130   6.704   2.969   2.104  0.1604  0.4879  0.1016
 5165TIP3    H237131   6.791   2.930   1.986 -1.2963 -1.4177 -0.3722
 5166TIP3   OH237132   5.105   0.107   2.221  0.1958  0.2172  0.2131
 5166TIP3    H137133   5.152   0.040   2.171 -1.7945 -0.0578 -1.4843
 5166TIP3    H237134   5.111   0.079   2.312  2.3593 -0.3263 -0.0500
 5167TIP3   OH237135   5.105   6.240   8.671 -0.5227  0.0582 -0.1674
 5167TIP3    H137136   5.190   6.219   8.632 -0.3940  0.2617  0.0055
 5167TIP3    H237137   5.056   6.157   8.668 -1.0229  0.3708 -2.0355
 5168TIP3   OH237138   1.253   6.243   8.279  0.1059 -0.0327  0.1082
 5168TIP3    H137139   1.341   6.239   8.240 -0.1273 -0.7637 -0.3788
 5168TIP3    H237140   1.257   6.316   8.340  0.7993  0.4898 -0.5401
 5169TIP3   OH237141   2.321   5.580   2.490 -0.5946 -0.0014 -0.2622
 5169TIP3    H137142   2.332   5.658   2.435  0.5495  0.2811  0.3367
 5169TIP3    H237143   2.263   5.523   2.439  0.4522  0.2366 -1.8020
 5170TIP3   OH237144   0.630   0.966   2.704  0.6043  0.2933  0.3013
 5170TIP3    H137145   0.566   0.897   2.684  0.6620  0.5645 -0.8904
 5170TIP3    H237146   0.577   1.044   2.721  0.5922  0.4076 -0.2374
 5171TIP3   OH237147   2.659   2.708   1.884  0.0571  0.0600  0.0336
 5171TIP3    H137148   2.621   2.641   1.827 -0.4447  0.4943 -0.1547
 5171TIP3    H237149   2.606   2.705   1.964 -2.1705  2.4320 -1.1982
 5172TIP3   OH237150   4.733   5.783   2.723  0.0381  0.9775  0.3069
 5172TIP3    H137151   4.678   5.747   2.654  1.8563  0.0733 -0.7363
 5172TIP3    H237152   4.822   5.774   2.690  0.8561  2.0808  2.0731
 5173TIP3   OH237153   6.333   3.233   0.937  0.0294  0.7615  0.4629
 5173TIP3    H137154   6.366   3.187   1.013 -0.8348 -1.4461 -0.4181
 5173TIP3    H237155   6.249   3.191   0.917  0.4513  0.8945 -1.9658
 5174TIP3   OH237156   3.015   6.325   3.539 -0.5272  0.3526  0.3881
 5174TIP3    H137157   2.936   6.297   3.493 -0.4931 -0.0000  0.5355
 5174TIP3    H237158   3.078   6.255   3.522 -0.5376  0.1832  1.0208
 5175TIP3   OH237159   0.332   4.421   8.087  0.0255 -0.2109  0.4817
 5175TIP3    H137160   0.416   4.419   8.040  0.6464 -2.3908  1.5583
 5175TIP3    H237161   0.296   4.333   8.077 -1.4502  0.2709  1.2444
 5176TIP3   OH237162   6.002   4.066   0.384  0.0090  0.2029 -0.0762
 5176TIP3    H137163   5.973   3.996   0.324 -1.5111  1.8216 -1.3462
 5176TIP3    H237164   6.040   4.132   0.326  1.0921  0.6069  1.0681
 5177TIP3   OH237165   3.603   0.384   7.885  0.0783  0.8467  0.4061
 5177TIP3    H137166   3.622   0.464   7.836  1.0566  0.9961  1.0117
 5177TIP3    H237167   3.537   0.339   7.832  2.2227  0.2140 -1.8960
 5178TIP3   OH237168   2.215   1.534   3.630  0.0975 -0.3148  0.1220
 5178TIP3    H137169   2.139   1.590   3.647 -1.0646 -1.9720  0.6399
 5178TIP3    H237170   2.274   1.552   3.703 -0.7324 -0.5212  0.8715
 5179TIP3   OH237171   6.302   5.614   2.298 -0.1941 -0.5385 -0.2682
 5179TIP3    H137172   6.373   5.675   2.277 -0.5343 -0.5716 -1.6187
 5179TIP3    H237173   6.303   5.550   2.227 -0.1228 -1.8874  0.9086
 5180TIP3   OH237174   5.762   0.322   1.555 -0.3094 -0.1317 -0.0419
 5180TIP3    H137175   5.850   0.358   1.551 -0.9954  1.5589 -1.1518
 5180TIP3    H237176   5.739   0.305   1.464 -0.7093 -1.7108  0.3238
 5181TIP3   OH237177   3.240   5.345   2.280  0.4837  0.3903 -0.0617
 5181TIP3    H137178   3.312   5.363   2.219  0.7874  1.5003  0.5915
 5181TIP3    H237179   3.174   5.302   2.227  1.4573 -0.2710 -0.7766
 5182TIP3   OH237180   2.476   6.356   3.225  0.5938 -0.1607  0.6520
 5182TIP3    H137181   2.403   6.374   3.166  0.4455  0.7834  1.0994
 5182TIP3    H237182   2.436   6.314   3.301  0.2341  1.7435  1.5881
 5183TIP3   OH237183   3.344   6.434   1.125  0.0930 -0.2826  0.0969
 5183TIP3    H137184   3.426   6.480   1.145  0.1514 -0.5513  0.4862
 5183TIP3    H237185   3.316   6.470   1.041  1.8435 -1.8939 -1.2481
 5184TIP3   OH237186   5.416   6.420   3.311 -1.0425 -0.1303 -0.0340
 5184TIP3    H137187   5.366   6.467   3.377  0.3188  0.5051  0.5862
 5184TIP3    H237188   5.490   6.477   3.291 -1.1114 -0.5694 -1.6979
 5185TIP3   OH237189   2.774   1.370   1.342  0.1051 -0.0257 -0.2028
 5185TIP3    H137190   2.850   1.334   1.298 -1.0343 -2.1468 -0.5567
 5185TIP3    H237191   2.807   1.400   1.427  1.4948  0.0473 -0.7523
 5186TIP3   OH237192   3.834   0.763   8.762  0.3754 -0.0145  0.3657
 5186TIP3    H137193   3.768   0.784   8.695  1.3321  0.2340 -0.5119
 5186TIP3    H237194   3.860   0.848   8.797  1.2445  0.0084 -0.2928
 5187TIP3   OH237195   1.797   6.344   1.637 -0.2351 -0.2059  0.1100
 5187TIP3    H137196   1.724   6.405   1.627  0.6928  1.0084  0.6079
 5187TIP3    H237197   1.820   6.320   1.547 -0.9385 -0.2512 -0.0683
 5188TIP3   OH237198   5.035   6.179   1.493  0.5011 -0.1879  0.1462
 5188TIP3    H137199   4.976   6.200   1.420 -0.4378  0.3913  1.0555
 5188TIP3    H237200   5.056   6.087   1.481  0.4337 -0.0788 -0.9098
 5189TIP3   OH237201   2.441   4.974   3.015 -0.5115  0.5184 -0.8117
 5189TIP3    H137202   2.525   4.928   3.022 -0.4181  0.9097  1.2195
 5189TIP3    H237203   2.377   4.914   3.053 -0.7539  1.1462 -0.2024
 5190TIP3   OH237204   5.896   6.041   0.763  0.1030 -0.0791  0.1041
 5190TIP3    H137205   5.855   6.091   0.693 -0.6514  1.3273  1.4870
 5190TIP3    H237206   5.951   6.104   0.809  0.7915 -1.0353  0.6331
 5191TIP3   OH237207   0.729   6.674   2.804  0.1256 -0.1273  0.4583
 5191TIP3    H137208   0.692   6.727   2.874  1.1629  0.0093  0.9178
 5191TIP3    H237209   0.734   6.585   2.840  2.1924  0.2447  1.1864
 5192TIP3   OH237210   1.264   2.861   2.345 -0.5571  0.1477 -0.2568
 5192TIP3    H137211   1.198   2.842   2.278 -0.0803 -2.7230 -0.0317
 5192TIP3    H237212   1.216   2.854   2.427 -0.2943 -0.5864 -0.1549
 5193TIP3   OH237213   6.205   4.470   2.751 -0.3506 -0.7611 -0.5874
 5193TIP3    H137214   6.299   4.451   2.753 -0.4618 -1.6064 -1.8042
 5193TIP3    H237215   6.166   4.391   2.714 -1.3382  0.2654 -1.8325
 5194TIP3   OH237216   4.156   3.446   3.353  0.4628  0.7538 -0.5400
 5194TIP3    H137217   4.138   3.539   3.339  0.0668  1.1669  2.1792
 5194TIP3    H237218   4.071   3.408   3.373  1.0840  0.7989  2.7969
 5195TIP3   OH237219   3.658   4.726   2.374 -0.2804  0.5036  0.0413
 5195TIP3    H137220   3.676   4.693   2.462  1.1603  0.8943 -0.0791
 5195TIP3    H237221   3.662   4.648   2.318  0.4374  0.4757  0.1188
 5196TIP3   OH237222   4.524   3.656   0.094 -1.0430  0.0717  0.7146
 5196TIP3    H137223   4.585   3.594   0.053 -1.0023  1.3564 -1.3078
 5196TIP3    H237224   4.557   3.666   0.183  1.0675 -0.1210  0.0158
 5197TIP3   OH237225   1.003   5.360   8.642  0.0549  0.2611  0.2193
 5197TIP3    H137226   1.020   5.378   8.734  1.5055  0.0452  0.0142
 5197TIP3    H237227   0.927   5.414   8.621 -1.2849 -0.8455  1.9124
 5198TIP3   OH237228   3.154   1.621   8.783 -0.2054 -0.1446  0.7306
 5198TIP3    H137229   3.084   1.582   8.836 -0.2987  0.6992  1.2522
 5198TIP3    H237230   3.198   1.681   8.843  0.7723 -0.4309  0.3175
 5199TIP3   OH237231   5.256   6.093   2.805 -0.0191 -0.4784  0.1213
 5199TIP3    H137232   5.187   6.118   2.865 -0.6077 -0.6652 -0.4617
 5199TIP3    H237233   5.248   6.155   2.732  0.0784 -0.8406 -0.2011
 5200TIP3   OH237234   6.174   1.858   2.744  0.9132  0.1811 -0.2418
 5200TIP3    H137235   6.174   1.848   2.648  0.2414  0.5719 -0.2841
 5200TIP3    H237236   6.212   1.776   2.776  0.5958 -0.2051 -0.8244
 5201TIP3   OH237237   1.076   5.829   0.332 -0.2301  0.1603 -0.9053
 5201TIP3    H137238   0.989   5.842   0.367  0.2218  0.0126  0.3132
 5201TIP3    H237239   1.062   5.785   0.248 -1.2802 -0.6672 -0.3168
 5202TIP3   OH237240   6.776   0.990   8.119  0.4953  0.2710 -0.1584
 5202TIP3    H137241   6.846   1.047   8.090  1.5273 -1.0093 -0.2773
 5202TIP3    H237242   6.781   0.914   8.060 -0.6260 -0.1008  0.1942
 5203TIP3   OH237243   4.457   2.638   2.106  0.0466 -0.0895  0.0673
 5203TIP3    H137244   4.366   2.670   2.103 -0.1468 -0.6936 -1.0246
 5203TIP3    H237245   4.507   2.702   2.056  0.2340  0.2342  0.6552
 5204TIP3   OH237246   3.149   6.461   2.838  0.2065 -0.2291 -0.0460
 5204TIP3    H137247   3.224   6.451   2.897  0.5771 -0.5177 -0.5597
 5204TIP3    H237248   3.074   6.437   2.892  0.7097 -2.4015 -0.1931
 5205TIP3   OH237249   6.019   1.243   1.640  0.7973 -0.3356 -0.2530
 5205TIP3    H137250   6.017   1.285   1.554  2.1394  3.6910  1.4407
 5205TIP3    H237251   6.109   1.214   1.652  1.0702  0.7283  0.4142
 5206TIP3   OH237252   3.563   4.382   1.723  0.5997 -0.2549 -0.0337
 5206TIP3    H137253   3.637   4.442   1.739 -0.0931  0.6962 -0.2862
 5206TIP3    H237254   3.562   4.370   1.628 -0.8874  1.5508 -0.3198
 5207TIP3   OH237255   3.422   5.253   0.208 -0.1744 -0.2330 -0.1382
 5207TIP3    H137256   3.432   5.208   0.124 -0.1275 -0.5478  0.0354
 5207TIP3    H237257   3.478   5.330   0.201 -0.0554 -0.3387 -0.3409
 5208TIP3   OH237258   0.298   5.645   8.894 -0.3705  0.3639 -0.4062
 5208TIP3    H137259   0.270   5.689   8.975 -0.5457 -0.8286  0.2110
 5208TIP3    H237260   0.238   5.571   8.885  1.3657 -1.1795 -0.0586
 5209TIP3   OH237261   2.186   5.825   3.232  0.5703  0.3733 -0.6015
 5209TIP3    H137262   2.211   5.732   3.233 -0.1854  0.1647  0.7706
 5209TIP3    H237263   2.269   5.871   3.244  0.9301 -0.1159 -1.1023
 5210TIP3   OH237264   5.244   3.827   1.788  0.5711 -0.9052  0.1577
 5210TIP3    H137265   5.305   3.881   1.737  1.3683 -0.6953  1.2931
 5210TIP3    H237266   5.162   3.876   1.786  0.9362 -0.2809  0.1226
 5211TIP3   OH237267   5.320   3.183   2.179 -0.2401 -0.1342 -0.3046
 5211TIP3    H137268   5.387   3.250   2.164  0.5341 -0.4120  1.6653
 5211TIP3    H237269   5.296   3.153   2.092  1.4950  0.6557 -1.0904
 5212TIP3   OH237270   1.922   4.716   3.597 -0.6949  0.1493  0.4513
 5212TIP3    H137271   1.961   4.734   3.682 -2.4504 -1.4151  1.6865
 5212TIP3    H237272   1.953   4.786   3.540  0.0099  1.6131  2.5413
 5213TIP3   OH237273   6.601   1.140   0.936 -0.8966 -0.7216  0.2354
 5213TIP3    H137274   6.655   1.109   0.863 -1.6272 -0.3627 -0.4743
 5213TIP3    H237275   6.526   1.183   0.894 -0.5382  0.9209  1.1804
 5214TIP3   OH237276   2.516   3.015   0.591 -0.5673 -0.5912 -0.1432
 5214TIP3    H137277   2.544   3.011   0.499  0.3409 -1.8313  0.1607
 5214TIP3    H237278   2.594   3.044   0.638 -0.7268 -0.9441  0.3461
 5215TIP3   OH237279   5.734   2.418   8.374  0.1026 -0.0288 -0.0071
 5215TIP3    H137280   5.747   2.471   8.295 -0.0649 -0.2406 -0.1802
 5215TIP3    H237281   5.810   2.360   8.376 -0.6976 -1.1700 -0.9418
 5216TIP3   OH237282   6.039   5.448   3.406 -0.5901  0.3510 -0.2449
 5216TIP3    H137283   5.968   5.429   3.344  0.5746 -2.4162 -0.9039
 5216TIP3    H237284   5.997   5.448   3.492 -1.3772 -1.8892 -0.5515
 5217TIP3   OH237285   5.897   3.610   2.954  0.0231  0.4042 -0.2027
 5217TIP3    H137286   5.987   3.577   2.946  0.0920  0.2658  0.9463
 5217TIP3    H237287   5.901   3.699   2.920  0.9206  0.8811  1.0639
 5218TIP3   OH237288   2.215   5.517   1.488  0.0536  0.4027  0.3928
 5218TIP3    H137289   2.124   5.538   1.468  0.0859 -0.4096 -0.6678
 5218TIP3    H237290   2.240   5.580   1.556 -1.2939  0.6277  0.6950
 5219TIP3   OH237291   1.451   2.441   3.122  0.1233  0.2798  0.6538
 5219TIP3    H137292   1.379   2.483   3.168  0.0652  0.4209  0.4369
 5219TIP3    H237293   1.528   2.463   3.174 -0.0312 -0.1544  1.0716
 5220TIP3   OH237294   4.912   2.009   0.254  0.2882  0.4006 -0.0904
 5220TIP3    H137295   4.955   2.036   0.335 -1.3709 -2.0980  1.8040
 5220TIP3    H237296   4.983   1.972   0.200  1.0867 -0.1724  1.3030
 5221TIP3   OH237297   3.367   2.245   1.228 -0.4304 -0.9562 -0.1710
 5221TIP3    H137298   3.276   2.226   1.252 -0.3422 -0.7118  0.3800
 5221TIP3    H237299   3.370   2.339   1.216 -0.1399 -0.8955  0.3299
 5222TIP3   OH237300   5.520   2.277   0.291 -0.3983  0.2851 -0.3484
 5222TIP3    H137301   5.612   2.267   0.267 -0.5969  0.6585 -1.2817
 5222TIP3    H237302   5.520   2.349   0.354  0.0201 -0.1328  0.1388
 5223TIP3   OH237303   6.515   3.461   3.243  0.0078 -0.4083  0.3349
 5223TIP3    H137304   6.423   3.452   3.217 -0.2469  1.3047  0.5224
 5223TIP3    H237305   6.517   3.432   3.334 -0.5113  0.2515  0.5670
 5224TIP3   OH237306   4.976   0.936   0.601  0.1106  0.5334  0.2140
 5224TIP3    H137307   4.981   0.906   0.692  2.4321 -0.7434 -0.2540
 5224TIP3    H237308   5.043   1.004   0.594  0.2246  0.3556 -0.6087
 5225TIP3   OH237309   6.248   3.342   2.479 -0.3705 -0.4155  0.8419
 5225TIP3    H137310   6.293   3.297   2.550 -0.6304 -1.5649  0.2970
 5225TIP3    H237311   6.310   3.341   2.406  0.0631  1.1366  1.1532
 5226TIP3   OH237312   2.988   1.509   3.473  0.8343 -0.7320 -0.4091
 5226TIP3    H137313   2.928   1.466   3.533 -0.0951 -1.5180 -1.8341
 5226TIP3    H237314   2.993   1.600   3.503  0.4088 -1.1077  0.8283
 5227TIP3   OH237315   1.884   5.010   0.435  0.0118  0.4850  0.8724
 5227TIP3    H137316   1.840   4.981   0.355  0.3893  2.2409 -0.0301
 5227TIP3    H237317   1.961   4.954   0.442  0.4232  0.8429 -0.4733
 5228TIP3   OH237318   2.758   0.953   1.312  0.6190 -0.0766 -0.2915
 5228TIP3    H137319   2.828   0.939   1.247  1.4998  1.7848  0.1939
 5228TIP3    H237320   2.801   0.940   1.396 -0.4456 -2.1417 -0.0038
 5229TIP3   OH237321   0.306   1.340   8.849  0.3872  0.4535 -0.2631
 5229TIP3    H137322   0.361   1.261   8.847 -0.7095 -0.3612  0.4421
 5229TIP3    H237323   0.337   1.389   8.925  0.5396  0.3097 -0.2320
 5230TIP3   OH237324   3.774   5.646   1.416  0.4507 -0.1656  0.3501
 5230TIP3    H137325   3.754   5.727   1.462  1.0486  0.2179 -0.0618
 5230TIP3    H237326   3.810   5.674   1.332  1.1425 -0.8504  0.4100
 5231TIP3   OH237327   2.467   1.024   0.936 -0.1800  0.4503  0.3452
 5231TIP3    H137328   2.504   1.072   0.862 -0.1654  0.0648  0.0976
 5231TIP3    H237329   2.397   1.080   0.969 -0.3362  0.5231 -0.1046
 5232TIP3   OH237330   1.838   1.183   0.227  0.7255  0.0962  0.3413
 5232TIP3    H137331   1.905   1.115   0.224  1.1206  0.4937  0.0482
 5232TIP3    H237332   1.767   1.149   0.172  0.9289 -0.0737  0.1814
 5233TIP3   OH237333   5.190   0.510   0.915 -0.2299  0.1627 -0.0652
 5233TIP3    H137334   5.115   0.498   0.857 -0.9208  2.3254  0.2986
 5233TIP3    H237335   5.204   0.605   0.917  1.0678 -0.0196  1.6852
 5234TIP3   OH237336   1.445   5.167   1.018 -1.1254 -0.0051 -0.2635
 5234TIP3    H137337   1.443   5.106   0.945  0.4606  0.4188 -0.6845
 5234TIP3    H237338   1.396   5.243   0.988  1.1709  1.0010 -1.7106
 5235TIP3   OH237339   2.258   1.229   0.313  0.1160 -0.1696  0.2488
 5235TIP3    H137340   2.239   1.149   0.363 -1.7211  0.5025  0.6979
 5235TIP3    H237341   2.210   1.218   0.231  0.4368  0.1743  0.0096
 5236TIP3   OH237342   4.471   3.487   3.229  0.1067 -0.1669 -0.0117
 5236TIP3    H137343   4.498   3.579   3.229 -1.4229  0.3094  0.4945
 5236TIP3    H237344   4.552   3.438   3.215  0.9835  1.2457 -0.0359
 5237TIP3   OH237345   4.151   4.678   2.590  0.1413  0.0252 -0.2200
 5237TIP3    H137346   4.174   4.613   2.523  0.8118 -0.2862  0.2999
 5237TIP3    H237347   4.085   4.635   2.644  1.3493 -0.6530  0.7668
 5238TIP3   OH237348   1.014   5.399   0.038 -0.0881 -0.0845 -0.1314
 5238TIP3    H137349   0.920   5.411   0.045 -0.2956 -0.6346 -1.5069
 5238TIP3    H237350   1.033   5.322   0.091 -0.2289  0.6655  1.0247
 5239TIP3   OH237351   0.041   0.168   8.052  0.5646  0.1376  0.1256
 5239TIP3    H137352   0.021   0.077   8.032 -0.5972  0.5350 -0.6231
 5239TIP3    H237353  -0.044   0.210   8.063  1.0090  1.4647 -1.1535
 5240TIP3   OH237354   2.578   4.923   1.744  0.0002  0.6980 -0.1218
 5240TIP3    H137355   2.554   4.905   1.653 -1.0337  2.5066 -0.2759
 5240TIP3    H237356   2.563   4.841   1.790 -1.3669  0.2665 -1.2501
 5241TIP3   OH237357   2.204   2.590   8.755 -0.1318  0.3726 -0.5014
 5241TIP3    H137358   2.269   2.593   8.684  0.3255 -1.0110 -0.1589
 5241TIP3    H237359   2.127   2.551   8.715  0.6196 -1.8340  0.1004
 5242TIP3   OH237360   0.265   1.573   3.487  0.2431  0.0064 -0.2303
 5242TIP3    H137361   0.258   1.549   3.394  0.5354 -0.2118 -0.1970
 5242TIP3    H237362   0.232   1.496   3.534 -1.6833  0.8174 -0.1922
 5243TIP3   OH237363   3.798   2.480   2.170  0.4832 -0.2419  0.5109
 5243TIP3    H137364   3.882   2.473   2.217 -0.5958 -1.1282  2.4203
 5243TIP3    H237365   3.768   2.569   2.188  0.9231  0.0360 -0.0740
 5244TIP3   OH237366   1.101   6.774   0.209  0.1131 -0.6620  0.0827
 5244TIP3    H137367   1.171   6.763   0.144  0.7833  0.1662  0.6410
 5244TIP3    H237368   1.068   6.862   0.194 -1.3062 -1.2923 -0.6299
 5245TIP3   OH237369   2.406   6.294   0.362  0.5156 -0.5855  0.2886
 5245TIP3    H137370   2.408   6.201   0.342 -0.6320 -0.7718  0.9331
 5245TIP3    H237371   2.408   6.338   0.277 -1.9668 -1.2856 -0.2041
 5246TIP3   OH237372   5.448   0.645   0.058 -0.5955  0.5372 -0.1292
 5246TIP3    H137373   5.440   0.741   0.058 -2.1790  0.4200 -0.0322
 5246TIP3    H237374   5.361   0.613   0.082 -0.0473 -0.9353  0.0075
 5247TIP3   OH237375   1.348   0.260   1.235  0.1306 -0.0800 -0.4682
 5247TIP3    H137376   1.433   0.219   1.249 -0.4049 -1.1157 -0.1709
 5247TIP3    H237377   1.290   0.189   1.207 -0.6845  0.5732 -0.5063
 5248TIP3   OH237378   0.241   4.864   8.157 -0.5037 -0.0398  0.3922
 5248TIP3    H137379   0.230   4.908   8.073 -0.0019 -0.5927  0.0286
 5248TIP3    H237380   0.311   4.913   8.201  0.2181 -0.6053 -0.1101
 5249TIP3   OH237381   0.923   2.719   8.387  0.5746  0.4332  0.1769
 5249TIP3    H137382   0.947   2.683   8.302  1.1574  0.5959  0.2657
 5249TIP3    H237383   0.828   2.712   8.390  0.6311 -0.5747 -0.0368
 5250TIP3   OH237384   6.667   1.802   0.099  0.0434  0.0963  0.2535
 5250TIP3    H137385   6.634   1.878   0.147 -2.4416  1.7415 -3.5910
 5250TIP3    H237386   6.730   1.838   0.037  0.4868 -1.3493 -0.1691
 5251TIP3   OH237387   0.102   1.586   0.732 -0.8207  0.4936  0.4934
 5251TIP3    H137388   0.065   1.575   0.645 -0.9582 -0.7126  0.6833
 5251TIP3    H237389   0.196   1.583   0.719 -0.8439 -0.0006  0.4106
 5252TIP3   OH237390   5.487   6.562   2.115 -0.1993 -0.7068  0.3300
 5252TIP3    H137391   5.507   6.553   2.208 -0.2092 -0.2918  0.3709
 5252TIP3    H237392   5.573   6.561   2.072 -0.1546 -0.1408  0.4056
 5253TIP3   OH237393   4.748   3.457   0.130  0.2049 -0.2912  0.4903
 5253TIP3    H137394   4.753   3.446   0.225 -0.3924 -1.5993  0.3903
 5253TIP3    H237395   4.823   3.512   0.109 -0.1573  0.7554  1.8148
 5254TIP3   OH237396   4.839   0.872   0.366 -0.1473 -0.1239  0.3856
 5254TIP3    H137397   4.765   0.931   0.350  0.5131  0.2761 -1.4240
 5254TIP3    H237398   4.905   0.927   0.408  0.2436  0.3387 -0.7686
 5255TIP3   OH237399   4.933   0.556   0.816 -0.3789  0.0136  0.1512
 5255TIP3    H137400   4.872   0.559   0.889  0.8691  2.0723  1.1913
 5255TIP3    H237401   4.882   0.584   0.740 -1.3911 -1.0526  0.4105
 5256TIP3   OH237402   1.208   0.897   2.868  0.2401 -0.2649  0.4126
 5256TIP3    H137403   1.150   0.972   2.884 -2.5941 -1.7562 -1.7633
 5256TIP3    H237404   1.222   0.858   2.954  0.8158  2.0230  1.4279
 5257TIP3   OH237405   3.246   3.908   2.646 -0.1003  0.5381 -0.4740
 5257TIP3    H137406   3.316   3.902   2.712 -0.3797  2.7232  0.1143
 5257TIP3    H237407   3.291   3.898   2.563  0.3127 -1.9242 -0.0495
 5258TIP3   OH237408   1.160   3.684   2.376  0.3932 -0.6465  0.7421
 5258TIP3    H137409   1.140   3.766   2.419  1.1939 -0.3350  0.5311
 5258TIP3    H237410   1.247   3.696   2.339 -0.0340 -1.0899 -0.4934
 5259TIP3   OH237411   4.896   5.829   1.699 -0.3023  0.0272  0.1937
 5259TIP3    H137412   4.861   5.753   1.745  0.3202  0.0037  0.6449
 5259TIP3    H237413   4.825   5.892   1.700 -1.1291 -0.8395 -0.9297
 5260TIP3   OH237414   0.776   1.722   0.516 -0.1048  0.0323 -0.1887
 5260TIP3    H137415   0.762   1.748   0.425 -1.5159 -2.1027 -0.6410
 5260TIP3    H237416   0.709   1.770   0.565 -0.9053 -0.5891 -0.6384
 5261TIP3   OH237417   2.900   3.312   3.448 -0.2727  0.1250  0.5928
 5261TIP3    H137418   2.991   3.282   3.442 -0.2504  0.4154 -0.7581
 5261TIP3    H237419   2.906   3.402   3.480 -0.1579 -0.1870  1.4800
 5262TIP3   OH237420   5.815   5.462   8.748 -0.5663  0.1968  0.5681
 5262TIP3    H137421   5.778   5.385   8.792  0.0544 -0.6230 -0.3069
 5262TIP3    H237422   5.740   5.501   8.702 -0.8931  0.1516  1.0479
 5263TIP3   OH237423   5.242   4.319   3.027  0.0926  0.4090  0.2913
 5263TIP3    H137424   5.294   4.267   3.089 -0.2899  1.8955  1.9659
 5263TIP3    H237425   5.296   4.395   3.008 -0.9532  1.4285  1.1957
 5264TIP3   OH237426   3.036   5.651   0.517 -0.3321 -0.1114  0.1210
 5264TIP3    H137427   3.059   5.558   0.509  0.6338  0.2100 -1.2558
 5264TIP3    H237428   3.029   5.666   0.611  0.9147 -1.2544  0.4319
 5265TIP3   OH237429   6.309   6.219   2.456  0.4711 -0.3814  0.0586
 5265TIP3    H137430   6.352   6.176   2.382 -0.5242 -1.6100  0.1723
 5265TIP3    H237431   6.277   6.148   2.510 -0.3039  0.5109  0.8080
 5266TIP3   OH237432   1.081   4.527   2.347  0.1194  0.3503 -0.1750
 5266TIP3    H137433   1.174   4.541   2.364  0.1666  0.3504 -0.4429
 5266TIP3    H237434   1.037   4.578   2.415  0.3165  0.2364  0.0390
 5267TIP3   OH237435   5.903   4.668   8.709  0.0332 -0.3041 -0.5204
 5267TIP3    H137436   5.971   4.702   8.650 -0.9331  0.9076 -0.9570
 5267TIP3    H237437   5.843   4.621   8.651  0.6180 -1.6463 -0.0927
 5268TIP3   OH237438   4.564   6.523   2.931  0.0601  0.2147 -0.7462
 5268TIP3    H137439   4.471   6.534   2.951 -0.0018 -0.3128 -0.7320
 5268TIP3    H237440   4.584   6.433   2.957  1.0663  0.9267  1.2478
 5269TIP3   OH237441   2.727   4.486   2.974 -0.8384 -0.1071  0.1734
 5269TIP3    H137442   2.658   4.420   2.985 -1.0339  0.3070  1.6927
 5269TIP3    H237443   2.688   4.553   2.918 -1.0923 -0.6600 -0.3142
 5270TIP3   OH237444   2.846   4.648   8.616 -0.8704 -0.2628 -0.1201
 5270TIP3    H137445   2.847   4.695   8.699 -1.4181  0.4041 -0.4788
 5270TIP3    H237446   2.812   4.561   8.638 -0.5629 -0.2529  0.4254
 5271TIP3   OH237447   2.581   4.633   0.626  0.3792  0.4505 -0.0007
 5271TIP3    H137448   2.571   4.615   0.719 -0.1262 -1.4408 -0.3675
 5271TIP3    H237449   2.497   4.669   0.598 -0.4162 -1.4200 -0.1821
 5272TIP3   OH237450   0.312   3.584   2.366  0.4308  0.1541 -0.1080
 5272TIP3    H137451   0.239   3.600   2.308 -0.1404  0.3374  0.6473
 5272TIP3    H237452   0.390   3.608   2.315 -0.1298  1.4001 -0.4078
 5273TIP3   OH237453   1.604   3.249   1.515  0.5552 -0.4239  0.1820
 5273TIP3    H137454   1.673   3.184   1.500 -0.0536 -0.9285 -0.5340
 5273TIP3    H237455   1.525   3.207   1.482  0.0151  0.4027  0.4027
 5274TIP3   OH237456   1.826   4.039   8.830  0.4301  0.0602  0.3641
 5274TIP3    H137457   1.887   4.016   8.761 -1.4115 -1.8741 -0.7357
 5274TIP3    H237458   1.853   4.127   8.858  2.4212  0.0881 -1.4117
 5275TIP3   OH237459   4.720   2.018   3.661  0.5502  0.2279  0.0728
 5275TIP3    H137460   4.711   1.939   3.715  1.6985  0.3758  0.5165
 5275TIP3    H237461   4.787   2.070   3.706 -0.6405  1.7679  0.1291
 5276TIP3   OH237462   4.075   3.437   8.691  0.7744  0.1474 -0.2061
 5276TIP3    H137463   4.146   3.498   8.710  0.2047  0.4253  1.1283
 5276TIP3    H237464   4.111   3.351   8.712  0.4322  0.3738  1.4076
 5277TIP3   OH237465   5.290   3.726   2.066  0.5749  0.0672  0.2092
 5277TIP3    H137466   5.330   3.640   2.053  1.1854  0.2074  1.0837
 5277TIP3    H237467   5.246   3.744   1.983 -1.6977 -2.1869  0.7843
 5278TIP3   OH237468   2.649   5.513   3.620  0.1888  0.4176 -0.4651
 5278TIP3    H137469   2.659   5.608   3.613 -0.8998  0.6102  0.2556
 5278TIP3    H237470   2.565   5.502   3.665 -0.0068 -0.9033 -1.1259
 5279TIP3   OH237471   2.682   1.281   2.738  0.0012  0.1870 -0.3998
 5279TIP3    H137472   2.769   1.267   2.775 -0.2779  0.4241  0.3680
 5279TIP3    H237473   2.630   1.314   2.811 -1.7582 -3.4891  0.2479
 5280TIP3   OH237474   3.931   4.555   2.732 -0.5190  0.4703  0.1671
 5280TIP3    H137475   3.850   4.580   2.687 -0.4801 -0.6833 -0.6090
 5280TIP3    H237476   3.907   4.476   2.781  0.5603 -1.1010 -1.6878
 5281TIP3   OH237477   2.279   1.357   1.509  0.3802 -0.0665  0.0031
 5281TIP3    H137478   2.272   1.314   1.424 -0.1240  0.4931 -0.2434
 5281TIP3    H237479   2.343   1.426   1.496 -0.9761  1.1613 -0.4225
 5282TIP3   OH237480   4.369   2.891   3.375 -0.5735  0.5607 -0.4838
 5282TIP3    H137481   4.315   2.813   3.363 -0.7602  0.8969 -1.9484
 5282TIP3    H237482   4.459   2.860   3.362 -0.7122  0.7491 -2.0108
 5283TIP3   OH237483   1.399   0.305   3.090 -0.0206 -0.0169  0.2151
 5283TIP3    H137484   1.433   0.227   3.135  1.5689  0.1098 -0.7237
 5283TIP3    H237485   1.315   0.321   3.133 -0.4464 -2.2931  0.3823
 5284TIP3   OH237486   3.741   0.294   3.063  0.0738 -0.0316  0.7288
 5284TIP3    H137487   3.734   0.203   3.033 -1.9409  0.2241  0.3053
 5284TIP3    H237488   3.686   0.298   3.141  0.1040  0.8340  0.7136
 5285TIP3   OH237489   4.886   2.746   3.404  0.6587 -0.3522 -0.1425
 5285TIP3    H137490   4.933   2.773   3.325 -1.2786  1.9457 -0.5956
 5285TIP3    H237491   4.891   2.822   3.462 -2.6132  0.1454 -0.3272
 5286TIP3   OH237492   4.594   2.628   2.459  0.1565  0.2354 -0.0436
 5286TIP3    H137493   4.502   2.636   2.434 -0.5072  0.4697  2.2219
 5286TIP3    H237494   4.626   2.719   2.461  0.9241  0.0616 -2.3260
 5287TIP3   OH237495   0.506   3.924   0.894  0.0067 -0.6425 -0.2174
 5287TIP3    H137496   0.573   3.892   0.833  0.9072 -0.3467  0.6090
 5287TIP3    H237497   0.479   4.008   0.857 -0.1298 -0.8948 -0.7096
 5288TIP3   OH237498   4.947   2.961   0.666 -0.0236 -0.1454  0.6955
 5288TIP3    H137499   4.919   2.988   0.579  0.3361 -0.7636  0.3812
 5288TIP3    H237500   5.043   2.963   0.662 -0.0069  0.7123  1.3612
 5289TIP3   OH237501   5.652   0.545   7.749 -0.0862 -0.0263  0.0673
 5289TIP3    H137502   5.728   0.530   7.804 -0.4361  0.5850  0.7378
 5289TIP3    H237503   5.688   0.555   7.660  0.7671  1.5003  0.5415
 5290TIP3   OH237504   4.453   0.186   2.145 -0.2424 -0.0934 -0.2884
 5290TIP3    H137505   4.372   0.137   2.148  0.4132 -1.1930  0.1095
 5290TIP3    H237506   4.455   0.234   2.228 -1.3136  1.3677 -1.0661
 5291TIP3   OH237507   0.835   0.076   8.832  0.0432  0.3731 -0.0677
 5291TIP3    H137508   0.930   0.080   8.819  0.3053 -0.0354  1.4749
 5291TIP3    H237509   0.825   0.069   8.927 -1.5046 -0.5511 -0.2738
 5292TIP3   OH237510   4.477   6.428   0.020  0.2676 -0.7111 -0.2537
 5292TIP3    H137511   4.509   6.342  -0.008  0.6972 -0.6289 -0.0286
 5292TIP3    H237512   4.543   6.459   0.082 -1.2088 -1.3557  1.7459
 5293TIP3   OH237513   4.260   1.603   0.511  0.6812  0.2019  0.2847
 5293TIP3    H137514   4.326   1.620   0.578  2.2211 -0.4992 -0.9922
 5293TIP3    H237515   4.257   1.684   0.460 -0.2216  0.5996  0.9336
 5294TIP3   OH237516   1.566   1.519   0.484  0.6421 -0.3180  0.2720
 5294TIP3    H137517   1.643   1.461   0.486  1.3243  0.5783  0.6286
 5294TIP3    H237518   1.572   1.563   0.399 -0.2383 -1.2246 -0.2822
 5295TIP3   OH237519   2.372   0.600   2.854 -0.1307 -0.2216 -0.2569
 5295TIP3    H137520   2.461   0.588   2.822  0.0413 -1.1030  0.5001
 5295TIP3    H237521   2.317   0.597   2.776  0.2386 -2.6896 -0.5080
 5296TIP3   OH237522   4.306   3.096   8.310  0.2081  0.6280  0.3671
 5296TIP3    H137523   4.237   3.131   8.366 -1.6508  0.2430 -1.5754
 5296TIP3    H237524   4.367   3.170   8.298 -0.2278  1.2018  1.4931
 5297TIP3   OH237525   4.355   1.732   2.323  0.1487  0.3673  0.1558
 5297TIP3    H137526   4.390   1.817   2.297  0.5302  0.1081 -0.1970
 5297TIP3    H237527   4.290   1.711   2.255 -3.1800  2.3047  2.4279
 5298TIP3   OH237528   5.046   1.262   8.353  0.4881 -0.2160  0.6081
 5298TIP3    H137529   4.978   1.262   8.285  1.3358  1.3051 -0.2919
 5298TIP3    H237530   5.124   1.294   8.309  1.4630 -0.6345  1.9639
 5299TIP3   OH237531   4.722   1.363   3.561 -0.5199  0.1780 -1.0620
 5299TIP3    H137532   4.696   1.271   3.566 -2.6410  0.7937  1.1422
 5299TIP3    H237533   4.732   1.391   3.652  0.0829  2.1266 -1.6749
 5300TIP3   OH237534   0.090   0.863   1.168  0.2967  0.7233 -0.8136
 5300TIP3    H137535   0.008   0.910   1.183  1.3844  2.1854  0.9913
 5300TIP3    H237536   0.134   0.912   1.099  1.6642  2.9090  1.4147
 5301TIP3   OH237537   2.766   5.854   0.980 -0.5652  0.7942  0.4275
 5301TIP3    H137538   2.727   5.889   1.060 -1.2973 -1.0318  0.9180
 5301TIP3    H237539   2.842   5.803   1.011 -1.3953 -0.7071  0.0970
 5302TIP3   OH237540   3.745   3.699   2.814 -0.3936  0.0903 -0.1690
 5302TIP3    H137541   3.771   3.609   2.793 -2.1883  0.0481 -2.6115
 5302TIP3    H237542   3.778   3.713   2.903  1.3388 -2.3962 -0.3184
 5303TIP3   OH237543   6.545   5.675   0.190 -0.0459 -0.0540  0.6106
 5303TIP3    H137544   6.601   5.750   0.213  0.0621 -0.3952  1.4749
 5303TIP3    H237545   6.517   5.639   0.274  0.4197 -1.3766  0.2234
 5304TIP3   OH237546   2.484   4.738   2.541  0.0596  0.6862  0.0745
 5304TIP3    H137547   2.567   4.785   2.544  0.9760 -0.8906  1.0285
 5304TIP3    H237548   2.484   4.695   2.456 -0.4847  1.8591 -0.5348
 5305TIP3   OH237549   2.373   4.425   3.183  0.0926  0.0198  0.1286
 5305TIP3    H137550   2.296   4.430   3.127  0.2288 -0.9174 -0.1690
 5305TIP3    H237551   2.405   4.515   3.188 -0.1125  0.1742 -1.0505
 5306TIP3   OH237552   3.920   2.368   3.420  0.4148 -0.6383  0.3327
 5306TIP3    H137553   3.899   2.274   3.421  1.8562 -0.9884 -0.1571
 5306TIP3    H237554   3.845   2.408   3.376 -1.5007 -1.1841  2.8924
 5307TIP3   OH237555   4.279   5.132   1.873 -0.0467  0.1848  0.6260
 5307TIP3    H137556   4.199   5.183   1.884 -0.0663 -0.1087  2.1419
 5307TIP3    H237557   4.263   5.079   1.795 -1.5976 -0.3054  1.2281
 5308TIP3   OH237558   1.178   0.557   2.693  0.3880  0.3490 -0.4056
 5308TIP3    H137559   1.216   0.644   2.684  1.5741 -0.1832 -0.8423
 5308TIP3    H237560   1.155   0.550   2.785 -0.0177  1.2291 -0.4275
 5309TIP3   OH237561   6.765   2.635   0.373  0.1066 -0.2960 -0.3708
 5309TIP3    H137562   6.684   2.596   0.408 -0.0226  0.7598  0.5782
 5309TIP3    H237563   6.798   2.688   0.445  1.9260 -1.0788 -0.5844
 5310TIP3   OH237564   3.081   6.714   1.014  0.2181  0.0184 -0.4257
 5310TIP3    H137565   3.068   6.800   0.974 -0.8104 -1.1372 -2.8135
 5310TIP3    H237566   3.150   6.673   0.962  1.5643 -0.2119  1.4447
 5311TIP3   OH237567   2.340   2.303   7.982 -0.0112  0.6499  0.0031
 5311TIP3    H137568   2.430   2.311   7.952 -0.1822 -0.1192 -0.7822
 5311TIP3    H237569   2.290   2.360   7.923 -0.1115  0.6409  0.0781
 5312TIP3   OH237570   0.218   0.038   0.554  0.1804  0.3507  0.3130
 5312TIP3    H137571   0.301   0.086   0.543  0.8183 -0.8090 -0.1761
 5312TIP3    H237572   0.235  -0.022   0.627  0.3421 -1.0180 -0.8143
 5313TIP3   OH237573   0.430   1.434   1.339 -0.5908  0.2262 -0.2113
 5313TIP3    H137574   0.444   1.340   1.351 -0.7273  0.3029  0.5792
 5313TIP3    H237575   0.443   1.448   1.245  0.0177 -0.4814 -0.2459
 5314TIP3   OH237576   4.172   4.687   8.498  0.9253 -0.1265  0.3424
 5314TIP3    H137577   4.125   4.767   8.475  1.9802  0.8584  1.4886
 5314TIP3    H237578   4.103   4.622   8.512 -0.0425  1.0098  1.0038
 5315TIP3   OH237579   1.406   5.028   1.471  0.1445  0.2746  0.7938
 5315TIP3    H137580   1.402   4.936   1.445 -0.0831  0.8368 -1.2978
 5315TIP3    H237581   1.315   5.050   1.494 -0.0418  0.3012  0.0518
 5316TIP3   OH237582   4.186   1.005   3.172  0.5581 -0.7817  0.0299
 5316TIP3    H137583   4.163   1.001   3.079  1.0808 -0.4121 -0.1227
 5316TIP3    H237584   4.279   1.028   3.172  0.7524 -1.5523  0.6330
 5317TIP3   OH237585   5.683   2.743   8.458  0.4721  0.7449  0.3093
 5317TIP3    H137586   5.671   2.795   8.537  0.0190 -0.5216  1.1128
 5317TIP3    H237587   5.605   2.688   8.453  0.2729  1.1066 -1.2849
 5318TIP3   OH237588   4.779   2.168   2.601 -0.2332 -0.1400  0.5290
 5318TIP3    H137589   4.748   2.239   2.545 -1.9082 -1.2620 -0.0649
 5318TIP3    H237590   4.810   2.211   2.681 -1.2476  1.2593  0.2005
 5319TIP3   OH237591   5.772   1.885   2.343 -0.2220  0.2600  0.3319
 5319TIP3    H137592   5.785   1.864   2.251  0.3881  0.2929  0.4062
 5319TIP3    H237593   5.697   1.832   2.370  0.2254 -0.5207  0.0731
 5320TIP3   OH237594   2.132   3.778   2.802 -0.6766  0.2725  0.3892
 5320TIP3    H137595   2.145   3.855   2.746 -3.9684  0.0996 -0.8102
 5320TIP3    H237596   2.116   3.706   2.742  1.0967 -1.1716  1.5290
 5321TIP3   OH237597   5.622   0.970   0.406 -0.7655 -0.4996 -0.4764
 5321TIP3    H137598   5.703   0.935   0.368  0.4317  0.8008  0.7160
 5321TIP3    H237599   5.615   0.926   0.491 -1.8475 -1.2935 -0.9631
 5322TIP3   OH237600   5.535   3.617   2.167 -0.2094  0.3360 -0.4419
 5322TIP3    H137601   5.548   3.635   2.260  0.3332 -1.4415 -0.1154
 5322TIP3    H237602   5.544   3.701   2.124 -1.3749  1.3479  1.1924
 5323TIP3   OH237603   0.421   6.291   2.957  0.6053  0.1511 -0.5187
 5323TIP3    H137604   0.395   6.357   3.022  1.5760 -0.2673  0.3476
 5323TIP3    H237605   0.450   6.217   3.010 -1.8005 -1.5802 -1.4613
 5324TIP3   OH237606   3.106   4.725   3.510  0.0739  0.5545 -0.1105
 5324TIP3    H137607   3.165   4.673   3.565  0.6184  2.0529  0.7981
 5324TIP3    H237608   3.163   4.763   3.443  0.1344  1.8710  0.6668
 5325TIP3   OH237609   6.790   5.087   1.224  0.5417 -0.0338 -0.0546
 5325TIP3    H137610   6.821   5.037   1.149  0.3650 -0.4948  0.1753
 5325TIP3    H237611   6.742   5.161   1.185 -0.7934 -1.0441 -0.4190
 5326TIP3   OH237612   1.633   5.279   2.845  0.0267  1.0089  0.4326
 5326TIP3    H137613   1.685   5.316   2.915  1.4548 -0.4476  0.2018
 5326TIP3    H237614   1.686   5.291   2.766 -0.5924  0.7075 -0.0417
 5327TIP3   OH237615   5.625   2.793   3.143 -0.3483  0.2724  0.1915
 5327TIP3    H137616   5.636   2.873   3.092 -0.8497 -0.1633 -0.6421
 5327TIP3    H237617   5.708   2.746   3.134  0.1129  0.8975  1.0680
 5328TIP3   OH237618   1.136   0.319   3.222 -0.1178 -0.0573  0.2341
 5328TIP3    H137619   1.075   0.384   3.256 -0.8696 -1.2153  1.1619
 5328TIP3    H237620   1.089   0.235   3.229  1.1175 -0.8123 -0.1712
 5329TIP3   OH237621   2.882   2.858   0.738 -0.3768 -0.5545 -0.2197
 5329TIP3    H137622   2.946   2.814   0.794  0.6641  2.9208  1.6854
 5329TIP3    H237623   2.800   2.853   0.788 -0.0936  0.1667  0.3459
 5330TIP3   OH237624   1.113   3.202   4.031  0.8265  0.4765 -0.6115
 5330TIP3    H137625   1.140   3.112   4.050  0.0135  0.1960 -0.7574
 5330TIP3    H237626   1.189   3.242   3.989  1.9525  0.4960  1.3247
 5331TIP3   OH237627   2.780   4.744   2.151  0.6154 -0.3789 -0.7860
 5331TIP3    H137628   2.694   4.753   2.192  0.8369  3.1599 -0.8091
 5331TIP3    H237629   2.840   4.730   2.223  0.2717 -0.5258 -0.5278
 5332TIP3   OH237630   5.570   6.788   3.523 -0.3141 -0.2896 -0.1678
 5332TIP3    H137631   5.510   6.715   3.533  0.5608 -0.9464  0.3106
 5332TIP3    H237632   5.656   6.753   3.545 -0.0054  1.1139  0.9952
 5333TIP3   OH237633   4.924   4.412   4.076  0.2466  0.2413  0.3565
 5333TIP3    H137634   4.974   4.413   4.157  1.5191  1.9444 -0.3701
 5333TIP3    H237635   4.985   4.379   4.010  0.3791  2.0581 -0.4951
 5334TIP3   OH237636   0.691   2.574   2.526 -0.3090 -0.3218  0.4750
 5334TIP3    H137637   0.720   2.489   2.560  0.9597 -0.2148 -0.2926
 5334TIP3    H237638   0.766   2.632   2.536 -1.3541  0.9205  1.5518
 5335TIP3   OH237639   6.095   3.583   8.440  0.5980 -0.2345 -0.4509
 5335TIP3    H137640   6.138   3.659   8.481  0.9899  0.5481 -2.2184
 5335TIP3    H237641   6.099   3.515   8.507  3.9773  0.0236 -0.2114
 5336TIP3   OH237642   2.636   0.425   2.912  0.0717 -0.2488 -0.1786
 5336TIP3    H137643   2.589   0.366   2.970  0.1844 -0.2254 -0.0634
 5336TIP3    H237644   2.658   0.500   2.966 -0.8976  0.3361 -0.5591
 5337TIP3   OH237645   5.108   1.334   2.991  0.0056 -0.0537  0.0212
 5337TIP3    H137646   5.034   1.273   2.984  1.0106 -1.5486  1.5118
 5337TIP3    H237647   5.116   1.350   3.085  0.5777  1.3945 -0.2578
 5338TIP3   OH237648   6.198   6.530   7.844  0.9445  0.7356 -0.5873
 5338TIP3    H137649   6.103   6.534   7.853  0.9811 -0.8234  1.1208
 5338TIP3    H237650   6.217   6.437   7.828  2.2575  0.7837  0.5093
 5339TIP3   OH237651   5.141   4.702   0.962  0.0537  0.5417  0.4058
 5339TIP3    H137652   5.200   4.675   1.032 -1.5094 -1.8087  0.9691
 5339TIP3    H237653   5.102   4.620   0.932 -2.1993  1.8720 -0.5473
 5340TIP3   OH237654   6.131   3.475   8.703 -0.3797 -0.0859 -0.0460
 5340TIP3    H137655   6.064   3.413   8.732 -0.4708 -0.0244 -0.1228
 5340TIP3    H237656   6.213   3.426   8.709 -0.4077 -0.0962  0.2387
 5341TIP3   OH237657   5.344   6.256   0.313  0.0051  0.0562  0.1275
 5341TIP3    H137658   5.434   6.284   0.327 -0.0357 -0.1648  0.9054
 5341TIP3    H237659   5.326   6.276   0.221  1.0992 -0.6189 -0.2506
 5342TIP3   OH237660   5.582   1.421   3.578  0.3874  0.2518  0.4505
 5342TIP3    H137661   5.669   1.383   3.589  0.5048  0.9568  2.5407
 5342TIP3    H237662   5.549   1.431   3.668 -1.7926  0.1533 -0.2736
 5343TIP3   OH237663   4.621   3.644   0.351  0.2104 -0.0055  0.3429
 5343TIP3    H137664   4.661   3.573   0.401  0.6763 -0.0974 -0.1492
 5343TIP3    H237665   4.693   3.705   0.335 -0.0776  0.3296  0.3311
 5344TIP3   OH237666   4.664   6.027   0.984  0.1746  0.1045 -0.3901
 5344TIP3    H137667   4.646   6.018   0.890 -0.0025 -0.6933 -0.2835
 5344TIP3    H237668   4.760   6.027   0.990  0.1963 -0.8308 -0.4959
 5345TIP3   OH237669   1.060   3.932   1.059 -0.2451  0.1390 -0.3771
 5345TIP3    H137670   1.138   3.896   1.102  1.1157  2.8996 -0.3378
 5345TIP3    H237671   1.076   3.919   0.966 -0.0091  0.1962 -0.3447
 5346TIP3   OH237672   1.009   3.611   1.041  0.4083  0.7332  0.1875
 5346TIP3    H137673   0.932   3.645   1.087 -1.4675  2.2228 -3.6630
 5346TIP3    H237674   1.014   3.519   1.069 -1.7913  0.9988  1.7713
 5347TIP3   OH237675   3.280   1.456   8.123 -0.4088  0.1523  0.2259
 5347TIP3    H137676   3.249   1.541   8.155  0.2924 -0.1033  1.6467
 5347TIP3    H237677   3.351   1.478   8.062 -0.7044  0.6041  0.0400
 5348TIP3   OH237678   5.594   0.484   3.264  0.0887 -0.1719  0.5743
 5348TIP3    H137679   5.559   0.412   3.212 -0.2356 -0.0523  0.6207
 5348TIP3    H237680   5.688   0.484   3.247  0.0436 -0.4052  0.3297
 5349TIP3   OH237681   1.124   2.399   1.292  0.1346  0.2508 -0.0495
 5349TIP3    H137682   1.031   2.377   1.295 -0.0731  1.0550 -0.4607
 5349TIP3    H237683   1.142   2.418   1.200  0.9205 -0.7872 -0.1290
 5350TIP3   OH237684   3.335   2.069   2.280  0.5661  0.3706 -0.1950
 5350TIP3    H137685   3.264   2.103   2.226  0.0124  1.6558  1.2799
 5350TIP3    H237686   3.294   2.001   2.333  0.6753  0.4188 -0.0505
 5351TIP3   OH237687   6.109   0.354   0.955  0.5226 -0.6432 -0.1828
 5351TIP3    H137688   6.125   0.446   0.935  0.7259 -0.7231 -0.3880
 5351TIP3    H237689   6.076   0.316   0.874  0.4725 -0.7577 -0.1095
 5352TIP3   OH237690   4.972   6.526   3.953  0.5026 -0.0325 -0.5748
 5352TIP3    H137691   4.976   6.431   3.944  0.0578 -0.2053  0.7746
 5352TIP3    H237692   4.878   6.546   3.953  0.5406  0.2197  0.6584
 5353TIP3   OH237693   0.092   2.628   1.591  0.0462 -0.0815 -0.1964
 5353TIP3    H137694   0.101   2.602   1.499  2.5050  0.1234 -0.0937
 5353TIP3    H237695   0.122   2.718   1.593  0.1013 -0.1145  0.8259
 5354TIP3   OH237696   4.331   4.408   0.510  0.2644  0.8643  0.0075
 5354TIP3    H137697   4.283   4.336   0.470 -0.6959  1.2489  0.4441
 5354TIP3    H237698   4.417   4.371   0.532 -0.1772 -0.1115  0.1088
 5355TIP3   OH237699   6.497   4.865   1.216 -0.3166  0.3074  0.0002
 5355TIP3    H137700   6.502   4.933   1.150 -0.9589 -1.0216 -1.4951
 5355TIP3    H237701   6.405   4.865   1.244 -0.1683  0.4938  0.5048
 5356TIP3   OH237702   1.296   3.866   1.502 -0.2121  0.0137  0.8560
 5356TIP3    H137703   1.347   3.812   1.562 -1.6407 -2.5268 -0.0715
 5356TIP3    H237704   1.353   3.877   1.426 -0.1931 -0.8987  0.7291
 5357TIP3   OH237705   0.873   0.311   3.808 -0.2629  0.3629 -0.0242
 5357TIP3    H137706   0.860   0.313   3.713  1.4129  2.3275 -0.2751
 5357TIP3    H237707   0.807   0.372   3.842 -0.5813 -0.0150  0.0410
 5358TIP3   OH237708   0.879   5.685   1.960 -0.2732 -0.0184 -0.0848
 5358TIP3    H137709   0.868   5.779   1.948  1.6882  0.4463  1.1949
 5358TIP3    H237710   0.857   5.670   2.052  1.9099 -0.2787  0.4704
 5359TIP3   OH237711   3.690   1.295   0.380 -1.0339 -0.5019 -0.5138
 5359TIP3    H137712   3.729   1.373   0.420  0.2514 -1.8053  0.9320
 5359TIP3    H237713   3.629   1.329   0.315 -0.6111  1.6990  0.1556
 5360TIP3   OH237714   5.494   4.112   1.170 -0.3954  0.4354 -0.0600
 5360TIP3    H137715   5.458   4.154   1.248  0.2479 -0.0007  0.4823
 5360TIP3    H237716   5.484   4.018   1.186  1.4304  0.2818  0.3460
 5361TIP3   OH237717   0.969   2.874   1.704 -0.3026 -0.4207 -0.1851
 5361TIP3    H137718   1.059   2.852   1.729 -1.1966 -3.6487  0.7758
 5361TIP3    H237719   0.978   2.921   1.622  2.2579 -1.8629 -0.8660
 5362TIP3   OH237720   1.347   1.924   1.104  0.0373  0.0405  0.5618
 5362TIP3    H137721   1.257   1.947   1.082  0.5199  1.5399 -0.0250
 5362TIP3    H237722   1.358   1.835   1.073 -0.3190  0.9103 -2.3476
 5363TIP3   OH237723   6.138   2.314   0.132 -0.4489 -0.1283 -0.7908
 5363TIP3    H137724   6.205   2.258   0.092 -1.2025 -0.8238 -1.1083
 5363TIP3    H237725   6.119   2.271   0.216  1.6248  1.6961  0.7214
 5364TIP3   OH237726   2.902   1.070   0.380 -0.1456 -0.3730  0.2447
 5364TIP3    H137727   2.854   1.152   0.392 -0.4538 -0.7879  2.1522
 5364TIP3    H237728   2.983   1.083   0.431 -0.4273 -1.4137  0.9866
 5365TIP3   OH237729   6.073   1.514   7.828 -0.0581 -0.6343 -0.4208
 5365TIP3    H137730   6.109   1.534   7.914 -2.5977  0.4915  0.4962
 5365TIP3    H237731   6.137   1.455   7.787  1.9326 -0.0101  1.6151
 5366TIP3   OH237732   1.720   0.088   3.197  0.2251 -0.5957  0.3101
 5366TIP3    H137733   1.716   0.162   3.257  3.0738 -0.9150  1.0367
 5366TIP3    H237734   1.705   0.011   3.252  0.4378 -0.7530  0.1509
 5367TIP3   OH237735   1.732   4.581   3.233  0.1778  0.6072 -0.1307
 5367TIP3    H137736   1.647   4.544   3.209  0.4852  0.0673 -0.4132
 5367TIP3    H237737   1.762   4.527   3.306  0.5322  0.4316 -0.4011
 5368TIP3   OH237738   5.412   6.027   0.889 -0.3264 -0.4226  0.9466
 5368TIP3    H137739   5.337   6.079   0.918 -0.1772 -0.2540  1.0328
 5368TIP3    H237740   5.391   6.004   0.798 -0.7194 -0.8194  1.1387
 5369TIP3   OH237741   6.206   3.763   3.102 -0.2933  0.2115  0.0542
 5369TIP3    H137742   6.280   3.822   3.119  0.3731 -0.4818 -0.4091
 5369TIP3    H237743   6.168   3.796   3.021  0.3080 -0.2110 -0.4068
 5370TIP3   OH237744   3.769   2.660   8.788 -0.0773 -0.0512 -0.3185
 5370TIP3    H137745   3.752   2.576   8.831  0.1591  0.2065  0.2925
 5370TIP3    H237746   3.763   2.641   8.694 -0.9028 -0.5582 -0.1667
 5371TIP3   OH237747   0.144   0.488   2.340 -0.5183 -0.1802 -0.1997
 5371TIP3    H137748   0.238   0.481   2.324 -0.4587 -0.5487  0.2788
 5371TIP3    H237749   0.130   0.580   2.360 -0.3886  0.0332 -1.0385
 5372TIP3   OH237750   0.058   1.547   1.419 -0.7371 -0.2410  0.2573
 5372TIP3    H137751   0.057   1.479   1.487  1.2353 -0.1719  0.4108
 5372TIP3    H237752   0.057   1.629   1.468 -1.3571 -0.1613  0.1206
 5373TIP3   OH237753   4.463   4.721   3.084  0.1709 -0.3510 -0.0005
 5373TIP3    H137754   4.411   4.753   3.158 -0.6977 -1.9338  0.1229
 5373TIP3    H237755   4.404   4.729   3.009  0.8671  0.7517 -0.4519
 5374TIP3   OH237756   5.358   2.963   8.248  0.1610 -0.2570  0.1324
 5374TIP3    H137757   5.344   2.876   8.212  0.5792 -0.9626  1.6020
 5374TIP3    H237758   5.452   2.980   8.235  0.0205  0.1344 -0.4447
 5375TIP3   OH237759   3.112   5.094   0.143 -0.3908  0.6770  0.2179
 5375TIP3    H137760   3.145   5.121   0.228  2.0407 -3.0677  0.7426
 5375TIP3    H237761   3.143   5.161   0.082  0.1464  2.0444  1.9367
 5376TIP3   OH237762   1.901   4.161   0.389 -0.2238 -0.1207 -0.1923
 5376TIP3    H137763   1.906   4.066   0.388 -1.9651 -0.2473 -1.4970
 5376TIP3    H237764   1.983   4.190   0.349  1.9146 -0.8712  3.2579
 5377TIP3   OH237765   3.477   4.829   2.017 -0.3882  0.6284  0.4894
 5377TIP3    H137766   3.475   4.793   1.928  0.4301  1.4464  0.1201
 5377TIP3    H237767   3.470   4.752   2.074 -2.9331  0.2327 -0.2413
 5378TIP3   OH237768   2.662   3.084   8.161 -0.0727 -0.0025  0.2746
 5378TIP3    H137769   2.601   3.146   8.120  1.0347  0.8203 -0.1609
 5378TIP3    H237770   2.635   2.998   8.128  0.0763  0.5235 -1.2998
 5379TIP3   OH237771   3.370   1.928   2.838 -0.4933  0.1265  0.6571
 5379TIP3    H137772   3.300   1.993   2.831  0.1822  0.7537 -0.6031
 5379TIP3    H237773   3.401   1.916   2.748  0.3471 -0.8942  1.0593
 5380TIP3   OH237774   2.745   4.933   8.510  0.0978  0.6036  0.3202
 5380TIP3    H137775   2.726   4.866   8.576  0.3213 -0.0985 -0.3149
 5380TIP3    H237776   2.659   4.966   8.484 -0.0460  0.1990  0.2712
 5381TIP3   OH237777   4.438   0.885   2.478 -0.1193  0.0508 -0.6407
 5381TIP3    H137778   4.523   0.927   2.490 -0.7859  1.0129  1.0975
 5381TIP3    H237779   4.447   0.834   2.397  1.2861  2.1628 -1.9055
 5382TIP3   OH237780   0.167   5.650   0.268 -0.0968  0.2554 -0.2295
 5382TIP3    H137781   0.153   5.557   0.251 -2.2221  0.5127 -0.1923
 5382TIP3    H237782   0.208   5.652   0.355 -0.3162 -0.6304 -0.0961
 5383TIP3   OH237783   0.170   4.057   0.764 -0.3511  0.1020  0.4822
 5383TIP3    H137784   0.143   3.987   0.823  2.5578 -0.0807  1.7413
 5383TIP3    H237785   0.174   4.135   0.818 -0.8594  0.6541 -0.2590
 5384TIP3   OH237786   4.297   6.785   0.170  0.0681 -0.3253 -0.1056
 5384TIP3    H137787   4.239   6.766   0.097  1.1029 -1.4246 -0.6738
 5384TIP3    H237788   4.385   6.788   0.131  0.8257 -2.4131  1.2635
 5385TIP3   OH237789   3.343   4.545   2.367  0.3129  0.1071  0.2869
 5385TIP3    H137790   3.296   4.481   2.314  1.2081 -2.4785  2.3908
 5385TIP3    H237791   3.417   4.496   2.403  0.6149  2.1134  2.6485
 5386TIP3   OH237792   0.128   6.257   3.163  0.0776 -0.5122 -0.0642
 5386TIP3    H137793   0.060   6.217   3.109 -1.4243 -0.2283  1.5149
 5386TIP3    H237794   0.175   6.183   3.201 -1.3465 -0.8117  1.2038
 5387TIP3   OH237795   2.610   2.996   2.116 -0.5956 -0.4587  0.3695
 5387TIP3    H137796   2.662   2.965   2.041 -0.7538  0.4381 -0.1212
 5387TIP3    H237797   2.648   2.952   2.192 -0.0441 -0.9126 -0.1638
 5388TIP3   OH237798   3.955   5.827   8.301  0.0057  0.0129 -0.4471
 5388TIP3    H137799   3.939   5.880   8.224  0.5008 -1.0109 -1.2740
 5388TIP3    H237800   3.956   5.737   8.269 -4.2420 -0.9316  1.4161
 5389TIP3   OH237801   4.056   0.954   0.382  0.2281  0.0554 -0.6974
 5389TIP3    H137802   4.057   1.006   0.302 -1.7257  0.9056 -0.2358
 5389TIP3    H237803   4.132   0.983   0.431 -0.4021  1.9910 -0.7863
 5390TIP3   OH237804   4.748   2.977   2.814  0.4838 -0.2578 -0.2652
 5390TIP3    H137805   4.779   3.067   2.824  0.2455 -0.0637 -1.1699
 5390TIP3    H237806   4.653   2.983   2.824  0.5728 -0.6193  0.9726
 5391TIP3   OH237807   6.649   6.792   1.826 -0.6704 -0.3103 -0.0266
 5391TIP3    H137808   6.572   6.837   1.861  0.1074  0.7342  0.4188
 5391TIP3    H237809   6.650   6.707   1.870  0.1425  0.8501  2.3975
 5392TIP3   OH237810   0.585   6.728   1.404 -0.4165 -0.4456 -0.1559
 5392TIP3    H137811   0.509   6.748   1.350  0.5041 -1.8969 -2.1195
 5392TIP3    H237812   0.658   6.769   1.360  0.2734 -1.0673  0.3707
 5393TIP3   OH237813   6.412   6.445   0.608 -0.2619  0.0500  0.3145
 5393TIP3    H137814   6.429   6.363   0.562 -1.2516  0.4010 -0.7239
 5393TIP3    H237815   6.491   6.497   0.593 -0.9056  0.5127 -1.8472
 5394TIP3   OH237816   3.985   2.252   0.847  0.0786  0.4749 -0.4851
 5394TIP3    H137817   4.070   2.294   0.836  0.3173 -0.0394 -0.6298
 5394TIP3    H237818   3.992   2.206   0.931  0.3191 -0.4303 -0.9882
 5395TIP3   OH237819   3.111   3.641   3.406 -0.2804  0.3036 -0.5456
 5395TIP3    H137820   3.099   3.735   3.393 -2.5527  0.2701  0.6792
 5395TIP3    H237821   3.053   3.620   3.480 -0.7563 -2.2537 -1.5231
 5396TIP3   OH237822   2.779   5.180   3.408 -0.0845 -0.2933 -0.1432
 5396TIP3    H137823   2.816   5.269   3.416 -1.6530  0.3201  0.7670
 5396TIP3    H237824   2.851   5.122   3.432  0.8402  0.7512 -0.3110
 5397TIP3   OH237825   4.715   6.030   1.753 -0.3585 -0.0224 -0.9071
 5397TIP3    H137826   4.634   6.004   1.797 -1.0701 -0.1719 -2.2670
 5397TIP3    H237827   4.686   6.074   1.674  0.8903  1.3013 -0.6545
 5398TIP3   OH237828   0.264   1.977   1.242 -0.1709  0.3939 -0.1202
 5398TIP3    H137829   0.300   1.939   1.161  0.2399  0.9330 -0.1928
 5398TIP3    H237830   0.183   1.928   1.256  1.1964 -1.8077  0.7850
 5399TIP3   OH237831   4.143   6.060   4.347 -0.1286  0.0110  0.5620
 5399TIP3    H137832   4.165   6.136   4.293  1.7639 -0.0580  1.1384
 5399TIP3    H237833   4.111   6.097   4.429 -1.9747  0.1245 -0.1730
 5400TIP3   OH237834   6.141   0.185   8.560  0.2321 -0.1335  0.2403
 5400TIP3    H137835   6.137   0.224   8.473 -1.5980 -0.5877  0.0734
 5400TIP3    H237836   6.179   0.099   8.546 -4.9265 -2.5754 -1.2046
 5401TIP3   OH237837   4.501   1.614   0.614 -0.1211  0.0034 -0.3569
 5401TIP3    H137838   4.518   1.601   0.521  0.2648  1.3364 -0.4803
 5401TIP3    H237839   4.583   1.589   0.657  0.2665  0.9922 -0.5110
 5402TIP3   OH237840   1.773   6.572   2.259  0.3643  0.5130 -0.1835
 5402TIP3    H137841   1.686   6.613   2.259  0.9249  1.8514  1.9602
 5402TIP3    H237842   1.834   6.646   2.262  1.5075 -0.4278  0.6333
 5403TIP3   OH237843   5.368   2.826   0.418 -0.1625  0.0253 -0.1171
 5403TIP3    H137844   5.448   2.833   0.470 -0.5655  1.3980  0.3643
 5403TIP3    H237845   5.399   2.820   0.328  0.4982  0.4080  0.0714
 5404TIP3   OH237846   5.573   5.590   3.757 -0.2163 -0.3861  0.9412
 5404TIP3    H137847   5.653   5.639   3.741  0.0896 -1.0223  0.4496
 5404TIP3    H237848   5.598   5.498   3.743 -0.3662 -0.8638  3.4208
 5405TIP3   OH237849   3.087   0.819   2.168  0.2483  0.0876  0.6685
 5405TIP3    H137850   3.150   0.755   2.136  0.2966 -0.6754  2.1803
 5405TIP3    H237851   3.029   0.835   2.093  1.3573 -0.2810 -0.3033
 5406TIP3   OH237852   4.037   4.681   0.048  0.0050 -0.1680 -0.1322
 5406TIP3    H137853   4.131   4.688   0.036 -0.1811  1.5646 -0.7740
 5406TIP3    H237854   4.027   4.646   0.137  1.2365 -1.0408 -0.3129
 5407TIP3   OH237855   2.098   0.809   0.783  0.6887 -0.1946 -0.3074
 5407TIP3    H137856   2.071   0.890   0.826 -2.0340 -2.1053  2.0049
 5407TIP3    H237857   2.073   0.821   0.692 -0.2497  1.3317  0.1038
 5408TIP3   OH237858   1.597   5.844   1.058 -0.0611 -0.1096 -0.3544
 5408TIP3    H137859   1.605   5.754   1.088  1.1833 -0.0201 -0.3633
 5408TIP3    H237860   1.528   5.842   0.992 -1.4028 -0.6889  1.0121
 5409TIP3   OH237861   2.696   4.872   3.111 -0.5404 -0.2292  0.6126
 5409TIP3    H137862   2.694   4.893   3.204  1.6194  0.0227  0.6431
 5409TIP3    H237863   2.736   4.785   3.106 -1.6878 -0.7470 -0.0331
 5410TIP3   OH237864   6.300   3.870   0.275  0.0830  0.1333  0.5266
 5410TIP3    H137865   6.285   3.937   0.208 -0.7241 -0.9945 -0.4724
 5410TIP3    H237866   6.270   3.788   0.234  1.8852 -1.0068  1.3526
 5411TIP3   OH237867   0.190   2.219   1.370  0.1568  0.4053  0.4131
 5411TIP3    H137868   0.150   2.195   1.453  0.1481  2.0099  0.9004
 5411TIP3    H237869   0.225   2.136   1.336 -2.1202 -0.7624  0.7212
 5412TIP3   OH237870   2.006   3.442   2.936  0.5613  0.2033  0.5626
 5412TIP3    H137871   2.038   3.376   2.875  0.3261  1.2297 -0.7295
 5412TIP3    H237872   1.978   3.514   2.880  0.3758  1.2121  1.9058
 5413TIP3   OH237873   6.459   1.254   7.837 -0.4320  0.1443 -0.2271
 5413TIP3    H137874   6.423   1.210   7.914 -0.1389  0.1779 -0.0696
 5413TIP3    H237875   6.393   1.242   7.769 -1.1598  0.9849  0.3089
 5414TIP3   OH237876   3.371   5.938   2.356 -0.1181 -0.2976 -0.3751
 5414TIP3    H137877   3.356   6.000   2.427  1.1459 -0.5792  0.1631
 5414TIP3    H237878   3.283   5.913   2.327 -0.6760  2.5927 -1.4228
 5415TIP3   OH237879   0.424   3.715   2.626  0.3577 -0.1000  0.2449
 5415TIP3    H137880   0.430   3.637   2.571 -0.4151  0.3778 -0.5433
 5415TIP3    H237881   0.387   3.782   2.568 -0.2139  0.4924  1.2694
 5416TIP3   OH237882   0.972   1.457   0.319 -0.3704 -0.7259 -0.1513
 5416TIP3    H137883   0.909   1.529   0.326  0.2328 -0.1130 -0.8871
 5416TIP3    H237884   1.048   1.495   0.276 -0.1872 -1.9052 -0.9197
 5417TIP3   OH237885   3.676   1.505   2.883 -0.1011  0.3336  0.6313
 5417TIP3    H137886   3.618   1.468   2.817  0.5015 -0.9596  0.7971
 5417TIP3    H237887   3.622   1.510   2.962  0.7191 -3.8181  1.6807
 5418TIP3   OH237888   6.437   0.035   2.688  0.8281 -0.5255 -0.2746
 5418TIP3    H137889   6.530   0.021   2.668  0.6609  0.5794 -2.0485
 5418TIP3    H237890   6.403   0.082   2.611 -1.1050 -0.5358  0.5279
 5419TIP3   OH237891   3.770   4.219   8.838 -0.3216  0.0123 -0.0418
 5419TIP3    H137892   3.833   4.149   8.856 -0.5771 -0.1397  0.2715
 5419TIP3    H237893   3.725   4.233   8.921 -1.3933 -0.5697 -0.4976
 5420TIP3   OH237894   2.779   6.777   3.572 -0.1705  0.3877 -0.0263
 5420TIP3    H137895   2.872   6.782   3.593 -0.1966  0.0866  0.1664
 5420TIP3    H237896   2.764   6.849   3.512 -0.1898  1.5378  1.3165
 5421TIP3   OH237897   3.273   3.561   0.145  0.3483 -0.2013 -0.3385
 5421TIP3    H137898   3.342   3.596   0.201 -1.4995  2.1898  0.6104
 5421TIP3    H237899   3.228   3.497   0.201  0.4296 -0.1345 -0.1950
 5422TIP3   OH237900   6.526   5.480   2.068  0.7333 -0.6440 -0.3768
 5422TIP3    H137901   6.541   5.394   2.106 -1.0360 -0.7041  0.2965
 5422TIP3    H237902   6.445   5.470   2.018 -1.2834  1.2584  2.1624
 5423TIP3   OH237903   3.605   6.761   0.815 -0.1478 -0.1887 -0.3300
 5423TIP3    H137904   3.680   6.784   0.761  0.2231 -0.5753  0.0130
 5423TIP3    H237905   3.565   6.686   0.771  0.0013 -0.3385 -0.2131
 5424TIP3   OH237906   6.482   5.476   1.087  0.4531  0.3026 -0.1194
 5424TIP3    H137907   6.400   5.495   1.042  2.3177  0.7616 -3.6927
 5424TIP3    H237908   6.490   5.545   1.152 -2.0000  0.1546  0.4355
 5425TIP3   OH237909   0.972   2.310   0.613 -0.1242  0.1953  0.2651
 5425TIP3    H137910   0.965   2.406   0.622 -0.4408  0.4561 -2.0582
 5425TIP3    H237911   1.062   2.296   0.582 -0.4269 -0.1392 -0.4720
 5426TIP3   OH237912   5.711   0.143   3.334 -0.1098  0.6930 -0.1637
 5426TIP3    H137913   5.654   0.090   3.389  2.9018 -0.6226  1.9956
 5426TIP3    H237914   5.732   0.087   3.259  0.1007  0.2828  0.1980
 5427TIP3   OH237915   1.547   0.371   8.818  0.3577  0.2920  0.0504
 5427TIP3    H137916   1.520   0.414   8.899 -1.3478  1.5293 -1.1148
 5427TIP3    H237917   1.481   0.396   8.754 -0.2711 -3.4078 -0.9582
 5428TIP3   OH237918   5.267   4.389   2.109 -0.3673 -0.1227  0.0210
 5428TIP3    H137919   5.195   4.361   2.166 -0.7560  3.6915  1.6847
 5428TIP3    H237920   5.287   4.478   2.137  0.4190  1.5640 -4.8994
 5429TIP3   OH237921   4.351   2.037   0.476  0.0021  0.0383  0.5523
 5429TIP3    H137922   4.433   1.999   0.507  0.4914  1.2846  0.8221
 5429TIP3    H237923   4.310   2.073   0.554 -1.2662 -1.3493  0.5806
 5430TIP3   OH237924   3.713   3.259   8.358 -0.0368 -0.6898 -0.2227
 5430TIP3    H137925   3.642   3.268   8.422 -1.0095 -1.5289 -1.1538
 5430TIP3    H237926   3.776   3.327   8.383 -1.7173  0.9098 -0.0991
 5431TIP3   OH237927   4.785   2.714   8.354  0.1023  0.2128  0.2848
 5431TIP3    H137928   4.810   2.806   8.367 -0.0429  0.2687  0.1699
 5431TIP3    H237929   4.706   2.718   8.300  0.5895 -0.0100 -0.4592
 5432TIP3   OH237930   1.665   3.476   3.435  0.1821 -1.0178 -0.3774
 5432TIP3    H137931   1.655   3.429   3.518  0.8326  1.2338  1.0731
 5432TIP3    H237932   1.759   3.473   3.417  0.3996  0.5344  0.3135
 5433TIP3   OH237933   5.494   5.296   0.550  0.2894 -0.0417 -0.1520
 5433TIP3    H137934   5.534   5.231   0.492  1.9125  0.9707 -0.2250
 5433TIP3    H237935   5.409   5.315   0.509  0.7562 -0.4544 -1.3534
 5434TIP3   OH237936   1.462   6.424   0.296  0.2828  0.0893 -0.2778
 5434TIP3    H137937   1.537   6.375   0.330  0.7093  2.6487  2.9809
 5434TIP3    H237938   1.496   6.472   0.221  0.8473 -1.6055 -1.1386
 5435TIP3   OH237939   5.305   0.993   0.561  0.4248  0.5633 -0.1072
 5435TIP3    H137940   5.322   0.927   0.493  1.7003  0.4068  0.3487
 5435TIP3    H237941   5.335   0.952   0.642  0.4945  1.4023  0.2990
 5436TIP3   OH237942   2.794   1.938   8.848  0.1893  0.2599 -0.1520
 5436TIP3    H137943   2.859   2.008   8.846 -1.8767  2.2955  0.4168
 5436TIP3    H237944   2.739   1.953   8.772 -2.4117  1.5076  1.8446
 5437TIP3   OH237945   3.834   0.212   1.843 -0.3466  0.3693  0.1228
 5437TIP3    H137946   3.789   0.141   1.796  0.5394  1.6127 -2.8294
 5437TIP3    H237947   3.764   0.272   1.869 -0.7288  0.7943 -1.7521
 5438TIP3   OH237948   4.540   1.040   0.719  0.0830  0.4529 -0.7570
 5438TIP3    H137949   4.486   1.107   0.760 -0.3097 -0.0865 -0.3779
 5438TIP3    H237950   4.597   1.008   0.790  2.1179  2.1633 -1.4970
 5439TIP3   OH237951   5.588   5.887   1.303 -0.5768 -0.1904  0.5779
 5439TIP3    H137952   5.578   5.885   1.208  3.2963  1.9532 -0.1013
 5439TIP3    H237953   5.528   5.955   1.332 -1.7733 -0.8398 -0.3047
 5440TIP3   OH237954   0.033   3.555   0.178 -0.2960 -0.1337 -0.2925
 5440TIP3    H137955  -0.015   3.593   0.251 -0.5239 -1.5595  0.3362
 5440TIP3    H237956   0.087   3.626   0.144 -1.4091  0.9845  0.2155
 5441TIP3   OH237957   6.142   6.533   0.888  0.0921  0.0609  0.0102
 5441TIP3    H137958   6.076   6.485   0.937 -1.5626  0.6372 -1.5597
 5441TIP3    H237959   6.100   6.616   0.865 -0.0828 -0.9379 -4.0925
 5442TIP3   OH237960   6.350   6.341   0.848 -0.2564  0.3804  0.1519
 5442TIP3    H137961   6.272   6.390   0.873  0.7112  1.8283  0.4960
 5442TIP3    H237962   6.386   6.390   0.774  0.4648 -0.1169  0.1610
 5443TIP3   OH237963   4.353   2.519   1.322 -0.1361 -0.4289  0.2441
 5443TIP3    H137964   4.432   2.479   1.286 -0.0833 -1.4326  1.4287
 5443TIP3    H237965   4.384   2.598   1.367  0.3392 -1.3250  1.5255
 5444TIP3   OH237966   2.983   1.762   3.228 -0.0318 -0.1699 -0.1063
 5444TIP3    H137967   3.013   1.833   3.171 -0.7420  1.0846  0.9998
 5444TIP3    H237968   2.968   1.805   3.313 -3.7956 -0.8480 -0.2460
 5445TIP3   OH237969   6.267   1.143   1.712 -0.0835 -0.5308 -0.1371
 5445TIP3    H137970   6.302   1.054   1.704  0.1561 -0.4384 -0.1376
 5445TIP3    H237971   6.296   1.172   1.799  1.6177  0.2957 -0.9202
 5446TIP3   OH237972   5.256   4.575   1.474  0.0956 -0.6240  0.1858
 5446TIP3    H137973   5.259   4.667   1.498 -1.9778 -0.6827  0.8575
 5446TIP3    H237974   5.189   4.570   1.406 -1.2602 -1.8641  1.5359
 5447TIP3   OH237975   4.627   3.103   3.435  0.3788 -0.2381 -0.6168
 5447TIP3    H137976   4.605   3.148   3.517 -0.7150  0.7350 -1.3988
 5447TIP3    H237977   4.719   3.081   3.443 -0.0275 -1.4458  1.4532
 5448TIP3   OH237978   1.865   2.085   2.479 -0.4956 -0.4696 -0.0035
 5448TIP3    H137979   1.821   2.158   2.523  0.9468  0.3974  0.0680
 5448TIP3    H237980   1.878   2.116   2.389  1.0705 -0.1840  0.3014
 5449TIP3   OH237981   1.218   5.724   1.099  0.4474  0.2414  0.5787
 5449TIP3    H137982   1.132   5.684   1.092  1.0435 -1.0380  0.3432
 5449TIP3    H237983   1.224   5.753   1.190 -1.4188  3.2095 -0.0964
 5450TIP3   OH237984   0.305   4.143   1.754  0.1035  0.2266 -0.9976
 5450TIP3    H137985   0.387   4.191   1.745 -0.7295  1.5443 -1.9122
 5450TIP3    H237986   0.268   4.142   1.666 -1.0675  0.0313 -0.5199
 5451TIP3   OH237987   6.201   2.388   2.060  0.1714  0.2338 -0.3209
 5451TIP3    H137988   6.131   2.323   2.062 -0.0797  0.5080  0.0142
 5451TIP3    H237989   6.248   2.371   1.978 -0.2713  0.0280 -0.5321
 5452TIP3   OH237990   3.519   3.469   1.897 -0.3941  0.0394  0.6925
 5452TIP3    H137991   3.477   3.471   1.983 -0.4578  0.9461  0.6474
 5452TIP3    H237992   3.532   3.561   1.874 -2.1618 -0.0917 -1.1280
 5453TIP3   OH237993   1.346   4.072   2.386 -0.0198  0.0972 -0.4096
 5453TIP3    H137994   1.252   4.089   2.389 -0.0126  0.1034  2.2181
 5453TIP3    H237995   1.378   4.121   2.311 -1.8667  1.4698 -0.3447
 5454TIP3   OH237996   2.196   1.633   0.462 -0.3102 -0.1373 -0.6111
 5454TIP3    H137997   2.174   1.716   0.421 -0.7696 -0.4360 -0.9834
 5454TIP3    H237998   2.115   1.581   0.456 -0.9103  0.3072  1.9653
 5455TIP3   OH237999   1.497   5.077   8.775  0.1041  0.9436  0.6388
 5455TIP3    H138000   1.436   5.150   8.779 -0.3190  0.5692  1.3804
 5455TIP3    H238001   1.468   5.025   8.700 -0.8149  0.5030  1.2790
 5456TIP3   OH238002   3.210   3.798   0.817  0.1513 -0.2173  0.5179
 5456TIP3    H138003   3.117   3.816   0.829  0.1207 -0.2424  0.3262
 5456TIP3    H238004   3.215   3.702   0.812 -0.0833 -0.1671 -1.5289
 5457TIP3   OH238005   6.436   6.166   0.632 -0.3215 -0.5256  0.0544
 5457TIP3    H138006   6.403   6.092   0.684 -1.1030 -0.5940 -0.5309
 5457TIP3    H238007   6.527   6.177   0.662 -0.0849 -1.9215 -0.0729
 5458TIP3   OH238008   6.642   0.863   2.689  0.1076 -0.1747 -0.4131
 5458TIP3    H138009   6.657   0.769   2.687  0.0779 -0.1737 -0.6968
 5458TIP3    H238010   6.702   0.899   2.624 -0.2675 -0.0549 -0.7018
 5459TIP3   OH238011   3.927   2.930   1.469 -0.2984 -0.0569 -0.1680
 5459TIP3    H138012   3.847   2.879   1.456 -1.4692  1.5332  0.4440
 5459TIP3    H238013   3.933   2.941   1.564  0.2218  0.4906 -0.2595
 5460TIP3   OH238014   4.364   2.843   0.183 -0.1700 -0.1103 -0.0068
 5460TIP3    H138015   4.365   2.928   0.228  2.0077 -0.2139  0.2093
 5460TIP3    H238016   4.305   2.789   0.237 -1.5091  1.1916 -0.0909
 5461TIP3   OH238017   5.160   5.054   8.765 -0.5140 -0.2431 -0.0135
 5461TIP3    H138018   5.212   5.120   8.719  1.0185 -0.6395  1.0650
 5461TIP3    H238019   5.075   5.096   8.778 -0.6163  0.3079 -2.1056
 5462TIP3   OH238020   5.854   6.021   2.690  0.0205  0.0913 -0.1671
 5462TIP3    H138021   5.769   5.978   2.686 -0.3981  0.9245 -0.5002
 5462TIP3    H238022   5.839   6.100   2.741  1.1421 -0.9352  1.8658
 5463TIP3   OH238023   2.973   0.746   1.251 -0.0260 -0.4155  0.7335
 5463TIP3    H138024   2.975   0.695   1.332  3.2118 -0.9718  0.4481
 5463TIP3    H238025   3.029   0.698   1.191 -1.9005  0.2832 -1.7063
 5464TIP3   OH238026   0.814   6.431   1.738  0.2728 -0.3876  0.0832
 5464TIP3    H138027   0.779   6.490   1.671  2.1268 -0.3398 -0.9190
 5464TIP3    H238028   0.880   6.483   1.783  1.2073 -1.3442 -0.1317
 5465TIP3   OH238029   4.890   6.143   8.253  0.0014 -0.4354  0.5615
 5465TIP3    H138030   4.885   6.238   8.241  0.2853 -0.7133 -2.5383
 5465TIP3    H238031   4.869   6.130   8.346  1.7677  2.7493  1.5637
 5466TIP3   OH238032   4.606   6.366   4.298 -0.0805 -0.1455 -0.1308
 5466TIP3    H138033   4.559   6.441   4.262  0.6551  0.1702 -0.4391
 5466TIP3    H238034   4.698   6.392   4.298  0.1561 -0.9480  0.0029
 5467TIP3   OH238035   1.838   6.098   0.890 -0.1034 -0.0388 -0.3374
 5467TIP3    H138036   1.761   6.070   0.840 -0.7634  0.1062  0.5708
 5467TIP3    H238037   1.865   6.020   0.938  1.5681 -0.6585 -2.1583
 5468TIP3   OH238038   6.584   0.297   8.023  0.6533 -0.4554 -0.3748
 5468TIP3    H138039   6.578   0.375   7.969 -0.1152 -1.1879 -1.3777
 5468TIP3    H238040   6.557   0.225   7.966 -2.0529 -1.0523  1.4361
 5469TIP3   OH238041   1.651   4.715   3.583 -0.2860  0.0817  0.1518
 5469TIP3    H138042   1.627   4.624   3.597 -0.5415 -0.0282 -0.9220
 5469TIP3    H238043   1.745   4.719   3.602 -0.2757 -0.4096  0.2015
 5470TIP3   OH238044   0.898   3.178   0.173  0.0470  0.6532  0.4385
 5470TIP3    H138045   0.844   3.238   0.224  3.2377  2.7715  1.6160
 5470TIP3    H238046   0.901   3.217   0.085 -2.1080 -0.7736 -0.3509
 5471TIP3   OH238047   0.224   1.364   8.366 -0.0649  0.3309 -0.1546
 5471TIP3    H138048   0.261   1.400   8.285 -0.4666  1.8348  0.2992
 5471TIP3    H238049   0.300   1.328   8.413  0.7612  2.6699  0.4055
 5472TIP3   OH238050   0.381   6.457   1.548 -0.1243 -0.1062 -0.2938
 5472TIP3    H138051   0.374   6.401   1.625  1.4333  0.7251  0.5135
 5472TIP3    H238052   0.445   6.524   1.573  0.9011 -0.1541 -2.4993
 5473TIP3   OH238053   3.350   3.518   0.661  0.0086  0.2297  0.3297
 5473TIP3    H138054   3.439   3.492   0.687 -0.0272  0.3458  0.5721
 5473TIP3    H238055   3.363   3.600   0.612  0.2088 -0.6518 -1.1791
 5474TIP3   OH238056   3.460   0.205   0.836  0.0406  0.0474  0.2145
 5474TIP3    H138057   3.491   0.115   0.853  1.1252  0.6741  1.8378
 5474TIP3    H238058   3.436   0.238   0.923 -1.7831  0.8591 -0.5470
 5475TIP3   OH238059   1.060   0.550   2.428  0.4613  0.0237 -0.0685
 5475TIP3    H138060   1.092   0.566   2.516 -0.5684  1.4496  0.0757
 5475TIP3    H238061   0.964   0.551   2.437  0.1869  3.7776 -1.6995
 5476TIP3   OH238062   1.703   0.726   1.394 -0.0184 -0.1746  0.0776
 5476TIP3    H138063   1.780   0.782   1.404  0.5212 -1.2171  2.2795
 5476TIP3    H238064   1.726   0.666   1.322  0.2440  0.9858 -0.8413
 5477TIP3   OH238065   5.994   4.083   3.755 -0.3714 -0.1567 -0.2318
 5477TIP3    H138066   6.017   4.138   3.681  0.1867 -1.3224 -0.9550
 5477TIP3    H238067   6.044   4.002   3.741 -0.0473 -0.3038  1.5458
 5478TIP3   OH238068   4.348   4.080   1.084 -0.4697  0.3687 -0.6239
 5478TIP3    H138069   4.428   4.129   1.102 -0.8801  0.6909  0.3832
 5478TIP3    H238070   4.375   3.989   1.087  0.0524  0.4928 -1.2797
 5479TIP3   OH238071   2.847   4.882   1.390  0.1350  0.1071 -0.5855
 5479TIP3    H138072   2.818   4.794   1.414  1.7196  0.2389  2.1593
 5479TIP3    H238073   2.826   4.888   1.297 -1.6499 -2.4824 -0.4879
 5480TIP3   OH238074   4.253   3.200   8.649  0.1973  0.3896  0.0783
 5480TIP3    H138075   4.338   3.177   8.612  0.6774  0.0363  1.3648
 5480TIP3    H238076   4.269   3.214   8.742 -0.9250  1.5807  0.1242
 5481TIP3   OH238077   0.555   1.183   2.080 -0.5434 -0.0379  0.0833
 5481TIP3    H138078   0.585   1.114   2.138  2.1550  0.7897 -0.1445
 5481TIP3    H238079   0.609   1.259   2.103 -2.2770  1.5325 -0.7435
 5482TIP3   OH238080   4.237   0.059   0.608  0.2758 -0.0369  0.5353
 5482TIP3    H138081   4.314   0.003   0.603  0.1145 -0.1235 -1.9121
 5482TIP3    H238082   4.169   0.004   0.648  0.4330 -1.2369 -0.7925
 5483TIP3   OH238083   5.098   3.912   1.514  0.1058 -0.1591 -0.1662
 5483TIP3    H138084   5.131   3.823   1.511 -1.0648 -0.5863 -2.6730
 5483TIP3    H238085   5.161   3.963   1.462  1.1552  0.6773  1.8272
 5484TIP3   OH238086   5.152   3.148   2.605 -0.1206  0.4730 -0.0277
 5484TIP3    H138087   5.089   3.077   2.593  0.8519 -0.3517 -0.2938
 5484TIP3    H238088   5.156   3.161   2.700  0.2575 -0.3398  0.0707
 5485TIP3   OH238089   1.852   1.029   2.792  0.3520 -0.3217 -0.0868
 5485TIP3    H138090   1.781   0.972   2.821 -0.1329  0.1585 -0.3384
 5485TIP3    H238091   1.848   1.105   2.850  0.6482 -0.2856 -0.1121
 5486TIP3   OH238092   1.677   4.197   3.029  0.0469 -0.1051  0.3813
 5486TIP3    H138093   1.586   4.166   3.027  0.5853 -1.8396  0.5884
 5486TIP3    H238094   1.724   4.129   3.078  1.0547  1.9669  2.4804
 5487TIP3   OH238095   6.406   0.125   2.441  0.2113  0.2079  0.2188
 5487TIP3    H138096   6.498   0.133   2.416  0.0943 -2.8781 -1.7848
 5487TIP3    H238097   6.357   0.144   2.360 -0.5952 -2.5024 -0.0345
 5488TIP3   OH238098   1.981   0.534   8.663  0.3440  0.1251 -0.4033
 5488TIP3    H138099   1.899   0.511   8.619 -0.4295 -0.5534  1.2989
 5488TIP3    H238100   2.003   0.456   8.714  1.5697  0.6347 -0.1208
 5489TIP3   OH238101   2.102   2.115   2.594 -0.7237 -0.5353 -0.2722
 5489TIP3    H138102   2.018   2.076   2.569 -0.0615 -1.9209 -0.3961
 5489TIP3    H238103   2.127   2.168   2.519 -0.4628 -1.8538 -1.1494
 5490TIP3   OH238104   2.315   1.024   0.558  0.3252  0.6586  0.1721
 5490TIP3    H138105   2.286   0.933   0.561 -1.8790  1.3255  0.5254
 5490TIP3    H238106   2.411   1.019   0.556  0.2604 -1.6334  0.8898
 5491TIP3   OH238107   0.739   4.919   3.091  0.0463  0.3791 -0.4373
 5491TIP3    H138108   0.810   4.885   3.144 -0.9786  0.8138  1.2756
 5491TIP3    H238109   0.742   5.014   3.102  1.1871  0.7452 -3.0101
 5492TIP3   OH238110   3.166   2.156   0.995  0.1919 -0.2900 -0.0857
 5492TIP3    H138111   3.189   2.192   1.081 -2.5257  0.9202  0.2314
 5492TIP3    H238112   3.224   2.080   0.985  2.7738  1.3265  1.3782
 5493TIP3   OH238113   3.733   1.400   2.507  0.3586 -0.4465  0.3955
 5493TIP3    H138114   3.733   1.304   2.503  0.3309 -0.4779  1.1626
 5493TIP3    H238115   3.654   1.425   2.459  1.5444 -0.7021 -1.8176
 5494TIP3   OH238116   6.376   4.435   3.218 -0.1594 -0.0854 -0.4621
 5494TIP3    H138117   6.424   4.356   3.195 -0.7339 -0.7617  0.5764
 5494TIP3    H238118   6.290   4.425   3.175  0.1144  0.4669 -1.1649
 5495TIP3   OH238119   6.083   0.684   0.820  0.6415 -0.0015  0.2178
 5495TIP3    H138120   6.016   0.714   0.759  0.9722 -1.4423 -0.9147
 5495TIP3    H238121   6.151   0.751   0.816  1.7804 -1.1524 -2.9172
 5496TIP3   OH238122   1.028   4.172   0.738 -0.1888  0.1020  0.3738
 5496TIP3    H138123   0.985   4.199   0.657 -0.3765  0.2469  0.5210
 5496TIP3    H238124   0.966   4.196   0.807  1.0852  2.4600  0.7990
 5497TIP3   OH238125   3.488   2.877   1.899 -0.0629  0.4513  0.2432
 5497TIP3    H138126   3.565   2.821   1.893 -0.0689  0.5377 -0.7809
 5497TIP3    H238127   3.464   2.896   1.808 -1.4690  0.1787  0.5268
 5498TIP3   OH238128   0.747   1.897   8.205 -0.5070  0.3385  0.4547
 5498TIP3    H138129   0.749   1.838   8.281 -0.8970  0.6766  0.7311
 5498TIP3    H238130   0.737   1.839   8.130 -0.3351  0.0149  0.6801
 5499TIP3   OH238131   5.652   5.564   2.036 -0.2059  0.1469 -0.2565
 5499TIP3    H138132   5.625   5.494   1.976  0.7479 -1.0989  0.6898
 5499TIP3    H238133   5.737   5.592   2.003  0.4488 -0.7356  0.6390
 5500TIP3   OH238134   2.759   4.905   0.646 -0.0887  0.2366 -0.0372
 5500TIP3    H138135   2.678   4.954   0.637  0.1968  0.6347 -0.4976
 5500TIP3    H238136   2.796   4.934   0.729 -0.5319 -0.1245  0.2907
 5501TIP3   OH238137   5.446   1.384   0.207  0.0542  0.1805  0.4125
 5501TIP3    H138138   5.376   1.448   0.211  1.9554  2.3624  0.9804
 5501TIP3    H238139   5.474   1.384   0.115  0.0184  0.1144  0.4013
 5502TIP3   OH238140   3.826   0.761   3.812  0.0925 -0.3743 -0.2816
 5502TIP3    H138141   3.897   0.701   3.836 -0.4602 -1.2204 -0.6692
 5502TIP3    H238142   3.818   0.821   3.886 -0.1163 -1.5377  0.6733
 5503TIP3   OH238143   2.604   3.982   2.151  0.1639 -0.6821 -0.2416
 5503TIP3    H138144   2.548   3.910   2.178  2.0802 -1.6808  1.3312
 5503TIP3    H238145   2.565   4.060   2.191 -0.3444 -1.2878  0.4497
 5504TIP3   OH238146   2.930   2.164   8.746  0.0654  0.3583 -0.1390
 5504TIP3    H138147   2.983   2.109   8.688  1.6337  1.8599 -0.2152
 5504TIP3    H238148   2.893   2.231   8.689 -0.3274  0.4634  0.2305
 5505TIP3   OH238149   2.068   0.427   2.358  0.1993  0.3772  0.0257
 5505TIP3    H138150   2.120   0.385   2.290  1.1452  1.9884 -0.3129
 5505TIP3    H238151   2.070   0.366   2.431  2.4194  0.2588 -0.0584
 5506TIP3   OH238152   6.383   0.730   8.396  0.4133  0.0358 -0.2909
 5506TIP3    H138153   6.411   0.639   8.382 -0.9732 -0.5657  0.6230
 5506TIP3    H238154   6.386   0.742   8.491  0.4124  0.8818 -0.3914
 5507TIP3   OH238155   2.913   3.120   8.607  0.4120  0.4237 -0.2324
 5507TIP3    H138156   2.983   3.182   8.587  0.2059  0.0370 -2.5359
 5507TIP3    H238157   2.839   3.149   8.552 -0.9547  0.2987  1.4603
 5508TIP3   OH238158   1.630   0.553   3.318  0.0231  0.4125  0.2350
 5508TIP3    H138159   1.646   0.633   3.269 -1.4347  1.1690  0.9522
 5508TIP3    H238160   1.620   0.582   3.409 -2.2748 -0.3234  0.2696
 5509TIP3   OH238161   2.468   1.191   2.499  0.1640 -0.3929 -0.3248
 5509TIP3    H138162   2.470   1.194   2.595  1.2315  0.0657 -0.3417
 5509TIP3    H238163   2.396   1.248   2.475 -1.5861 -2.2418  0.2335
 5510TIP3   OH238164   2.670   1.169   8.564 -0.2805 -0.4951  0.5475
 5510TIP3    H138165   2.604   1.202   8.502 -1.3267 -2.8080  0.3471
 5510TIP3    H238166   2.666   1.231   8.637 -2.7554 -0.5529  0.5652
 5511TIP3   OH238167   0.766   5.862   0.416  0.0821  0.3101 -0.1192
 5511TIP3    H138168   0.732   5.794   0.475 -3.5564  2.3773  0.4821
 5511TIP3    H238169   0.760   5.942   0.467  1.7866  1.4720 -1.6518
 5512TIP3   OH238170   2.351   0.765   0.607  0.0297  0.1092  0.0852
 5512TIP3    H138171   2.426   0.775   0.549  0.4068 -0.3709  0.4753
 5512TIP3    H238172   2.323   0.674   0.594 -0.8430  0.4405 -0.4711
 5513TIP3   OH238173   1.281   6.259   3.006  0.0039 -0.3176  0.3283
 5513TIP3    H138174   1.263   6.322   3.077  0.4511  0.6417 -0.3885
 5513TIP3    H238175   1.229   6.291   2.932 -1.8055 -2.2701  0.6622
 5514TIP3   OH238176   5.190   0.635   1.948 -0.0646  0.5445  0.2612
 5514TIP3    H138177   5.242   0.587   2.012  0.4164  0.4518 -0.1935
 5514TIP3    H238178   5.103   0.639   1.986 -0.0019 -0.2958  0.5176
 5515TIP3   OH238179   1.445   6.349   0.612 -0.3476  0.3204  0.0148
 5515TIP3    H138180   1.503   6.338   0.537 -0.4567  2.0711 -0.3739
 5515TIP3    H238181   1.357   6.346   0.575 -0.6146 -2.6736  0.6472
 5516TIP3   OH238182   2.288   0.185   1.380 -0.2834  0.4829  0.1075
 5516TIP3    H138183   2.229   0.155   1.312  0.7129  0.3758 -0.7277
 5516TIP3    H238184   2.277   0.280   1.380 -0.5274  0.4571  0.0352
 5517TIP3   OH238185   4.247   1.092   3.589  0.2481 -0.0968 -0.1409
 5517TIP3    H138186   4.319   1.061   3.534  0.1953  1.0778 -0.9044
 5517TIP3    H238187   4.287   1.157   3.646  0.1002 -0.6079  0.5633
 5518TIP3   OH238188   4.213   2.653   1.590  0.0513  1.0095 -0.0085
 5518TIP3    H138189   4.140   2.610   1.634 -0.9968  2.7570  0.0656
 5518TIP3    H238190   4.190   2.649   1.497  1.4033 -1.1244 -0.3082
 5519TIP3   OH238191   5.718   5.945   1.900 -0.0894  0.3623  0.4440
 5519TIP3    H138192   5.767   5.919   1.978  0.1491 -0.6116 -0.0082
 5519TIP3    H238193   5.644   5.884   1.896  0.1061  0.1565 -0.2788
 5520TIP3   OH238194   4.328   1.715   7.914  0.2863 -0.7893 -0.0402
 5520TIP3    H138195   4.263   1.762   7.862 -0.3865 -2.1127 -0.4405
 5520TIP3    H238196   4.314   1.622   7.893 -0.2785 -1.4439  2.7605
 5521TIP3   OH238197   4.226   1.437   2.742 -0.0314 -0.3435  0.3779
 5521TIP3    H138198   4.145   1.386   2.737 -0.2468  0.0921 -1.7056
 5521TIP3    H238199   4.295   1.372   2.754 -0.2859 -1.2361 -2.2876
 5522TIP3   OH238200   6.008   1.414   1.932 -0.5201  0.9056 -0.2305
 5522TIP3    H138201   5.945   1.464   1.984 -0.7253  2.1556 -1.6276
 5522TIP3    H238202   5.963   1.331   1.913 -0.5222  0.5227  1.3540
 5523TIP3   OH238203   2.220   2.938   3.020  0.7208  0.1954 -0.5453
 5523TIP3    H138204   2.224   2.843   3.008  0.0218  0.2464 -1.2012
 5523TIP3    H238205   2.142   2.966   2.973 -0.2564  0.8472  1.3693
 5524TIP3   OH238206   4.497   5.390   8.734  0.0255  0.2043 -0.0283
 5524TIP3    H138207   4.439   5.341   8.676  0.2504  0.6505 -0.6499
 5524TIP3    H238208   4.441   5.457   8.773 -0.6926 -1.5893  2.1876
 5525TIP3   OH238209   3.494   1.862   1.098  0.2897  0.0182 -0.3360
 5525TIP3    H138210   3.520   1.855   1.006 -2.5763 -0.1212 -1.2328
 5525TIP3    H238211   3.443   1.783   1.115 -1.6042  1.3335  0.4876
 5526TIP3   OH238212   2.460   1.858   2.736  0.0105 -0.6232  0.7953
 5526TIP3    H138213   2.448   1.796   2.808 -0.0540 -1.8451 -0.2190
 5526TIP3    H238214   2.513   1.810   2.672  2.2627  1.3362  1.0889
 5527TIP3   OH238215   2.970   2.654   2.211 -0.3715  0.1662 -0.7485
 5527TIP3    H138216   2.940   2.591   2.145 -1.0811 -1.0916  0.7003
 5527TIP3    H238217   2.901   2.720   2.214 -0.2465  0.3279 -1.3921
 5528TIP3   OH238218   6.412   5.058   8.889 -0.0738 -0.1625  0.2654
 5528TIP3    H138219   6.421   4.974   8.934  0.6242 -0.8689 -1.1365
 5528TIP3    H238220   6.475   5.054   8.818 -2.5679  0.0200 -2.1311
 5529TIP3   OH238221   0.101   0.970   1.531  0.0417 -0.0741 -0.4525
 5529TIP3    H138222   0.173   1.001   1.476  0.0842  1.1025  0.2259
 5529TIP3    H238223   0.059   0.901   1.479  0.2000  0.8512 -1.8889
 5530TIP3   OH238224   0.368   5.182   3.789 -0.0059  0.2178 -0.6838
 5530TIP3    H138225   0.372   5.258   3.731 -0.0339  0.2996 -0.5775
 5530TIP3    H238226   0.312   5.120   3.743  0.5116  0.0176 -1.0569
 5531TIP3   OH238227   3.113   6.562   0.304 -0.2639  0.3012  0.6507
 5531TIP3    H138228   3.066   6.585   0.224  0.9167  0.7650  0.0629
 5531TIP3    H238229   3.051   6.507   0.354 -0.2968 -1.8136 -1.5421
 5532TIP3   OH238230   3.435   1.093   8.349  0.5888  0.4859 -0.2870
 5532TIP3    H138231   3.342   1.111   8.355  0.4396 -0.0447 -0.8242
 5532TIP3    H238232   3.440   1.001   8.322  1.2916  0.0255  1.2945
 5533TIP3   OH238233   1.773   3.910   1.788  0.3261 -0.1143  0.1335
 5533TIP3    H138234   1.825   3.938   1.712 -0.9433  1.0158 -0.3684
 5533TIP3    H238235   1.698   3.971   1.789 -1.8831 -2.6592 -0.1704
 5534TIP3   OH238236   4.488   0.823   1.057  0.2981  0.4338  0.1623
 5534TIP3    H138237   4.503   0.779   1.141 -1.5283  0.6099  0.6275
 5534TIP3    H238238   4.499   0.754   0.991  1.5653  0.2516  0.5473
 5535TIP3   OH238239   2.126   4.936   1.273  0.1932 -0.3778 -0.2320
 5535TIP3    H138240   2.125   4.885   1.191  0.9359 -2.8287  1.1694
 5535TIP3    H238241   2.210   4.914   1.313 -0.6736 -0.2613  1.7678
 5536TIP3   OH238242   1.349   2.350   0.722  0.3413  0.6828  0.0054
 5536TIP3    H138243   1.361   2.288   0.794  2.3215  0.7607 -0.2110
 5536TIP3    H238244   1.288   2.305   0.663  0.5921 -0.4373  0.5680
 5537TIP3   OH238245   6.574   3.843   1.376 -0.5224 -0.2149 -0.7852
 5537TIP3    H138246   6.620   3.778   1.323 -2.5165 -2.2988 -0.1003
 5537TIP3    H238247   6.495   3.798   1.407 -0.6565  1.6799  1.9882
 5538TIP3   OH238248   1.470   5.750   3.405  0.1402 -0.0426  0.5682
 5538TIP3    H138249   1.452   5.827   3.350 -0.5922 -0.6424 -0.0430
 5538TIP3    H238250   1.439   5.775   3.492 -3.6489 -0.9604 -0.3750
 5539TIP3   OH238251   2.918   4.972   2.923 -0.3599 -0.3236  0.3520
 5539TIP3    H138252   2.856   4.910   2.961 -0.0468 -0.6416  0.3517
 5539TIP3    H238253   2.940   5.031   2.995  0.4024 -1.0595  0.7423
 5540TIP3   OH238254   5.048   4.001   3.086  0.7926  0.2816 -0.0828
 5540TIP3    H138255   5.042   4.050   3.168 -1.4787 -2.2212  1.3898
 5540TIP3    H238256   5.141   3.978   3.079  1.2223  1.4611  1.1788
 5541TIP3   OH238257   0.437   0.601   2.914  0.2506  0.0568 -0.1815
 5541TIP3    H138258   0.419   0.530   2.853  0.2353 -1.4047  1.4426
 5541TIP3    H238259   0.415   0.681   2.866 -0.0794 -1.0480 -1.9328
 5542TIP3   OH238260   2.807   5.925   8.405  0.0209 -0.4995  0.0001
 5542TIP3    H138261   2.797   5.958   8.495  0.6456 -0.9869  0.2578
 5542TIP3    H238262   2.789   6.001   8.349 -1.7361 -0.5094  0.4870
 5543TIP3   OH238263   1.215   3.850   3.058  0.9406 -0.2597 -0.1546
 5543TIP3    H138264   1.218   3.795   3.136 -0.6650 -1.0607 -0.6196
 5543TIP3    H238265   1.280   3.812   2.999 -0.1961 -1.7523 -0.4987
 5544TIP3   OH238266   3.548   1.457   2.310 -0.8744  0.0078 -0.5805
 5544TIP3    H138267   3.617   1.510   2.270 -0.7443  0.7912  0.6360
 5544TIP3    H238268   3.472   1.514   2.316 -0.2151  0.7434  2.3716
 5545TIP3   OH238269   1.882   1.355   3.361  0.1775  0.5366  0.2120
 5545TIP3    H138270   1.899   1.282   3.301  0.6344  0.4222  0.4747
 5545TIP3    H238271   1.871   1.431   3.303  0.8206  0.4672 -0.0162
 5546TIP3   OH238272   1.623   3.045   3.648  0.1047 -0.2381 -0.0473
 5546TIP3    H138273   1.638   3.140   3.643  1.9949 -0.4902  0.3640
 5546TIP3    H238274   1.621   3.026   3.741 -1.0526 -0.5168 -0.1125
 5547TIP3   OH238275   3.427   1.268   2.686 -0.0682  0.1695 -0.8740
 5547TIP3    H138276   3.400   1.277   2.595  0.9388  0.4065 -1.1651
 5547TIP3    H238277   3.417   1.356   2.723 -0.9473 -0.0347 -0.6136
 5548TIP3   OH238278   0.567   4.340   8.857  0.2990 -0.2559 -0.1250
 5548TIP3    H138279   0.662   4.348   8.865  0.2181  0.5502  0.1269
 5548TIP3    H238280   0.534   4.355   8.945 -0.1081  0.3232 -0.3709
 5549TIP3   OH238281   5.633   1.327   4.075  0.1700 -0.7323 -0.3315
 5549TIP3    H138282   5.664   1.347   3.987 -1.1876 -1.7928 -1.0845
 5549TIP3    H238283   5.612   1.234   4.072 -0.9294 -0.5347  0.7884
 5550TIP3   OH238284   6.327   5.548   2.633  0.0054  0.2982 -0.1367
 5550TIP3    H138285   6.244   5.591   2.616  0.1667 -0.2679 -2.8221
 5550TIP3    H238286   6.304   5.456   2.650  0.0511  0.0525 -1.2895
 5551TIP3   OH238287   4.739   1.725   3.111  0.1485  0.4612 -0.1193
 5551TIP3    H138288   4.765   1.800   3.057 -2.7656  0.0295 -2.4262
 5551TIP3    H238289   4.684   1.672   3.053 -0.7814 -1.6559  2.4738
 5552TIP3   OH238290   4.873   2.265   1.677 -0.1091 -0.2595 -0.0425
 5552TIP3    H138291   4.965   2.240   1.693 -0.3370 -0.3588  1.2615
 5552TIP3    H238292   4.843   2.297   1.762 -1.6582 -1.4353 -0.1091
 5553TIP3   OH238293   5.112   3.048   3.285  0.0784  0.6000 -0.1487
 5553TIP3    H138294   5.178   3.024   3.350 -1.8734 -0.1746  1.6710
 5553TIP3    H238295   5.083   2.965   3.248 -0.3031  0.8754 -0.4869
 5554TIP3   OH238296   2.060   3.721   1.431 -0.3895  0.0298 -0.0401
 5554TIP3    H138297   2.056   3.740   1.337  2.6890 -2.7154 -0.9430
 5554TIP3    H238298   2.007   3.641   1.442  0.0454 -0.2141  0.3251
 5555TIP3   OH238299   4.991   2.768   0.253 -0.1306  0.0850  0.4845
 5555TIP3    H138300   4.928   2.769   0.325  0.6099 -1.1168  1.1694
 5555TIP3    H238301   5.046   2.844   0.268 -0.6362  0.4387  0.5777
 5556TIP3   OH238302   6.229   3.022   2.317  0.3895 -0.4182 -0.2459
 5556TIP3    H138303   6.310   3.072   2.314  1.5825 -2.1539  0.9935
 5556TIP3    H238304   6.250   2.945   2.371 -2.5625 -0.0409  1.6930
 5557TIP3   OH238305   6.013   0.441   1.521  0.4911 -0.1317 -1.0680
 5557TIP3    H138306   6.085   0.386   1.489  0.4597 -1.5514  1.0633
 5557TIP3    H238307   6.031   0.451   1.615 -2.0762 -0.5577 -0.4658
 5558TIP3   OH238308   5.956   1.672   0.354  0.2842  0.1778 -0.5586
 5558TIP3    H138309   5.876   1.619   0.350  0.9650 -0.8259 -1.0854
 5558TIP3    H238310   5.978   1.688   0.262  0.3000  1.0704 -0.4083
 5559TIP3   OH238311   1.361   2.391   8.548 -0.3995  0.5663  0.4558
 5559TIP3    H138312   1.390   2.395   8.457 -0.1337  1.7535  0.5739
 5559TIP3    H238313   1.266   2.385   8.542 -0.4126  1.0788  0.1050
 5560TIP3   OH238314   3.550   2.211   1.718 -0.0311 -0.2006  0.4161
 5560TIP3    H138315   3.628   2.178   1.673 -1.0773 -0.3997 -1.3650
 5560TIP3    H238316   3.583   2.246   1.801  2.3294  1.9204 -1.2746
 5561TIP3   OH238317   2.197   1.638   8.488 -0.4393  0.0203  0.8657
 5561TIP3    H138318   2.212   1.597   8.403  1.9357  1.0433  0.7213
 5561TIP3    H238319   2.146   1.573   8.537 -2.5801 -0.2661 -1.5486
 5562TIP3   OH238320   5.690   0.327   8.108  0.4398  0.0729  0.0977
 5562TIP3    H138321   5.753   0.371   8.165 -0.8687  1.1799  0.7653
 5562TIP3    H238322   5.726   0.336   8.020  1.0771  0.9128  0.4322
 5563TIP3   OH238323   0.386   4.679   3.972  0.6686  0.2873  0.3021
 5563TIP3    H138324   0.334   4.698   3.894  1.1983  0.4240 -0.0233
 5563TIP3    H238325   0.321   4.658   4.040  0.1470  1.4483  0.1862
 5564TIP3   OH238326   1.435   0.712   0.104  0.5922 -0.1065 -0.0351
 5564TIP3    H138327   1.505   0.740   0.164  3.0361 -1.4071 -2.0759
 5564TIP3    H238328   1.482   0.679   0.027 -2.3040 -1.4776 -1.3464
 5565TIP3   OH238329   5.980   6.528   3.884 -0.3733  0.2531 -0.1966
 5565TIP3    H138330   5.969   6.502   3.793 -1.9918  1.6399 -0.4505
 5565TIP3    H238331   5.891   6.529   3.920  0.2736 -0.6611  1.5307
 5566TIP3   OH238332   2.580   1.642   3.398  0.1486  0.0222  0.3093
 5566TIP3    H138333   2.594   1.646   3.493 -0.9537 -0.1452  0.4943
 5566TIP3    H238334   2.565   1.733   3.373  0.3783  0.0588  0.2980
 5567TIP3   OH238335   3.547   2.077   0.561 -0.1887 -0.1405 -0.3853
 5567TIP3    H138336   3.600   2.062   0.483  1.6217 -2.9473  1.2101
 5567TIP3    H238337   3.610   2.106   0.628 -1.5831  1.5947  0.2811
 5568TIP3   OH238338   2.920   3.259   1.852  0.5202 -0.0058 -0.6681
 5568TIP3    H138339   2.952   3.211   1.929  2.3446 -0.1048 -1.4298
 5568TIP3    H238340   2.905   3.191   1.786  0.4080  0.2148 -0.8703
 5569TIP3   OH238341   2.445   6.638   2.490  0.5192  0.3300 -0.3670
 5569TIP3    H138342   2.503   6.577   2.446  0.5804 -0.1731  0.3909
 5569TIP3    H238343   2.423   6.595   2.573  0.4639  1.2792  0.1275
 5570TIP3   OH238344   5.422   0.005   2.897 -0.1275 -0.3626  0.0829
 5570TIP3    H138345   5.476   0.075   2.933  1.4175 -1.7528  0.5827
 5570TIP3    H238346   5.401   0.034   2.808 -0.7021  1.3299  0.7186
 5571TIP3   OH238347   3.728   1.083   8.420 -0.3416  0.2715  0.1578
 5571TIP3    H138348   3.776   1.009   8.383 -0.7952  0.9342 -1.9348
 5571TIP3    H238349   3.639   1.071   8.387 -0.4904  1.5467  0.0738
 5572TIP3   OH238350   4.322   1.717   1.595  0.3454 -0.8683  0.2969
 5572TIP3    H138351   4.332   1.749   1.506 -0.7397 -0.4947  0.3019
 5572TIP3    H238352   4.365   1.631   1.594  2.8312  0.2848  0.1587
 5573TIP3   OH238353   1.733   5.666   2.258 -0.7502 -0.5413  0.1774
 5573TIP3    H138354   1.677   5.689   2.333 -0.0232 -1.2036  0.9522
 5573TIP3    H238355   1.687   5.700   2.182 -1.3075  0.5371  0.9699
 5574TIP3   OH238356   6.039   1.546   1.662  0.2799  0.2472 -0.1273
 5574TIP3    H138357   6.042   1.511   1.573  1.1299 -0.0337  0.0009
 5574TIP3    H238358   6.015   1.470   1.716 -0.8932  0.5676 -0.1849
 5575TIP3   OH238359   4.847   1.935   1.531  0.0022 -0.2000  0.1195
 5575TIP3    H138360   4.840   1.852   1.485 -0.6309 -0.4507  0.6475
 5575TIP3    H238361   4.757   1.962   1.546  0.1810 -0.1923  1.3166
 5576TIP3   OH238362   3.882   3.307   0.138 -0.5026  0.1940 -0.3116
 5576TIP3    H138363   3.878   3.302   0.042  0.1091  0.8545 -0.3782
 5576TIP3    H238364   3.942   3.379   0.156 -2.5453  1.7659  0.5620
 5577TIP3   OH238365   6.053   1.405   3.126  0.1814  0.1140  0.0094
 5577TIP3    H138366   6.017   1.320   3.098  0.9421  0.1726 -1.2203
 5577TIP3    H238367   6.018   1.417   3.214 -1.6605 -0.4966 -0.5735
 5578TIP3   OH238368   4.990   6.509   0.826  0.3486  0.1043 -0.1251
 5578TIP3    H138369   4.980   6.566   0.749  0.8296 -0.4227 -0.5844
 5578TIP3    H238370   4.946   6.428   0.802 -0.0575  0.1590  0.4099
 5579TIP3   OH238371   1.098   0.446   3.738 -0.2298 -0.0044  0.0893
 5579TIP3    H138372   1.056   0.500   3.672  1.6891  1.6311  0.0951
 5579TIP3    H238373   1.027   0.396   3.778 -2.1870  2.7265  0.2664
 5580TIP3   OH238374   1.778   1.639   0.305  0.0610 -0.0748  0.3405
 5580TIP3    H138375   1.834   1.573   0.265 -0.5111 -0.4742  0.1923
 5580TIP3    H238376   1.835   1.682   0.370  0.7280 -0.0161 -0.2755
 5581TIP3   OH238377   2.010   1.976   1.718 -0.0171  0.0122  0.1497
 5581TIP3    H138378   1.928   2.003   1.677  0.6503  0.9083 -0.6552
 5581TIP3    H238379   2.036   1.897   1.670  1.2033  1.5342 -1.8713
 5582TIP3   OH238380   4.439   0.608   0.405  0.2765 -0.0960 -0.1446
 5582TIP3    H138381   4.461   0.640   0.493 -3.7532 -1.2405  1.5111
 5582TIP3    H238382   4.397   0.682   0.362 -0.6998 -0.4612  0.1643
 5583TIP3   OH238383   0.521   2.538   8.338  0.6917 -0.2593  0.3477
 5583TIP3    H138384   0.567   2.483   8.275  0.4578 -0.4116  0.3073
 5583TIP3    H238385   0.484   2.609   8.285  3.1963  1.4673  0.7092
 5584TIP3   OH238386   4.728   2.956   1.827 -0.1233 -0.6508  0.5388
 5584TIP3    H138387   4.800   2.921   1.879 -0.7116 -2.3621  0.2663
 5584TIP3    H238388   4.765   3.032   1.783  1.0992 -0.6688  1.4921
 5585TIP3   OH238389   5.117   0.099   8.624  0.1167  0.2424  0.0009
 5585TIP3    H138390   5.196   0.113   8.676  2.7152 -1.0429 -3.2477
 5585TIP3    H238391   5.128   0.155   8.548 -2.1179 -0.0342 -0.5986
 5586TIP3   OH238392   3.618   3.226   3.437 -0.5338  0.3749 -0.0341
 5586TIP3    H138393   3.703   3.207   3.396 -0.4118 -0.2940  0.5086
 5586TIP3    H238394   3.604   3.153   3.497 -0.3087  1.7252  1.7202
 5587TIP3   OH238395   4.340   3.461   4.284 -0.5816  0.4879 -0.4175
 5587TIP3    H138396   4.319   3.552   4.263 -0.1240  1.2795  2.1719
 5587TIP3    H238397   4.266   3.410   4.250 -1.1506  1.8778 -1.3289
 5588TIP3   OH238398   5.277   2.159   3.811  0.0068  0.1010 -0.2744
 5588TIP3    H138399   5.249   2.219   3.881  0.8642  0.4773 -0.2437
 5588TIP3    H238400   5.329   2.213   3.752  0.4026 -0.5115 -0.4978
 5589TIP3   OH238401   3.311   0.053   2.830 -1.0836 -0.3019 -0.4134
 5589TIP3    H138402   3.275   0.135   2.863  0.7975  0.5001 -0.2561
 5589TIP3    H238403   3.337   0.005   2.908 -1.1290 -0.5507 -0.5505
 5590TIP3   OH238404   5.858   1.202   3.325  0.0477 -0.5543 -0.2688
 5590TIP3    H138405   5.865   1.278   3.382 -2.0923 -1.7464  1.7516
 5590TIP3    H238406   5.828   1.237   3.241  0.7197  0.9734  0.0991
 5591TIP3   OH238407   4.509   0.484   3.684 -0.2732 -0.1424  0.4414
 5591TIP3    H138408   4.455   0.537   3.624  0.9263 -0.1269 -0.6756
 5591TIP3    H238409   4.541   0.547   3.749  0.3338  0.3543 -0.3037
 5592TIP3   OH238410   0.420   4.798   3.426 -0.0703  0.0159  0.0203
 5592TIP3    H138411   0.328   4.784   3.403 -0.4631  0.5623  1.1928
 5592TIP3    H238412   0.418   4.829   3.516  1.3771 -1.5848  0.6562
 5593TIP3   OH238413   3.408   1.891   2.575 -0.9690 -0.5508  0.8551
 5593TIP3    H138414   3.481   1.845   2.534 -0.9833 -0.5668  0.8475
 5593TIP3    H238415   3.342   1.896   2.507 -0.5012  0.5760  0.4599
 5594TIP3   OH238416   5.428   1.638   0.519 -0.7289 -0.1129 -0.5459
 5594TIP3    H138417   5.432   1.549   0.484 -1.0019  0.2962 -1.6910
 5594TIP3    H238418   5.517   1.672   0.507 -0.6998 -0.1367 -0.3909
 5595TIP3   OH238419   4.017   3.795   1.827  0.5073 -0.1035 -0.5974
 5595TIP3    H138420   3.986   3.884   1.843  0.3819 -0.4289  1.0701
 5595TIP3    H238421   4.080   3.778   1.897 -1.4442 -2.2650  0.7626
 5596TIP3   OH238422   4.984   1.609   0.993 -0.1497 -0.1073 -0.8658
 5596TIP3    H138423   4.936   1.650   0.921  1.8745  0.3174 -2.0411
 5596TIP3    H238424   4.998   1.681   1.055  0.7682  0.2899 -1.5118
 5597TIP3   OH238425   5.212   3.988   1.242  0.5430 -0.0368  0.1000
 5597TIP3    H138426   5.152   3.915   1.229 -0.2414  0.6146 -0.0465
 5597TIP3    H238427   5.299   3.948   1.242  0.2383 -0.8065 -1.4680
 5598TIP3   OH238428   6.147   0.594   2.709 -0.1707  0.4572  0.6162
 5598TIP3    H138429   6.224   0.626   2.754 -0.2580 -0.2199  1.2598
 5598TIP3    H238430   6.178   0.519   2.659 -0.2113  0.8012  0.0632
 5599TIP3   OH238431   0.194   0.680   3.364 -0.0719 -0.2961  0.5141
 5599TIP3    H138432   0.242   0.598   3.366 -1.2387 -1.0257 -0.3051
 5599TIP3    H238433   0.102   0.654   3.374 -0.5218  0.8483 -0.4520
 5600TIP3   OH238434   3.357   2.500   4.110  0.2396  0.0002  0.2248
 5600TIP3    H138435   3.413   2.522   4.184  2.3093 -2.0588 -0.5701
 5600TIP3    H238436   3.345   2.405   4.117 -1.9272  0.1666 -0.5190
 5601TIP3   OH238437   4.820   5.154   8.304  0.0535 -0.0464 -0.0996
 5601TIP3    H138438   4.834   5.067   8.343 -1.8678 -0.0432  0.7300
 5601TIP3    H238439   4.810   5.138   8.211  1.0981 -0.5275 -0.1397
 5602TIP3   OH238440   0.758   3.402   4.096 -0.2842 -0.5821  0.2942
 5602TIP3    H138441   0.675   3.446   4.076 -0.3154 -1.2314 -1.0905
 5602TIP3    H238442   0.802   3.395   4.012  0.6481 -1.3330  0.8292
 5603TIP3   OH238443   0.623   6.112   1.858  0.1317  0.2255 -0.2773
 5603TIP3    H138444   0.573   6.194   1.861  1.7961  1.3914 -2.2598
 5603TIP3    H238445   0.713   6.137   1.880  0.5476 -1.2072 -0.2221
 5604TIP3   OH238446   0.292   6.490   3.124 -0.3791 -0.1192 -0.2940
 5604TIP3    H138447   0.213   6.439   3.106  0.5064 -1.5774 -0.2026
 5604TIP3    H238448   0.293   6.499   3.219 -0.7264  0.4313 -0.3325
 5605TIP3   OH238449   1.719   6.745   0.257  0.0017 -0.2842  0.0332
 5605TIP3    H138450   1.791   6.685   0.238 -0.0666 -0.3832  0.0891
 5605TIP3    H238451   1.668   6.750   0.176  1.8305  2.2418 -1.1199
 5606TIP3   OH238452   2.445   6.089   1.277  0.1315  0.2431 -0.5488
 5606TIP3    H138453   2.488   6.174   1.286  0.6609 -0.0823  0.0967
 5606TIP3    H238454   2.365   6.097   1.328 -0.4637  0.7670 -1.5411
 5607TIP3   OH238455   2.272   0.745   1.388 -0.9746  0.1616  0.1418
 5607TIP3    H138456   2.258   0.777   1.478 -0.9878  1.1120 -0.1891
 5607TIP3    H238457   2.356   0.782   1.362 -0.4832 -0.9291  0.1009
 5608TIP3   OH238458   1.904   4.408   8.636  0.0179  0.0152  0.1341
 5608TIP3    H138459   1.999   4.414   8.624  0.0581  1.2744  0.9616
 5608TIP3    H238460   1.867   4.467   8.571 -0.1890 -0.3227 -0.0561
 5609TIP3   OH238461   6.228   5.397   3.694 -0.5686  0.3244 -0.2413
 5609TIP3    H138462   6.225   5.479   3.743 -1.0985  0.9108 -1.2427
 5609TIP3    H238463   6.201   5.420   3.605  0.6833 -0.6538 -0.9179
 5610TIP3   OH238464   4.274   4.335   3.676  0.3373  0.1448  0.3155
 5610TIP3    H138465   4.323   4.276   3.619 -1.8311 -1.0157 -0.4665
 5610TIP3    H238466   4.207   4.373   3.618 -0.4816  0.7106  1.6021
 5611TIP3   OH238467   3.857   4.192   1.357 -0.0931  0.1776 -0.1642
 5611TIP3    H138468   3.879   4.108   1.318 -0.8091 -0.2358  0.2920
 5611TIP3    H238469   3.885   4.257   1.293  1.0206 -0.3769 -0.2505
 5612TIP3   OH238470   3.476   3.101   7.932 -0.1990  0.0856  0.6546
 5612TIP3    H138471   3.405   3.161   7.951 -0.5831  0.0684 -0.6006
 5612TIP3    H238472   3.553   3.140   7.975 -0.1111  2.2979 -1.2770
 5613TIP3   OH238473   4.008   1.038   1.720  0.1415  0.3750  0.1750
 5613TIP3    H138474   4.066   0.973   1.680  1.4818  1.2295  0.6672
 5613TIP3    H238475   3.968   1.083   1.646  0.5076  0.1312 -0.1790
 5614TIP3   OH238476   3.377   0.659   0.991  0.3801  0.3685 -0.8885
 5614TIP3    H138477   3.346   0.602   1.062 -0.0259  0.9307 -0.6147
 5614TIP3    H238478   3.422   0.599   0.931  1.0232 -0.0749  0.0054
 5615TIP3   OH238479   4.395   1.840   1.355  0.4347 -0.5394  0.5413
 5615TIP3    H138480   4.483   1.877   1.361 -0.3570  1.3512  1.5955
 5615TIP3    H238481   4.351   1.894   1.290  0.3510 -2.2099 -0.8422
 5616TIP3   OH238482   5.033   5.873   7.974  0.1639  0.0410  0.0991
 5616TIP3    H138483   5.000   5.793   7.935 -0.4492  1.3243 -2.2041
 5616TIP3    H238484   5.114   5.847   8.019  0.6157 -1.6813 -1.5783
 5617TIP3   OH238485   0.475   2.639   2.678 -0.2797  0.2545 -0.9744
 5617TIP3    H138486   0.550   2.628   2.620  0.4173 -1.6947  0.2154
 5617TIP3    H238487   0.404   2.590   2.635  0.2608 -1.2660 -0.2223
 5618TIP3   OH238488   5.936   1.962   0.113 -0.6611 -0.0996 -0.0661
 5618TIP3    H138489   5.929   1.867   0.124 -2.1764 -0.1715 -1.3554
 5618TIP3    H238490   5.905   1.979   0.024 -0.3661  1.6077  0.1133
 5619TIP3   OH238491   5.004   2.837   1.295 -0.2092  0.9552  0.0225
 5619TIP3    H138492   5.043   2.922   1.279  1.5319  0.0629 -0.7553
 5619TIP3    H238493   4.944   2.823   1.222  1.6245  0.3743 -1.4706
 5620TIP3   OH238494   0.754   1.064   8.615 -0.1442 -0.1362 -0.4300
 5620TIP3    H138495   0.665   1.031   8.603 -0.8428  1.6448 -0.5082
 5620TIP3    H238496   0.796   1.052   8.529 -0.2306 -1.1432 -0.3428
 5621TIP3   OH238497   2.812   4.611   1.892  0.5874 -0.2107  0.5102
 5621TIP3    H138498   2.903   4.582   1.888  0.3911 -0.7760  0.1291
 5621TIP3    H238499   2.779   4.578   1.975  0.9468  0.6533  1.0111
 5622TIP3   OH238500   0.299   2.949   1.746  0.8483  0.2938  0.1342
 5622TIP3    H138501   0.346   3.025   1.713  0.9058  0.1601 -0.0952
 5622TIP3    H238502   0.367   2.893   1.784  0.7786  0.4640  0.5164
 5623TIP3   OH238503   0.197   6.341   2.329 -0.1364  0.0577  0.3173
 5623TIP3    H138504   0.284   6.301   2.325  0.4441  0.6707  3.5399
 5623TIP3    H238505   0.146   6.281   2.383 -0.0617  2.1192  2.8718
 5624TIP3   OH238506   2.946   0.023   8.651 -0.2690 -0.5037 -0.0544
 5624TIP3    H138507   2.936   0.020   8.746  0.7973 -0.5141  0.0660
 5624TIP3    H238508   2.918   0.111   8.626 -1.4040 -0.7934  0.1532
 5625TIP3   OH238509   2.942   4.243   8.281  0.4219  0.3441  0.1070
 5625TIP3    H138510   2.971   4.275   8.367  0.2179  0.3308  0.1811
 5625TIP3    H238511   2.852   4.214   8.295  0.3277  0.5086 -0.1543
 5626TIP3   OH238512   0.938   6.180   3.323  0.0253 -0.0438 -0.6681
 5626TIP3    H138513   0.941   6.256   3.381  0.1968  0.0517 -0.7985
 5626TIP3    H238514   0.884   6.208   3.250 -0.2421 -0.1856 -0.5244
 5627TIP3   OH238515   0.542   4.755   2.043  0.1170 -0.5607  0.4341
 5627TIP3    H138516   0.566   4.843   2.017  0.8025 -0.0073  2.6881
 5627TIP3    H238517   0.446   4.757   2.050 -0.1092 -0.7827 -1.9719
 5628TIP3   OH238518   2.612   4.251   8.779 -0.2547 -0.2945 -0.1553
 5628TIP3    H138519   2.691   4.274   8.730 -1.3733  1.2125 -1.3421
 5628TIP3    H238520   2.545   4.243   8.712 -0.9168 -2.7122  0.7046
 5629TIP3   OH238521   5.747   6.164   0.483 -0.5060 -0.2408  0.3134
 5629TIP3    H138522   5.730   6.086   0.430 -0.0789  0.1574 -0.4202
 5629TIP3    H238523   5.698   6.148   0.564 -0.4626 -1.2477  0.1594
 5630TIP3   OH238524   5.997   6.055   2.082 -0.1140 -0.2060 -0.0834
 5630TIP3    H138525   5.903   6.041   2.092 -0.2939  0.3939 -0.7950
 5630TIP3    H238526   6.037   5.978   2.122 -0.9472 -1.1583 -1.0093
 5631TIP3   OH238527   1.876   5.162   2.482  0.1961 -0.0693 -0.6100
 5631TIP3    H138528   1.822   5.088   2.455  0.4080 -0.2938 -0.4295
 5631TIP3    H238529   1.864   5.227   2.413  2.1261 -1.2924 -2.2208
 5632TIP3   OH238530   3.851   2.267   1.524  0.7657 -0.2430 -0.5220
 5632TIP3    H138531   3.796   2.327   1.575  0.1998  0.3384 -1.7616
 5632TIP3    H238532   3.918   2.237   1.585 -0.9850 -1.0662  1.0997
 5633TIP3   OH238533   3.206   5.131   3.312  0.0314  0.0811  0.3415
 5633TIP3    H138534   3.180   5.150   3.402 -0.3721  2.5392 -0.2200
 5633TIP3    H238535   3.302   5.130   3.314  0.0185 -0.9929  0.9690
 5634TIP3   OH238536   2.366   6.769   4.535  0.3526 -0.4543 -0.7406
 5634TIP3    H138537   2.398   6.850   4.575 -0.0815 -0.9984  0.7701
 5634TIP3    H238538   2.372   6.785   4.441 -1.1794  1.9397 -0.5179
 5635TIP3   OH238539   1.234   2.962   8.253 -0.0304  0.0919 -0.2065
 5635TIP3    H138540   1.176   2.903   8.302 -0.0243  0.3832  0.1590
 5635TIP3    H238541   1.184   2.986   8.175  0.0699 -0.6007 -0.4878
 5636TIP3   OH238542   6.783   6.000   1.981 -0.4348 -0.2304  0.3948
 5636TIP3    H138543   6.710   6.058   2.005  0.3755  0.7491  0.5692
 5636TIP3    H238544   6.854   6.060   1.958  0.5615 -1.1524  0.9809
 5637TIP3   OH238545   5.666   5.945   0.980  0.1601 -0.5047  0.1616
 5637TIP3    H138546   5.583   5.981   0.950  0.5285 -0.1695 -0.4663
 5637TIP3    H238547   5.708   5.912   0.900  1.9704  2.0185 -0.0332
 5638TIP3   OH238548   6.144   4.520   2.106 -0.1331  0.1531 -0.0168
 5638TIP3    H138549   6.050   4.525   2.127  0.1030  0.6213  0.9815
 5638TIP3    H238550   6.177   4.609   2.120  1.0354 -0.5985  2.6207
 5639TIP3   OH238551   5.147   3.265   4.158  0.2833 -0.1354  0.4594
 5639TIP3    H138552   5.090   3.188   4.158 -1.1003  0.8622  1.2037
 5639TIP3    H238553   5.213   3.246   4.224  1.2469 -1.5690 -0.8359
 5640TIP3   OH238554   6.466   4.304   0.500  0.4734  0.2508  0.7333
 5640TIP3    H138555   6.550   4.342   0.474  0.0768  0.8431  0.2953
 5640TIP3    H238556   6.486   4.212   0.519  1.0502  0.1519 -0.2834
 5641TIP3   OH238557   6.116   5.376   1.521 -0.5178  0.1096 -0.5420
 5641TIP3    H138558   6.027   5.359   1.488 -0.3901 -1.8546 -0.0063
 5641TIP3    H238559   6.139   5.297   1.570  1.0427  1.1084  0.4386
 5642TIP3   OH238560   0.895   1.650   2.741  0.5223 -0.0345 -0.0280
 5642TIP3    H138561   0.843   1.647   2.821  0.9140 -1.0781  0.2066
 5642TIP3    H238562   0.899   1.743   2.719 -0.7288  0.1438  0.4031
 5643TIP3   OH238563   1.119   1.262   2.706 -0.2382  0.1845  0.4966
 5643TIP3    H138564   1.043   1.301   2.663 -0.6605 -0.2050  0.8784
 5643TIP3    H238565   1.150   1.196   2.644 -0.8496 -0.3816  0.7762
 5644TIP3   OH238566   5.579   2.711   1.483  0.3255 -0.1711 -0.3257
 5644TIP3    H138567   5.610   2.639   1.427 -0.6322 -0.0992 -0.9654
 5644TIP3    H238568   5.509   2.672   1.535  1.3555 -0.2978  1.0216
 5645TIP3   OH238569   0.157   3.990   8.648  0.1672  0.0350 -0.7231
 5645TIP3    H138570   0.121   4.054   8.588  3.5302  1.7545 -1.1620
 5645TIP3    H238571   0.219   3.939   8.595  1.0109 -0.4009  0.6219
 5646TIP3   OH238572   3.520   3.282   1.298  0.4398  0.1044 -0.1601
 5646TIP3    H138573   3.477   3.205   1.261  0.9635 -0.7200  0.9019
 5646TIP3    H238574   3.611   3.256   1.309  0.3701  0.4268  1.3732
 5647TIP3   OH238575   0.112   1.113   1.799  0.3005 -0.1003  0.3366
 5647TIP3    H138576   0.165   1.191   1.782 -0.4279  0.0982 -1.1763
 5647TIP3    H238577   0.106   1.069   1.714 -1.3495 -0.4747  0.6059
 5648TIP3   OH238578   6.406   1.329   3.389  0.3838  0.1688  0.4590
 5648TIP3    H138579   6.358   1.392   3.443  0.2960  1.5945 -1.2040
 5648TIP3    H238580   6.352   1.250   3.390  0.3174  0.2012  2.3129
 5649TIP3   OH238581   0.593   6.552   2.338  0.0793  0.1928 -0.2986
 5649TIP3    H138582   0.586   6.474   2.393 -2.3305 -0.1527 -0.9720
 5649TIP3    H238583   0.610   6.518   2.250 -0.2834  0.4760 -0.4787
 5650TIP3   OH238584   1.946   5.324   1.473  0.3487  0.3579 -0.7393
 5650TIP3    H138585   1.947   5.405   1.422  0.4958 -1.1934 -3.3753
 5650TIP3    H238586   1.992   5.260   1.418 -0.2195 -1.6519  0.9962
 5651TIP3   OH238587   0.354   4.188   2.033  0.1005 -0.6890  0.4806
 5651TIP3    H138588   0.332   4.171   1.941 -0.3205 -0.8947  0.6177
 5651TIP3    H238589   0.395   4.107   2.063 -0.1400 -0.7726  0.5884
 5652TIP3   OH238590   1.812   3.381   3.848 -0.2107  0.1291  0.0273
 5652TIP3    H138591   1.864   3.454   3.814 -0.1253  1.6086  3.0820
 5652TIP3    H238592   1.872   3.333   3.906 -0.7240 -1.5099 -0.7226
 5653TIP3   OH238593   4.541   0.231   3.609  0.1223 -0.3696  0.5867
 5653TIP3    H138594   4.553   0.193   3.696 -2.0098 -0.9209  0.6828
 5653TIP3    H238595   4.527   0.324   3.626  2.1056 -0.0177  0.5923
 5654TIP3   OH238596   1.240   2.458   0.995  0.8019 -0.1787 -0.2834
 5654TIP3    H138597   1.253   2.371   0.958 -0.2100 -0.7164  0.5666
 5654TIP3    H238598   1.199   2.508   0.924  1.5398 -0.3245 -0.8303
 5655TIP3   OH238599   4.943   5.588   3.773 -0.5861  0.0260 -0.2655
 5655TIP3    H138600   4.862   5.598   3.824  1.2083  2.3874  2.4592
 5655TIP3    H238601   4.980   5.676   3.769  1.0527 -0.6752 -2.9552
 5656TIP3   OH238602   4.496   1.369   1.317 -0.3985 -0.0332 -0.4456
 5656TIP3    H138603   4.571   1.387   1.373  0.5807  0.3514 -1.8101
 5656TIP3    H238604   4.467   1.282   1.342  0.1695  0.0269  0.4689
 5657TIP3   OH238605   1.227   0.312   2.406 -0.2644  0.2428 -0.1754
 5657TIP3    H138606   1.278   0.391   2.420  0.6606 -0.2336 -0.7606
 5657TIP3    H238607   1.141   0.344   2.377  0.2052  1.0202 -0.7469
 5658TIP3   OH238608   3.663   6.139   0.736  0.1499  0.0652  0.0860
 5658TIP3    H138609   3.687   6.172   0.822  0.4918  1.7515 -0.6101
 5658TIP3    H238610   3.705   6.053   0.730  0.5007  0.1306  1.4091
 5659TIP3   OH238611   4.396   2.047   8.245 -0.1611  0.2064  0.7478
 5659TIP3    H138612   4.383   1.953   8.231 -0.8440  0.5879 -1.6178
 5659TIP3    H238613   4.358   2.088   8.167  2.9893  2.2718  0.1434
 5660TIP3   OH238614   4.316   3.562   8.827 -0.3280 -0.4012  0.0208
 5660TIP3    H138615   4.333   3.509   8.905 -0.6635  0.3830  0.6424
 5660TIP3    H238616   4.341   3.651   8.853 -0.8355 -0.0618 -0.6321
 5661TIP3   OH238617   3.243   1.369   1.349 -0.2023 -0.5240  0.1223
 5661TIP3    H138618   3.225   1.458   1.380  0.6022 -0.9238  1.9101
 5661TIP3    H238619   3.266   1.321   1.429  1.5102 -1.7983 -1.0692
 5662TIP3   OH238620   3.335   6.646   3.355  0.4044  0.4393 -0.1135
 5662TIP3    H138621   3.350   6.565   3.403  0.8969  0.1774 -0.7016
 5662TIP3    H238622   3.421   6.672   3.324  0.0810  0.5384 -0.9537
 5663TIP3   OH238623   4.293   2.634   3.423 -0.3921  0.3652 -0.6114
 5663TIP3    H138624   4.333   2.664   3.505  1.6748 -0.7418 -1.1534
 5663TIP3    H238625   4.199   2.642   3.439 -0.0895 -0.2015  2.0486
 5664TIP3   OH238626   1.572   2.863   0.962 -0.0902 -0.4251  0.7183
 5664TIP3    H138627   1.651   2.878   0.910 -1.6926  2.8548 -1.0985
 5664TIP3    H238628   1.595   2.894   1.049  0.9685 -0.6336  0.5319
 5665TIP3   OH238629   6.497   1.908   0.352 -0.0191 -0.1110 -0.7367
 5665TIP3    H138630   6.467   1.913   0.442 -0.4962  0.0930 -0.9026
 5665TIP3    H238631   6.589   1.935   0.356 -0.2036  0.4866 -0.3961
 5666TIP3   OH238632   1.242   0.845   1.635 -0.0387  0.3737  0.5260
 5666TIP3    H138633   1.266   0.847   1.727  0.4677 -0.2344  0.4167
 5666TIP3    H238634   1.325   0.849   1.587 -0.3345  1.4599  0.0712
 5667TIP3   OH238635   5.523   6.218   4.045  0.0473  0.3603 -0.2191
 5667TIP3    H138636   5.491   6.134   4.011  1.1747  0.1342 -0.7789
 5667TIP3    H238637   5.567   6.258   3.970 -0.1217  1.2795  0.1604
 5668TIP3   OH238638   0.963   5.697   3.202  0.1156 -0.2491 -0.2454
 5668TIP3    H138639   0.915   5.638   3.260 -0.4763 -0.8025 -1.2696
 5668TIP3    H238640   0.990   5.769   3.258 -1.3288 -0.2684  0.5229
 5669TIP3   OH238641   2.967   6.623   2.728 -0.0651  0.5085  0.2957
 5669TIP3    H138642   3.038   6.570   2.763 -0.6936 -0.3619  0.2859
 5669TIP3    H238643   2.915   6.649   2.805 -2.9843 -3.6073  0.0217
 5670TIP3   OH238644   6.391   0.398   0.845 -0.1173 -0.1843  0.4912
 5670TIP3    H138645   6.451   0.422   0.916  1.3794 -2.3602  0.0655
 5670TIP3    H238646   6.350   0.317   0.876  0.2516 -0.9428 -0.9097
 5671TIP3   OH238647   2.174   5.640   0.230 -0.1752 -0.1264  0.0014
 5671TIP3    H138648   2.265   5.617   0.248  0.6292  2.2159 -0.6786
 5671TIP3    H238649   2.160   5.720   0.282 -1.9650 -0.6281  0.3399
 5672TIP3   OH238650   5.698   0.589   8.356  0.5899  0.1972 -0.1801
 5672TIP3    H138651   5.763   0.586   8.285  2.4975 -1.6265  1.5062
 5672TIP3    H238652   5.744   0.631   8.428 -1.0868  1.3781  0.2494
 5673TIP3   OH238653   6.149   4.941   2.366 -0.0517  0.7300 -0.4950
 5673TIP3    H138654   6.115   4.860   2.406 -0.3815  0.9504 -0.3243
 5673TIP3    H238655   6.199   4.983   2.437  0.7387  0.3192 -0.7964
 5674TIP3   OH238656   0.312   5.954   2.429  0.3542 -0.3353  0.5666
 5674TIP3    H138657   0.254   5.994   2.494  1.5029  0.2836  1.2512
 5674TIP3    H238658   0.257   5.891   2.383 -0.7699  0.0025  1.4058
 5675TIP3   OH238659   2.202   4.481   1.927  0.5230  0.3546 -0.2126
 5675TIP3    H138660   2.184   4.388   1.921  0.6923  0.1425  2.0629
 5675TIP3    H238661   2.154   4.519   1.852  0.6215 -1.5302 -1.2967
 5676TIP3   OH238662   6.281   6.465   2.589  0.3967  0.6572 -0.0946
 5676TIP3    H138663   6.193   6.452   2.554  0.0243  0.9113  0.7158
 5676TIP3    H238664   6.336   6.406   2.538 -0.4607 -0.5201  0.2883
 5677TIP3   OH238665   2.101   3.267   2.756  0.0970  0.1192  0.2010
 5677TIP3    H138666   2.165   3.214   2.708 -2.0165 -0.5148 -2.0903
 5677TIP3    H238667   2.043   3.203   2.797 -0.1510  0.6859  0.7483
 5678TIP3   OH238668   4.467   0.553   0.017 -0.2876  0.1049  0.5171
 5678TIP3    H138669   4.378   0.573  -0.012  0.5198  2.3819 -0.6886
 5678TIP3    H238670   4.509   0.639   0.025  2.6360 -0.9422 -1.7275
 5679TIP3   OH238671   6.733   6.401   1.103  0.0832 -0.5747  0.1190
 5679TIP3    H138672   6.663   6.353   1.147  0.4077 -0.5955  0.6350
 5679TIP3    H238673   6.721   6.492   1.131 -1.0906 -0.1569 -1.5906
 5680TIP3   OH238674   2.766   4.988   1.940  0.3335  0.0275  0.4734
 5680TIP3    H138675   2.689   5.003   1.994 -1.4726 -1.0698 -1.6581
 5680TIP3    H238676   2.732   4.975   1.851  3.0769  0.7703 -0.8126
 5681TIP3   OH238677   0.613   3.161   0.203 -0.3055  0.3140  0.4668
 5681TIP3    H138678   0.561   3.234   0.168 -1.9836 -0.5038  1.1201
 5681TIP3    H238679   0.631   3.106   0.126  0.8458  1.3253 -0.0028
 5682TIP3   OH238680   5.877   4.657   2.345 -0.3403  0.8206  0.6147
 5682TIP3    H138681   5.890   4.745   2.309 -1.3229  0.5939 -0.3589
 5682TIP3    H238682   5.782   4.648   2.353 -0.2290 -0.0074  1.0983
 5683TIP3   OH238683   4.442   4.896   1.310 -0.1552 -0.0239 -0.0560
 5683TIP3    H138684   4.387   4.826   1.344  1.4674 -0.3420  2.1027
 5683TIP3    H238685   4.458   4.954   1.385  3.0817 -0.4032 -0.3039
 5684TIP3   OH238686   6.267   5.418   0.627 -0.2722  0.6466  0.2973
 5684TIP3    H138687   6.198   5.458   0.574 -0.3848  0.0950  0.0082
 5684TIP3    H238688   6.228   5.404   0.712 -0.0871  1.5553  0.5412
 5685TIP3   OH238689   3.668   2.406   0.964  0.0497  0.2155  0.6753
 5685TIP3    H138690   3.652   2.484   1.018 -0.3321 -0.5640  1.7265
 5685TIP3    H238691   3.749   2.369   1.000 -0.3844 -0.4908  0.9535
 5686TIP3   OH238692   5.700   2.073   0.793  0.2886  0.3353 -0.2242
 5686TIP3    H138693   5.659   2.046   0.710  0.0853  0.1344 -0.0596
 5686TIP3    H238694   5.674   2.164   0.804 -0.2219  0.1768 -0.0612
 5687TIP3   OH238695   2.511   2.393   0.088  0.2340  0.1354 -0.1609
 5687TIP3    H138696   2.513   2.302   0.117  1.2954 -0.1432 -1.0526
 5687TIP3    H238697   2.507   2.387  -0.008  2.8372  0.9804 -0.3999
 5688TIP3   OH238698   5.106   1.744   1.479 -0.5555 -0.0246  0.2794
 5688TIP3    H138699   5.127   1.822   1.531  0.7431 -0.4247  0.3782
 5688TIP3    H238700   5.115   1.671   1.540  0.0435 -0.4176 -0.2740
 5689TIP3   OH238701   2.668   1.352   3.424  0.1612  0.4232 -0.3703
 5689TIP3    H138702   2.691   1.378   3.514  0.9777 -1.3230 -0.0354
 5689TIP3    H238703   2.694   1.427   3.371  1.4268  0.7622  0.6614
 5690TIP3   OH238704   2.308   5.237   1.506  0.1212 -0.3641 -0.5426
 5690TIP3    H138705   2.327   5.229   1.412  0.9858  1.4456 -0.5501
 5690TIP3    H238706   2.261   5.319   1.514  1.2837  0.1956  0.7721
 5691TIP3   OH238707   2.357   5.814   2.379 -0.0439 -0.2294  0.6594
 5691TIP3    H138708   2.407   5.807   2.298  0.2885 -1.5466  0.9553
 5691TIP3    H238709   2.314   5.899   2.373 -0.6921 -0.6451 -1.2687
 5692TIP3   OH238710   5.971   2.356   2.925  0.2404 -0.6948 -0.3674
 5692TIP3    H138711   5.934   2.314   2.847  0.6642  1.2318 -1.6832
 5692TIP3    H238712   6.064   2.367   2.903  0.8569 -2.0841  1.3438
 5693TIP3   OH238713   2.005   5.859   2.816  0.3427 -0.1512 -0.5262
 5693TIP3    H138714   2.083   5.816   2.851  0.1303 -0.8262 -0.8551
 5693TIP3    H238715   2.037   5.943   2.782  1.2750 -1.1316 -2.2395
 5694TIP3   OH238716   6.715   4.812   1.631  0.0679 -0.2766 -0.3965
 5694TIP3    H138717   6.684   4.883   1.575  2.1234  0.4043 -0.7802
 5694TIP3    H238718   6.686   4.732   1.587 -0.4472  0.2938 -1.1149
 5695TIP3   OH238719   3.810   1.372   8.663  0.0239  0.3956 -0.0953
 5695TIP3    H138720   3.900   1.405   8.667 -0.1433  1.5445 -3.1736
 5695TIP3    H238721   3.756   1.450   8.655 -1.0429 -0.3557 -0.5115
 5696TIP3   OH238722   1.590   0.290   0.458  0.2039 -0.6347  0.5182
 5696TIP3    H138723   1.528   0.361   0.440 -0.0706 -0.9529  0.1873
 5696TIP3    H238724   1.651   0.294   0.384  2.5081  1.6989  2.3737
 5697TIP3   OH238725   3.547   4.473   8.765 -0.3025  0.3792  0.7230
 5697TIP3    H138726   3.512   4.447   8.850 -0.9843  0.3111  0.4238
 5697TIP3    H238727   3.621   4.530   8.787  1.4710 -2.0119  1.4021
 5698TIP3   OH238728   1.694   3.772   2.140  0.5402  0.1751 -0.1954
 5698TIP3    H138729   1.768   3.783   2.079  0.6999  1.7998  0.2297
 5698TIP3    H238730   1.618   3.759   2.084  0.9833 -0.4479 -0.6684
 5699TIP3   OH238731   0.360   6.576   8.249 -0.5729  0.3471  0.1516
 5699TIP3    H138732   0.283   6.522   8.266 -0.1179 -0.5567 -0.5853
 5699TIP3    H238733   0.327   6.650   8.199 -0.8839 -0.3739 -0.7418
 5700TIP3   OH238734   2.999   0.509   0.583  0.2291 -0.4012  0.0959
 5700TIP3    H138735   3.095   0.507   0.584  0.2642  0.4317 -0.5417
 5700TIP3    H238736   2.976   0.528   0.492 -0.4567  1.3927  0.5894
 5701TIP3   OH238737   2.382   6.042   3.261 -0.1450  0.1232  0.1972
 5701TIP3    H138738   2.471   6.015   3.286  0.8641  2.5879 -0.4418
 5701TIP3    H238739   2.344   6.078   3.341 -0.3419 -0.3200  0.3081
 5702TIP3   OH238740   2.933   0.337   0.145 -0.2107 -0.0539  0.3891
 5702TIP3    H138741   3.019   0.378   0.145 -0.2147 -0.0479  0.6288
 5702TIP3    H238742   2.876   0.402   0.103  0.1438 -0.5688 -0.9609
 5703TIP3   OH238743   4.585   0.057   2.556  0.3295 -0.2006  0.1837
 5703TIP3    H138744   4.566  -0.031   2.589  0.4941 -0.3734 -0.1705
 5703TIP3    H238745   4.571   0.050   2.461  0.4566  0.1246  0.1403
 5704TIP3   OH238746   5.211   3.634   1.467  0.1789  0.3663 -0.2920
 5704TIP3    H138747   5.295   3.617   1.426  0.3968  1.3655 -0.2906
 5704TIP3    H238748   5.162   3.552   1.458  0.8351  0.0503 -1.0529
 5705TIP3   OH238749   1.438   4.031   8.739 -0.1327 -0.7804 -0.1322
 5705TIP3    H138750   1.479   4.101   8.789  0.5620 -1.6387  0.5236
 5705TIP3    H238751   1.375   4.076   8.683  1.5238  0.5517 -1.0116
 5706TIP3   OH238752   1.916   1.788   8.208 -0.1622 -0.0931  0.0793
 5706TIP3    H138753   1.981   1.819   8.145 -2.7104  0.2063 -2.6062
 5706TIP3    H238754   1.878   1.867   8.244 -0.5766 -0.2407 -0.0355
 5707TIP3   OH238755   2.135   4.475   1.379  0.2590 -0.0468  0.5330
 5707TIP3    H138756   2.181   4.546   1.424 -0.3055  1.2369 -0.8669
 5707TIP3    H238757   2.124   4.408   1.447  2.7067  0.2514  1.3474
 5708TIP3   OH238758   2.855   0.188   3.227 -0.0741 -0.1269  0.2064
 5708TIP3    H138759   2.873   0.095   3.235  0.8812 -0.0382 -0.7051
 5708TIP3    H238760   2.759   0.194   3.227 -0.1520 -1.1550 -0.2330
 5709TIP3   OH238761   2.815   0.905   2.683  0.4721  0.0830 -0.0345
 5709TIP3    H138762   2.822   0.922   2.589 -0.7340  0.0524 -0.1382
 5709TIP3    H238763   2.861   0.979   2.723  1.1455  0.0111 -0.6398
 5710TIP3   OH238764   1.737   6.203   3.131  0.6117  0.4733 -0.6487
 5710TIP3    H138765   1.728   6.205   3.227  2.3160 -0.7141 -0.4004
 5710TIP3    H238766   1.826   6.236   3.115  1.0888 -1.1761 -1.6288
 5711TIP3   OH238767   6.325   2.109   2.954  0.0947 -0.1312  0.1187
 5711TIP3    H138768   6.255   2.044   2.957 -0.6433  0.6276 -0.2561
 5711TIP3    H238769   6.338   2.134   3.046 -1.1330  0.7505  0.0834
 5712TIP3   OH238770   4.210   1.158   2.604  0.3576  0.2290 -0.5126
 5712TIP3    H138771   4.129   1.206   2.621 -0.0820 -0.9588  0.9132
 5712TIP3    H238772   4.267   1.222   2.560 -1.2541  1.1428 -1.3573
 5713TIP3   OH238773   3.248   1.752   1.945 -0.2090  0.3858  0.0535
 5713TIP3    H138774   3.195   1.832   1.938 -0.4019  0.1362 -2.0016
 5713TIP3    H238775   3.190   1.682   1.917  0.9936  0.0313 -1.7347
 5714TIP3   OH238776   2.421   0.511   3.124 -0.0844 -0.3872  0.5875
 5714TIP3    H138777   2.364   0.496   3.199 -0.3736 -0.4574  0.3547
 5714TIP3    H238778   2.363   0.505   3.048 -0.3926  2.4654  0.4830
 5715TIP3   OH238779   4.596   1.575   0.033 -0.4583  0.3027  0.3667
 5715TIP3    H138780   4.655   1.574   0.108  0.0097 -0.1257 -0.0019
 5715TIP3    H238781   4.639   1.634  -0.030 -0.8895  0.7279  0.4614
 5716TIP3   OH238782   0.155   2.767   2.587  0.2050  0.0776 -0.4222
 5716TIP3    H138783   0.143   2.829   2.515 -0.0135  0.3918 -0.1136
 5716TIP3    H238784   0.216   2.811   2.646  0.0946 -0.0269 -0.2316
 5717TIP3   OH238785   5.384   0.039   8.291 -0.4642  0.3492  0.1006
 5717TIP3    H138786   5.430  -0.020   8.232 -1.2699  0.5565 -0.7619
 5717TIP3    H238787   5.370  -0.012   8.371  0.1030 -0.1391 -0.1074
 5718TIP3   OH238788   2.824   5.332   1.909 -0.5434  0.3251  0.5914
 5718TIP3    H138789   2.785   5.389   1.844  0.3045 -1.5464 -1.7110
 5718TIP3    H238790   2.784   5.246   1.893 -0.4674 -0.1668  2.7147
 5719TIP3   OH238791   3.526   5.344   0.650 -0.2413 -0.2001 -0.2914
 5719TIP3    H138792   3.575   5.418   0.687 -0.1354 -0.8773  1.0039
 5719TIP3    H238793   3.470   5.315   0.722 -1.1628 -0.6365 -1.1610
 5720TIP3   OH238794   5.211   4.116   0.556 -0.8471 -0.1903  0.3990
 5720TIP3    H138795   5.223   4.059   0.480 -1.9854  0.5844 -0.4152
 5720TIP3    H238796   5.287   4.101   0.611 -0.9292 -2.1791  0.0236
 5721TIP3   OH238797   3.330   4.297   0.370  0.0011  0.0619  0.1501
 5721TIP3    H138798   3.401   4.315   0.432 -0.3690 -1.8912  1.2311
 5721TIP3    H238799   3.308   4.205   0.385 -0.8216 -0.1926 -2.1995
 5722TIP3   OH238800   3.432   1.388   0.852 -0.1471  0.0997  0.5827
 5722TIP3    H138801   3.526   1.408   0.853  0.0641 -0.8089 -0.3541
 5722TIP3    H238802   3.406   1.394   0.944  0.8289  0.3335  0.8585
 5723TIP3   OH238803   1.653   0.873   2.433  0.0254  0.3543 -0.6884
 5723TIP3    H138804   1.641   0.787   2.474 -1.3981  0.2875 -1.2107
 5723TIP3    H238805   1.635   0.935   2.504  0.1995  0.2298 -0.5333
 5724TIP3   OH238806   6.762   6.690   3.665 -0.0139 -0.3882 -0.6106
 5724TIP3    H138807   6.681   6.740   3.649 -0.5798 -0.7814  0.8842
 5724TIP3    H238808   6.750   6.653   3.752  2.8679  1.6848  0.8389
 5725TIP3   OH238809   2.106   3.653   0.621  0.3634 -0.1116 -0.4466
 5725TIP3    H138810   2.187   3.602   0.614  1.1158  0.8527  0.8085
 5725TIP3    H238811   2.045   3.609   0.562  1.6849 -1.0814 -1.1552
 5726TIP3   OH238812   1.621   2.961   1.467 -0.4775 -0.3096  0.2711
 5726TIP3    H138813   1.567   2.885   1.446  0.3148 -0.8941  0.3229
 5726TIP3    H238814   1.640   2.952   1.560 -0.5754  0.0840  0.3326
 5727TIP3   OH238815   0.297   0.781   0.135  0.4870 -0.1853  0.0978
 5727TIP3    H138816   0.339   0.695   0.132  0.0060 -0.4188 -0.0994
 5727TIP3    H238817   0.328   0.825   0.056  3.5010  1.1688  1.8940
 5728TIP3   OH238818   6.275   3.719   3.411 -0.1731 -0.5033 -0.6979
 5728TIP3    H138819   6.228   3.637   3.427 -0.5785 -0.0315  0.6363
 5728TIP3    H238820   6.233   3.756   3.333 -0.4252 -1.2352 -0.9179
 5729TIP3   OH238821   2.307   3.134   1.599 -0.1354  0.6806  0.3230
 5729TIP3    H138822   2.397   3.119   1.629  0.0651 -3.5963 -1.6994
 5729TIP3    H238823   2.318   3.173   1.512  0.1036 -2.7714 -1.3517
 5730TIP3   OH238824   5.851   0.988   2.867  0.2915  0.1092  0.2163
 5730TIP3    H138825   5.910   0.941   2.808 -0.2596  1.5292 -1.5656
 5730TIP3    H238826   5.806   0.920   2.916  0.4716 -1.1811 -1.3210
 5731TIP3   OH238827   1.250   2.559   0.500  0.0241  0.1671 -0.0111
 5731TIP3    H138828   1.309   2.568   0.425  0.4886  1.4336  0.4795
 5731TIP3    H238829   1.237   2.464   0.509  0.4222 -0.0317 -1.3227
 5732TIP3   OH238830   2.112   4.741   1.048  0.4737 -0.1750  0.1699
 5732TIP3    H138831   2.102   4.646   1.041  0.3524 -0.1073 -0.6946
 5732TIP3    H238832   2.199   4.759   1.013  1.1421 -0.1113  1.7844
 5733TIP3   OH238833   2.878   5.587   1.699  0.0238 -0.4383  0.3696
 5733TIP3    H138834   2.866   5.642   1.777 -0.9679  2.1762 -1.4874
 5733TIP3    H238835   2.792   5.546   1.686 -0.9076  1.8730 -1.2220
 5734TIP3   OH238836   2.645   2.271   3.152 -0.1653  0.1494 -0.2811
 5734TIP3    H138837   2.609   2.220   3.080  0.1066  0.6318 -0.7633
 5734TIP3    H238838   2.591   2.246   3.227  0.4493 -1.4115 -0.3250
 5735TIP3   OH238839   3.101   5.914   2.350 -0.1348 -0.2669  0.5142
 5735TIP3    H138840   3.062   5.828   2.337  1.1776 -0.9250  0.8270
 5735TIP3    H238841   3.034   5.975   2.320 -0.6990 -1.4203 -0.6667
 5736TIP3   OH238842   5.817   1.575   2.018 -0.3741 -0.5433 -0.3087
 5736TIP3    H138843   5.812   1.663   1.981  0.3799  0.7856  2.5231
 5736TIP3    H238844   5.726   1.554   2.042 -0.4115 -0.0693 -0.0165
 5737TIP3   OH238845   4.426   4.304   2.561  0.1784 -0.4524  0.3209
 5737TIP3    H138846   4.400   4.212   2.570 -1.0332 -0.1165  0.3292
 5737TIP3    H238847   4.519   4.304   2.586  0.3623 -1.7647 -0.2528
 5738TIP3   OH238848   2.101   2.122   1.214 -0.1700 -0.3385 -0.3994
 5738TIP3    H138849   2.099   2.136   1.309  3.6098 -1.4522  0.0364
 5738TIP3    H238850   2.019   2.077   1.195 -1.5538  0.8695  2.1138
 5739TIP3   OH238851   2.679   2.013   0.866  0.2509  0.2106 -0.3203
 5739TIP3    H138852   2.774   2.020   0.858  0.2101  0.5967 -0.4708
 5739TIP3    H238853   2.645   2.091   0.822 -0.0352  1.3820  1.8440
 5740TIP3   OH238854   0.746   6.501   3.172 -0.2419  0.2217 -0.1208
 5740TIP3    H138855   0.741   6.511   3.267  1.1810  1.2856 -0.1145
 5740TIP3    H238856   0.700   6.577   3.137  0.4285  0.5779 -0.2486
 5741TIP3   OH238857   4.506   2.449   2.913 -0.3857  0.1483  0.4067
 5741TIP3    H138858   4.543   2.477   2.829 -2.0980 -0.2941 -0.5546
 5741TIP3    H238859   4.564   2.487   2.979  0.1900  1.7421 -0.9408
 5742TIP3   OH238860   4.655   4.092   1.726 -0.4135  0.3902  0.5742
 5742TIP3    H138861   4.564   4.069   1.744 -0.4352  0.5800  0.7002
 5742TIP3    H238862   4.660   4.186   1.742 -0.0258  0.2579  1.2544
 5743TIP3   OH238863   3.239   6.692   2.613  0.1391  0.2462  0.0940
 5743TIP3    H138864   3.248   6.619   2.675 -0.9541 -0.6522 -0.7792
 5743TIP3    H238865   3.270   6.768   2.662  4.2430 -1.1588  0.1142
 5744TIP3   OH238866   6.673   3.748   8.296 -0.1361 -0.1416  0.5729
 5744TIP3    H138867   6.760   3.770   8.261 -0.1673 -0.3780  0.3464
 5744TIP3    H238868   6.620   3.729   8.218 -0.6828  1.0298  0.6395
 5745TIP3   OH238869   3.674   3.369   1.027 -0.1648  0.4023  0.1117
 5745TIP3    H138870   3.666   3.276   1.048  1.0893 -0.0015 -1.0244
 5745TIP3    H238871   3.752   3.397   1.075  1.0052  0.1849 -1.5756
 5746TIP3   OH238872   2.419   5.698   0.701 -0.2326  0.1526 -0.3429
 5746TIP3    H138873   2.432   5.604   0.685 -0.4919  0.5151 -3.1828
 5746TIP3    H238874   2.472   5.741   0.634 -3.1321  1.9353 -1.6773
 5747TIP3   OH238875   4.359   1.265   8.574 -0.0438  0.4791  0.0653
 5747TIP3    H138876   4.312   1.326   8.518  0.3017 -0.9104 -1.8535
 5747TIP3    H238877   4.450   1.294   8.570  0.0435  0.1478 -0.4442
 5748TIP3   OH238878   2.340   1.778   1.524 -0.0906  0.3341 -0.1770
 5748TIP3    H138879   2.246   1.794   1.517 -0.4206 -1.2124  0.3583
 5748TIP3    H238880   2.358   1.710   1.459 -0.1303 -2.1859  2.2297
 5749TIP3   OH238881   0.699   4.018   0.687 -0.2018 -0.7123 -0.3255
 5749TIP3    H138882   0.753   4.044   0.762  1.0997 -1.5434 -0.9393
 5749TIP3    H238883   0.762   4.001   0.617 -1.3101 -1.1999 -1.2319
 5750TIP3   OH238884   6.140   3.379   3.385  0.2680 -0.4686 -0.5912
 5750TIP3    H138885   6.173   3.408   3.300 -1.2002  1.4162 -0.5678
 5750TIP3    H238886   6.050   3.353   3.369 -0.7428  1.9136  0.6906
 5751TIP3   OH238887   1.919   2.294   2.036 -0.1901 -0.4633 -0.7519
 5751TIP3    H138888   1.845   2.236   2.018 -0.3035 -0.1801 -1.1976
 5751TIP3    H238889   1.879   2.375   2.067 -0.0201 -0.7252  0.1906
 5752TIP3   OH238890   1.969   2.249   0.143 -1.0733  0.1467  0.4681
 5752TIP3    H138891   1.909   2.303   0.193 -1.2037  0.3986  0.0382
 5752TIP3    H238892   2.044   2.306   0.125  0.2219 -0.6944  2.6569
 5753TIP3   OH238893   0.636   3.485   3.459 -0.0146  0.2149  0.1787
 5753TIP3    H138894   0.618   3.475   3.552 -1.4700  0.7373 -0.0270
 5753TIP3    H238895   0.715   3.434   3.444 -0.2714 -0.6035  1.5249
 5754TIP3   OH238896   5.905   5.985   1.076  0.3874  0.1711  0.3538
 5754TIP3    H138897   5.928   5.894   1.096  0.0626 -0.0266 -0.1418
 5754TIP3    H238898   5.816   5.980   1.040  0.3039  0.7040  0.4739
 5755TIP3   OH238899   4.916   5.627   1.385  0.0827  0.3387  0.3032
 5755TIP3    H138900   4.977   5.622   1.459  0.2022  0.6860  0.2317
 5755TIP3    H238901   4.935   5.711   1.344  0.8305 -0.3663 -0.8409
 5756TIP3   OH238902   2.625   2.891   0.850  0.1091 -0.1488  0.4319
 5756TIP3    H138903   2.635   2.906   0.756 -0.4869  0.4475  0.4538
 5756TIP3    H238904   2.531   2.892   0.865  0.1674 -1.0733  0.9117
 5757TIP3   OH238905   4.649   0.731   2.855  0.3023 -0.7088 -0.1255
 5757TIP3    H138906   4.685   0.781   2.781 -1.0455  0.2079 -0.1984
 5757TIP3    H238907   4.604   0.657   2.815  1.0886 -1.2093 -0.1019
 5758TIP3   OH238908   0.534   1.533   8.332  0.7739 -0.0415 -0.3059
 5758TIP3    H138909   0.604   1.598   8.325  1.1455 -0.4884 -0.8375
 5758TIP3    H238910   0.455   1.579   8.305  0.8824  0.4313  0.1728
 5759TIP3   OH238911   6.105   2.769   2.103 -0.3646 -0.0469  0.0975
 5759TIP3    H138912   6.129   2.693   2.050  0.5314  0.1778  0.1741
 5759TIP3    H238913   6.188   2.812   2.122 -0.5928 -0.3801  2.0777
 5760TIP3   OH238914   3.942   6.102   1.825  0.3346 -0.5185  0.2576
 5760TIP3    H138915   3.870   6.123   1.765  0.7669 -1.6071 -0.6800
 5760TIP3    H238916   3.901   6.046   1.892 -0.0277  0.2184  0.6580
 5761TIP3   OH238917   1.794   1.167   1.175 -0.3857 -0.1959  0.0015
 5761TIP3    H138918   1.885   1.147   1.197  0.1897 -0.9042 -2.7080
 5761TIP3    H238919   1.798   1.255   1.136 -0.8959 -0.1490  0.0486
 5762TIP3   OH238920   4.012   0.465   0.809 -0.2698  0.3076  0.0118
 5762TIP3    H138921   3.971   0.480   0.894  1.4203 -0.2531  0.9645
 5762TIP3    H238922   4.082   0.531   0.804  0.5650 -0.5794 -0.2871
 5763TIP3   OH238923   3.174   6.130   3.464  0.1305  1.0410 -0.5894
 5763TIP3    H138924   3.169   6.158   3.372  1.4476  0.0175 -1.0145
 5763TIP3    H238925   3.245   6.066   3.465 -1.3876 -0.7306  0.7072
 5764TIP3   OH238926   4.066   5.286   1.477 -0.0322 -0.3338 -0.4245
 5764TIP3    H138927   4.138   5.286   1.414 -0.3943  0.4563 -0.8628
 5764TIP3    H238928   4.049   5.379   1.493  0.2295 -0.5278  1.0596
 5765TIP3   OH238929   5.286   5.182   1.185  0.0643 -0.6900  0.2718
 5765TIP3    H138930   5.367   5.227   1.161  0.0813  0.1639  1.7959
 5765TIP3    H238931   5.316   5.103   1.230  0.0287 -1.9932 -1.8650
 5766TIP3   OH238932   2.437   3.569   0.919 -0.6178 -0.4572 -0.2198
 5766TIP3    H138933   2.465   3.487   0.960 -0.4356  0.6068  1.9609
 5766TIP3    H238934   2.396   3.542   0.837 -0.3464 -2.7011  0.3070
 5767TIP3   OH238935   0.773   4.626   8.283  0.1990 -0.0978  0.4473
 5767TIP3    H138936   0.720   4.600   8.358 -1.2901  1.6368  0.0453
 5767TIP3    H238937   0.732   4.584   8.208 -2.7355  3.6688 -0.3311
 5768TIP3   OH238938   0.106   2.103   1.618  0.0497  0.0519 -0.6070
 5768TIP3    H138939   0.033   2.072   1.670  1.7214 -2.7661  0.2954
 5768TIP3    H238940   0.176   2.119   1.681  0.8679  0.6290 -1.6185
 5769TIP3   OH238941   0.448   2.312   0.726  0.4735  0.4214 -0.4828
 5769TIP3    H138942   0.414   2.393   0.765 -0.6777  1.8629 -4.0961
 5769TIP3    H238943   0.540   2.311   0.750  0.7654  3.4089 -1.1363
 5770TIP3   OH238944   6.715   5.275   8.324 -0.0867  0.4077  0.5267
 5770TIP3    H138945   6.667   5.330   8.261 -0.2907 -0.1564  0.1840
 5770TIP3    H238946   6.650   5.215   8.358  0.5841 -1.1173 -0.7809
 5771TIP3   OH238947   1.304   1.245   0.366  0.6386  0.0627 -0.7219
 5771TIP3    H138948   1.390   1.252   0.324  1.0169 -1.4297 -0.2763
 5771TIP3    H238949   1.317   1.181   0.436 -0.5698  0.6797  0.0935
 5772TIP3   OH238950   3.524   1.011   0.528 -0.1742 -0.0938 -0.1536
 5772TIP3    H138951   3.616   0.986   0.519  0.0315  0.0865  1.2070
 5772TIP3    H238952   3.491   1.014   0.439  1.3945  0.8092 -0.7443
 5773TIP3   OH238953   0.313   0.629   1.285 -0.2182  0.3756  0.9741
 5773TIP3    H138954   0.247   0.626   1.354 -0.5174  1.6028  0.7517
 5773TIP3    H238955   0.396   0.629   1.332 -0.3905  4.4032  1.5795
 5774TIP3   OH238956   6.318   5.164   1.411  0.1047 -0.4860 -0.2844
 5774TIP3    H138957   6.262   5.176   1.334 -0.8568 -0.7872  0.3396
 5774TIP3    H238958   6.380   5.237   1.408  0.0814 -0.4910 -1.3330
 5775TIP3   OH238959   4.945   6.218   0.482 -0.6789 -0.2679 -0.5837
 5775TIP3    H138960   5.018   6.278   0.464 -0.1244 -0.1204  1.7728
 5775TIP3    H238961   4.986   6.132   0.491 -0.9425 -0.3728 -0.3721
 5776TIP3   OH238962   5.162   1.418   8.605 -0.6745  0.2544  0.3662
 5776TIP3    H138963   5.221   1.460   8.543 -0.8318  1.7042  1.1393
 5776TIP3    H238964   5.195   1.329   8.614  0.8164  0.7470  0.0561
 5777TIP3   OH238965   4.198   5.893   1.316 -0.4909  0.0467  0.3643
 5777TIP3    H138966   4.249   5.942   1.381 -1.2691  2.1597 -0.5503
 5777TIP3    H238967   4.258   5.881   1.243  0.0481 -1.4036  1.0066
 5778TIP3   OH238968   5.892   1.856   2.079 -0.3688  0.0372 -0.2687
 5778TIP3    H138969   5.926   1.862   1.990 -0.3898  0.3657 -0.2562
 5778TIP3    H238970   5.965   1.822   2.130  0.6100  2.4498  0.1048
 5779TIP3   OH238971   3.710   2.264   1.969  0.0066  0.0153  0.1293
 5779TIP3    H138972   3.757   2.315   2.035 -0.9324  0.0139  0.8100
 5779TIP3    H238973   3.675   2.189   2.016  1.0492 -1.0955 -0.7921
 5780TIP3   OH238974   4.640   6.390   3.254 -0.5308 -0.3021 -0.0593
 5780TIP3    H138975   4.621   6.482   3.237  1.0259  0.1379  0.4931
 5780TIP3    H238976   4.707   6.366   3.190 -1.4129 -1.2685 -0.6622
 5781TIP3   OH238977   6.111   3.893   3.607  0.0151  0.6687  0.0441
 5781TIP3    H138978   6.070   3.940   3.535 -2.5533 -0.3284  0.7272
 5781TIP3    H238979   6.166   3.827   3.565 -1.9773 -0.3600 -1.0625
 5782TIP3   OH238980   3.859   1.208   0.666  0.0576 -0.4077 -0.0747
 5782TIP3    H138981   3.834   1.119   0.693 -0.0789 -0.2540  0.3220
 5782TIP3    H238982   3.793   1.234   0.602  1.4128 -1.4749 -2.0043
 5783TIP3   OH238983   2.811   5.354   8.646  0.2273 -0.2851 -0.3831
 5783TIP3    H138984   2.856   5.436   8.623 -1.2798  0.0411 -2.4308
 5783TIP3    H238985   2.872   5.310   8.705  1.2845  2.1018  0.4594
 5784TIP3   OH238986   1.423   1.304   2.949 -0.2944  0.3144 -0.2685
 5784TIP3    H138987   1.418   1.213   2.918 -0.2821  0.6033 -1.1412
 5784TIP3    H238988   1.343   1.316   2.999 -1.2884  0.4057 -1.7981
 5785TIP3   OH238989   4.734   6.757   3.212 -0.2882 -0.0934  0.3061
 5785TIP3    H138990   4.669   6.687   3.216 -1.2946  0.8059  0.2282
 5785TIP3    H238991   4.694   6.829   3.262  0.6859  0.4533  0.3216
 5786TIP3   OH238992   6.514   4.645   0.752  0.0658 -0.0148  0.3302
 5786TIP3    H138993   6.476   4.560   0.728  0.5554 -0.6686  1.7712
 5786TIP3    H238994   6.518   4.693   0.669  1.9506 -2.2441 -0.9888
 5787TIP3   OH238995   0.030   2.272   2.669  0.2156  0.3795  0.6670
 5787TIP3    H138996   0.024   2.205   2.737  0.2044  0.6532  0.9383
 5787TIP3    H238997   0.044   2.354   2.717 -0.0514  0.6111  0.3549
 5788TIP3   OH238998   0.270   3.290   0.563  0.4776  0.6431  0.0937
 5788TIP3    H138999   0.355   3.248   0.577 -0.8301 -2.2216  0.0805
 5788TIP3    H239000   0.258   3.345   0.641  2.2021  0.9058  0.2155
 5789TIP3   OH239001   4.928   1.010   0.058 -0.3021 -0.9348  0.2559
 5789TIP3    H139002   4.922   0.939   0.121 -1.4206 -1.2151 -0.1528
 5789TIP3    H239003   4.838   1.027   0.031  0.1228 -0.6564 -1.0799
 5790TIP3   OH239004   5.715   4.798   8.459 -0.5266  0.3345 -0.5778
 5790TIP3    H139005   5.791   4.795   8.401  2.0200  0.9189  2.4460
 5790TIP3    H239006   5.695   4.707   8.477  0.7151  0.1520  0.0108
 5791TIP3   OH239007   1.492   4.870   3.890  0.4347  0.0983  0.0275
 5791TIP3    H139008   1.462   4.958   3.912 -0.1131  0.6096 -2.4786
 5791TIP3    H239009   1.413   4.825   3.860  0.8692 -0.9959  0.5006
 5792TIP3   OH239010   1.693   4.207   3.547 -0.2400 -0.8502  0.5093
 5792TIP3    H139011   1.636   4.285   3.544  0.9378  0.0239  0.1338
 5792TIP3    H239012   1.705   4.190   3.640 -0.1242 -0.2957  0.5996
 5793TIP3   OH239013   5.702   2.125   1.336  0.0207  0.5687  0.4186
 5793TIP3    H139014   5.689   2.220   1.333  1.8700  0.9174  1.5638
 5793TIP3    H239015   5.701   2.097   1.244 -1.9665  1.4292  0.1280
 5794TIP3   OH239016   0.432   4.148   8.723 -0.3501 -0.2703 -0.5032
 5794TIP3    H139017   0.443   4.229   8.772 -2.1359  0.7645 -1.7158
 5794TIP3    H239018   0.487   4.084   8.770 -0.0915  1.2356  1.3704
 5795TIP3   OH239019   3.384   2.948   2.546 -0.0742 -0.5181  0.0956
 5795TIP3    H139020   3.386   3.040   2.522 -1.3156 -0.5895 -0.3399
 5795TIP3    H239021   3.431   2.944   2.629 -1.6706  0.8384  1.1304
 5796TIP3   OH239022   3.664   0.317   8.430 -0.5057 -0.4112  0.5300
 5796TIP3    H139023   3.669   0.344   8.338  0.0493  2.2267  1.2387
 5796TIP3    H239024   3.583   0.266   8.436 -0.4341 -0.8141 -1.4403
 5797TIP3   OH239025   4.950   2.113   0.544 -0.0094  0.2515 -0.2330
 5797TIP3    H139026   4.942   2.177   0.614 -1.9798  1.5408 -1.5247
 5797TIP3    H239027   4.972   2.166   0.466 -2.5186 -0.4283 -1.5043
 5798TIP3   OH239028   5.658   5.203   8.877  0.1297 -0.1767 -0.0326
 5798TIP3    H139029   5.603   5.151   8.935  1.7914  0.2567  2.0834
 5798TIP3    H239030   5.734   5.146   8.860  0.1923  0.1415 -0.8188
 5799TIP3   OH239031   0.602   6.540   2.052 -0.1858  0.1083  0.0976
 5799TIP3    H139032   0.549   6.567   1.978  2.0958  1.1914 -1.2298
 5799TIP3    H239033   0.648   6.619   2.080  1.5940 -0.9679  0.4102
 5800TIP3   OH239034   5.061   4.443   4.298  0.3922 -0.3218 -0.0040
 5800TIP3    H139035   5.091   4.519   4.347  0.5051  0.6927 -1.5690
 5800TIP3    H239036   5.135   4.382   4.299  1.0795  0.4914 -0.5064
 5801TIP3   OH239037   4.283   6.521   2.951 -0.2154  0.0423 -0.1763
 5801TIP3    H139038   4.251   6.484   3.033 -0.0469  1.0964  0.3748
 5801TIP3    H239039   4.253   6.612   2.951  0.0211  0.1378 -1.1549
 5802TIP3   OH239040   5.124   0.993   1.260 -0.6558  0.3308 -0.2875
 5802TIP3    H139041   5.068   0.929   1.303  1.2610 -0.3495  1.3482
 5802TIP3    H239042   5.174   1.034   1.330  0.1838  1.6344 -1.5677
 5803TIP3   OH239043   1.266   4.287   0.597 -0.1924 -0.1122 -0.1173
 5803TIP3    H139044   1.213   4.318   0.524 -0.4781  1.4381  0.7151
 5803TIP3    H239045   1.202   4.253   0.660 -0.1263  0.6483  0.3708
 5804TIP3   OH239046   3.690   4.662   0.597 -0.7103  0.7018  0.1274
 5804TIP3    H139047   3.753   4.731   0.576  0.7769 -1.0471 -1.5102
 5804TIP3    H239048   3.624   4.668   0.528  0.2067 -0.3897 -0.8734
 5805TIP3   OH239049   3.610   3.050   3.655 -0.5817  0.0488  0.3252
 5805TIP3    H139050   3.656   3.080   3.734 -2.0744  1.2756  0.7730
 5805TIP3    H239051   3.517   3.058   3.676 -1.0927 -3.0263 -0.3124
 5806TIP3   OH239052   4.332   3.465   0.360  0.8780 -0.0052  0.3984
 5806TIP3    H139053   4.304   3.492   0.448 -2.8176  3.3326 -1.4452
 5806TIP3    H239054   4.412   3.515   0.344 -0.5956  2.6135  0.5992
 5807TIP3   OH239055   2.440   1.587   1.687  0.3012 -0.3795  0.1576
 5807TIP3    H139056   2.526   1.582   1.646  0.6581  1.6658  0.5653
 5807TIP3    H239057   2.393   1.654   1.637 -0.7022 -0.7488  0.5672
 5808TIP3   OH239058   0.390   2.099   0.550 -0.0010 -0.1421  0.0026
 5808TIP3    H139059   0.430   2.093   0.463 -0.4668  1.6560 -0.3682
 5808TIP3    H239060   0.416   2.185   0.583 -1.9783  0.3030  0.5446
 5809TIP3   OH239061   2.776   0.604   2.074 -0.3508  0.0895 -0.2312
 5809TIP3    H139062   2.797   0.625   2.165 -1.8571  1.1424 -0.0888
 5809TIP3    H239063   2.680   0.597   2.073 -0.4446  1.1482 -1.9202
 5810TIP3   OH239064   0.575   1.031   2.415  0.4651  0.2647 -0.2311
 5810TIP3    H139065   0.499   0.984   2.379  0.1058  0.8915 -0.3108
 5810TIP3    H239066   0.599   0.980   2.493  0.0488 -0.0175 -0.2793
 5811TIP3   OH239067   3.415   1.543   3.003  0.2280 -0.3801  0.2433
 5811TIP3    H139068   3.398   1.524   2.911  1.7893 -0.5123 -0.0447
 5811TIP3    H239069   3.409   1.638   3.010  1.6292 -0.2193 -0.3625
 5812TIP3   OH239070   6.620   3.943   3.723  0.6110  0.1385 -0.4169
 5812TIP3    H139071   6.711   3.932   3.693 -0.3595  0.5307 -3.9694
 5812TIP3    H239072   6.601   4.036   3.706 -0.4113  0.1147  0.5055
 5813TIP3   OH239073   2.087   4.715   2.619 -0.3402  0.5898  0.3678
 5813TIP3    H139074   2.063   4.697   2.710 -2.2315  0.2573 -0.1527
 5813TIP3    H239075   2.148   4.645   2.596  2.0589  1.9846  2.0325
 5814TIP3   OH239076   2.977   2.592   3.494 -0.0669 -0.5436  0.1907
 5814TIP3    H139077   2.991   2.604   3.400  0.8287  1.7607  0.5591
 5814TIP3    H239078   2.978   2.681   3.530  1.0927 -1.4462  2.5811
 5815TIP3   OH239079   5.612   2.551   0.930 -0.1092  0.4330 -0.4116
 5815TIP3    H139080   5.600   2.512   1.017 -0.0265  2.2868  0.4637
 5815TIP3    H239081   5.560   2.631   0.933  2.2075  2.0324 -1.0471
 5816TIP3   OH239082   0.364   6.759   1.618 -0.2703 -0.5109 -0.4531
 5816TIP3    H139083   0.441   6.705   1.636 -0.5688 -1.1096 -0.9694
 5816TIP3    H239084   0.370   6.830   1.682  0.6340 -0.6298 -0.3940
 5817TIP3   OH239085   6.575   6.211   3.510 -0.3601 -0.3201  0.2177
 5817TIP3    H139086   6.596   6.248   3.424 -1.5770 -0.1133  0.0020
 5817TIP3    H239087   6.526   6.131   3.491 -0.9045 -0.1116  0.7218
 5818TIP3   OH239088   3.447   2.915   0.984  0.1045  0.4160 -0.3002
 5818TIP3    H139089   3.482   2.915   0.894 -0.7657 -1.3068 -0.6840
 5818TIP3    H239090   3.489   2.840   1.025  0.1469  0.9283  0.6050
 5819TIP3   OH239091   3.231   2.337   3.181 -0.0826 -0.4049  0.3703
 5819TIP3    H139092   3.323   2.357   3.194  0.3500 -1.9196 -0.1476
 5819TIP3    H239093   3.184   2.412   3.219  1.3284  0.1469  1.0863
 5820TIP3   OH239094   2.570   6.337   2.259  0.4258 -0.2799  0.3574
 5820TIP3    H139095   2.585   6.244   2.242  0.8643 -0.0424 -0.6047
 5820TIP3    H239096   2.590   6.381   2.176 -1.0418  0.5517  0.4007
 5821TIP3   OH239097   3.620   4.045   2.061  0.1397 -0.2798  0.0971
 5821TIP3    H139098   3.529   4.055   2.034  0.4233  1.1721 -0.4288
 5821TIP3    H239099   3.671   4.068   1.983  0.9463  0.2519  0.7569
 5822TIP3   OH239100   6.480   0.154   3.229 -0.0948  0.0927 -0.3831
 5822TIP3    H139101   6.518   0.164   3.141 -1.1387  3.0886 -0.5896
 5822TIP3    H239102   6.553   0.172   3.289 -0.0278  0.9202 -0.7001
 5823TIP3   OH239103   1.704   0.232   0.210 -0.1056 -0.1188 -0.0198
 5823TIP3    H139104   1.731   0.149   0.249  2.7249  1.0298  0.7424
 5823TIP3    H239105   1.640   0.208   0.143  0.0511 -2.8068  0.7072
 5824TIP3   OH239106   2.743   3.886   1.837  0.1514 -0.7469 -0.3771
 5824TIP3    H139107   2.748   3.931   1.752  1.5615 -0.7312 -0.3025
 5824TIP3    H239108   2.666   3.829   1.829 -1.2863  1.1441 -0.7151
 5825TIP3   OH239109   2.670   0.071   1.763 -0.2978  0.2857  0.3323
 5825TIP3    H139110   2.586   0.028   1.748  0.9827 -3.0257  1.6510
 5825TIP3    H239111   2.674   0.083   1.858  2.0773 -3.1269  0.8535
 5826TIP3   OH239112   3.787   1.099   8.696 -0.4918  0.1562 -0.3932
 5826TIP3    H139113   3.768   1.077   8.604  1.4534  0.9533 -1.0293
 5826TIP3    H239114   3.787   1.195   8.698 -3.5255  0.2170  1.1634
 5827TIP3   OH239115   2.767   1.705   0.613  0.1539  0.6718 -0.6439
 5827TIP3    H139116   2.693   1.695   0.673  0.5514 -1.0317 -0.3925
 5827TIP3    H239117   2.744   1.781   0.559 -2.4710 -0.6071 -1.5039
 5828TIP3   OH239118   0.297   3.951   2.513 -0.0073 -0.5892 -0.1429
 5828TIP3    H139119   0.316   4.034   2.555 -0.5545 -1.1232  1.2281
 5828TIP3    H239120   0.274   3.973   2.423 -0.7022  0.7865  0.3587
 5829TIP3   OH239121   5.006   5.976   2.657 -0.2570 -0.3119 -0.2988
 5829TIP3    H139122   5.029   5.896   2.611  0.7419 -0.3705  0.2649
 5829TIP3    H239123   5.051   5.969   2.741 -0.3743  0.7150 -0.1357
 5830TIP3   OH239124   5.526   4.574   1.664 -0.3415 -0.6068  0.2394
 5830TIP3    H139125   5.457   4.585   1.599  0.3364  0.5739 -0.3226
 5830TIP3    H239126   5.577   4.499   1.632  0.6081  0.5987 -1.2247
 5831TIP3   OH239127   1.022   2.639   0.192 -0.0543 -0.5339  0.2848
 5831TIP3    H139128   1.030   2.578   0.119 -2.5965 -1.3219  0.5479
 5831TIP3    H239129   1.072   2.597   0.263 -1.6867 -2.4053  0.4389
 5832TIP3   OH239130   4.565   1.831   1.070  0.4510 -0.8136 -0.1948
 5832TIP3    H139131   4.658   1.840   1.088  0.4010  0.5940 -0.5477
 5832TIP3    H239132   4.541   1.747   1.110  1.0273  0.5684  3.4045
 5833TIP3   OH239133   5.331   1.463   2.911 -0.1545  0.4194  0.3436
 5833TIP3    H139134   5.248   1.421   2.931 -0.3847  0.2785 -0.8264
 5833TIP3    H239135   5.308   1.553   2.889 -0.0862  0.2331 -0.5413
 5834TIP3   OH239136   1.326   2.481   2.453  0.3182  0.4925  0.6203
 5834TIP3    H139137   1.332   2.403   2.509 -0.1203  0.7014  0.9686
 5834TIP3    H239138   1.316   2.446   2.364 -0.3699  0.1362  0.8228
 5835TIP3   OH239139   1.846   3.401   1.197 -0.0647  0.5482 -0.7288
 5835TIP3    H139140   1.865   3.436   1.283 -0.3207 -0.9181 -0.0465
 5835TIP3    H239141   1.818   3.477   1.145  2.7832  1.9450 -0.3692
 5836TIP3   OH239142   3.091   4.732   8.861 -0.2535 -0.0692  0.2392
 5836TIP3    H139143   3.076   4.826   8.861 -0.0874 -0.0332 -0.7519
 5836TIP3    H239144   3.150   4.716   8.934  2.3384  1.0413 -1.4663
 5837TIP3   OH239145   1.699   2.224   2.652 -0.0776  0.1159  0.3137
 5837TIP3    H139146   1.634   2.218   2.723  0.3990  0.7209  0.8156
 5837TIP3    H239147   1.708   2.318   2.636 -1.0584 -0.0377 -1.3918
 5838TIP3   OH239148   3.448   4.835   8.488 -0.3202 -0.4720 -0.2757
 5838TIP3    H139149   3.521   4.844   8.550 -0.1170 -2.5134 -0.1395
 5838TIP3    H239150   3.462   4.905   8.425 -0.1431  1.2504  1.5780
 5839TIP3   OH239151   6.048   5.165   1.280  0.2792  0.7427  0.2585
 5839TIP3    H139152   6.003   5.084   1.305  1.6695  0.1811  1.0783
 5839TIP3    H239153   5.988   5.235   1.308  0.3535  0.0457  2.3311
 5840TIP3   OH239154   1.722   4.588   0.372 -0.4160  0.1531  0.1128
 5840TIP3    H139155   1.725   4.604   0.277  1.5483 -2.2889 -0.3576
 5840TIP3    H239156   1.789   4.646   0.408  0.4727 -0.5222 -0.3747
 5841TIP3   OH239157   6.058   1.501   2.628  0.3287  0.3425 -0.1385
 5841TIP3    H139158   6.082   1.409   2.619 -0.3964  0.2705 -1.4159
 5841TIP3    H239159   6.040   1.531   2.539  2.9207  2.3973 -0.1172
 5842TIP3   OH239160   4.698   6.419   0.830 -0.3891  0.6388 -0.7079
 5842TIP3    H139161   4.759   6.346   0.838  0.1095  1.1787  0.7584
 5842TIP3    H239162   4.706   6.447   0.739 -0.5663 -1.0834 -1.2890
 5843TIP3   OH239163   2.561   1.922   1.993 -0.6826  0.3387 -0.2613
 5843TIP3    H139164   2.616   1.998   2.008 -1.2726  0.6396  0.4695
 5843TIP3    H239165   2.614   1.848   2.022 -0.1440  0.4804 -0.8827
 5844TIP3   OH239166   2.258   4.472   4.059  0.3708 -0.8769 -0.2317
 5844TIP3    H139167   2.170   4.440   4.036 -0.6882 -0.4339  2.7719
 5844TIP3    H239168   2.294   4.403   4.114  0.2991  0.5820  1.7239
 5845TIP3   OH239169   2.055   0.879   3.417 -0.2298 -0.1229  0.1515
 5845TIP3    H139170   2.088   0.832   3.340  1.7159 -1.3708  1.6538
 5845TIP3    H239171   2.033   0.810   3.480 -0.2335  0.8929  1.3097
 5846TIP3   OH239172   5.338   1.244   8.847  0.2467  0.5863  0.1516
 5846TIP3    H139173   5.259   1.240   8.902  0.1029  1.2815 -0.0047
 5846TIP3    H239174   5.350   1.153   8.817  2.2396 -0.6102  3.9757
 5847TIP3   OH239175   0.973   3.982   3.084  0.0204  0.3140  0.2623
 5847TIP3    H139176   1.025   4.035   3.144 -0.2291  2.7794 -1.5103
 5847TIP3    H239177   1.026   3.905   3.067  2.2981  1.8510 -0.0246
 5848TIP3   OH239178   5.460   1.915   0.090 -0.3326 -0.7749 -0.6380
 5848TIP3    H139179   5.398   1.948   0.155 -1.9370  0.2838 -2.6017
 5848TIP3    H239180   5.536   1.971   0.098 -1.1597  0.3874 -0.7433
 5849TIP3   OH239181   4.861   3.209   2.918  0.0206  0.3367  0.2074
 5849TIP3    H139182   4.950   3.174   2.916 -0.5845 -1.8636  3.3831
 5849TIP3    H239183   4.869   3.294   2.961  0.6879  0.7290 -0.6691
 5850TIP3   OH239184   5.923   5.333   2.084  0.1004 -1.1142 -0.2884
 5850TIP3    H139185   5.926   5.413   2.030 -0.5564 -2.8063 -3.0399
 5850TIP3    H239186   5.833   5.331   2.118 -0.8958 -2.0770 -2.7153
 5851TIP3   OH239187   1.540   6.227   3.761  0.1259  0.0348 -0.4417
 5851TIP3    H139188   1.636   6.227   3.760  0.1363  0.1542 -1.5988
 5851TIP3    H239189   1.516   6.246   3.852  1.1791 -1.2380  0.1287
 5852TIP3   OH239190   1.274   0.637   3.218 -0.2235  0.2501 -0.0438
 5852TIP3    H139191   1.270   0.617   3.311 -1.1574  0.2633 -0.0715
 5852TIP3    H239192   1.240   0.726   3.211  0.8107  0.6467 -0.2925
 5853TIP3   OH239193   3.736   1.120   2.550 -0.1174  0.2360 -0.4560
 5853TIP3    H139194   3.710   1.107   2.459 -0.5081 -0.9653 -0.1904
 5853TIP3    H239195   3.731   1.033   2.589  1.9878  0.3748  0.2351
 5854TIP3   OH239196   4.664   3.054   0.254 -0.4460 -0.6397 -0.3738
 5854TIP3    H139197   4.690   3.102   0.175  0.0388 -1.1389 -0.5228
 5854TIP3    H239198   4.627   2.972   0.220 -2.5612  0.1685 -0.1933
 5855TIP3   OH239199   2.552   2.924   1.610 -0.3369 -0.0702 -0.2045
 5855TIP3    H139200   2.514   2.981   1.677 -1.4209 -0.0808 -0.8074
 5855TIP3    H239201   2.554   2.837   1.650  2.2477  0.4820  1.1057
 5856TIP3   OH239202   1.046   2.710   3.022 -0.1184 -0.1491  0.7969
 5856TIP3    H139203   1.017   2.800   3.040  1.5194  0.9659 -1.5730
 5856TIP3    H239204   0.966   2.662   3.001 -0.7435  1.7072 -1.3926
 5857TIP3   OH239205   4.872   2.117   8.266 -0.5183  0.0220  0.6199
 5857TIP3    H139206   4.824   2.040   8.235 -0.1414  0.1440 -0.3122
 5857TIP3    H239207   4.806   2.184   8.278 -0.7785 -0.2812  0.8816
 5858TIP3   OH239208   3.531   5.250   1.268  0.4053  0.4638  0.3269
 5858TIP3    H139209   3.478   5.217   1.341 -2.1307  1.1959 -1.0644
 5858TIP3    H239210   3.546   5.342   1.290  0.7552  0.3632  0.5171
 5859TIP3   OH239211   5.722   4.696   0.515 -0.7806 -0.2364 -0.7207
 5859TIP3    H139212   5.758   4.737   0.436  0.7948 -0.2933 -0.0815
 5859TIP3    H239213   5.756   4.606   0.513  1.1794  0.3716  1.0765
 5860TIP3   OH239214   5.603   2.525   0.438  0.1886  0.1929  0.0454
 5860TIP3    H139215   5.516   2.526   0.479 -0.5607  0.9243 -1.4562
 5860TIP3    H239216   5.637   2.614   0.452  2.0567 -0.8820  3.2231
 5861TIP3   OH239217   6.245   1.658   0.879  0.0586  0.3372  0.1040
 5861TIP3    H139218   6.197   1.739   0.857 -0.1785  0.4587  1.0229
 5861TIP3    H239219   6.256   1.663   0.974  0.1782 -0.6431  0.1428
 5862TIP3   OH239220   0.610   3.779   1.122 -0.3512  0.1801  0.2941
 5862TIP3    H139221   0.599   3.845   1.190  2.2579  1.7624 -0.6561
 5862TIP3    H239222   0.569   3.817   1.045 -0.4465 -0.1595  0.1748
 5863TIP3   OH239223   4.860   3.098   1.499  0.0082  0.4096 -0.5257
 5863TIP3    H139224   4.944   3.110   1.454  1.2265 -1.6943  1.0156
 5863TIP3    H239225   4.803   3.056   1.434  1.0736 -0.7289 -0.7640
 5864TIP3   OH239226   1.740   2.858   3.084 -0.3043 -0.0403  0.7272
 5864TIP3    H139227   1.825   2.852   3.129  0.6389 -0.4546 -1.0144
 5864TIP3    H239228   1.723   2.952   3.077  1.2740  0.1741 -1.0627
 5865TIP3   OH239229   5.872   4.736   0.752  0.2917 -0.3828  0.3710
 5865TIP3    H139230   5.945   4.704   0.699  1.3547 -0.9780  2.1145
 5865TIP3    H239231   5.794   4.703   0.707  1.0369  0.3344 -1.5750
 5866TIP3   OH239232   3.308   2.335   2.431  0.2390  0.4128 -0.6043
 5866TIP3    H139233   3.248   2.358   2.501  0.5615  0.9043 -0.4819
 5866TIP3    H239234   3.377   2.284   2.473 -0.1748 -0.2949 -0.7745
 5867TIP3   OH239235   5.437   4.191   0.931  0.1689  1.3493  0.0641
 5867TIP3    H139236   5.460   4.173   1.022 -0.7131 -2.2729 -0.2831
 5867TIP3    H239237   5.351   4.232   0.936  0.8109  2.7059  0.8330
 5868TIP3   OH239238   0.772   6.562   8.749  0.4216  0.1223  0.1922
 5868TIP3    H139239   0.713   6.630   8.717 -0.3341 -0.3449  0.5379
 5868TIP3    H239240   0.743   6.482   8.704  2.4101  0.2941 -1.5619
 5869TIP3   OH239241   1.193   4.299   3.628  0.2629 -0.5222  0.2832
 5869TIP3    H139242   1.236   4.384   3.627  1.2174 -0.9837 -0.3575
 5869TIP3    H239243   1.149   4.295   3.713 -0.1620  0.7664  0.1465
 5870TIP3   OH239244   5.947   3.686   0.027 -0.3319  0.6349  0.0911
 5870TIP3    H139245   5.918   3.598   0.002 -0.0467  0.8151 -0.8851
 5870TIP3    H239246   6.039   3.675   0.048 -0.3398  0.6695  0.1442
 5871TIP3   OH239247   3.236   5.180   0.385  0.1997 -0.6991 -0.3713
 5871TIP3    H139248   3.267   5.165   0.474 -2.1204 -0.0332  0.6072
 5871TIP3    H239249   3.316   5.198   0.335  1.4170  1.2515  2.0328
 5872TIP3   OH239250   3.256   3.494   3.188  0.1950  0.1814  0.1690
 5872TIP3    H139251   3.297   3.522   3.270  1.0300  0.4857 -0.3373
 5872TIP3    H239252   3.163   3.509   3.201  0.4055  1.0562  0.7459
 5873TIP3   OH239253   0.814   3.951   1.158  0.5727 -0.2342  0.2496
 5873TIP3    H139254   0.768   3.873   1.125 -0.2211  0.5795 -0.6500
 5873TIP3    H239255   0.907   3.928   1.152  0.3852 -0.8290 -0.7660
 5874TIP3   OH239256   5.962   4.539   0.489  0.4027  0.4859  0.1460
 5874TIP3    H139257   6.054   4.520   0.474 -0.2499 -3.1010 -0.4248
 5874TIP3    H239258   5.932   4.466   0.545 -2.0107  1.7137  0.5833
 5875TIP3   OH239259   5.997   2.548   2.355 -0.4143 -0.0867 -0.2111
 5875TIP3    H139260   6.077   2.555   2.303 -0.9687 -1.4764 -1.3150
 5875TIP3    H239261   6.025   2.506   2.436  1.0354  4.7589  2.1359
 5876TIP3   OH239262   3.328   0.879   8.641 -0.2116 -0.1408  0.0105
 5876TIP3    H139263   3.239   0.851   8.663 -0.1093  0.5669  1.4763
 5876TIP3    H239264   3.341   0.960   8.692  2.2691 -1.7466  2.2120
 5877TIP3   OH239265   1.888   2.236   4.019 -0.7481 -0.2417  0.3715
 5877TIP3    H139266   1.875   2.202   4.107 -0.4110 -1.9799 -0.2223
 5877TIP3    H239267   1.803   2.273   3.995 -1.0609 -0.4448  1.1341
 5878TIP3   OH239268   0.950   1.426   2.005 -0.4047  0.1519 -0.3143
 5878TIP3    H139269   0.906   1.504   1.972  1.1294  0.4291 -1.8387
 5878TIP3    H239270   0.920   1.356   1.948 -3.2645 -0.8821  2.2001
 5879TIP3   OH239271   5.938   1.657   0.785  0.0964  0.4840  0.3966
 5879TIP3    H139272   5.951   1.562   0.788  1.3318  0.6641  2.2267
 5879TIP3    H239273   5.844   1.669   0.779 -0.0691 -0.8426  0.0558
 5880TIP3   OH239274   0.943   5.463   8.358  0.7566  0.1226 -0.3992
 5880TIP3    H139275   0.964   5.506   8.275  1.0231  0.9808  0.1019
 5880TIP3    H239276   0.894   5.529   8.407 -1.6787 -1.2327 -0.8567
 5881TIP3   OH239277   1.046   4.503   0.602 -0.7831  0.0147  0.2626
 5881TIP3    H139278   1.056   4.513   0.696  0.8082 -0.0401  0.1342
 5881TIP3    H239279   0.987   4.429   0.592 -2.0862  0.8905  1.1984
 5882TIP3   OH239280   5.213   5.437   1.376  0.3144 -0.3076  0.0213
 5882TIP3    H139281   5.147   5.369   1.366  0.4747 -0.3837 -0.5782
 5882TIP3    H239282   5.172   5.502   1.433 -0.5721 -0.0104 -0.9054
 5883TIP3   OH239283   2.697   1.970   0.503  0.0957  0.3779  0.0494
 5883TIP3    H139284   2.761   2.007   0.564 -0.9689  0.5186  1.0977
 5883TIP3    H239285   2.710   2.021   0.422  0.6067  1.1039  0.5717
 5884TIP3   OH239286   6.155   6.347   3.287  0.0259  0.3779 -0.3289
 5884TIP3    H139287   6.246   6.355   3.260  0.6179 -1.2864  0.9403
 5884TIP3    H239288   6.135   6.429   3.331  1.2787  0.3552  0.3138
 5885TIP3   OH239289   1.120   2.557   0.790 -0.8346  0.1393  0.1446
 5885TIP3    H139290   1.156   2.642   0.764 -0.1903  0.0333  0.6603
 5885TIP3    H239291   1.026   2.573   0.801 -0.7351  0.7605  0.1357
 5886TIP3   OH239292   1.060   6.468   3.892 -0.2339  0.6021  0.0294
 5886TIP3    H139293   1.144   6.450   3.934 -0.3436  1.9543  0.8918
 5886TIP3    H239294   0.997   6.414   3.940  0.2321 -1.1415 -1.2268
 5887TIP3   OH239295   2.718   2.503   0.902  0.1809  0.3082  0.2053
 5887TIP3    H139296   2.633   2.466   0.922 -0.0868 -0.2168 -1.7263
 5887TIP3    H239297   2.736   2.563   0.975 -0.7584 -1.2771  1.8225
 5888TIP3   OH239298   2.983   4.981   3.481  0.2525  0.4709 -0.0366
 5888TIP3    H139299   2.993   5.013   3.571  0.8886  0.4190 -0.0894
 5888TIP3    H239300   2.977   4.886   3.489 -0.3502  0.5069  0.0039
 5889TIP3   OH239301   1.954   4.841   8.279 -0.2810 -0.2244  0.3303
 5889TIP3    H139302   1.930   4.880   8.195 -0.6172 -1.0182  0.0364
 5889TIP3    H239303   2.048   4.827   8.274 -0.4441 -1.2311 -0.3644
 5890TIP3   OH239304   5.632   3.806   1.955 -0.1874  0.4200 -0.6833
 5890TIP3    H139305   5.569   3.876   1.938 -0.3923  0.8000  1.3500
 5890TIP3    H239306   5.626   3.749   1.878 -3.9054 -0.1881 -0.1428
 5891TIP3   OH239307   0.646   6.395   2.839  0.5680 -0.3627  0.0227
 5891TIP3    H139308   0.569   6.376   2.894 -0.4595  0.8603 -0.9339
 5891TIP3    H239309   0.614   6.383   2.750  1.8997 -1.1908 -0.3675
 5892TIP3   OH239310   3.250   5.786   4.048  0.0787 -0.0239  0.4541
 5892TIP3    H139311   3.327   5.837   4.024 -0.7831  1.3483  0.5181
 5892TIP3    H239312   3.285   5.701   4.076  1.5537  0.5843  0.5235
 5893TIP3   OH239313   3.362   5.944   7.677 -0.3178  0.2452 -0.5209
 5893TIP3    H139314   3.409   6.022   7.646 -1.5198  0.9652 -0.6241
 5893TIP3    H239315   3.280   5.945   7.626 -0.6339 -0.7116 -0.0352
 5894TIP3   OH239316   3.190   0.827   3.779  0.2494  0.7613 -0.4901
 5894TIP3    H139317   3.227   0.869   3.856  0.7779 -0.7871  0.1484
 5894TIP3    H239318   3.264   0.817   3.719  0.2234  0.4020 -0.4675
 5895TIP3   OH239319   6.520   0.195   2.943  0.1084 -0.0017  0.4872
 5895TIP3    H139320   6.475   0.267   2.898 -0.9670  0.5330  2.3316
 5895TIP3    H239321   6.612   0.206   2.918 -0.4797 -0.1742 -2.0995
 5896TIP3   OH239322   2.646   4.755   3.561  0.7454 -0.1904 -0.6084
 5896TIP3    H139323   2.644   4.660   3.554 -2.5450 -0.1955 -0.7750
 5896TIP3    H239324   2.674   4.772   3.651 -0.8765 -1.4326  0.1854
 5897TIP3   OH239325   1.553   5.005   2.705  0.0780  0.6525 -0.6154
 5897TIP3    H139326   1.647   4.987   2.703  0.5177  2.5900  0.6090
 5897TIP3    H239327   1.544   5.079   2.764 -2.2342  0.5602 -0.7792
 5898TIP3   OH239328   1.336   3.375   1.583 -0.5480  0.0720 -0.0723
 5898TIP3    H139329   1.361   3.406   1.497 -1.1009  1.2922  0.1808
 5898TIP3    H239330   1.315   3.282   1.570  0.2701  0.0052 -1.0406
 5899TIP3   OH239331   4.533   1.660   1.840 -0.6683 -0.2796  0.1749
 5899TIP3    H139332   4.625   1.672   1.865 -0.0642 -1.0566 -1.4767
 5899TIP3    H239333   4.514   1.734   1.783 -0.9670 -0.2992  0.2479
 5900TIP3   OH239334   4.905   1.172   1.270 -0.5607 -0.5613  0.0539
 5900TIP3    H139335   4.970   1.172   1.199 -0.2817  3.3298  0.0922
 5900TIP3    H239336   4.823   1.149   1.227 -0.1602  0.4416 -1.3488
 5901TIP3   OH239337   3.501   2.570   3.893  0.1726 -0.5529 -0.4892
 5901TIP3    H139338   3.440   2.539   3.960  1.1649 -1.6427 -0.0649
 5901TIP3    H239339   3.542   2.647   3.933  0.8301 -1.2567  0.2047
 5902TIP3   OH239340   3.999   4.086   8.819 -0.3440  0.6266  0.6275
 5902TIP3    H139341   4.077   4.138   8.801 -0.3961  0.8854  1.1529
 5902TIP3    H239342   4.019   4.000   8.783  0.6038  0.3879  1.7026
 5903TIP3   OH239343   4.941   0.007   1.269  0.3104  0.2827 -0.4808
 5903TIP3    H139344   4.968  -0.051   1.197  2.6081 -0.3561  0.7718
 5903TIP3    H239345   5.010   0.073   1.272  0.0023  0.5629  0.8213
 5904TIP3   OH239346   6.399   2.530   3.885 -0.0328 -0.7725  0.6244
 5904TIP3    H139347   6.368   2.615   3.919 -0.2941 -0.6806  0.1601
 5904TIP3    H239348   6.488   2.548   3.855  0.2210 -0.8671  1.3096
 5905TIP3   OH239349   3.827   4.748   1.035  0.1730  0.1036  0.0439
 5905TIP3    H139350   3.777   4.802   0.974  1.1387 -0.8318 -1.6595
 5905TIP3    H239351   3.913   4.738   0.994  0.8607 -0.5809  1.5685
 5906TIP3   OH239352   2.835   3.368   1.063 -0.7532 -0.1943  0.1554
 5906TIP3    H139353   2.800   3.389   1.150 -2.3297  0.5269 -0.6002
 5906TIP3    H239354   2.925   3.400   1.065 -0.2846 -1.4771  1.9619
 5907TIP3   OH239355   2.420   1.140   1.590 -0.4689  0.3895 -0.1884
 5907TIP3    H139356   2.340   1.192   1.605 -1.2098 -0.5906 -0.6307
 5907TIP3    H239357   2.472   1.193   1.529 -0.6267  1.1760  0.3319
 5908TIP3   OH239358   5.114   5.737   1.847 -0.1899 -0.0828  0.0996
 5908TIP3    H139359   5.062   5.804   1.802  0.0817 -0.1862 -0.3759
 5908TIP3    H239360   5.118   5.767   1.937 -0.9246  0.0192  0.1074
 5909TIP3   OH239361   2.012   5.714   2.324  0.1263  0.5071  0.0797
 5909TIP3    H139362   2.019   5.801   2.363 -0.8929 -0.5262  2.8267
 5909TIP3    H239363   1.921   5.708   2.295  0.2197  0.4077 -0.1897
 5910TIP3   OH239364   5.242   6.336   2.648 -0.0207  1.3921 -0.1951
 5910TIP3    H139365   5.279   6.394   2.715 -1.7316 -0.1885  2.2911
 5910TIP3    H239366   5.205   6.396   2.583 -1.9995  3.2591  2.4086
 5911TIP3   OH239367   6.389   5.264   0.208  0.2593 -0.3430 -0.5087
 5911TIP3    H139368   6.366   5.180   0.168 -0.4095  0.2029 -1.2957
 5911TIP3    H239369   6.327   5.273   0.281  1.1160 -1.0781  0.3348
 5912TIP3   OH239370   5.953   1.687   0.065 -0.0050  0.2013 -0.4113
 5912TIP3    H139371   5.878   1.726   0.019 -1.1332 -0.4727  0.7762
 5912TIP3    H239372   5.953   1.595   0.038 -0.4169 -0.1005  0.5731
 5913TIP3   OH239373   2.891   5.413   3.471  0.0499 -0.2664  0.1687
 5913TIP3    H139374   2.969   5.421   3.527  1.9296  2.5234 -2.5354
 5913TIP3    H239375   2.835   5.486   3.498  0.1295 -0.0083 -0.3575
 5914TIP3   OH239376   3.513   6.536   2.157  0.1679  0.0697 -0.1343
 5914TIP3    H139377   3.476   6.576   2.235  0.0921  0.2118 -0.2408
 5914TIP3    H239378   3.607   6.533   2.174  0.3360  1.4762 -0.6314
 5915TIP3   OH239379   1.717   3.491   2.246 -0.0642 -0.0322  0.0110
 5915TIP3    H139380   1.709   3.513   2.154 -2.2647  0.5102  0.2802
 5915TIP3    H239381   1.772   3.561   2.283  0.4372  0.0013 -0.7729
 5916TIP3   OH239382   3.858   1.271   4.384  0.3018 -0.1083  0.3338
 5916TIP3    H139383   3.808   1.281   4.466 -0.2963  0.0404 -0.0398
 5916TIP3    H239384   3.938   1.226   4.410  0.2009  0.1028  1.0349
 5917TIP3   OH239385   3.978   2.136   1.894  0.1314 -0.5882 -0.0620
 5917TIP3    H139386   4.000   2.097   1.809  0.1642 -0.8826  0.0792
 5917TIP3    H239387   3.888   2.108   1.910 -0.2258  0.2946 -0.4599
 5918TIP3   OH239388   6.231   0.640   8.675  0.0544  0.2705 -0.1280
 5918TIP3    H139389   6.156   0.594   8.637 -0.0415 -0.1377  0.5308
 5918TIP3    H239390   6.269   0.577   8.737  2.7192 -0.6934 -2.5320
 5919TIP3   OH239391   2.213   1.656   0.742 -0.4044  0.6936 -0.6723
 5919TIP3    H139392   2.206   1.625   0.652 -0.5446  0.2683 -0.5169
 5919TIP3    H239393   2.299   1.697   0.747 -0.3080  0.5274 -0.9394
 5920TIP3   OH239394   0.822   2.092   0.670 -0.0971 -0.2833 -0.3570
 5920TIP3    H139395   0.869   2.175   0.657  0.8477 -0.4393  1.7473
 5920TIP3    H239396   0.801   2.063   0.581  2.0799  0.7821 -1.3090
 5921TIP3   OH239397   0.691   2.062   1.119  0.4239 -0.0720  0.4953
 5921TIP3    H139398   0.702   2.157   1.125 -0.1252  0.0485 -0.2563
 5921TIP3    H239399   0.666   2.046   1.028 -1.0743 -0.7551  0.9925
 5922TIP3   OH239400   4.209   2.000   0.787 -0.1427  0.4353 -0.0624
 5922TIP3    H139401   4.272   2.071   0.800 -0.2391  0.0845  3.1519
 5922TIP3    H239402   4.249   1.924   0.829 -1.2685 -0.6940 -0.9539
 5923TIP3   OH239403   2.351   1.246   1.211  0.0278 -0.4700  0.0101
 5923TIP3    H139404   2.434   1.231   1.257 -0.0779 -0.5744  0.1679
 5923TIP3    H239405   2.376   1.291   1.131  0.2230 -0.3650  0.1290
 5924TIP3   OH239406   3.745   5.095   0.118 -0.1949  0.2534  0.2609
 5924TIP3    H139407   3.729   5.106   0.025 -0.0008 -0.8235  0.0893
 5924TIP3    H239408   3.768   5.183   0.149 -1.5064  0.8717 -0.4418
 5925TIP3   OH239409   4.688   6.561   1.842 -0.5939 -0.7260  0.0716
 5925TIP3    H139410   4.669   6.477   1.882  1.2815 -1.3586 -0.2913
 5925TIP3    H239411   4.624   6.621   1.880  0.3824 -1.5051  3.1890
 5926TIP3   OH239412   6.226   3.482   3.150 -0.0740 -0.0116  0.1473
 5926TIP3    H139413   6.222   3.578   3.145 -0.6446  0.0216  1.0038
 5926TIP3    H239414   6.157   3.452   3.090 -1.3828  0.1764  1.5163
 5927TIP3   OH239415   6.104   3.174   2.009 -0.1494  0.0033  0.2203
 5927TIP3    H139416   6.198   3.161   2.020 -0.0192 -1.2125 -1.8027
 5927TIP3    H239417   6.066   3.087   2.016 -0.8888  0.2156 -0.7563
 5928TIP3   OH239418   0.691   3.604   1.938 -0.1909  0.2890 -0.3754
 5928TIP3    H139419   0.766   3.584   1.994 -1.3970  0.0142  1.2104
 5928TIP3    H239420   0.668   3.519   1.899  0.5988  0.4662 -1.2825
 5929TIP3   OH239421   1.631   3.139   8.251  0.4297 -0.6132  0.2012
 5929TIP3    H139422   1.686   3.069   8.219  1.6803  0.8774 -1.0380
 5929TIP3    H239423   1.596   3.181   8.173  0.3644  0.6403  0.8678
 5930TIP3   OH239424   5.711   3.389   2.960  0.0643  0.6810 -0.6619
 5930TIP3    H139425   5.775   3.458   2.976 -3.1713  4.1285 -1.0898
 5930TIP3    H239426   5.683   3.403   2.869 -2.6203  0.6619  0.0737
 5931TIP3   OH239427   4.218   2.130   2.733 -0.4264  0.1260 -0.3467
 5931TIP3    H139428   4.137   2.081   2.723 -0.4822  0.2828 -0.6699
 5931TIP3    H239429   4.250   2.106   2.821  0.3337 -1.6647 -1.0596
 5932TIP3   OH239430   1.007   6.119   8.285 -0.4696 -0.4074 -0.3611
 5932TIP3    H139431   1.002   6.034   8.328 -0.7914  0.7647  2.0992
 5932TIP3    H239432   1.096   6.149   8.303 -0.7035  0.2406 -0.2733
 5933TIP3   OH239433   1.137   4.174   3.183 -0.3415 -0.5328 -0.6521
 5933TIP3    H139434   1.136   4.216   3.268  0.5962 -0.9582 -0.4177
 5933TIP3    H239435   1.145   4.245   3.120 -0.2998 -0.2614 -0.3382
 5934TIP3   OH239436   0.029   5.090   3.402 -0.2013 -0.4694 -0.2242
 5934TIP3    H139437   0.045   5.054   3.490  0.0072 -1.9972 -0.8565
 5934TIP3    H239438   0.116   5.116   3.371  0.1652 -2.5428 -1.0460
 5935TIP3   OH239439   2.284   2.325   2.373  0.2264 -0.1886 -0.3657
 5935TIP3    H139440   2.358   2.266   2.387 -0.6587 -1.6029 -1.4446
 5935TIP3    H239441   2.280   2.337   2.278 -0.7087  0.1654 -0.2938
 5936TIP3   OH239442   5.631   6.394   1.653 -0.2852 -0.4718 -0.0539
 5936TIP3    H139443   5.669   6.359   1.734  0.0366 -0.8484 -0.3612
 5936TIP3    H239444   5.606   6.317   1.603 -0.9513 -0.2305 -0.0997
 5937TIP3   OH239445   1.351   2.053   3.807  0.4121  0.0562  0.1883
 5937TIP3    H139446   1.338   2.121   3.740  0.9562 -0.2025 -0.1876
 5937TIP3    H239447   1.357   2.101   3.889  0.0994  0.4077  0.0093
 5938TIP3   OH239448   3.034   1.994   8.519 -0.0558 -0.2893  0.2361
 5938TIP3    H139449   3.114   1.942   8.514  1.2519  1.7087 -0.9758
 5938TIP3    H239450   2.964   1.933   8.496  1.1287 -1.9843  0.9267
 5939TIP3   OH239451   3.242   5.152   0.777 -0.0038 -0.3846  0.4399
 5939TIP3    H139452   3.316   5.111   0.732 -1.7613 -3.5470  0.1549
 5939TIP3    H239453   3.260   5.139   0.870  0.5999  0.4953  0.4650
 5940TIP3   OH239454   3.933   1.612   0.236 -0.0356 -0.1440 -0.3387
 5940TIP3    H139455   3.957   1.697   0.199 -0.4505 -0.8200 -2.2447
 5940TIP3    H239456   3.850   1.628   0.281  0.4668  0.6958  0.3114
 5941TIP3   OH239457   4.147   4.393   8.003 -0.3350  0.7057 -0.0400
 5941TIP3    H139458   4.142   4.325   8.070  2.2906  0.2278 -0.2169
 5941TIP3    H239459   4.131   4.475   8.050  0.3383  0.2773  0.9753
 5942TIP3   OH239460   1.978   0.252   3.876 -0.4844 -1.0373  0.4050
 5942TIP3    H139461   2.026   0.169   3.875  1.9030  0.1662 -2.6744
 5942TIP3    H239462   1.988   0.286   3.787 -2.9000  1.7499  1.0484
 5943TIP3   OH239463   2.653   5.511   3.261  0.0011  0.0384  0.2482
 5943TIP3    H139464   2.619   5.584   3.210  1.8894  0.7461 -0.0802
 5943TIP3    H239465   2.698   5.552   3.335  0.5613 -0.8019  0.3886
 5944TIP3   OH239466   4.703   1.007   2.650 -0.4778  0.3620 -0.2760
 5944TIP3    H139467   4.726   1.078   2.709 -2.3365  0.2084  0.7041
 5944TIP3    H239468   4.716   1.043   2.562  0.1455  1.3402  0.2031
 5945TIP3   OH239469   5.622   6.233   8.715 -0.0083 -0.2684 -0.2154
 5945TIP3    H139470   5.583   6.315   8.687  3.1108  2.1033  1.7615
 5945TIP3    H239471   5.708   6.232   8.674  0.6919 -1.6758  1.1798
 5946TIP3   OH239472   4.839   0.936   8.550  0.1741 -0.0919  0.6029
 5946TIP3    H139473   4.819   0.854   8.595 -1.1389 -1.9103 -2.9612
 5946TIP3    H239474   4.763   0.953   8.495  0.5250  3.4579  0.9758
 5947TIP3   OH239475   6.359   0.127   1.875  0.5615 -0.1021 -0.6928
 5947TIP3    H139476   6.376   0.161   1.962  0.9378 -0.9448 -0.4242
 5947TIP3    H239477   6.264   0.121   1.870  0.5623 -3.0207  0.8845
 5948TIP3   OH239478   3.008   1.575   1.167 -0.5840 -0.1493  0.4013
 5948TIP3    H139479   3.058   1.494   1.157 -0.3627  0.0007  0.3001
 5948TIP3    H239480   2.948   1.575   1.092 -1.0622 -0.5582  0.7742
 5949TIP3   OH239481   4.395   2.050   3.988  0.2076  0.3125  0.1550
 5949TIP3    H139482   4.456   2.123   4.001 -1.7913  2.2598 -0.7943
 5949TIP3    H239483   4.315   2.077   4.033 -1.0967 -0.5885 -1.5077
 5950TIP3   OH239484   6.133   6.288   1.445  0.2955  0.4146 -0.5255
 5950TIP3    H139485   6.097   6.202   1.469  0.4508  0.6928  0.8213
 5950TIP3    H239486   6.168   6.276   1.357  0.2736 -0.8902 -0.3771
 5951TIP3   OH239487   3.122   1.034   0.115 -0.0935  0.0807  0.5877
 5951TIP3    H139488   3.048   1.005   0.167  1.2051 -1.1229  1.8352
 5951TIP3    H239489   3.096   1.121   0.083 -0.8247  1.0224  3.4859
 5952TIP3   OH239490   2.258   1.522   1.887 -0.4951 -0.0669  0.4616
 5952TIP3    H139491   2.319   1.518   1.813 -0.7216 -1.2484  0.3093
 5952TIP3    H239492   2.313   1.539   1.963 -0.2766  1.3511  0.0186
 5953TIP3   OH239493   0.862   1.863   1.318 -0.6223  0.1283  0.1072
 5953TIP3    H139494   0.808   1.786   1.334  0.3162 -1.1359 -2.3172
 5953TIP3    H239495   0.944   1.846   1.364 -0.3044 -0.5099 -0.6665
 5954TIP3   OH239496   5.641   0.302   0.669  0.7407  0.5199  0.2825
 5954TIP3    H139497   5.575   0.364   0.700  0.6115  0.0898  0.8896
 5954TIP3    H239498   5.648   0.318   0.575 -0.7213  0.1035  0.0923
 5955TIP3   OH239499   0.437   3.692   2.967 -0.1841  1.1580 -0.2205
 5955TIP3    H139500   0.434   3.705   2.872  0.4427  1.6478 -0.1778
 5955TIP3    H239501   0.398   3.772   3.003 -2.6855  0.0056 -0.0877
 5956TIP3   OH239502   1.848   6.190   8.116  0.3445  0.4423  0.4364
 5956TIP3    H139503   1.876   6.104   8.085 -1.4749 -0.1192  0.2376
 5956TIP3    H239504   1.887   6.199   8.203  2.2544  0.3413 -0.3718
 5957TIP3   OH239505   5.750   4.099   2.680 -0.1014 -0.6787 -0.3933
 5957TIP3    H139506   5.754   4.169   2.746 -0.8957 -2.2183  1.3644
 5957TIP3    H239507   5.838   4.096   2.644  0.0080  1.0818 -0.3877
 5958TIP3   OH239508   3.315   2.632   0.845  0.2142 -0.4242  0.3153
 5958TIP3    H139509   3.372   2.680   0.785 -0.7656  0.6430  0.2022
 5958TIP3    H239510   3.356   2.546   0.853  2.5225  0.6932  1.2241
 5959TIP3   OH239511   2.914   4.360   2.545 -0.1042 -0.6392  0.2389
 5959TIP3    H139512   2.961   4.427   2.594 -0.8949 -0.7158  1.1404
 5959TIP3    H239513   2.940   4.277   2.585  0.3072 -0.8256 -0.3930
 5960TIP3   OH239514   1.590   5.462   1.849 -0.1362 -0.1321  0.0358
 5960TIP3    H139515   1.512   5.406   1.850 -1.2631  1.2899 -1.6517
 5960TIP3    H239516   1.555   5.551   1.857  1.1457  0.6439 -2.1674
 5961TIP3   OH239517   1.403   5.267   3.056  0.0800 -0.1098 -0.2507
 5961TIP3    H139518   1.418   5.176   3.030  1.1156 -0.0524  0.0852
 5961TIP3    H239519   1.458   5.319   2.998 -0.6699  0.3293 -0.5832
 5962TIP3   OH239520   4.252   2.815   8.144  0.0372  0.0785  0.1378
 5962TIP3    H139521   4.325   2.857   8.190  0.2974  1.3407 -1.3636
 5962TIP3    H239522   4.292   2.743   8.096  0.1473  0.2237  0.0123
 5963TIP3   OH239523   4.841   2.414   2.450  0.2284 -0.9414 -0.1681
 5963TIP3    H139524   4.820   2.493   2.400  0.2929 -1.1813 -0.5767
 5963TIP3    H239525   4.885   2.447   2.529  0.8604 -0.6050 -0.6536
 5964TIP3   OH239526   1.939   4.958   0.968  0.5316 -0.3872  0.4842
 5964TIP3    H139527   1.998   4.883   0.980  2.5101  1.1298  0.7013
 5964TIP3    H239528   1.859   4.933   1.014  0.2273 -3.2907 -1.3310
 5965TIP3   OH239529   2.811   1.318   0.446  0.0012 -0.1738  0.4100
 5965TIP3    H139530   2.885   1.337   0.504  0.8048  0.3701 -0.7505
 5965TIP3    H239531   2.735   1.355   0.490 -0.0282 -2.6564  2.7364
 5966TIP3   OH239532   6.670   5.457   2.392  0.4500 -0.0654  0.1168
 5966TIP3    H139533   6.723   5.504   2.328 -0.1607 -0.1806 -0.4861
 5966TIP3    H239534   6.717   5.375   2.407  0.2053 -0.3764 -0.7705
 5967TIP3   OH239535   5.974   4.737   1.862  0.2069 -0.2932 -0.0609
 5967TIP3    H139536   5.888   4.696   1.873 -0.0034  0.2770  0.5350
 5967TIP3    H239537   6.010   4.741   1.950  0.8141 -0.4549 -0.3012
 5968TIP3   OH239538   5.222   0.450   1.719  0.5506  0.5056  0.8276
 5968TIP3    H139539   5.286   0.380   1.729 -0.2364 -0.1804  1.2433
 5968TIP3    H239540   5.233   0.504   1.798  3.1077  2.5684 -0.7851
 5969TIP3   OH239541   0.693   0.891   1.546 -0.6096 -0.1866 -0.6180
 5969TIP3    H139542   0.785   0.908   1.566 -0.7201  0.9888 -1.0170
 5969TIP3    H239543   0.665   0.828   1.612  0.0804  0.5754  0.4275
 5970TIP3   OH239544   6.518   2.475   3.250  0.3984  0.3975  0.1844
 5970TIP3    H139545   6.513   2.392   3.203  0.7387  0.2827  0.3500
 5970TIP3    H239546   6.469   2.460   3.331 -0.1087  0.5668 -0.0847
 5971TIP3   OH239547   1.884   4.282   0.007 -0.3146  0.1369 -0.1435
 5971TIP3    H139548   1.898   4.315  -0.082  0.3364  0.0519 -0.0807
 5971TIP3    H239549   1.945   4.332   0.061 -0.3525 -0.1575  0.1752
 5972TIP3   OH239550   1.648   0.848   0.228 -0.2787  0.1613  0.0596
 5972TIP3    H139551   1.738   0.823   0.206  0.5912  1.5572  1.7685
 5972TIP3    H239552   1.657   0.930   0.276 -2.4756  0.2836  0.3755
 5973TIP3   OH239553   4.581   4.572   3.268  0.7505 -0.2112  0.0186
 5973TIP3    H139554   4.538   4.649   3.230 -3.4432 -0.9558  2.6171
 5973TIP3    H239555   4.646   4.608   3.328  0.0592  1.2512 -0.0718
 5974TIP3   OH239556   6.288   5.040   3.339  0.0145  0.4247 -0.2324
 5974TIP3    H139557   6.277   5.135   3.329  1.1470  0.6625  0.5610
 5974TIP3    H239558   6.376   5.030   3.374 -0.6823 -0.8133  1.2924
 5975TIP3   OH239559   4.751   4.407   7.867  0.5566 -0.0260 -0.7631
 5975TIP3    H139560   4.809   4.344   7.909  1.3651  0.0492 -1.7143
 5975TIP3    H239561   4.763   4.488   7.917 -0.4566 -0.5856  0.4364
 5976TIP3   OH239562   6.501   2.592   0.466  0.2077 -0.2795  0.5797
 5976TIP3    H139563   6.439   2.589   0.394 -0.7623 -0.9254  1.4154
 5976TIP3    H239564   6.481   2.672   0.513 -0.6167 -0.9329  1.3691
 5977TIP3   OH239565   2.805   6.031   0.369  0.4165 -0.1268  0.3285
 5977TIP3    H139566   2.880   5.982   0.336  1.4610  1.5284  0.1110
 5977TIP3    H239567   2.740   5.964   0.392  0.8953 -1.4940 -1.9962
 5978TIP3   OH239568   4.027   6.774   3.053 -0.3013 -0.6963 -0.2995
 5978TIP3    H139569   4.027   6.851   3.110 -3.0006 -1.2577  0.6160
 5978TIP3    H239570   4.111   6.778   3.008  0.8112  1.2711  1.7170
 5979TIP3   OH239571   4.080   0.291   0.066  0.0305  0.2173  0.0616
 5979TIP3    H139572   4.170   0.258   0.070 -0.0275 -0.1291 -1.2602
 5979TIP3    H239573   4.027   0.215   0.042 -0.3363  0.8665 -1.2637
 5980TIP3   OH239574   3.778   1.531   1.179  0.0290  0.0148 -0.0903
 5980TIP3    H139575   3.719   1.458   1.200  1.1915 -0.5241  1.4838
 5980TIP3    H239576   3.866   1.496   1.195  0.7031  1.3277 -0.7473
 5981TIP3   OH239577   5.186   0.912   2.680 -0.4353  0.3702 -0.0665
 5981TIP3    H139578   5.196   0.981   2.615  1.0115 -1.4288 -1.8637
 5981TIP3    H239579   5.263   0.857   2.670 -3.2992 -3.9113 -1.7418
 5982TIP3   OH239580   4.796   4.347   1.089 -0.0229  0.1963  0.2794
 5982TIP3    H139581   4.804   4.272   1.031  0.7820 -0.1329  0.8086
 5982TIP3    H239582   4.852   4.327   1.163  0.6220  1.5519  0.1921
 5983TIP3   OH239583   5.140   0.413   2.740  0.1092  0.4204 -0.0450
 5983TIP3    H139584   5.099   0.329   2.718  0.8700 -0.1326  0.5658
 5983TIP3    H239585   5.068   0.476   2.738 -0.9791 -0.6601  1.8435
 5984TIP3   OH239586   0.125   6.487   8.346  0.0510 -0.0411  0.0717
 5984TIP3    H139587   0.049   6.488   8.287 -0.1289  2.3472  0.2407
 5984TIP3    H239588   0.116   6.406   8.395 -3.2642  0.7873  1.1134
 5985TIP3   OH239589   5.250   6.016   3.171 -1.0235  0.3572 -0.3456
 5985TIP3    H139590   5.188   5.962   3.122 -1.5658  0.6980 -0.0439
 5985TIP3    H239591   5.269   5.966   3.250 -1.0988  0.3600 -0.3258
 5986TIP3   OH239592   0.548   2.915   3.470 -0.1471  0.5859 -0.1170
 5986TIP3    H139593   0.538   2.957   3.555  0.7037 -0.5185  0.5617
 5986TIP3    H239594   0.464   2.926   3.427 -0.4857  1.4366  0.7382
 5987TIP3   OH239595   2.121   2.194   3.888  0.1594  0.4606  0.5084
 5987TIP3    H139596   2.041   2.218   3.936  0.2669  1.4021  0.2309
 5987TIP3    H239597   2.096   2.117   3.837 -0.4802  0.5508  0.6783
 5988TIP3   OH239598   4.093   1.777   2.136 -0.1284  0.2773  0.7399
 5988TIP3    H139599   4.128   1.864   2.116 -0.1920  0.7966  2.6555
 5988TIP3    H239600   4.000   1.783   2.115 -0.3802  1.1003  1.9664
 5989TIP3   OH239601   1.239   5.191   1.223 -0.0345  0.3720 -0.0567
 5989TIP3    H139602   1.280   5.248   1.288 -0.0492  1.0911 -0.6706
 5989TIP3    H239603   1.304   5.183   1.154 -0.5963  0.8291 -0.6431
 5990TIP3   OH239604   3.439   3.505   1.020  0.2998  0.2069 -0.2571
 5990TIP3    H139605   3.524   3.468   1.044  0.6673 -0.5384 -2.4763
 5990TIP3    H239606   3.377   3.433   1.034  0.3536  0.1110 -0.5007
 5991TIP3   OH239607   3.847   3.082   3.859  0.6440 -0.2213 -0.7263
 5991TIP3    H139608   3.863   3.149   3.794  0.3098 -0.3532 -0.9472
 5991TIP3    H239609   3.837   3.130   3.941 -0.9387  0.1193 -1.0986
 5992TIP3   OH239610   0.054   6.293   1.653 -0.3061 -0.4247 -0.3580
 5992TIP3    H139611   0.051   6.339   1.570  0.1138 -0.7619 -0.5640
 5992TIP3    H239612   0.074   6.360   1.718 -0.0750 -0.2580 -0.6037
 5993TIP3   OH239613   5.990   6.605   1.170 -0.2318 -0.0528 -0.5997
 5993TIP3    H139614   5.970   6.528   1.118  0.4231  0.9345 -2.4021
 5993TIP3    H239615   5.922   6.668   1.147 -0.3787  0.1538  0.3529
 5994TIP3   OH239616   6.189   3.517   1.742  0.1036 -0.0904 -0.0020
 5994TIP3    H139617   6.105   3.490   1.778  0.2922  0.8038  1.1718
 5994TIP3    H239618   6.168   3.591   1.685 -0.0781 -0.8740 -0.9699
 5995TIP3   OH239619   6.387   3.762   1.053  0.4960  0.2951 -1.0582
 5995TIP3    H139620   6.430   3.844   1.074 -0.2645  0.5468 -0.4390
 5995TIP3    H239621   6.293   3.781   1.057  0.2907 -0.7271 -0.2941
 5996TIP3   OH239622   5.489   4.287   8.715  0.6228  0.0667  0.2878
 5996TIP3    H139623   5.521   4.284   8.625  0.5061 -1.0069  0.2646
 5996TIP3    H239624   5.552   4.342   8.761  2.9178 -2.4582  0.3737
 5997TIP3   OH239625   1.907   0.059   1.829 -0.1123 -0.3205 -0.2640
 5997TIP3    H139626   1.918   0.074   1.735  1.9804 -2.5427 -0.4677
 5997TIP3    H239627   1.812   0.052   1.841 -0.5166  1.3214 -1.9310
 5998TIP3   OH239628   3.219   4.032   0.647  0.0909  0.7232  0.2086
 5998TIP3    H139629   3.254   3.961   0.701  0.3194  0.0172 -0.8397
 5998TIP3    H239630   3.125   4.033   0.666 -0.2834 -1.2800 -1.3201
 5999TIP3   OH239631   5.744   6.689   3.748  0.9679 -0.4049  0.6671
 5999TIP3    H139632   5.674   6.755   3.757  1.5869  0.4510 -0.6038
 5999TIP3    H239633   5.740   6.640   3.830  0.0132  0.7585  1.3597
 6000TIP3   OH239634   2.690   1.869   3.249  0.2169  0.0570 -0.5279
 6000TIP3    H139635   2.764   1.823   3.288 -0.2433  0.3796  0.7832
 6000TIP3    H239636   2.720   1.894   3.161  1.7577  0.4131  0.0690
 6001TIP3   OH239637   2.912   6.413   1.856 -0.0405  0.4939  0.3550
 6001TIP3    H139638   2.883   6.478   1.792 -0.1752  0.1524  0.0651
 6001TIP3    H239639   2.909   6.459   1.940  2.6112  1.7842 -0.1383
 6002TIP3   OH239640   1.566   2.707   1.632  0.1989 -0.9568  0.0844
 6002TIP3    H139641   1.500   2.667   1.689 -1.7584 -0.2634 -1.5495
 6002TIP3    H239642   1.547   2.671   1.545  0.5465  0.9233 -0.8236
 6003TIP3   OH239643   3.486   5.285   3.999 -0.2530 -0.9301 -0.0650
 6003TIP3    H139644   3.578   5.272   3.975  0.1915  0.5020  0.7266
 6003TIP3    H239645   3.462   5.206   4.047  1.3110 -0.4112  1.7220
 6004TIP3   OH239646   1.492   2.606   1.392  0.0813 -0.8009 -0.8627
 6004TIP3    H139647   1.504   2.542   1.322  0.4093  0.3117 -1.8664
 6004TIP3    H239648   1.409   2.649   1.372  1.0017  0.7298 -1.6264
 6005TIP3   OH239649   6.439   3.744   2.022  0.0832 -0.1398 -0.1142
 6005TIP3    H139650   6.375   3.796   1.973 -0.5976  0.0984  1.0091
 6005TIP3    H239651   6.516   3.742   1.965  0.0346  1.8783 -0.3227
 6006TIP3   OH239652   2.521   3.040   3.546 -0.0143  0.5369 -0.2119
 6006TIP3    H139653   2.486   3.104   3.484  0.4767 -0.2181 -1.2894
 6006TIP3    H239654   2.451   3.026   3.609 -0.5329  1.2897 -0.6137
 6007TIP3   OH239655   3.480   5.730   8.620 -0.2185 -0.1615 -0.4066
 6007TIP3    H139656   3.516   5.757   8.705  1.0194 -0.6350 -0.7526
 6007TIP3    H239657   3.504   5.801   8.560 -1.3805  0.3297 -0.3035
 6008TIP3   OH239658   2.288   4.003   2.656 -0.4281  0.1573  0.4528
 6008TIP3    H139659   2.334   3.985   2.574  0.3459  0.9361  0.7073
 6008TIP3    H239660   2.356   4.001   2.724 -0.7384  1.3402  0.8293
 6009TIP3   OH239661   3.984   0.745   0.870  0.6140 -0.9580 -0.2503
 6009TIP3    H139662   3.914   0.688   0.901  1.1877 -2.1534 -1.0926
 6009TIP3    H239663   3.970   0.751   0.775  0.3915  0.5576 -0.1502
 6010TIP3   OH239664   6.239   4.138   8.315 -0.2415  0.0395 -0.3699
 6010TIP3    H139665   6.289   4.074   8.265  1.1760  0.1790  0.8098
 6010TIP3    H239666   6.152   4.100   8.322  0.2289 -1.1692 -0.7664
 6011TIP3   OH239667   2.884   6.721   3.267  0.0651  0.4914 -0.3964
 6011TIP3    H139668   2.797   6.696   3.237  0.0499  2.0966 -1.8345
 6011TIP3    H239669   2.935   6.640   3.262 -1.0991 -0.2590 -0.4070
 6012TIP3   OH239670   5.938   3.912   0.193  0.2669  0.1777  0.7355
 6012TIP3    H139671   5.919   3.827   0.154  0.9538 -0.0481  0.8826
 6012TIP3    H239672   6.005   3.951   0.136 -0.2375  0.7402  0.5129
 6013TIP3   OH239673   0.969   4.542   2.702 -0.3717  0.1041 -0.0955
 6013TIP3    H139674   0.974   4.584   2.788 -0.2795 -1.1194  0.5253
 6013TIP3    H239675   0.951   4.613   2.641  3.2847  1.6669  0.3733
 6014TIP3   OH239676   3.203   5.650   8.346  0.4632 -0.1280 -0.5597
 6014TIP3    H139677   3.136   5.706   8.386  0.1629 -0.5118 -0.5146
 6014TIP3    H239678   3.263   5.630   8.418 -0.2483 -1.0720 -0.2070
 6015TIP3   OH239679   2.216   5.284   8.506  0.1865 -0.0674  0.5926
 6015TIP3    H139680   2.206   5.190   8.489  0.5913  0.1134 -0.7918
 6015TIP3    H239681   2.151   5.326   8.449  0.9432  0.5387  0.1444
 6016TIP3   OH239682   5.114   5.476   1.940 -0.6951 -0.0055 -0.3694
 6016TIP3    H139683   5.109   5.571   1.931  0.2487  0.1819  0.8106
 6016TIP3    H239684   5.189   5.451   1.886 -2.1939 -0.3741 -2.3740
 6017TIP3   OH239685   2.350   0.485   0.643  0.1609  0.5892 -0.5091
 6017TIP3    H139686   2.380   0.485   0.553  2.8102  1.3329  0.2994
 6017TIP3    H239687   2.327   0.393   0.661  2.6779 -0.2039 -1.0288
 6018TIP3   OH239688   1.005   6.621   3.216 -0.3525 -0.0956 -0.5085
 6018TIP3    H139689   0.945   6.553   3.186  0.5625 -0.3106 -1.9834
 6018TIP3    H239690   1.042   6.586   3.298 -1.9248 -0.1127  0.2170
 6019TIP3   OH239691   0.370   1.534   3.172  0.4301 -0.1347 -0.1890
 6019TIP3    H139692   0.397   1.608   3.119  1.0360 -2.1252 -2.8881
 6019TIP3    H239693   0.281   1.514   3.142 -0.1088  0.0591  1.2119
 6020TIP3   OH239694   3.220   4.799   1.365 -0.5971 -0.4513  0.5404
 6020TIP3    H139695   3.156   4.859   1.405 -0.1319 -0.1400  0.8341
 6020TIP3    H239696   3.209   4.810   1.271 -1.3230 -0.7755  0.5856
 6021TIP3   OH239697   2.658   1.248   3.057  0.0725  0.0836 -0.2579
 6021TIP3    H139698   2.570   1.211   3.055  0.7358 -1.5556 -0.9971
 6021TIP3    H239699   2.644   1.342   3.044 -1.5857 -0.0590  0.2055
 6022TIP3   OH239700   4.412   0.373   0.263  0.0632  0.0342  0.1695
 6022TIP3    H139701   4.454   0.448   0.304 -0.1617  0.8800 -1.1024
 6022TIP3    H239702   4.389   0.403   0.175 -0.0168 -1.5273 -0.3759
 6023TIP3   OH239703   5.872   6.414   2.888  0.2963  0.2838 -0.4378
 6023TIP3    H139704   5.839   6.426   2.977 -0.1446 -0.6050 -0.4671
 6023TIP3    H239705   5.826   6.336   2.856  1.5975 -0.3260 -0.8797
 6024TIP3   OH239706   3.142   1.696   2.201 -0.3760 -0.6706  0.1712
 6024TIP3    H139707   3.051   1.669   2.216 -0.7660  1.1308  1.4982
 6024TIP3    H239708   3.137   1.753   2.125 -0.7106  0.8130  1.2535
 6025TIP3   OH239709   3.103   4.534   2.644 -0.1868 -0.0215  0.0463
 6025TIP3    H139710   3.121   4.607   2.585  1.3197 -0.3739  0.0518
 6025TIP3    H239711   3.066   4.575   2.722  1.9273  0.8979  0.6059
 6026TIP3   OH239712   5.836   2.339   2.162 -0.1542 -0.2977  0.6258
 6026TIP3    H139713   5.863   2.280   2.233  0.1493 -0.2838  0.5256
 6026TIP3    H239714   5.896   2.319   2.091  0.3400  0.5373  0.7892
 6027TIP3   OH239715   2.601   5.705   8.350  0.1794 -0.1675  0.2901
 6027TIP3    H139716   2.628   5.797   8.346 -1.8001  0.5796  2.0367
 6027TIP3    H239717   2.543   5.695   8.274  0.1923  0.1142  0.2404
 6028TIP3   OH239718   4.520   0.078   0.769 -0.2077  0.6871  0.1521
 6028TIP3    H139719   4.523   0.007   0.705  0.0152  0.4305  0.4493
 6028TIP3    H239720   4.472   0.042   0.843 -0.9391  1.1550 -0.0739
 6029TIP3   OH239721   6.275   1.516   8.405 -0.6247 -0.3739 -0.0138
 6029TIP3    H139722   6.360   1.501   8.447  0.7510  1.7739 -1.7991
 6029TIP3    H239723   6.236   1.589   8.454 -0.6393 -0.2174 -0.2556
 6030TIP3   OH239724   2.860   0.382   0.766 -0.6655  0.2786  0.6219
 6030TIP3    H139725   2.838   0.438   0.840 -0.4968 -0.0460  0.9189
 6030TIP3    H239726   2.919   0.435   0.712 -0.6632  0.4579  0.8014
 6031TIP3   OH239727   1.937   6.770   2.102 -0.4671  0.3920 -0.1437
 6031TIP3    H139728   1.919   6.863   2.114 -0.3633  0.4901 -0.7334
 6031TIP3    H239729   1.865   6.737   2.048 -0.8134  0.0010  0.5433
 6032TIP3   OH239730   6.586   5.850   8.690  0.4379  0.0053  0.0513
 6032TIP3    H139731   6.646   5.802   8.747 -0.6694 -0.1892  1.0890
 6032TIP3    H239732   6.579   5.795   8.612  3.0664  0.9519 -0.9421
 6033TIP3   OH239733   1.058   3.472   4.176 -0.2350 -0.6555 -0.0440
 6033TIP3    H139734   1.104   3.423   4.108 -1.4775  0.0638 -1.4792
 6033TIP3    H239735   0.979   3.420   4.193  0.1616 -0.9337  1.0388
 6034TIP3   OH239736   2.497   5.882   3.516 -0.0436  0.0796  0.1738
 6034TIP3    H139737   2.575   5.858   3.565  0.9338 -0.0542 -1.3812
 6034TIP3    H239738   2.445   5.801   3.513  1.8795 -1.2115 -2.5424
 6035TIP3   OH239739   5.335   6.638   0.043  0.2081 -0.2346 -0.0016
 6035TIP3    H139740   5.293   6.692   0.110 -2.4493 -2.8410  0.6596
 6035TIP3    H239741   5.281   6.652  -0.035 -0.1702 -1.4222  0.0278
 6036TIP3   OH239742   3.384   2.104   0.782  0.6169  0.1198  0.1798
 6036TIP3    H139743   3.431   2.038   0.832  0.7227  0.7540  0.9314
 6036TIP3    H239744   3.422   2.100   0.695  0.8718 -0.5583  0.3176
 6037TIP3   OH239745   1.814   4.297   1.508 -0.5563  0.0545 -0.3064
 6037TIP3    H139746   1.820   4.291   1.413  0.8992 -0.8190 -0.1889
 6037TIP3    H239747   1.793   4.389   1.525  1.2851  0.7418 -1.4212
 6038TIP3   OH239748   0.515   3.189   1.270  0.1684  0.7549  0.1698
 6038TIP3    H139749   0.514   3.282   1.246  2.3901  0.3824 -1.7158
 6038TIP3    H239750   0.608   3.169   1.283 -0.2983 -1.1718  0.7936
 6039TIP3   OH239751   2.587   0.109   8.595 -0.1171 -0.0826  0.4503
 6039TIP3    H139752   2.682   0.113   8.607  0.0107 -2.3077  0.5884
 6039TIP3    H239753   2.572   0.155   8.512  1.2654 -0.9605 -0.3276
 6040TIP3   OH239754   6.634   1.882   1.469  0.3935 -0.7163 -0.3568
 6040TIP3    H139755   6.639   1.951   1.403  0.2879  1.7461  2.0414
 6040TIP3    H239756   6.599   1.806   1.422  1.4645  0.5094 -3.3391
 6041TIP3   OH239757   1.781   4.596   8.480  0.3012 -0.5288 -0.1899
 6041TIP3    H139758   1.716   4.667   8.481 -0.8840 -1.5811 -0.5178
 6041TIP3    H239759   1.800   4.582   8.388  2.3621  0.9337 -0.0552
 6042TIP3   OH239760   4.795   1.966   2.056  0.0958 -0.2703 -0.0074
 6042TIP3    H139761   4.800   2.016   2.138  0.0298 -1.5278  0.7872
 6042TIP3    H239762   4.873   1.911   2.057 -0.7664 -1.5343  0.0707
 6043TIP3   OH239763   1.824   5.914   0.081  0.5869  0.3806 -0.2328
 6043TIP3    H139764   1.738   5.883   0.050  0.3997  1.4545 -0.8266
 6043TIP3    H239765   1.854   5.845   0.141 -1.3594  0.6970  1.1860
 6044TIP3   OH239766   2.147   6.543   0.178 -0.1718 -0.2310 -0.0691
 6044TIP3    H139767   2.186   6.625   0.146  0.4057 -0.6531 -0.4608
 6044TIP3    H239768   2.218   6.479   0.173 -0.8396 -0.9457 -0.5171
 6045TIP3   OH239769   4.782   1.694   2.591 -0.0117  0.5719 -0.1876
 6045TIP3    H139770   4.707   1.635   2.593 -0.1722  0.7532  2.4666
 6045TIP3    H239771   4.842   1.655   2.528 -1.5111 -0.6232 -0.9110
 6046TIP3   OH239772   1.790   2.763   2.064  0.1205 -0.1150 -0.4094
 6046TIP3    H139773   1.784   2.691   2.126 -2.7880  1.0893  0.8786
 6046TIP3    H239774   1.835   2.725   1.988  0.9625 -2.5164  1.1576
 6047TIP3   OH239775   6.652   0.728   2.113  0.0256 -0.3227 -0.0766
 6047TIP3    H139776   6.698   0.789   2.172 -2.2507  1.2574  0.1896
 6047TIP3    H239777   6.704   0.730   2.032  0.1562  1.8379  0.0036
 6048TIP3   OH239778   4.837   1.874   1.029 -0.1494  0.0484 -0.5701
 6048TIP3    H139779   4.831   1.839   0.940 -1.0678 -1.0162 -0.1255
 6048TIP3    H239780   4.922   1.916   1.033  0.5095 -1.1208 -1.5432
 6049TIP3   OH239781   4.124   3.722   3.300  0.3736 -0.0753 -0.4471
 6049TIP3    H139782   4.211   3.746   3.331 -0.7972  0.6973  2.5411
 6049TIP3    H239783   4.094   3.799   3.253  0.6250  0.3145  0.0274
 6050TIP3   OH239784   4.380   6.455   8.289 -0.7473  0.1384  0.5670
 6050TIP3    H139785   4.470   6.424   8.299 -0.8874 -0.0240  1.4319
 6050TIP3    H239786   4.329   6.376   8.272 -0.6189  0.3280 -0.7486
 6051TIP3   OH239787   0.412   4.444   2.086  0.3785  0.3646 -0.6963
 6051TIP3    H139788   0.463   4.488   2.019  0.6577  0.8491 -0.1790
 6051TIP3    H239789   0.388   4.360   2.047 -0.7846  1.2514 -1.9813
 6052TIP3   OH239790   6.350   2.380   8.616  0.2411 -0.1959  0.3090
 6052TIP3    H139791   6.288   2.308   8.629  0.1519 -0.1050  0.3843
 6052TIP3    H239792   6.371   2.376   8.522 -0.2933  0.1103  0.1742
 6053TIP3   OH239793   4.055   5.126   8.768 -0.2223  0.0405 -0.0228
 6053TIP3    H139794   4.030   5.211   8.732  1.4089  1.1076  1.2018
 6053TIP3    H239795   4.142   5.109   8.732 -0.4283 -0.9994 -0.0541
 6054TIP3   OH239796   3.136   6.246   1.342  0.0551 -0.0287 -0.1514
 6054TIP3    H139797   3.225   6.240   1.307 -0.0817 -1.9323 -0.2623
 6054TIP3    H239798   3.146   6.292   1.425  1.2913 -0.9842  0.2600
 6055TIP3   OH239799   4.847   5.921   8.890  0.6699 -0.1518 -0.1526
 6055TIP3    H139800   4.796   5.951   8.966 -0.5255  0.6867 -1.2300
 6055TIP3    H239801   4.850   5.826   8.899 -1.9098 -0.3439 -0.4652
 6056TIP3   OH239802   5.793   0.131   2.583  0.4007 -0.4029 -0.7272
 6056TIP3    H139803   5.887   0.116   2.585  0.5078  0.2286 -0.8720
 6056TIP3    H239804   5.770   0.155   2.673  0.5720  0.5630 -0.9339
 6057TIP3   OH239805   6.675   5.538   3.104 -0.2774  0.7958  0.1165
 6057TIP3    H139806   6.608   5.534   3.035 -1.6642 -0.5111  1.4639
 6057TIP3    H239807   6.706   5.448   3.113  0.9143  1.2021  0.2766
 6058TIP3   OH239808   1.151   3.435   1.800 -0.3605  0.0018 -0.9595
 6058TIP3    H139809   1.199   3.408   1.722 -0.4497 -0.1822 -0.9497
 6058TIP3    H239810   1.218   3.447   1.867 -0.2830  0.1684 -1.0665
 6059TIP3   OH239811   1.016   3.708   8.214  0.0825 -0.3111 -0.1774
 6059TIP3    H139812   1.110   3.705   8.232  0.2696 -0.8276 -1.1756
 6059TIP3    H239813   0.975   3.716   8.300  1.1337  3.2234  0.1618
 6060TIP3   OH239814   3.424   6.333   2.008  0.9241  0.4410 -0.1785
 6060TIP3    H139815   3.415   6.365   1.918 -1.0604  0.0201 -0.1736
 6060TIP3    H239816   3.432   6.413   2.061 -1.6965  0.9632 -0.4057
 6061TIP3   OH239817   4.957   4.728   1.906 -1.1852 -0.0458 -0.4040
 6061TIP3    H139818   4.968   4.660   1.839 -0.9048 -0.6808  0.2833
 6061TIP3    H239819   4.864   4.723   1.930 -0.9878 -0.7402  0.2300
 6062TIP3   OH239820   1.049   2.811   2.212  0.1487 -0.3079  0.6790
 6062TIP3    H139821   1.021   2.859   2.134  0.1467 -0.6424  0.4729
 6062TIP3    H239822   0.971   2.808   2.268 -0.3465 -1.5226 -0.0351
 6063TIP3   OH239823   2.728   4.217   2.810 -0.0391 -0.2186 -0.0729
 6063TIP3    H139824   2.667   4.227   2.883 -0.1085  2.2234 -0.3908
 6063TIP3    H239825   2.813   4.242   2.846  0.2275 -0.6011 -0.4250
 6064TIP3   OH239826   2.536   3.089   3.269  0.1298 -0.1268 -0.4211
 6064TIP3    H139827   2.469   3.142   3.226 -2.6748 -2.6777  0.4635
 6064TIP3    H239828   2.586   3.152   3.322  0.2097  2.2535 -3.0639
 6065TIP3   OH239829   1.827   0.977   3.267  0.1599 -0.3738 -0.4628
 6065TIP3    H139830   1.922   0.986   3.269 -0.0526  2.9664  0.9587
 6065TIP3    H239831   1.798   1.008   3.352 -2.2218 -1.4888 -0.7977
 6066TIP3   OH239832   2.145   3.013   0.168  0.0003 -0.9107  0.0654
 6066TIP3    H139833   2.206   3.017   0.243 -0.3542  0.5971  0.3027
 6066TIP3    H239834   2.134   2.919   0.152  0.7880 -1.2550  1.3297
 6067TIP3   OH239835   1.469   3.721   1.916  0.1273 -0.3246  0.0415
 6067TIP3    H139836   1.414   3.799   1.925  0.0594 -0.3484 -0.1711
 6067TIP3    H239837   1.492   3.718   1.823  0.9000 -0.0350  0.2131
 6068TIP3   OH239838   2.146   6.140   3.103  0.0736 -0.4694  0.4943
 6068TIP3    H139839   2.227   6.097   3.132 -0.0112 -1.5583 -0.7868
 6068TIP3    H239840   2.076   6.092   3.149 -0.0467 -2.0594 -1.2050
 6069TIP3   OH239841   2.177   3.084   0.772  0.0948  0.0744 -0.3873
 6069TIP3    H139842   2.117   3.142   0.820 -0.9475 -0.1199 -1.3944
 6069TIP3    H239843   2.125   3.005   0.755  1.0406 -0.5923 -0.2450
 6070TIP3   OH239844   1.487   0.943   1.541 -0.2081 -0.1932  0.3715
 6070TIP3    H139845   1.577   0.911   1.549  0.0569  0.0883 -1.0826
 6070TIP3    H239846   1.495   1.026   1.495 -1.2162 -0.1648  0.2150
 6071TIP3   OH239847   6.123   3.434   2.895 -0.2734 -0.2689  0.9045
 6071TIP3    H139848   6.123   3.340   2.875  1.2189  0.0873 -1.0821
 6071TIP3    H239849   6.095   3.476   2.813 -2.1001  1.0155  2.1126
 6072TIP3   OH239850   4.631   1.037   0.277 -0.1249 -0.3236  0.1460
 6072TIP3    H139851   4.538   1.056   0.286  0.0068  0.4589 -0.0532
 6072TIP3    H239852   4.670   1.120   0.249  0.9022 -0.1139  2.0025
 6073TIP3   OH239853   1.541   0.091   0.032  0.4442  0.3011 -0.2851
 6073TIP3    H139854   1.455   0.050   0.044 -0.1559  1.6912  0.3855
 6073TIP3    H239855   1.540   0.125  -0.058  0.4921 -0.1015 -0.4409
 6074TIP3   OH239856   4.394   6.570   0.315  0.0966 -0.1245 -0.0215
 6074TIP3    H139857   4.375   6.477   0.303 -2.0791  0.4250 -1.4917
 6074TIP3    H239858   4.335   6.614   0.254  1.8864  2.1834 -0.2173
 6075TIP3   OH239859   2.639   2.155   3.903  0.3401 -0.2708 -0.2742
 6075TIP3    H139860   2.671   2.217   3.970  0.3644 -0.5655 -0.0086
 6075TIP3    H239861   2.555   2.125   3.937  1.3594 -2.1718  0.8059
 6076TIP3   OH239862   0.347   4.013   0.543  0.4599 -0.1261 -0.2826
 6076TIP3    H139863   0.371   3.920   0.540  0.6840 -0.0925  0.3147
 6076TIP3    H239864   0.281   4.018   0.613  1.0896  0.3008  0.2891
 6077TIP3   OH239865   1.515   1.820   4.360 -0.6335  0.2628  0.3354
 6077TIP3    H139866   1.577   1.893   4.356  0.5912 -0.7993 -1.8748
 6077TIP3    H239867   1.438   1.851   4.311 -0.7645  0.5886  0.7340
 6078TIP3   OH239868   2.467   1.552   2.779  0.4755  0.1472 -0.3484
 6078TIP3    H139869   2.437   1.461   2.789  0.1345  0.2576 -0.3769
 6078TIP3    H239870   2.446   1.574   2.689 -1.2339  0.9072  0.2055
 6079TIP3   OH239871   6.235   4.521   0.497 -0.2433  0.7027  0.5171
 6079TIP3    H139872   6.251   4.531   0.403 -0.8273 -1.7239  0.0848
 6079TIP3    H239873   6.294   4.451   0.525  1.2823  2.6277  2.4381
 6080TIP3   OH239874   1.377   0.543   1.625  0.2515  0.6075  0.1445
 6080TIP3    H139875   1.336   0.484   1.688 -0.2221 -2.0110 -2.3899
 6080TIP3    H239876   1.322   0.621   1.627 -2.3737 -1.0962 -0.0261
 6081TIP3   OH239877   3.444   6.624   2.415  0.5766  0.0406 -0.1914
 6081TIP3    H139878   3.474   6.712   2.435 -1.2961  0.5964  0.3876
 6081TIP3    H239879   3.362   6.615   2.464  1.4309 -2.5528  0.9603
 6082TIP3   OH239880   6.685   2.455   3.637 -0.3494 -0.0410  0.3518
 6082TIP3    H139881   6.659   2.529   3.691  2.1212  0.7587  0.5917
 6082TIP3    H239882   6.656   2.377   3.685  0.5064  0.6961  2.1378
 6083TIP3   OH239883   4.349   5.811   1.116  0.1655 -0.5877  0.3022
 6083TIP3    H139884   4.368   5.732   1.167 -0.4957 -1.2391 -0.4348
 6083TIP3    H239885   4.409   5.807   1.041 -1.7052 -1.8809 -1.2333
 6084TIP3   OH239886   2.240   4.570   0.394  0.3899 -0.8586 -0.2240
 6084TIP3    H139887   2.329   4.537   0.384  1.2450  1.4411 -1.0260
 6084TIP3    H239888   2.248   4.640   0.459 -0.4458  0.5341 -1.5563
 6085TIP3   OH239889   0.168   1.829   0.512  0.0416 -0.3133  0.7607
 6085TIP3    H139890   0.123   1.746   0.497  1.3190 -0.9549  0.3579
 6085TIP3    H239891   0.254   1.804   0.546  0.1391  0.8793  1.4717
 6086TIP3   OH239892   3.517   0.540   0.780 -0.0411 -0.3829  0.1115
 6086TIP3    H139893   3.569   0.602   0.729  0.0152 -0.1244  0.4766
 6086TIP3    H239894   3.572   0.461   0.786 -0.4328 -0.7525 -1.0088
 6087TIP3   OH239895   1.663   6.685   3.361 -0.3224  0.8067  0.0927
 6087TIP3    H139896   1.632   6.606   3.316 -1.4348  1.6373 -0.6608
 6087TIP3    H239897   1.635   6.672   3.452 -1.1220  0.6241 -0.1674
 6088TIP3   OH239898   2.636   4.002   3.278  0.5721  0.5363 -0.2507
 6088TIP3    H139899   2.696   3.981   3.349  2.0575 -1.6430 -2.0104
 6088TIP3    H239900   2.565   4.051   3.320  0.9286 -1.3630  2.8602
 6089TIP3   OH239901   4.472   2.718   1.452 -0.1319  0.0938  0.7321
 6089TIP3    H139902   4.444   2.722   1.543 -0.7337 -4.3013  0.9863
 6089TIP3    H239903   4.564   2.693   1.456 -0.0606  0.2283  0.1078
 6090TIP3   OH239904   1.697   3.533   1.968 -0.0173  0.2448  0.3067
 6090TIP3    H139905   1.637   3.493   1.905 -1.8098  0.6880  1.6647
 6090TIP3    H239906   1.739   3.604   1.919 -1.2687  0.5018 -0.4331
 6091TIP3   OH239907   4.180   0.151   3.696  0.7044  0.1092 -0.0711
 6091TIP3    H139908   4.253   0.140   3.757 -0.0068 -1.4968  0.5361
 6091TIP3    H239909   4.219   0.140   3.610  1.2374 -0.4666  0.2312
 6092TIP3   OH239910   0.716   4.988   8.628  0.0460 -0.1886  0.7642
 6092TIP3    H139911   0.649   5.040   8.584  0.7884 -0.0931 -0.3006
 6092TIP3    H239912   0.783   5.052   8.651  0.0968 -0.3896  1.1711
 6093TIP3   OH239913   0.205   5.875   3.023 -0.1672  0.4027 -0.0612
 6093TIP3    H139914   0.284   5.828   2.999  0.6635  1.0343  1.3130
 6093TIP3    H239915   0.191   5.937   2.951  2.2008  2.1913  0.8813
 6094TIP3   OH239916   3.968   6.518   3.029  0.5248 -0.0363  0.5895
 6094TIP3    H139917   4.022   6.484   2.957 -0.8220  0.9883 -0.9622
 6094TIP3    H239918   3.975   6.613   3.022 -0.5881  0.0966  1.0461
 6095TIP3   OH239919   3.953   1.818   1.521  0.3382 -0.0895 -0.0113
 6095TIP3    H139920   3.876   1.761   1.523 -1.3036  1.9997  1.6656
 6095TIP3    H239921   3.995   1.804   1.606  0.3108  0.6246  0.1291
 6096TIP3   OH239922   3.302   1.946   3.338  0.3685 -0.1055  0.2411
 6096TIP3    H139923   3.241   1.951   3.264  0.2136  0.5643  0.4119
 6096TIP3    H239924   3.286   1.860   3.377  1.0657 -0.8440 -1.0277
 6097TIP3   OH239925   2.021   4.899   0.673 -0.1366 -0.2013 -0.1626
 6097TIP3    H139926   2.116   4.890   0.673 -0.0851  0.3425 -0.2292
 6097TIP3    H239927   1.999   4.931   0.760 -0.2745 -0.4782 -0.0946
 6098TIP3   OH239928   2.534   0.925   4.321 -0.4581 -0.8100  0.0491
 6098TIP3    H139929   2.622   0.913   4.355 -0.2244 -2.3036 -0.9697
 6098TIP3    H239930   2.546   0.942   4.228 -1.2584 -1.5714 -0.2073
 6099TIP3   OH239931   4.993   1.858   2.726 -0.0298 -0.3357 -0.3661
 6099TIP3    H139932   4.975   1.780   2.674 -1.2258 -0.5713  0.3452
 6099TIP3    H239933   5.084   1.848   2.755 -0.0306 -1.2337 -0.6562
 6100TIP3   OH239934   4.207   1.464   7.894  0.5744  0.3009  0.1742
 6100TIP3    H139935   4.218   1.472   7.989  0.1882 -0.5083  0.2949
 6100TIP3    H239936   4.123   1.506   7.876 -0.0235 -0.7586  0.3963
 6101TIP3   OH239937   5.513   1.956   1.453  0.3863  0.0477  0.5368
 6101TIP3    H139938   5.575   2.025   1.431  0.7157 -0.6351 -0.8154
 6101TIP3    H239939   5.567   1.878   1.464 -0.1603 -0.4165  0.0037
 6102TIP3   OH239940   4.094   3.954   3.158  0.2318 -0.1636 -0.0301
 6102TIP3    H139941   4.086   4.044   3.189  0.7867 -0.7815  2.0703
 6102TIP3    H239942   4.018   3.941   3.101  0.4255  1.7686 -0.7911
 6103TIP3   OH239943   2.020   2.936   4.458  0.1014 -0.4506 -0.1580
 6103TIP3    H139944   1.980   2.878   4.523  1.1309  0.2022  1.1114
 6103TIP3    H239945   2.113   2.933   4.477  0.2651  0.9474 -0.6089
 6104TIP3   OH239946   2.168   4.833   4.077 -0.2251  0.3002  0.6696
 6104TIP3    H139947   2.117   4.800   4.151  0.4933 -0.1064  1.0005
 6104TIP3    H239948   2.153   4.927   4.077  0.2190  0.3773  1.6911
 6105TIP3   OH239949   6.550   1.537   1.063  0.3821 -0.0841 -0.7126
 6105TIP3    H139950   6.599   1.455   1.068 -0.4204 -0.5385  0.0377
 6105TIP3    H239951   6.608   1.597   1.016  1.9003 -0.4329  0.6240
 6106TIP3   OH239952   5.377   0.056   2.336  0.1504 -0.1576  0.2203
 6106TIP3    H139953   5.430   0.130   2.367 -0.1487 -0.1421  0.6962
 6106TIP3    H239954   5.430  -0.021   2.356  0.5216 -0.0707 -0.3959
 6107TIP3   OH239955   0.000   2.545   0.123 -0.0807  0.7639  0.3330
 6107TIP3    H139956  -0.005   2.547   0.219 -1.3978 -0.8945  0.3331
 6107TIP3    H239957  -0.088   2.567   0.093 -0.5378 -1.7868 -0.3869
 6108TIP3   OH239958   3.198   6.060   1.030  0.0357  0.0107 -0.2235
 6108TIP3    H139959   3.128   6.046   1.094  0.0903  1.4117  0.1822
 6108TIP3    H239960   3.163   6.026   0.948 -1.0215  0.4538  0.0286
 6109TIP3   OH239961   1.757   0.497   0.188  0.3988  0.1237  0.5166
 6109TIP3    H139962   1.661   0.496   0.195  0.1411 -1.3152 -1.8813
 6109TIP3    H239963   1.782   0.405   0.197  1.0008 -0.2379 -3.0833
 6110TIP3   OH239964   6.719   6.133   0.707 -0.9771 -0.3702 -0.3230
 6110TIP3    H139965   6.781   6.065   0.734 -1.2638  0.1557  1.8837
 6110TIP3    H239966   6.722   6.132   0.612  0.8078 -1.8223 -0.3076
 6111TIP3   OH239967   2.508   6.654   1.889  0.6226  0.3800 -0.0842
 6111TIP3    H139968   2.438   6.713   1.917 -1.4507 -1.6021 -0.7680
 6111TIP3    H239969   2.469   6.601   1.819  3.0834 -0.2764 -1.0770
 6112TIP3   OH239970   5.526   4.748   2.720  0.2781  0.5624  0.0741
 6112TIP3    H139971   5.456   4.805   2.689  0.5519  0.7799 -0.1611
 6112TIP3    H239972   5.558   4.791   2.799 -1.6580 -0.9632  1.7792
 6113TIP3   OH239973   4.380   1.575   3.885  0.5749 -0.6503  0.5195
 6113TIP3    H139974   4.383   1.645   3.819  1.0875  0.1930  1.4142
 6113TIP3    H239975   4.468   1.572   3.921  0.1976 -0.8384  1.4445
 6114TIP3   OH239976   2.347   2.992   3.759  1.0935 -0.3096  0.1975
 6114TIP3    H139977   2.317   2.928   3.823  1.6913 -2.5154 -1.5974
 6114TIP3    H239978   2.267   3.032   3.725  0.6313 -0.9161  0.5560
 6115TIP3   OH239979   4.013   1.238   3.357  0.4463 -0.2402 -0.2202
 6115TIP3    H139980   3.954   1.263   3.429  0.8421  3.2556 -0.9584
 6115TIP3    H239981   4.099   1.228   3.399  0.4332  0.5104 -0.0046
 6116TIP3   OH239982   3.742   2.749   1.942  0.7796 -0.2934  0.5717
 6116TIP3    H139983   3.824   2.724   1.900  0.0500 -1.8912  0.0238
 6116TIP3    H239984   3.758   2.738   2.035  1.2158 -0.4790  0.4755
 6117TIP3   OH239985   0.971   3.491   0.036 -0.4078 -0.8361  0.2972
 6117TIP3    H139986   0.942   3.423  -0.026 -1.3648 -1.2146  1.1212
 6117TIP3    H239987   0.903   3.491   0.104  0.2169  0.1112  0.9389
 6118TIP3   OH239988   4.585   0.677   3.864 -0.0006  0.0591 -0.5075
 6118TIP3    H139989   4.564   0.746   3.927  0.2696 -0.3744  0.0618
 6118TIP3    H239990   4.681   0.675   3.861  0.0014  0.7177 -1.6526
 6119TIP3   OH239991   5.038   5.222   8.501 -0.5665  0.2888  0.5643
 6119TIP3    H139992   5.009   5.166   8.573  0.0423 -0.7254  0.0447
 6119TIP3    H239993   4.979   5.202   8.429 -0.6751  0.7094  0.5370
 6120TIP3   OH239994   4.777   5.380   1.125 -0.3110 -0.4316 -0.4886
 6120TIP3    H139995   4.813   5.467   1.146 -0.5917 -0.2174 -0.8797
 6120TIP3    H239996   4.854   5.325   1.113 -0.0502 -1.1386  3.2246
 6121TIP3   OH239997   4.465   4.987   0.798  0.3840  0.1468  0.3038
 6121TIP3    H139998   4.418   5.068   0.777 -1.8938 -0.9884  0.6852
 6121TIP3    H239999   4.500   5.002   0.886  0.4313  0.8841  0.1729
 6122TIP3   OH240000   2.171   2.402   1.425  0.8048 -0.4664  0.1115
 6122TIP3    H140001   2.117   2.323   1.419 -1.1168  0.6929  1.2218
 6122TIP3    H240002   2.218   2.393   1.508  0.5154 -0.4113  0.2829
 6123TIP3   OH240003   2.887   6.315   0.812  0.4786 -0.0093 -0.0606
 6123TIP3    H140004   2.868   6.395   0.861 -1.0763 -1.2379  1.4768
 6123TIP3    H240005   2.822   6.314   0.741 -0.1664 -0.3771  0.5235
 6124TIP3   OH240006   4.536   3.417   2.052 -0.3659 -0.0805  0.3422
 6124TIP3    H140007   4.519   3.346   2.114 -0.0976 -0.7333 -0.3252
 6124TIP3    H240008   4.552   3.374   1.969 -3.8392  0.8563 -0.9913
 6125TIP3   OH240009   1.154   0.891   3.215 -0.1203 -0.4007 -0.6683
 6125TIP3    H140010   1.089   0.823   3.196 -0.3458 -0.0075 -1.3170
 6125TIP3    H240011   1.103   0.966   3.244  0.0782 -0.2567 -0.6932
 6126TIP3   OH240012   4.002   6.210   0.453 -0.5553 -0.2253  0.0198
 6126TIP3    H140013   3.946   6.133   0.462 -2.0636  0.8253 -0.0373
 6126TIP3    H240014   4.025   6.212   0.360 -1.2878 -0.1025 -0.1674
 6127TIP3   OH240015   5.599   2.116   8.157  0.1966 -0.2664  0.6061
 6127TIP3    H140016   5.504   2.122   8.168  0.0995 -0.5182 -0.0783
 6127TIP3    H240017   5.622   2.033   8.199  0.2774  0.3216  1.7715
 6128TIP3   OH240018   4.419   6.686   1.362  0.0164 -0.3406  0.1019
 6128TIP3    H140019   4.503   6.641   1.346  0.2332  0.4145 -1.0316
 6128TIP3    H240020   4.444   6.772   1.396 -0.3409 -0.4030  0.5404
 6129TIP3   OH240021   3.407   4.763   2.713  0.1645 -0.6472 -0.6154
 6129TIP3    H140022   3.359   4.681   2.702  2.0942 -1.6807 -1.9930
 6129TIP3    H240023   3.454   4.753   2.796 -1.2709  0.0071  0.3009
 6130TIP3   OH240024   6.797   3.129   1.539 -0.1017 -0.1122  0.2844
 6130TIP3    H140025   6.849   3.127   1.459 -1.1594  0.2223 -0.4451
 6130TIP3    H240026   6.815   3.215   1.578 -1.5958  0.8748 -1.0422
 6131TIP3   OH240027   5.615   3.363   2.352  0.1488 -0.1965 -0.2319
 6131TIP3    H140028   5.681   3.358   2.283 -0.4424 -1.5367 -0.7469
 6131TIP3    H240029   5.607   3.456   2.371  2.5371 -0.0187  0.2248
 6132TIP3   OH240030   2.874   0.455   1.408 -0.3989 -0.2482  0.1925
 6132TIP3    H140031   2.917   0.369   1.406  0.6276  0.2552 -0.1914
 6132TIP3    H240032   2.788   0.439   1.370 -0.0518 -1.0306 -0.3066
 6133TIP3   OH240033   3.483   4.738   0.452  0.0027 -0.5873 -0.2753
 6133TIP3    H140034   3.392   4.750   0.480  0.4040 -0.1730  0.9060
 6133TIP3    H240035   3.492   4.796   0.377 -0.4271  0.1722  0.2413
 6134TIP3   OH240036   5.609   5.600   4.062 -0.2066 -0.1296  0.2277
 6134TIP3    H140037   5.582   5.535   3.997  2.0832 -2.1461  1.1154
 6134TIP3    H240038   5.677   5.651   4.019 -1.2180  0.9706 -0.0977
 6135TIP3   OH240039   6.608   1.342   1.506 -0.8276 -0.1875  0.3178
 6135TIP3    H140040   6.638   1.366   1.418 -2.1647 -1.2460 -0.4680
 6135TIP3    H240041   6.581   1.250   1.499 -1.4061 -0.1587  1.7111
 6136TIP3   OH240042   3.405   5.547   0.492  0.2452  0.0178  0.0151
 6136TIP3    H140043   3.411   5.475   0.555  1.0117 -0.5059 -0.6321
 6136TIP3    H240044   3.345   5.515   0.424  0.1595  0.2090 -0.0001
 6137TIP3   OH240045   0.808   1.636   1.107  0.1466  0.7307  0.8571
 6137TIP3    H140046   0.802   1.616   1.201  0.0244  2.0502  1.1434
 6137TIP3    H240047   0.749   1.711   1.095 -0.7374 -0.1480 -0.5055
 6138TIP3   OH240048   3.931   5.062   1.604 -0.5858  0.1026  0.1162
 6138TIP3    H140049   3.895   5.078   1.517  0.7838  0.8724 -0.3517
 6138TIP3    H240050   4.026   5.065   1.592 -0.3143 -1.7193  1.3040
 6139TIP3   OH240051   1.932   1.374   1.903  0.0982  0.0632  0.0497
 6139TIP3    H140052   1.945   1.467   1.921 -1.2722  0.3966 -0.5304
 6139TIP3    H240053   1.944   1.367   1.808  1.4627 -0.6018  0.2497
 6140TIP3   OH240054   4.609   5.130   3.135 -0.0403 -0.0359  0.1496
 6140TIP3    H140055   4.666   5.207   3.135 -0.6110  0.4721 -2.1885
 6140TIP3    H240056   4.665   5.057   3.108  0.2728 -0.2613  1.3702
 6141TIP3   OH240057   3.539   4.340   2.033 -0.9460  0.0227  0.0946
 6141TIP3    H140058   3.563   4.325   1.942 -1.5997 -0.1342 -0.0519
 6141TIP3    H240059   3.500   4.258   2.062 -3.7024  1.0382 -0.4509
 6142TIP3   OH240060   6.047   4.849   7.804 -0.5656  0.6600 -0.1818
 6142TIP3    H140061   5.973   4.828   7.861 -1.1034 -1.6069 -1.5446
 6142TIP3    H240062   6.124   4.838   7.859 -1.1567  0.8104  0.6877
 6143TIP3   OH240063   6.108   4.498   8.538 -0.3473 -0.4658  0.0424
 6143TIP3    H140064   6.091   4.590   8.518 -0.2309 -0.6332 -0.8551
 6143TIP3    H240065   6.034   4.451   8.502  0.1223 -0.8254 -0.4614
 6144TIP3   OH240066   4.575   4.217   1.194 -0.2646  0.5612  0.0579
 6144TIP3    H140067   4.668   4.221   1.172 -0.3563 -1.5790 -0.9250
 6144TIP3    H240068   4.572   4.179   1.282 -0.2248  0.1309 -0.1261
 6145TIP3   OH240069   3.074   6.766   1.934  0.1502  0.0948 -0.2052
 6145TIP3    H140070   2.979   6.775   1.927  0.3853  1.4772 -2.8914
 6145TIP3    H240071   3.092   6.779   2.027 -2.4907 -3.4748  1.0676
 6146TIP3   OH240072   3.604   5.592   0.756 -0.5141  0.2805 -0.8613
 6146TIP3    H140073   3.699   5.587   0.752 -0.5878 -1.3109 -1.3989
 6146TIP3    H240074   3.586   5.675   0.800  1.1062  0.7686 -1.0557
 6147TIP3   OH240075   4.377   3.438   2.472 -0.1749  0.2035  0.0783
 6147TIP3    H140076   4.454   3.496   2.467  0.4209 -0.5771  0.0189
 6147TIP3    H240077   4.412   3.354   2.502 -0.7583 -0.5938 -1.3720
 6148TIP3   OH240078   2.461   6.399   0.974 -0.1151 -0.2564  0.7104
 6148TIP3    H140079   2.378   6.445   0.972 -0.8328 -1.3323  2.8482
 6148TIP3    H240080   2.517   6.451   1.032  0.5990  0.2426 -0.3863
 6149TIP3   OH240081   5.799   4.786   0.274  0.6945  0.0270  0.3674
 6149TIP3    H140082   5.753   4.793   0.190  0.6180 -1.7206  0.2266
 6149TIP3    H240083   5.836   4.873   0.288  0.0589  0.5719 -1.0937
 6150TIP3   OH240084   6.750   0.672   0.688  0.1147  0.2921  0.4058
 6150TIP3    H140085   6.835   0.671   0.732 -0.2170 -0.6031  1.0593
 6150TIP3    H240086   6.693   0.722   0.747  0.1186  0.6386  0.1138
 6151TIP3   OH240087   3.167   4.165   3.023 -0.0189 -0.1022  0.2544
 6151TIP3    H140088   3.124   4.083   3.047  1.2168 -1.0255 -0.5728
 6151TIP3    H240089   3.253   4.139   2.992 -0.0644  1.3810 -1.3000
 6152TIP3   OH240090   1.496   0.262   3.635  0.0690  0.1880  0.0460
 6152TIP3    H140091   1.430   0.297   3.576 -0.0886  0.6740  0.4985
 6152TIP3    H240092   1.489   0.167   3.626 -1.8832  0.1451  1.3228
 6153TIP3   OH240093   1.166   2.596   2.787 -0.2471 -0.3548 -0.2475
 6153TIP3    H140094   1.144   2.508   2.817 -3.7019 -0.0191 -1.2524
 6153TIP3    H240095   1.135   2.654   2.857  0.7568  0.1226 -0.1817
 6154TIP3   OH240096   6.004   4.571   0.145  0.0277  0.2773  0.3893
 6154TIP3    H140097   6.091   4.569   0.185  0.3621  1.2437 -0.2586
 6154TIP3    H240098   5.983   4.664   0.138 -0.1763  0.1188 -1.3329
 6155TIP3   OH240099   0.491   5.323   1.104  0.4605  0.1823 -0.3952
 6155TIP3    H140100   0.409   5.273   1.104 -0.1028  1.0860  0.0031
 6155TIP3    H240101   0.546   5.277   1.040 -1.1247  0.8048 -2.3288
 6156TIP3   OH240102   6.332   6.593   1.906 -0.4163 -0.5132  0.0244
 6156TIP3    H140103   6.251   6.631   1.873 -1.3561 -0.0461  2.5881
 6156TIP3    H240104   6.331   6.613   2.000  2.3845 -1.0390  0.2552
 6157TIP3   OH240105   2.220   6.587   3.268 -0.4954 -0.2683  0.3173
 6157TIP3    H140106   2.147   6.568   3.327 -1.0614  0.1007 -0.2678
 6157TIP3    H240107   2.213   6.522   3.198  0.9012 -1.5110  1.2604
 6158TIP3   OH240108   1.327   6.668   2.640  0.7559 -0.1375  0.0704
 6158TIP3    H140109   1.415   6.636   2.658  1.8382  2.5413  0.0385
 6158TIP3    H240110   1.280   6.655   2.723  2.0428  0.8960  1.0086
 6159TIP3   OH240111   2.921   4.052   0.687  0.2513  0.1540  0.0846
 6159TIP3    H140112   2.864   4.098   0.626 -0.9444  0.4221  1.3493
 6159TIP3    H240113   2.894   3.960   0.680  0.4448  0.1128 -0.1306
 6160TIP3   OH240114   0.512   1.537   2.499  0.0407 -0.1482 -0.6187
 6160TIP3    H140115   0.596   1.544   2.453  1.0576 -0.7621  1.0471
 6160TIP3    H240116   0.489   1.628   2.520  1.4217 -0.0789  0.7749
 6161TIP3   OH240117   1.565   1.825   3.251 -0.2854 -0.3478 -0.0511
 6161TIP3    H140118   1.612   1.848   3.332 -1.0844 -0.2449  0.3940
 6161TIP3    H240119   1.569   1.730   3.248 -1.4065 -0.4480  0.8393
 6162TIP3   OH240120   3.108   1.556   1.817  0.1872 -0.1989 -0.6694
 6162TIP3    H140121   3.139   1.572   1.728  1.7009 -3.6707 -0.9311
 6162TIP3    H240122   3.121   1.462   1.830 -1.7216 -0.1438  2.6019
 6163TIP3   OH240123   5.522   2.010   3.039 -0.3652  0.1882 -0.1154
 6163TIP3    H140124   5.538   2.100   3.068  0.5012 -0.1884  0.6102
 6163TIP3    H240125   5.428   1.997   3.053 -0.1153  0.2679  1.9039
 6164TIP3   OH240126   0.350   5.427   0.836  0.1303 -0.4059 -1.4587
 6164TIP3    H140127   0.416   5.445   0.904 -0.6006  2.8940 -1.4926
 6164TIP3    H240128   0.299   5.354   0.872  0.9324  0.0073  0.6719
 6165TIP3   OH240129   2.568   5.076   0.237 -0.2009  0.2892  0.6379
 6165TIP3    H140130   2.493   5.034   0.194  1.1201 -1.1241 -0.3851
 6165TIP3    H240131   2.601   5.010   0.298  2.0520 -0.3759 -1.1526
 6166TIP3   OH240132   6.210   5.780   1.215 -0.2718 -0.0440 -0.5072
 6166TIP3    H140133   6.160   5.817   1.142  0.4030  0.3945 -0.7522
 6166TIP3    H240134   6.161   5.703   1.241 -2.2397  1.4664  0.5924
 6167TIP3   OH240135   1.546   2.405   0.516 -0.3761 -0.0326  0.5677
 6167TIP3    H140136   1.544   2.330   0.456 -0.8562  0.4785 -0.0556
 6167TIP3    H240137   1.461   2.403   0.560  0.3832 -1.1035  2.1394
 6168TIP3   OH240138   5.465   3.556   1.153  0.1718 -0.2710 -0.1306
 6168TIP3    H140139   5.558   3.564   1.129  0.2042 -0.2630 -0.0028
 6168TIP3    H240140   5.459   3.471   1.195  0.1263 -0.2596 -0.1146
 6169TIP3   OH240141   0.074   6.424   3.785 -0.1645  0.2493  0.3026
 6169TIP3    H140142   0.009   6.358   3.761 -0.5485  0.6663  0.1824
 6169TIP3    H240143   0.157   6.389   3.752 -0.2819 -0.4038  0.6826
 6170TIP3   OH240144   6.028   3.954   8.336 -0.2516 -0.5548 -0.0475
 6170TIP3    H140145   6.082   3.895   8.283  0.8923 -0.2056  0.6773
 6170TIP3    H240146   5.938   3.926   8.320  0.0116 -0.1562 -2.5182
 6171TIP3   OH240147   3.305   4.922   8.706 -0.4627 -0.1188  0.2158
 6171TIP3    H140148   3.356   4.886   8.634  0.2880 -0.0707  0.7104
 6171TIP3    H240149   3.215   4.919   8.675 -0.0699  0.7451 -1.0810
 6172TIP3   OH240150   2.159   5.100   2.428 -0.0092  0.4059  0.4583
 6172TIP3    H140151   2.156   5.119   2.334  0.9152 -0.9563  0.1223
 6172TIP3    H240152   2.067   5.098   2.455 -0.3031  0.4748 -0.4983
 6173TIP3   OH240153   0.464   6.115   0.625  0.4887 -0.5003  0.0912
 6173TIP3    H140154   0.509   6.150   0.701 -0.8726 -0.4994  0.9323
 6173TIP3    H240155   0.398   6.181   0.603 -0.0498 -1.1210 -0.2151
 6174TIP3   OH240156   3.674   4.473   2.228 -0.3696 -0.2435 -0.1451
 6174TIP3    H140157   3.615   4.436   2.162 -0.0278 -1.5778  0.2663
 6174TIP3    H240158   3.761   4.444   2.200 -0.0545  0.5349  0.0215
 6175TIP3   OH240159   1.234   2.845   1.743 -0.0936 -0.3159  0.3982
 6175TIP3    H140160   1.247   2.909   1.674  0.2596 -1.5531 -0.7278
 6175TIP3    H240161   1.311   2.853   1.799  0.9374 -1.0737 -0.8514
 6176TIP3   OH240162   1.411   0.456   2.566  0.3996  0.2717  0.3380
 6176TIP3    H140163   1.343   0.462   2.633  1.3686 -0.2317  1.3972
 6176TIP3    H240164   1.491   0.483   2.611  1.0150  0.2733 -0.7217
 6177TIP3   OH240165   1.827   4.864   8.679 -0.1636  0.5022 -0.7505
 6177TIP3    H140166   1.820   4.778   8.721 -0.3092  0.7416 -0.2756
 6177TIP3    H240167   1.755   4.864   8.615 -2.0795  1.3708  1.2751
 6178TIP3   OH240168   1.391   2.796   0.599  0.4182  0.0516  0.5868
 6178TIP3    H140169   1.358   2.717   0.556  0.4138 -1.0474  2.4759
 6178TIP3    H240170   1.482   2.803   0.572 -0.1637  0.7307 -1.3731
 6179TIP3   OH240171   5.039   5.258   1.081 -0.1708 -0.2209 -0.1683
 6179TIP3    H140172   5.108   5.221   1.026  1.8289  2.5592  0.2454
 6179TIP3    H240173   5.081   5.273   1.165 -1.6533  0.3622  0.4997
 6180TIP3   OH240174   6.377   2.445   3.600  0.1767 -0.0297  0.0126
 6180TIP3    H140175   6.402   2.438   3.692  0.9424 -0.4373 -0.2213
 6180TIP3    H240176   6.282   2.462   3.603  0.2899  0.5654  0.8845
 6181TIP3   OH240177   6.719   0.625   3.413 -0.2748  0.0670  0.0226
 6181TIP3    H140178   6.640   0.664   3.374 -0.6460 -1.5956 -0.9793
 6181TIP3    H240179   6.690   0.542   3.449  0.6088  0.4097  1.6581
 6182TIP3   OH240180   5.818   3.884   2.885  0.7484 -0.1139 -0.4865
 6182TIP3    H140181   5.779   3.961   2.843 -0.9525 -0.4337  0.4117
 6182TIP3    H240182   5.749   3.818   2.881  1.2551 -0.7752  1.0623
 6183TIP3   OH240183   0.240   2.180   2.458  0.0404 -0.1710 -0.1472
 6183TIP3    H140184   0.196   2.244   2.515  0.9836  1.0074 -0.6771
 6183TIP3    H240185   0.185   2.102   2.462 -1.1840  0.6888  0.4997
 6184TIP3   OH240186   4.940   3.750   0.245 -0.1043 -0.1695  0.1315
 6184TIP3    H140187   4.965   3.691   0.316  2.4864  0.4111 -0.1878
 6184TIP3    H240188   4.954   3.699   0.165  0.8736  0.4212 -0.0918
 6185TIP3   OH240189   3.617   5.849   8.257 -0.0206 -0.3284  0.4805
 6185TIP3    H140190   3.604   5.903   8.335 -0.8630 -0.5220  0.4905
 6185TIP3    H240191   3.687   5.892   8.209 -0.8982  0.9889  0.3142
 6186TIP3   OH240192   4.837   6.105   4.330  0.0008 -0.0741 -0.1839
 6186TIP3    H140193   4.870   6.091   4.419  1.7052  1.7036 -0.4599
 6186TIP3    H240194   4.910   6.084   4.273 -0.4360  0.6355 -1.0455
 6187TIP3   OH240195   4.680   5.054   8.534 -0.2954 -0.5071  0.2865
 6187TIP3    H140196   4.597   5.008   8.548 -0.7202 -0.7054 -2.2613
 6187TIP3    H240197   4.731   4.994   8.479  0.7554  0.4232  0.2126
 6188TIP3   OH240198   5.642   3.770   0.021 -0.0164 -0.0736 -0.1580
 6188TIP3    H140199   5.613   3.682  -0.004  0.5119 -0.6507  1.1357
 6188TIP3    H240200   5.730   3.757   0.055  0.3407  1.0854 -0.6140
 6189TIP3   OH240201   6.572   2.224   2.526 -0.2578  0.3363  0.2910
 6189TIP3    H140202   6.503   2.214   2.591 -2.3720 -0.7033 -1.9558
 6189TIP3    H240203   6.654   2.214   2.576 -1.7645 -2.9294  2.4803
 6190TIP3   OH240204   5.839   3.809   1.141 -0.2652  0.1082 -0.7681
 6190TIP3    H140205   5.898   3.831   1.069 -0.4299  1.5506 -0.4817
 6190TIP3    H240206   5.751   3.824   1.106 -0.3184  1.9221  0.0369
 6191TIP3   OH240207   4.253   1.918   1.923 -0.0137 -0.6123 -0.3232
 6191TIP3    H140208   4.281   1.967   1.846  0.1853 -0.3363 -0.0795
 6191TIP3    H240209   4.332   1.914   1.978 -0.6448  0.8999  0.7582
 6192TIP3   OH240210   4.699   6.189   8.526 -0.0962  0.0780 -0.7384
 6192TIP3    H140211   4.708   6.100   8.558 -1.4818 -0.1596 -0.9421
 6192TIP3    H240212   4.636   6.230   8.585 -0.6056  0.4547 -1.5218
 6193TIP3   OH240213   2.356   3.374   1.262 -0.2230 -0.4360  0.2355
 6193TIP3    H140214   2.305   3.377   1.182  0.2444 -0.3682 -0.0662
 6193TIP3    H240215   2.414   3.298   1.251 -0.0855 -0.3658  0.4634
 6194TIP3   OH240216   3.161   2.389   8.787  0.2158  0.0214 -0.7704
 6194TIP3    H140217   3.246   2.392   8.830 -1.2823  0.4141  2.4053
 6194TIP3    H240218   3.154   2.474   8.742  0.0540  1.7234  2.1982
 6195TIP3   OH240219   3.091   3.465   1.097 -0.1484 -0.4618  0.1320
 6195TIP3    H140220   3.129   3.390   1.052 -0.9795 -0.3438 -0.7844
 6195TIP3    H240221   3.127   3.460   1.186  1.0612 -1.0220 -0.3633
 6196TIP3   OH240222   5.924   3.803   0.480 -0.6019  0.3436  0.2928
 6196TIP3    H140223   5.906   3.897   0.478 -1.5228  0.2242  1.6689
 6196TIP3    H240224   6.019   3.797   0.489 -0.4705  1.1188 -0.4494
 6197TIP3   OH240225   0.832   2.341   1.346  0.5728 -0.1197  0.2145
 6197TIP3    H140226   0.815   2.435   1.352 -0.7198 -0.1482 -1.6961
 6197TIP3    H240227   0.754   2.300   1.383  1.7549 -0.5207  2.4124
 6198TIP3   OH240228   3.034   1.546   2.974  0.7678  0.0994  0.5496
 6198TIP3    H140229   3.077   1.463   2.992 -0.6964 -0.3094  2.3771
 6198TIP3    H240230   2.986   1.532   2.892  1.4651 -0.4394  0.2214
 6199TIP3   OH240231   0.030   6.062   3.451 -0.6467 -0.1287 -0.1787
 6199TIP3    H140232  -0.028   5.990   3.475 -0.2705 -0.8149 -1.2405
 6199TIP3    H240233  -0.029   6.134   3.430 -1.1668 -0.9377 -1.6420
 6200TIP3   OH240234   6.711   5.176   2.439 -0.4627  0.0947 -0.1093
 6200TIP3    H140235   6.636   5.163   2.497  1.2985  0.3328  2.3925
 6200TIP3    H240236   6.748   5.089   2.429 -0.0328  0.2360  0.2145
 6201TIP3   OH240237   0.203   0.977   0.927  0.0761  0.0014 -0.0097
 6201TIP3    H140238   0.131   0.990   0.865  0.3139 -1.0311 -0.5410
 6201TIP3    H240239   0.260   1.053   0.914 -0.2407  0.1514 -0.5519
 6202TIP3   OH240240   5.188   6.173   0.954  0.3330 -0.0667  0.2048
 6202TIP3    H140241   5.219   6.204   1.039  2.5753 -1.3469 -0.0590
 6202TIP3    H240242   5.099   6.141   0.971  0.7292 -0.3016  2.0681
 6203TIP3   OH240243   1.943   2.009   0.563 -0.9017  0.1693  0.0559
 6203TIP3    H140244   2.006   2.079   0.578  0.4339 -0.6592 -1.3377
 6203TIP3    H240245   1.869   2.052   0.520 -1.3902  1.1818  1.8439
 6204TIP3   OH240246   1.874   1.945   1.212  0.2028  0.2335  0.1734
 6204TIP3    H140247   1.824   1.917   1.289  0.3295 -0.5360 -0.0208
 6204TIP3    H240248   1.816   2.007   1.167 -0.2764 -0.0925  0.3425
 6205TIP3   OH240249   2.892   2.561   1.964 -0.4543  0.1855 -0.3100
 6205TIP3    H140250   2.837   2.554   1.886  1.2281 -1.5646 -1.4492
 6205TIP3    H240251   2.978   2.585   1.929  0.0749  0.4793  1.1521
 6206TIP3   OH240252   1.636   6.196   2.615  0.0989 -0.0392 -0.2790
 6206TIP3    H140253   1.707   6.176   2.677  0.5857  4.4309  0.9237
 6206TIP3    H240254   1.680   6.213   2.532 -0.1112 -1.4258 -0.7139
 6207TIP3   OH240255   0.751   5.422   0.015  0.1348  0.7139 -0.1227
 6207TIP3    H140256   0.678   5.403  -0.043  0.0594  1.6079 -0.3375
 6207TIP3    H240257   0.712   5.467   0.090  0.3209  0.1698  0.3080
 6208TIP3   OH240258   2.421   1.482   2.416 -0.1859 -0.4640  0.0654
 6208TIP3    H140259   2.340   1.465   2.463 -0.4592  0.0414 -0.2035
 6208TIP3    H240260   2.412   1.433   2.334 -0.3305 -0.2201 -0.0680
 6209TIP3   OH240261   4.180   1.422   3.514  0.0297  0.0632 -0.9107
 6209TIP3    H140262   4.167   1.379   3.599 -0.7485  2.1667  0.1257
 6209TIP3    H240263   4.273   1.412   3.496  0.2839 -0.1600  0.3884
 6210TIP3   OH240264   6.527   1.037   8.263 -0.1381 -0.1933 -0.2769
 6210TIP3    H140265   6.548   0.980   8.337 -0.6256 -1.1587 -0.8645
 6210TIP3    H240266   6.612   1.059   8.225  0.0102 -1.7116 -0.9019
 6211TIP3   OH240267   6.138   1.448   1.436  0.3658  0.2416 -0.3726
 6211TIP3    H140268   6.187   1.421   1.359  0.4306  0.8621 -0.5560
 6211TIP3    H240269   6.197   1.432   1.510  0.3959 -0.1185 -0.4742
 6212TIP3   OH240270   1.797   2.345   1.435  0.0675 -0.1024 -0.3289
 6212TIP3    H140271   1.749   2.275   1.391  0.2871 -0.3558 -0.1717
 6212TIP3    H240272   1.838   2.302   1.510  0.4490  0.1301 -0.3973
 6213TIP3   OH240273   4.999   4.361   3.468 -0.0845  0.2427  0.2076
 6213TIP3    H140274   5.035   4.281   3.428 -1.1034 -0.2104  0.1810
 6213TIP3    H240275   4.953   4.329   3.546 -1.0300  0.7250 -0.1423
 6214TIP3   OH240276   2.231   0.461   2.652 -0.1770  0.3689  0.2933
 6214TIP3    H140277   2.217   0.369   2.672 -0.4981  0.2266 -0.5690
 6214TIP3    H240278   2.165   0.482   2.586 -0.0285  1.1848  0.3907
 6215TIP3   OH240279   0.658   6.131   0.311  0.3631  0.1202  0.2997
 6215TIP3    H140280   0.606   6.055   0.287  0.7598 -0.6104  1.6872
 6215TIP3    H240281   0.624   6.158   0.396  1.6015  0.1976  0.7923
 6216TIP3   OH240282   1.513   1.533   0.060  0.1315 -0.5942  0.8253
 6216TIP3    H140283   1.420   1.554   0.060  0.1486 -0.5243  0.5684
 6216TIP3    H240284   1.532   1.505  -0.029  1.2064  3.2086 -0.3294
 6217TIP3   OH240285   4.522   0.617   1.876  0.1243 -0.0720 -0.1064
 6217TIP3    H140286   4.428   0.630   1.863 -0.0723 -0.2900  1.0251
 6217TIP3    H240287   4.557   0.706   1.880 -0.1372  0.0233  0.1527
 6218TIP3   OH240288   2.091   1.946   3.363  0.2113 -0.3563  0.6832
 6218TIP3    H140289   2.048   1.932   3.279  0.0963 -1.8391  0.9733
 6218TIP3    H240290   2.043   2.019   3.402 -0.4105 -0.3468 -0.0795
 6219TIP3   OH240291   6.481   5.303   3.853  0.4037  0.5441  0.2176
 6219TIP3    H140292   6.414   5.293   3.785 -0.5880 -1.5110  1.3881
 6219TIP3    H240293   6.470   5.392   3.884 -1.0911  0.5883 -0.3517
 6220TIP3   OH240294   0.926   6.079   2.994 -0.0475 -0.3298 -0.0415
 6220TIP3    H140295   0.908   6.123   2.911  0.6219  0.7297  0.3535
 6220TIP3    H240296   0.854   6.106   3.051 -0.0332 -0.3502 -0.0138
 6221TIP3   OH240297   1.862   4.408   1.900 -0.5520  0.1182  0.1599
 6221TIP3    H140298   1.851   4.418   1.806 -2.5283  0.5363  0.3910
 6221TIP3    H240299   1.867   4.497   1.934 -1.5030  0.0179  0.5970
 6222TIP3   OH240300   5.822   2.577   1.264 -0.5296  0.2372  0.7598
 6222TIP3    H140301   5.775   2.659   1.252 -0.1867  0.5213  1.3376
 6222TIP3    H240302   5.888   2.576   1.194 -1.9330 -0.5752 -0.6184
 6223TIP3   OH240303   2.291   1.288   2.820  0.0132 -0.0083  0.1761
 6223TIP3    H140304   2.358   1.221   2.805  0.6707  0.8537 -0.9276
 6223TIP3    H240305   2.210   1.249   2.786  0.0527 -0.8308  0.9783
 6224TIP3   OH240306   0.279   1.163   4.329  0.0854  0.1264  0.4266
 6224TIP3    H140307   0.226   1.093   4.290 -0.1413 -0.5557  1.8900
 6224TIP3    H240308   0.359   1.120   4.358  2.2798  1.3988 -3.1097
 6225TIP3   OH240309   5.515   2.665   2.501  0.3499 -0.5726 -0.1330
 6225TIP3    H140310   5.442   2.611   2.468 -0.8070 -0.0859  1.5111
 6225TIP3    H240311   5.571   2.602   2.547 -1.2921 -0.4161  2.2807
 6226TIP3   OH240312   3.493   6.336   8.860  0.3262  0.3418  0.2678
 6226TIP3    H140313   3.464   6.412   8.808  1.0192  0.4815  0.0720
 6226TIP3    H240314   3.414   6.307   8.906 -0.4333 -0.0526 -1.1946
 6227TIP3   OH240315   5.056   6.170   2.994  0.0304 -0.3055 -0.5856
 6227TIP3    H140316   4.981   6.113   3.011  0.5693 -1.1591 -1.0327
 6227TIP3    H240317   5.122   6.143   3.058 -0.5006  1.3657  0.7353
 6228TIP3   OH240318   5.333   0.925   0.080  0.6087 -0.3967  0.0427
 6228TIP3    H140319   5.319   1.014   0.047 -1.7580 -0.8125 -0.2501
 6228TIP3    H240320   5.253   0.878   0.057  1.5849 -2.4857  0.6535
 6229TIP3   OH240321   3.080   2.538   8.377 -0.0201  0.1804 -0.2836
 6229TIP3    H140322   3.064   2.447   8.351 -0.8097 -0.0576  0.9465
 6229TIP3    H240323   3.139   2.572   8.310 -0.9678 -0.7536 -1.6517
 6230TIP3   OH240324   4.265   5.088   7.955 -0.2648 -0.3258 -0.0879
 6230TIP3    H140325   4.199   5.036   8.001 -0.5173 -0.2097 -0.3164
 6230TIP3    H240326   4.340   5.089   8.014  0.3640 -2.3633 -0.7990
 6231TIP3   OH240327   3.461   5.940   0.724 -0.0099 -0.1599 -0.1521
 6231TIP3    H140328   3.497   6.025   0.698 -0.9276  0.4739  0.5752
 6231TIP3    H240329   3.489   5.880   0.655 -1.4192  1.2227 -2.0440
 6232TIP3   OH240330   2.458   0.542   1.777  0.0778  0.2762 -0.0376
 6232TIP3    H140331   2.481   0.622   1.731  3.3928 -0.4375  0.1121
 6232TIP3    H240332   2.541   0.511   1.814 -1.3838 -2.3154  1.3706
 6233TIP3   OH240333   0.272   4.397   1.607 -0.1086 -0.5013  0.2298
 6233TIP3    H140334   0.273   4.489   1.630  1.1202 -0.7373  1.2485
 6233TIP3    H240335   0.189   4.364   1.643 -0.4013  0.1285  0.1456
 6234TIP3   OH240336   2.308   6.333   1.994  0.2306  0.7423 -0.5500
 6234TIP3    H140337   2.361   6.362   1.920  0.0638  2.3429 -0.0655
 6234TIP3    H240338   2.359   6.261   2.032  0.4750  0.1158 -1.9915
 6235TIP3   OH240339   1.281   6.071   2.674 -0.1920  0.0349 -0.4960
 6235TIP3    H140340   1.342   6.083   2.601  0.3596  0.0003 -0.0406
 6235TIP3    H240341   1.320   6.003   2.728 -0.3234  0.4465  0.1267
 6236TIP3   OH240342   3.686   6.175   8.779 -0.1105  0.1410 -0.0085
 6236TIP3    H140343   3.760   6.209   8.828 -0.8703  1.2811  0.4033
 6236TIP3    H240344   3.610   6.219   8.817 -1.1742 -2.0551  0.5548
 6237TIP3   OH240345   0.501   2.357   2.829  0.5241 -0.4058  0.6200
 6237TIP3    H140346   0.583   2.404   2.840  1.6632 -1.7491 -1.5276
 6237TIP3    H240347   0.468   2.385   2.744 -0.0414 -1.5973  0.4233
 6238TIP3   OH240348   4.133   5.202   3.547  0.9394 -0.0644  0.0607
 6238TIP3    H140349   4.207   5.146   3.527  2.0911  1.7412 -0.9844
 6238TIP3    H240350   4.112   5.184   3.639  1.5143 -1.8557 -0.1340
 6239TIP3   OH240351   0.745   2.477   8.628  0.1508 -0.0143  0.2416
 6239TIP3    H140352   0.806   2.545   8.655 -0.0036 -0.4650  1.8408
 6239TIP3    H240353   0.801   2.401   8.608  0.1365 -0.4969  1.9252
 6240TIP3   OH240354   6.187   3.984   0.014 -0.4776 -0.6501  0.0826
 6240TIP3    H140355   6.259   3.952  -0.040 -0.0482 -0.0583  0.2888
 6240TIP3    H240356   6.188   4.079   0.003 -0.1661 -0.4830  1.3646
 6241TIP3   OH240357   4.853   2.231   1.948  0.0853  0.4866  0.6784
 6241TIP3    H140358   4.770   2.184   1.939 -0.5246  1.5811  0.3289
 6241TIP3    H240359   4.919   2.163   1.959 -0.3015 -0.6749 -2.8725
 6242TIP3   OH240360   1.862   4.560   0.802 -0.3073  0.2094 -0.3910
 6242TIP3    H140361   1.944   4.607   0.784  1.5812 -1.9151  1.9509
 6242TIP3    H240362   1.856   4.496   0.731  0.8074 -0.4467  0.0669
 6243TIP3   OH240363   0.775   0.630   1.194  0.0129  0.6854  0.2213
 6243TIP3    H140364   0.790   0.724   1.207  1.6034  0.7681 -1.7352
 6243TIP3    H240365   0.804   0.613   1.104 -0.6277 -1.6189  0.3857
 6244TIP3   OH240366   5.176   0.910   2.104  0.1066  0.0586 -0.7346
 6244TIP3    H140367   5.130   0.851   2.163  0.7949  0.9439  0.7366
 6244TIP3    H240368   5.265   0.876   2.099  1.3438  2.3716  2.3761
 6245TIP3   OH240369   2.286   5.270   2.603  0.0332 -0.1905  1.0142
 6245TIP3    H140370   2.342   5.335   2.560 -0.5184 -0.1564  0.3321
 6245TIP3    H240371   2.248   5.219   2.531  1.0411 -1.7839  1.5525
 6246TIP3   OH240372   5.593   5.317   1.897 -0.3225  0.0166 -0.0148
 6246TIP3    H140373   5.665   5.260   1.870  1.4766  1.3178  1.7364
 6246TIP3    H240374   5.528   5.308   1.827  0.9153 -2.2648 -0.9971
 6247TIP3   OH240375   5.726   0.370   1.002 -0.2723 -0.8629 -0.0514
 6247TIP3    H140376   5.782   0.367   1.080 -1.2715 -1.6270  0.6794
 6247TIP3    H240377   5.715   0.278   0.978 -0.4443 -0.6611 -0.7480
 6248TIP3   OH240378   4.593   5.215   2.587  1.0455  0.3637 -0.5079
 6248TIP3    H140379   4.596   5.159   2.664  0.0373  1.8082  0.6332
 6248TIP3    H240380   4.678   5.203   2.545  1.1222 -1.4355  0.0856
 6249TIP3   OH240381   0.141   0.179   8.598  0.3670  0.2780 -0.3162
 6249TIP3    H140382   0.144   0.174   8.693 -1.1717  1.2503 -0.1795
 6249TIP3    H240383   0.225   0.217   8.573 -0.0249  2.0228  0.8474
 6250TIP3   OH240384   6.429   3.512   1.879 -0.0515 -0.1307 -0.1732
 6250TIP3    H140385   6.404   3.584   1.937  1.5553  0.8135 -0.6167
 6250TIP3    H240386   6.349   3.493   1.830 -0.8269  0.5261  0.7841
 6251TIP3   OH240387   5.173   4.238   0.955 -0.4321 -0.0300  0.2337
 6251TIP3    H140388   5.162   4.143   0.947 -0.3195 -0.0281  0.0515
 6251TIP3    H240389   5.139   4.259   1.042 -3.1052  0.1518 -0.7531
 6252TIP3   OH240390   1.860   5.861   1.012  0.4011 -0.0566 -0.7306
 6252TIP3    H140391   1.766   5.859   1.033  0.4227 -0.2112 -0.6533
 6252TIP3    H240392   1.877   5.779   0.967  0.6316 -0.3120 -0.1895
 6253TIP3   OH240393   1.608   0.457   3.972 -0.2855  0.0243  0.2401
 6253TIP3    H140394   1.516   0.432   3.965 -0.8160  1.6031  1.0752
 6253TIP3    H240395   1.607   0.552   3.969  1.1755  0.1265  1.7320
 6254TIP3   OH240396   2.244   5.286   0.467 -0.1185  0.2674  0.8969
 6254TIP3    H140397   2.261   5.274   0.374  1.6419  0.9367  1.0881
 6254TIP3    H240398   2.149   5.290   0.474 -0.2693  1.5997 -1.0750
 6255TIP3   OH240399   5.253   5.030   3.294  0.0207  0.4068 -0.3732
 6255TIP3    H140400   5.317   5.100   3.304 -0.6973  1.0197  0.0701
 6255TIP3    H240401   5.200   5.034   3.374 -0.3429 -0.3166 -0.5660
 6256TIP3   OH240402   5.208   5.840   4.097 -0.1858 -0.5186 -0.2416
 6256TIP3    H140403   5.155   5.898   4.043 -1.8894 -0.9719  0.8712
 6256TIP3    H240404   5.268   5.898   4.144 -1.1353  0.2401  0.0585
 6257TIP3   OH240405   4.251   6.164   4.048  0.0422 -0.0929  0.0343
 6257TIP3    H140406   4.271   6.186   3.958  0.1107 -0.5394 -0.0622
 6257TIP3    H240407   4.251   6.248   4.094  0.1986  0.1142 -0.3410
 6258TIP3   OH240408   3.176   6.278   8.720 -0.3577  0.0640 -0.0556
 6258TIP3    H140409   3.224   6.356   8.748  1.4300 -1.3067  0.9205
 6258TIP3    H240410   3.176   6.221   8.797 -1.9483 -0.7836 -0.6257
 6259TIP3   OH240411   5.094   6.022   8.837 -0.1691  0.2093  0.2226
 6259TIP3    H140412   5.011   5.977   8.821  0.2602 -0.2490 -0.8019
 6259TIP3    H240413   5.083   6.063   8.923 -1.2797 -0.2340  0.3069
 6260TIP3   OH240414   3.267   5.442   8.032 -0.4494  0.3383 -0.1422
 6260TIP3    H140415   3.231   5.425   7.945  0.9773  1.1197 -0.9324
 6260TIP3    H240416   3.362   5.448   8.017 -0.0098 -1.0083  1.7197
 6261TIP3   OH240417   2.721   1.799   2.919  0.1130 -0.0237 -0.0695
 6261TIP3    H140418   2.738   1.893   2.910  0.3774  0.3538  3.0692
 6261TIP3    H240419   2.791   1.757   2.869  0.2269  1.4261 -1.1842
 6262TIP3   OH240420   3.832   0.495   0.506 -0.0290  0.3493 -0.1864
 6262TIP3    H140421   3.903   0.521   0.448 -0.1432 -2.0775 -1.5507
 6262TIP3    H240422   3.874   0.448   0.578 -0.1078  0.9455  0.2619
 6263TIP3   OH240423   1.309   5.048   3.770 -0.2753  0.3726  0.0257
 6263TIP3    H140424   1.282   5.124   3.719 -0.0143  2.0431  2.2251
 6263TIP3    H240425   1.227   5.011   3.803 -0.3168  0.9335  0.5766
 6264TIP3   OH240426   1.066   0.599   1.374 -1.0195 -0.0676  0.2101
 6264TIP3    H140427   1.115   0.525   1.411  0.0484  0.2946 -0.4118
 6264TIP3    H240428   0.984   0.601   1.423 -0.7541 -1.2100  0.7351
 6265TIP3   OH240429   5.564   3.526   3.187 -0.2912  0.0534 -0.1902
 6265TIP3    H140430   5.609   3.447   3.158  0.0457 -0.1275  0.7899
 6265TIP3    H240431   5.558   3.580   3.108  0.5719 -0.4271 -0.6044
 6266TIP3   OH240432   3.629   0.013   0.100  0.3495  0.4006 -0.6361
 6266TIP3    H140433   3.608   0.102   0.074  0.5781  1.3282  2.0405
 6266TIP3    H240434   3.691   0.023   0.173 -0.3997 -1.8657  0.4195
 6267TIP3   OH240435   0.270   4.838   2.112 -0.5487 -0.2918 -0.4126
 6267TIP3    H140436   0.264   4.931   2.134  0.3481 -0.0468 -1.1454
 6267TIP3    H240437   0.187   4.818   2.069 -1.2191 -0.1218  0.7523
 6268TIP3   OH240438   2.395   6.747   1.577  0.2187 -0.4506 -0.3611
 6268TIP3    H140439   2.333   6.768   1.648  0.7919 -2.1633  0.6988
 6268TIP3    H240440   2.364   6.800   1.503 -0.5777  1.1816  1.0515
 6269TIP3   OH240441   2.221   4.222   3.469  0.1344  0.7474  0.2631
 6269TIP3    H140442   2.161   4.180   3.532  0.3649 -0.0853 -0.0545
 6269TIP3    H240443   2.192   4.313   3.465 -0.6179  0.5370  0.6992
 6270TIP3   OH240444   6.691   3.930   1.976 -0.0007  0.5667 -0.7067
 6270TIP3    H140445   6.723   4.007   2.021  0.5774 -0.3395  0.4696
 6270TIP3    H240446   6.752   3.860   1.999 -1.3517 -0.6005 -0.5035
 6271TIP3   OH240447   3.581   5.478   1.897 -1.0912 -0.1313  0.3716
 6271TIP3    H140448   3.560   5.519   1.813  0.6662  1.0019  0.4355
 6271TIP3    H240449   3.648   5.534   1.935 -2.5615 -0.0311  3.0608
 6272TIP3   OH240450   4.172   5.911   2.651  0.2496 -0.0348 -0.8073
 6272TIP3    H140451   4.149   5.888   2.741 -0.4196  1.5117 -0.5545
 6272TIP3    H240452   4.252   5.964   2.660 -0.5358  1.2101 -0.9834
 6273TIP3   OH240453   6.224   0.160   3.144  0.2738 -0.0934  0.1944
 6273TIP3    H140454   6.311   0.163   3.184  0.0282 -1.2424  0.8912
 6273TIP3    H240455   6.165   0.147   3.218 -0.5628  1.3013 -0.2094
 6274TIP3   OH240456   3.882   4.488   0.666 -0.0392 -0.2877  0.3283
 6274TIP3    H140457   3.805   4.537   0.637 -0.0922  0.4069  1.5934
 6274TIP3    H240458   3.954   4.526   0.616 -0.1198  0.9279  1.1022
 6275TIP3   OH240459   2.792   2.332   2.333 -0.2808 -0.2493 -0.2571
 6275TIP3    H140460   2.809   2.408   2.389 -0.9051  1.3737 -2.1545
 6275TIP3    H240461   2.854   2.340   2.260 -1.1558 -0.8763 -1.1027
 6276TIP3   OH240462   4.834   0.745   3.965 -0.3089 -0.5114  0.1630
 6276TIP3    H140463   4.846   0.791   4.048 -1.4227 -0.6661  0.4266
 6276TIP3    H240464   4.859   0.655   3.984  0.8913 -0.2561 -0.0884
 6277TIP3   OH240465   6.222   0.356   2.584 -1.4818  0.1478 -0.3495
 6277TIP3    H140466   6.167   0.285   2.550 -0.0363 -1.0809 -0.2780
 6277TIP3    H240467   6.297   0.358   2.525 -0.9573  0.8516  0.3205
 6278TIP3   OH240468   2.173   3.526   0.280  0.1459  0.2920  0.3832
 6278TIP3    H140469   2.265   3.551   0.290 -0.8199  3.3293  4.0392
 6278TIP3    H240470   2.130   3.605   0.249 -1.2173 -1.4439 -2.5609
 6279TIP3   OH240471   4.388   3.549   1.547 -0.3234 -0.5850  0.2862
 6279TIP3    H140472   4.345   3.487   1.488  1.2133 -0.7085 -0.7578
 6279TIP3    H240473   4.318   3.580   1.604 -2.0235  0.0671 -2.0229
 6280TIP3   OH240474   5.008   0.597   2.492 -0.5004  0.1847 -0.0694
 6280TIP3    H140475   4.958   0.558   2.421  0.3976 -1.7826  0.2993
 6280TIP3    H240476   4.968   0.563   2.572  0.3779 -0.1089  0.2637
 6281TIP3   OH240477   6.486   2.710   1.195 -0.2181  0.0065 -0.5054
 6281TIP3    H140478   6.483   2.702   1.290 -0.3059  0.0792 -0.5024
 6281TIP3    H240479   6.395   2.708   1.167 -0.2203  0.6002 -0.5409
 6282TIP3   OH240480   3.351   4.608   8.363 -0.1386  0.0324  0.0762
 6282TIP3    H140481   3.366   4.703   8.367  2.0041 -0.2109 -0.7908
 6282TIP3    H240482   3.260   4.600   8.336 -0.0510  1.8666 -0.9558
 6283TIP3   OH240483   0.253   0.437   1.757  0.3985  0.1572  0.1540
 6283TIP3    H140484   0.339   0.452   1.716  1.1378 -0.6088  1.3433
 6283TIP3    H240485   0.190   0.457   1.688  1.4825  1.7547 -0.4539
 6284TIP3   OH240486   5.141   3.108   3.633  0.1430 -0.0579 -0.3085
 6284TIP3    H140487   5.165   3.180   3.692  1.0974 -0.1904 -0.5287
 6284TIP3    H240488   5.207   3.111   3.564  0.4158 -1.3973 -0.1167
 6285TIP3   OH240489   6.376   3.812   1.667 -0.1138 -0.5128  0.1701
 6285TIP3    H140490   6.454   3.867   1.659  0.9292 -1.8999  0.3856
 6285TIP3    H240491   6.346   3.827   1.757 -1.3879  1.6343 -0.5643
 6286TIP3   OH240492   3.801   4.541   8.855  0.2960 -0.4580  0.2859
 6286TIP3    H140493   3.879   4.585   8.889  1.4251 -1.5071 -0.8454
 6286TIP3    H240494   3.823   4.448   8.859 -1.2564 -0.8361  0.7451
 6287TIP3   OH240495   5.517   1.455   2.182 -0.0196  0.2407  0.0440
 6287TIP3    H140496   5.436   1.473   2.230  0.0714  2.4275 -0.5387
 6287TIP3    H240497   5.578   1.427   2.250 -0.6664  0.6055  0.7997
 6288TIP3   OH240498   1.830   1.586   2.326  0.9692  0.0054  0.2821
 6288TIP3    H140499   1.767   1.531   2.279  1.6812 -2.3530  1.9237
 6288TIP3    H240500   1.914   1.565   2.285  0.8765  2.7293 -1.5320
 6289TIP3   OH240501   6.643   4.521   0.953 -0.1782  0.3133  0.1729
 6289TIP3    H140502   6.603   4.573   0.883 -1.5729 -0.2243  0.5192
 6289TIP3    H240503   6.716   4.574   0.984 -1.2455  1.8420  0.1885
 6290TIP3   OH240504   4.239   4.573   1.533 -0.4981  0.2207  0.3226
 6290TIP3    H140505   4.239   4.492   1.483  1.4822  0.1949  0.3069
 6290TIP3    H240506   4.176   4.629   1.487 -2.8358 -1.6483  1.0398
 6291TIP3   OH240507   1.040   2.634   3.625  0.1018  0.1048 -0.1368
 6291TIP3    H140508   1.005   2.659   3.540 -0.9114  1.9686  0.7886
 6291TIP3    H240509   1.047   2.538   3.620  1.6309  0.2423 -2.8753
 6292TIP3   OH240510   4.391   6.311   1.401 -0.6464 -0.0515 -0.1623
 6292TIP3    H140511   4.467   6.366   1.416 -0.3114 -0.5191 -0.1032
 6292TIP3    H240512   4.334   6.328   1.477 -1.0117  0.9583 -0.6496
 6293TIP3   OH240513   6.715   4.988   0.292  0.1250 -0.1230  0.1949
 6293TIP3    H140514   6.706   4.893   0.293 -0.8861 -0.0585  2.3270
 6293TIP3    H240515   6.807   5.004   0.272  0.2176 -1.5301 -0.5660
 6294TIP3   OH240516   3.766   5.291   1.631  0.4823  1.1546  0.0244
 6294TIP3    H140517   3.764   5.198   1.612 -0.6771  1.5629 -2.1507
 6294TIP3    H240518   3.860   5.313   1.629  0.6517  0.5334 -2.4737
 6295TIP3   OH240519   6.345   0.421   3.084 -0.4903 -0.2573 -0.0551
 6295TIP3    H140520   6.322   0.406   3.176  1.3585 -0.7305  0.3727
 6295TIP3    H240521   6.318   0.340   3.040 -0.4536 -0.4423  0.2560
 6296TIP3   OH240522   3.195   2.960   0.078 -0.1554 -0.4657 -0.2230
 6296TIP3    H140523   3.123   2.946   0.139  0.5208  0.8051  0.9305
 6296TIP3    H240524   3.235   3.042   0.107  0.8394 -0.3730 -1.7466
 6297TIP3   OH240525   2.140   3.571   2.607 -0.1183 -0.2920  0.3926
 6297TIP3    H140526   2.097   3.506   2.551  1.4345 -1.0141 -0.0026
 6297TIP3    H240527   2.175   3.521   2.680  1.7527 -0.0575 -0.2938
 6298TIP3   OH240528   4.852   4.210   2.480  0.2575 -0.4447 -0.2070
 6298TIP3    H140529   4.799   4.179   2.554  0.3472 -0.9009 -0.3327
 6298TIP3    H240530   4.901   4.284   2.516 -2.0196  1.3955 -0.6367
 6299TIP3   OH240531   4.214   2.819   1.129  0.4842 -0.3812 -0.0854
 6299TIP3    H140532   4.206   2.880   1.202  0.2507 -1.4915  0.8539
 6299TIP3    H240533   4.142   2.758   1.141  1.7254 -1.8880  0.0500
 6300TIP3   OH240534   1.450   3.963   2.805  0.0736 -0.2766 -0.3263
 6300TIP3    H140535   1.455   3.984   2.899  0.9397 -0.0785 -0.4082
 6300TIP3    H240536   1.362   3.990   2.779 -0.1425 -0.2482  0.4098
 6301TIP3   OH240537   4.634   0.466   2.712 -0.7396 -0.0107  0.5607
 6301TIP3    H140538   4.588   0.502   2.636  0.0447 -0.6253 -0.2243
 6301TIP3    H240539   4.570   0.409   2.754 -0.5463 -1.3319 -0.8540
 6302TIP3   OH240540   4.238   4.474   2.419  0.1481 -0.4212 -0.4567
 6302TIP3    H140541   4.298   4.436   2.483 -0.7871 -2.9993 -0.9848
 6302TIP3    H240542   4.293   4.495   2.344  0.7156 -0.8062 -0.1515
 6303TIP3   OH240543   0.952   0.755   2.861 -0.1236 -0.3848  0.4498
 6303TIP3    H140544   0.933   0.821   2.928 -0.5528 -1.4524  1.4236
 6303TIP3    H240545   0.993   0.684   2.910 -1.4328 -1.6487 -0.2321
 6304TIP3   OH240546   2.501   2.338   2.642 -0.0379 -0.1647  0.1785
 6304TIP3    H140547   2.537   2.343   2.553 -1.5059 -1.1729 -0.5218
 6304TIP3    H240548   2.469   2.248   2.649 -0.0751 -0.0489  1.6927
 6305TIP3   OH240549   3.813   5.189   1.919  0.1325 -0.1418  0.6242
 6305TIP3    H140550   3.773   5.272   1.893 -0.4230 -0.6776 -0.2749
 6305TIP3    H240551   3.746   5.145   1.971  0.5783  0.1357  1.4578
 6306TIP3   OH240552   4.964   3.702   3.196 -0.6812  0.2813  0.1737
 6306TIP3    H140553   5.059   3.707   3.204 -0.6657 -1.1330  1.3494
 6306TIP3    H240554   4.940   3.779   3.145  1.0344  1.0098  0.3933
 6307TIP3   OH240555   5.658   3.516   3.452 -0.5222  0.1512  0.4692
 6307TIP3    H140556   5.625   3.545   3.367  0.2573  0.2577  0.1889
 6307TIP3    H240557   5.580   3.505   3.506 -1.1012 -0.6250 -0.4747
 6308TIP3   OH240558   3.674   0.507   1.475 -0.4107  0.0320  0.0387
 6308TIP3    H140559   3.716   0.527   1.558  2.8540  0.4909 -1.5395
 6308TIP3    H240560   3.607   0.442   1.496 -0.4454  0.9239  3.1044
 6309TIP3   OH240561   2.946   6.364   8.581 -0.2005 -0.1555 -0.8141
 6309TIP3    H140562   2.997   6.343   8.503  1.6934  0.8479  0.0793
 6309TIP3    H240563   3.005   6.346   8.654 -2.0349 -1.4091  0.4502
 6310TIP3   OH240564   6.278   5.063   8.353 -0.8272  0.0559  0.3281
 6310TIP3    H140565   6.265   4.974   8.320  1.0125  0.0903 -0.6362
 6310TIP3    H240566   6.190   5.099   8.361 -1.6525 -2.0155  1.2653
 6311TIP3   OH240567   3.112   2.731   2.506 -0.1800 -0.4327  0.8076
 6311TIP3    H140568   3.018   2.733   2.490 -0.0081  1.7138 -0.4171
 6311TIP3    H240569   3.150   2.722   2.418  0.7543 -0.9915  1.2620
 6312TIP3   OH240570   6.488   3.656   2.902 -0.5673  0.6949 -0.0154
 6312TIP3    H140571   6.399   3.690   2.903 -0.4033  1.1396  1.4679
 6312TIP3    H240572   6.535   3.709   2.966  0.4475 -0.3819  0.1744
 6313TIP3   OH240573   3.235   3.166   0.593  0.4726 -0.0913  0.0539
 6313TIP3    H140574   3.301   3.127   0.536  0.8518 -1.3493  1.3094
 6313TIP3    H240575   3.281   3.184   0.675 -0.4011  0.3792  0.4546
 6314TIP3   OH240576   3.800   2.111   8.509  0.2719  0.4859  0.4448
 6314TIP3    H140577   3.765   2.026   8.483  0.3194  0.7353 -0.4737
 6314TIP3    H240578   3.782   2.169   8.435  0.1970  1.2955  1.0745
 6315TIP3   OH240579   6.490   6.740   3.633 -0.0449 -0.6612  0.1259
 6315TIP3    H140580   6.481   6.661   3.579 -0.1461 -0.0346 -0.7964
 6315TIP3    H240581   6.430   6.803   3.593 -1.0123 -0.5322  1.6801
 6316TIP3   OH240582   2.128   6.643   8.768  0.1800 -0.1011 -0.1677
 6316TIP3    H140583   2.064   6.574   8.786 -0.8932  1.1768  1.1992
 6316TIP3    H240584   2.208   6.613   8.811  1.1477 -2.5363 -3.3364
 6317TIP3   OH240585   0.828   4.271   8.288  0.3366  0.1143 -0.5187
 6317TIP3    H140586   0.913   4.310   8.307  0.1228  0.9649 -1.2326
 6317TIP3    H240587   0.775   4.290   8.366  0.7636 -0.3607 -0.1016
 6318TIP3   OH240588   2.676   1.073   0.018 -0.6854 -0.2291 -0.2858
 6318TIP3    H140589   2.595   1.024   0.025 -0.8610 -0.2813 -2.1896
 6318TIP3    H240590   2.649   1.161  -0.010 -0.1502  0.0225 -0.0352
 6319TIP3   OH240591   2.593   0.319   1.934 -0.3987 -0.2016  0.6537
 6319TIP3    H140592   2.647   0.300   1.857 -1.6274 -1.1650 -0.0015
 6319TIP3    H240593   2.642   0.282   2.007 -0.1338 -1.0360  0.0762
 6320TIP3   OH240594   4.183   5.401   2.137 -0.0743  0.3301 -0.0481
 6320TIP3    H140595   4.261   5.364   2.096  0.4141  1.5636 -0.2596
 6320TIP3    H240596   4.213   5.483   2.176 -1.5663  1.6233 -1.4855
 6321TIP3   OH240597   5.815   4.431   0.766 -0.4370  0.1240  0.2436
 6321TIP3    H140598   5.880   4.462   0.829 -1.7463  2.4172  0.5530
 6321TIP3    H240599   5.844   4.342   0.744  1.4273  0.1768  2.1727
 6322TIP3   OH240600   3.281   4.720   3.319 -0.0538 -0.1499  0.6646
 6322TIP3    H140601   3.224   4.772   3.262  0.8475  0.2355  0.0934
 6322TIP3    H240602   3.364   4.767   3.320  1.3364 -2.3309 -1.1509
 6323TIP3   OH240603   3.274   5.111   2.641  0.2120  0.7449  0.2449
 6323TIP3    H140604   3.332   5.074   2.575  1.0710  1.1001  0.7718
 6323TIP3    H240605   3.262   5.202   2.615  0.1953  0.7682  0.3310
 6324TIP3   OH240606   5.985   4.248   3.540  0.3157  0.3533 -0.1548
 6324TIP3    H140607   6.071   4.272   3.504  0.8118  1.9618  1.8850
 6324TIP3    H240608   5.928   4.321   3.515 -0.7697 -1.0820 -2.2045
 6325TIP3   OH240609   0.307   0.801   2.786 -0.1183  0.0664 -0.3406
 6325TIP3    H140610   0.327   0.790   2.694  0.5056 -0.1492 -0.1821
 6325TIP3    H240611   0.297   0.896   2.797  0.2217  0.1233 -0.5400
 6326TIP3   OH240612   6.691   0.244   3.356  0.4361  0.4238  0.0254
 6326TIP3    H140613   6.782   0.272   3.346  0.7300 -0.5835 -0.2749
 6326TIP3    H240614   6.659   0.294   3.431  1.1855  0.9155  0.0345
 6327TIP3   OH240615   5.228   3.891   8.777 -0.2953  0.2907 -0.1169
 6327TIP3    H140616   5.287   3.867   8.848  0.2148 -0.2100 -0.7090
 6327TIP3    H240617   5.161   3.945   8.819  0.8690  1.3182  0.4677
 6328TIP3   OH240618   0.844   2.254   0.307  0.0650  0.4547 -0.0037
 6328TIP3    H140619   0.796   2.312   0.367  1.3679  0.2952  1.2379
 6328TIP3    H240620   0.936   2.273   0.324  0.4816 -0.6238 -0.9551
 6329TIP3   OH240621   4.207   3.117   3.319 -0.1805 -0.1149  0.0156
 6329TIP3    H140622   4.165   3.088   3.238  0.7086  0.4196 -0.6607
 6329TIP3    H240623   4.264   3.045   3.344 -0.0781 -0.0755 -0.1068
 6330TIP3   OH240624   1.051   5.547   1.549  0.2328  0.2028 -0.8041
 6330TIP3    H140625   1.060   5.500   1.466  3.0212 -0.5916 -0.1676
 6330TIP3    H240626   1.098   5.492   1.612  0.2111  1.9497  0.8043
 6331TIP3   OH240627   5.849   0.230   7.868  0.3720 -0.6998  0.0519
 6331TIP3    H140628   5.928   0.209   7.918  1.7468 -1.2977 -2.2132
 6331TIP3    H240629   5.851   0.325   7.859 -0.0035 -0.5640  1.2531
 6332TIP3   OH240630   1.863   6.087   3.720 -0.1693  0.1605  0.4791
 6332TIP3    H140631   1.805   6.059   3.791  0.0259 -2.0123 -0.1567
 6332TIP3    H240632   1.932   6.137   3.764 -1.2014  0.7388  1.5259
 6333TIP3   OH240633   5.366   0.176   8.723 -0.1460 -0.4154  0.2595
 6333TIP3    H140634   5.338   0.266   8.739 -1.5230 -0.8029  0.1323
 6333TIP3    H240635   5.461   0.178   8.736  0.0920  1.4089 -1.3153
 6334TIP3   OH240636   3.191   1.314   1.893 -0.1958  0.2048 -0.4372
 6334TIP3    H140637   3.187   1.241   1.954  1.7924  1.8899  1.9355
 6334TIP3    H240638   3.285   1.326   1.875 -0.3265  2.7967  0.1715
 6335TIP3   OH240639   6.175   5.693   3.578 -0.0370  0.0199 -0.6346
 6335TIP3    H140640   6.267   5.699   3.552  0.8124  2.5280  2.2849
 6335TIP3    H240641   6.129   5.747   3.514  1.0529  1.3034 -0.3875
 6336TIP3   OH240642   5.847   0.629   2.199 -0.6175  0.1544 -0.7128
 6336TIP3    H140643   5.902   0.691   2.150 -1.0670 -0.5282 -2.1391
 6336TIP3    H240644   5.883   0.630   2.288  0.5798  1.0299 -1.1809
 6337TIP3   OH240645   1.353   1.669   1.000 -0.0861 -0.2783  0.1728
 6337TIP3    H140646   1.315   1.709   0.921 -2.1997 -0.3385  1.1045
 6337TIP3    H240647   1.310   1.584   1.007 -2.2166  0.8806  2.9191
 6338TIP3   OH240648   5.255   2.483   3.714  0.4379 -0.3737 -0.1047
 6338TIP3    H140649   5.315   2.412   3.691 -0.8297 -2.0319  1.4046
 6338TIP3    H240650   5.203   2.448   3.786 -0.1369  2.1850  0.8307
 6339TIP3   OH240651   2.433   1.200   8.777 -0.6085  0.0849  0.3260
 6339TIP3    H140652   2.350   1.154   8.767 -0.7850  0.6921 -1.4573
 6339TIP3    H240653   2.409   1.293   8.773  0.2267  0.2589 -1.1621
 6340TIP3   OH240654   0.735   2.501   2.235  0.9156  0.2757 -0.1463
 6340TIP3    H140655   0.698   2.581   2.197 -0.8751 -0.4945 -0.1615
 6340TIP3    H240656   0.702   2.499   2.325  1.4928 -0.1121  0.0614
 6341TIP3   OH240657   3.565   5.386   8.497 -0.1850 -0.3384  0.6473
 6341TIP3    H140658   3.513   5.446   8.444 -0.6872 -0.5593  0.8819
 6341TIP3    H240659   3.610   5.330   8.434  0.2006  0.2152  0.4314
 6342TIP3   OH240660   4.406   1.107   8.810 -0.3046  0.5283 -0.4354
 6342TIP3    H140661   4.400   1.155   8.893 -0.7815 -0.3297  0.0388
 6342TIP3    H240662   4.393   1.174   8.743  1.0002  1.3956  0.1450
 6343TIP3   OH240663   2.855   2.668   8.456  0.5530 -0.3348 -0.0661
 6343TIP3    H140664   2.919   2.613   8.410 -0.7992 -0.9516 -1.2791
 6343TIP3    H240665   2.847   2.747   8.403 -1.7045 -1.4423 -1.5180
 6344TIP3   OH240666   3.633   4.306   0.148  0.4141  0.0519  0.4561
 6344TIP3    H140667   3.672   4.358   0.218 -0.4629 -0.6294  1.4847
 6344TIP3    H240668   3.542   4.335   0.143  0.6827  0.7601 -1.0851
 6345TIP3   OH240669   0.643   6.354   8.615 -0.7644 -0.2015 -0.0390
 6345TIP3    H140670   0.638   6.387   8.526 -0.5646  0.6372  0.2573
 6345TIP3    H240671   0.705   6.281   8.610  1.7814  1.8237 -0.0224
 6346TIP3   OH240672   1.999   0.272   3.585  1.0541  0.5769  0.8811
 6346TIP3    H140673   1.969   0.350   3.538 -0.5658  0.0978  1.0795
 6346TIP3    H240674   1.944   0.201   3.553  2.1545 -0.4019  1.0936
 6347TIP3   OH240675   2.657   4.620   1.408 -0.4622 -0.2217  0.1218
 6347TIP3    H140676   2.749   4.596   1.419  0.0590  0.6404 -1.9643
 6347TIP3    H240677   2.637   4.598   1.317 -2.0386  0.5790  0.2401
 6348TIP3   OH240678   3.364   5.023   1.063  0.0977  0.2571  0.2546
 6348TIP3    H140679   3.289   5.035   1.121 -1.2785 -0.1572 -1.3410
 6348TIP3    H240680   3.401   5.110   1.052 -2.4750  1.2138 -1.8342
 6349TIP3   OH240681   0.144   0.088   1.110 -0.3913 -0.1541  0.3497
 6349TIP3    H140682   0.066   0.142   1.128 -2.4873 -2.7163 -0.4132
 6349TIP3    H240683   0.148   0.082   1.015 -0.4399 -1.6303  0.4268
 6350TIP3   OH240684   5.888   1.169   1.972 -0.5051 -0.4346 -0.0478
 6350TIP3    H140685   5.895   1.127   2.058  0.0462 -0.1156  0.0692
 6350TIP3    H240686   5.855   1.100   1.915  0.1587 -0.9671  0.1957
 6351TIP3   OH240687   2.482   3.438   1.915  0.0933 -0.2678  0.0763
 6351TIP3    H140688   2.444   3.501   1.977 -0.8652 -0.1778 -0.5855
 6351TIP3    H240689   2.522   3.371   1.971  1.3526  1.0412  0.7907
 6352TIP3   OH240690   0.376   2.141   0.099 -0.5712 -0.4607  0.3212
 6352TIP3    H140691   0.299   2.160   0.152 -2.1501 -2.4994 -1.0923
 6352TIP3    H240692   0.382   2.214   0.038 -1.2337 -0.1673  0.6044
 6353TIP3   OH240693   6.058   6.765   8.213  0.2048 -0.0449  0.6136
 6353TIP3    H140694   6.150   6.738   8.208 -0.0470 -0.8166 -0.0257
 6353TIP3    H240695   6.013   6.690   8.251 -0.0065  0.7530  1.9848
 6354TIP3   OH240696   2.040   3.820   0.228 -0.6346  0.3929  0.0405
 6354TIP3    H140697   1.947   3.829   0.207 -0.6927 -0.0762  0.0834
 6354TIP3    H240698   2.085   3.853   0.150 -0.8454 -0.5113 -0.4921
 6355TIP3   OH240699   5.026   0.359   2.166  0.2723  0.0805 -0.1785
 6355TIP3    H140700   5.045   0.277   2.211 -1.1985 -0.4748 -0.5229
 6355TIP3    H240701   4.956   0.400   2.217  0.1127  0.5080 -0.7235
 6356TIP3   OH240702   4.934   1.946   2.992  0.3625 -0.6467  0.0481
 6356TIP3    H140703   4.922   1.955   2.898  1.2724 -0.2849 -0.0471
 6356TIP3    H240704   4.989   1.869   3.003 -0.1362 -0.9670  0.3147
 6357TIP3   OH240705   3.220   0.382   8.666  0.1850  0.2263  0.8329
 6357TIP3    H140706   3.213   0.296   8.707  0.4295 -0.2675 -0.1442
 6357TIP3    H240707   3.290   0.426   8.715  2.6134 -1.4573 -0.8662
 6358TIP3   OH240708   0.376   5.056   0.851 -0.0695 -0.1347  0.2127
 6358TIP3    H140709   0.397   5.024   0.763 -0.6301  2.4362 -0.9315
 6358TIP3    H240710   0.412   4.990   0.910 -1.0102 -2.7414 -1.9285
 6359TIP3   OH240711   3.645   6.432   3.256  0.0504  0.0465  0.0348
 6359TIP3    H140712   3.558   6.433   3.296 -0.5731  2.8182 -1.1605
 6359TIP3    H240713   3.630   6.402   3.167  0.3196  0.3416 -0.1135
 6360TIP3   OH240714   2.090   1.145   2.714  0.0980  0.2082  0.7430
 6360TIP3    H140715   1.998   1.125   2.734  0.1827 -1.2728 -0.1875
 6360TIP3    H240716   2.106   1.100   2.632  1.9610 -0.4045  1.4117
 6361TIP3   OH240717   3.788   4.215   0.447 -0.0932  0.8898 -0.5408
 6361TIP3    H140718   3.711   4.232   0.501 -2.0768 -0.3336 -2.7990
 6361TIP3    H240719   3.828   4.138   0.486  0.4472  1.9267  1.0520
 6362TIP3   OH240720   3.019   2.946   1.064 -0.3276 -0.2584 -0.4283
 6362TIP3    H140721   3.041   2.868   1.014 -0.8391 -0.3647 -0.4889
 6362TIP3    H240722   2.923   2.949   1.063 -0.3059  0.9034 -1.2642
 6363TIP3   OH240723   5.920   6.493   0.264 -0.1380 -0.1664  0.0199
 6363TIP3    H140724   5.896   6.432   0.194  0.5973 -0.9353  0.4124
 6363TIP3    H240725   5.837   6.520   0.303 -0.6616  1.4474 -2.0850
 6364TIP3   OH240726   3.519   2.534   1.961 -0.5285 -0.0625 -0.1135
 6364TIP3    H140727   3.588   2.599   1.948 -0.2718  0.7079  3.8497
 6364TIP3    H240728   3.559   2.466   2.014 -2.1453 -0.8729  0.1292
 6365TIP3   OH240729   0.445   4.590   8.264 -0.2816 -0.2709  0.4194
 6365TIP3    H140730   0.472   4.545   8.344  2.7877  1.8134  0.7337
 6365TIP3    H240731   0.516   4.571   8.202 -1.2317  0.4068 -0.9134
 6366TIP3   OH240732   2.972   1.304   2.821  0.3095 -0.4300 -0.2735
 6366TIP3    H140733   2.996   1.236   2.885  0.4038 -1.2797 -1.1783
 6366TIP3    H240734   3.031   1.288   2.747 -0.3043  0.0649 -0.8738
 6367TIP3   OH240735   4.727   2.129   0.904 -0.4425  0.1572  0.1391
 6367TIP3    H140736   4.648   2.085   0.872 -1.2282  1.6647 -0.0947
 6367TIP3    H240737   4.764   2.068   0.969 -0.5216 -1.5837 -1.3540
 6368TIP3   OH240738   5.358   6.514   2.820 -0.5379 -0.0081 -0.7541
 6368TIP3    H140739   5.314   6.598   2.832 -1.3178 -0.6033  0.7670
 6368TIP3    H240740   5.449   6.532   2.842 -0.9207  0.1984  0.7788
 6369TIP3   OH240741   6.283   1.139   2.012 -0.3163 -0.2636 -0.1989
 6369TIP3    H140742   6.345   1.067   2.023  0.4521  0.3267 -0.5486
 6369TIP3    H240743   6.198   1.096   2.006  0.1506 -1.1692 -0.6393
 6370TIP3   OH240744   3.750   0.565   1.729  0.0439 -0.3572  0.3287
 6370TIP3    H140745   3.708   0.518   1.800  1.2675 -1.3202  0.4466
 6370TIP3    H240746   3.792   0.640   1.772 -0.4391 -0.1116  0.3879
 6371TIP3   OH240747   4.083   2.440   1.725  0.2611  0.0387 -0.1257
 6371TIP3    H140748   4.071   2.494   1.803  0.3390 -2.2394  1.5739
 6371TIP3    H240749   4.121   2.358   1.758 -1.2500 -1.6606 -2.2972
 6372TIP3   OH240750   5.838   6.449   8.855 -0.0946 -0.3186  0.0305
 6372TIP3    H140751   5.887   6.498   8.789  0.1213 -0.6848 -0.0871
 6372TIP3    H240752   5.758   6.499   8.867 -0.8216 -1.0055 -1.6080
 6373TIP3   OH240753   1.948   3.200   0.137 -0.0194 -0.1663  0.4100
 6373TIP3    H140754   2.030   3.163   0.169  0.0093 -1.7602 -1.3128
 6373TIP3    H240755   1.904   3.127   0.094 -1.1913  1.2210 -0.8759
 6374TIP3   OH240756   5.894   4.908   2.569 -0.3246  0.2875  0.7720
 6374TIP3    H140757   5.958   4.837   2.574  0.6590  0.7751 -2.4544
 6374TIP3    H240758   5.818   4.869   2.527 -0.7249  0.5804  1.2208
 6375TIP3   OH240759   5.620   1.072   4.151  0.0043  0.1724  0.0803
 6375TIP3    H140760   5.656   0.987   4.177  0.2141  0.3947  0.5181
 6375TIP3    H240761   5.570   1.102   4.227 -1.3094 -0.2293 -0.5965
 6376TIP3   OH240762   1.619   0.759   8.816 -0.1444  0.0531 -0.4142
 6376TIP3    H140763   1.568   0.719   8.745  0.9913 -1.3880 -0.4715
 6376TIP3    H240764   1.661   0.835   8.775 -0.5652  0.0248 -0.9138
 6377TIP3   OH240765   1.249   1.436   2.011  0.2789  0.3973  0.1415
 6377TIP3    H140766   1.308   1.479   2.074  1.1491  1.7053 -1.4694
 6377TIP3    H240767   1.162   1.463   2.038  0.7555  2.6555 -0.3386
 6378TIP3   OH240768   6.797   5.979   2.246  0.0724  0.3917 -0.3354
 6378TIP3    H140769   6.855   5.905   2.263  0.7677  0.8676 -0.6105
 6378TIP3    H240770   6.787   5.980   2.151  0.8724  1.2495 -0.4169
 6379TIP3   OH240771   4.213   2.596   0.370  0.2482  0.0851  0.7814
 6379TIP3    H140772   4.275   2.527   0.348 -0.7970 -0.8605  0.6937
 6379TIP3    H240773   4.228   2.613   0.463 -1.1095 -2.0347  1.4709
 6380TIP3   OH240774   6.097   3.030   1.278  0.2352  0.3488 -0.1780
 6380TIP3    H140775   6.137   3.117   1.280 -0.0646  0.4883 -0.1838
 6380TIP3    H240776   6.020   3.038   1.335 -0.1487  0.2646 -0.6742
 6381TIP3   OH240777   1.924   5.522   0.152 -0.5311 -0.2520  0.3254
 6381TIP3    H140778   1.987   5.582   0.193 -0.4041  0.7548 -1.2406
 6381TIP3    H240779   1.961   5.435   0.164  1.7740  0.3898 -1.4883
 6382TIP3   OH240780   6.135   4.666   2.941  0.6257  0.0516 -0.0412
 6382TIP3    H140781   6.118   4.743   2.886  0.8437  1.1424  1.3857
 6382TIP3    H240782   6.163   4.599   2.878 -0.5270  0.7990 -1.4368
 6383TIP3   OH240783   4.323   0.313   0.710  0.1579 -0.5036 -0.2795
 6383TIP3    H140784   4.291   0.364   0.636 -0.2598  0.2847  0.4192
 6383TIP3    H240785   4.297   0.223   0.690 -1.7800 -0.0251 -0.1652
 6384TIP3   OH240786   3.028   0.247   2.457  0.0149 -0.4273 -0.6330
 6384TIP3    H140787   3.007   0.167   2.505  0.5140 -1.2087 -1.6756
 6384TIP3    H240788   3.063   0.307   2.523 -2.7246 -0.0739  0.6618
 6385TIP3   OH240789   3.057   2.697   0.888 -0.5957  0.0265 -0.1365
 6385TIP3    H140790   3.150   2.680   0.876 -0.7807 -0.7440 -0.5236
 6385TIP3    H240791   3.014   2.614   0.867 -1.4902  0.8093 -1.5312
 6386TIP3   OH240792   5.258   0.371   1.145 -0.5797  0.3106 -0.2639
 6386TIP3    H140793   5.214   0.418   1.074 -0.0809  0.6133 -0.3771
 6386TIP3    H240794   5.342   0.414   1.153  0.0826 -0.8504 -0.6809
 6387TIP3   OH240795   0.908   6.301   0.738 -0.2003  0.4519  0.2633
 6387TIP3    H140796   0.874   6.277   0.824  0.8713  0.9307  0.8398
 6387TIP3    H240797   0.831   6.326   0.688 -1.0332 -1.3583  0.5508
 6388TIP3   OH240798   1.377   4.621   3.091 -0.3609  0.4461 -0.1780
 6388TIP3    H140799   1.415   4.623   3.179 -1.2081  1.6162  0.1911
 6388TIP3    H240800   1.452   4.616   3.032  0.2239 -0.1522  0.5998
 6389TIP3   OH240801   4.050   2.383   8.532 -0.3880  0.7458 -0.0666
 6389TIP3    H140802   3.987   2.455   8.531  0.2569  1.4001 -3.2147
 6389TIP3    H240803   4.135   2.425   8.542 -0.2205  0.0139  2.1824
 6390TIP3   OH240804   6.366   4.065   3.552 -0.6647  0.1474  0.4680
 6390TIP3    H140805   6.296   4.027   3.606 -1.2087  0.6521  0.1320
 6390TIP3    H240806   6.423   4.109   3.614 -0.5081 -0.4709  0.7712
 6391TIP3   OH240807   1.567   0.860   3.298 -1.0208 -0.1540  0.3356
 6391TIP3    H140808   1.657   0.892   3.290 -0.3644 -1.4443  1.9124
 6391TIP3    H240809   1.553   0.854   3.392 -2.1229 -1.6563  0.0980
 6392TIP3   OH240810   5.289   3.839   3.128 -0.2994 -0.2443  0.2293
 6392TIP3    H140811   5.301   3.750   3.161 -0.0853 -0.3347 -0.0819
 6392TIP3    H240812   5.378   3.875   3.125 -0.2211 -0.4953 -0.9460
 6393TIP3   OH240813   4.453   3.794   1.138 -0.8170  0.5992  0.1983
 6393TIP3    H140814   4.498   3.755   1.062  0.5102  1.4172  0.5455
 6393TIP3    H240815   4.398   3.723   1.171  1.3296 -0.9425  0.6499
 6394TIP3   OH240816   4.183   4.307   8.799 -0.8036 -0.3190 -0.2505
 6394TIP3    H140817   4.252   4.241   8.800 -1.4775 -1.0406  0.1843
 6394TIP3    H240818   4.187   4.344   8.711  0.4191 -0.0299 -0.0953
 6395TIP3   OH240819   6.467   0.528   7.896  0.8563 -0.4593  0.5526
 6395TIP3    H140820   6.376   0.499   7.890  0.8691 -0.2494 -1.4705
 6395TIP3    H240821   6.466   0.602   7.956 -0.5792  0.4555 -0.5367
 6396TIP3   OH240822   1.905   5.762   0.349  0.8086 -0.6182  0.5123
 6396TIP3    H140823   1.975   5.827   0.357 -0.5340  1.0408 -0.6725
 6396TIP3    H240824   1.866   5.759   0.436  0.9443  0.0792  0.6013
 6397TIP3   OH240825   4.025   0.452   0.272  0.1054 -0.3132 -0.4041
 6397TIP3    H140826   4.034   0.535   0.225 -1.1233  0.0247 -0.0834
 6397TIP3    H240827   4.040   0.385   0.206 -2.3169  0.1387 -1.5127
 6398TIP3   OH240828   6.564   5.053   3.386 -0.2156  0.0155 -0.1269
 6398TIP3    H140829   6.539   5.011   3.468 -0.5829 -0.2380 -0.3640
 6398TIP3    H240830   6.656   5.075   3.397  0.8233 -3.3450 -0.9861
 6399TIP3   OH240831   0.515   3.611   2.185 -0.0212  0.2906  0.3766
 6399TIP3    H140832   0.502   3.518   2.201  0.0147  0.2765  0.3234
 6399TIP3    H240833   0.568   3.615   2.105 -1.1730  0.3869 -0.4033
 6400TIP3   OH240834   5.661   1.623   0.836  0.4970  0.0309 -0.1625
 6400TIP3    H140835   5.596   1.667   0.889  1.1426  1.0993 -0.2314
 6400TIP3    H240836   5.671   1.537   0.876 -0.9804 -0.1691 -0.1941
 6401TIP3   OH240837   0.679   4.791   2.740 -0.3727  0.3433 -0.5105
 6401TIP3    H140838   0.645   4.760   2.657  0.2669 -0.3248 -0.5399
 6401TIP3    H240839   0.772   4.766   2.739  0.0664  1.8483 -0.3220
 6402TIP3   OH240840   2.015   4.314   3.693 -0.2588  0.0291  0.0458
 6402TIP3    H140841   1.996   4.317   3.786  0.3167  2.2443  0.1502
 6402TIP3    H240842   2.031   4.221   3.674 -2.5501 -0.7661  1.6508
 6403TIP3   OH240843   5.754   2.000   8.526  0.4623 -0.1728 -0.5695
 6403TIP3    H140844   5.836   1.956   8.501  0.3692 -0.8957  0.3372
 6403TIP3    H240845   5.693   1.977   8.456  0.0143 -2.7220  0.5632
 6404TIP3   OH240846   1.721   5.907   3.874 -0.3713 -0.1424  0.1991
 6404TIP3    H140847   1.649   5.845   3.882  0.7234 -1.6246 -0.9228
 6404TIP3    H240848   1.773   5.893   3.954  0.3019 -1.3017 -0.4080
 6405TIP3   OH240849   2.931   0.389   8.174  0.0196 -0.6815  0.5242
 6405TIP3    H140850   2.888   0.343   8.101  0.0428 -1.0317  0.7329
 6405TIP3    H240851   2.949   0.321   8.238 -1.2850 -0.1538  1.4867
 6406TIP3   OH240852   2.188   3.492   3.707  0.4815 -0.1527  0.2239
 6406TIP3    H140853   2.225   3.444   3.782  1.3378 -1.4809 -0.9996
 6406TIP3    H240854   2.233   3.456   3.631 -0.7738  0.7602 -1.0021
 6407TIP3   OH240855   1.232   5.514   2.255  0.2907 -0.0920  0.1598
 6407TIP3    H140856   1.323   5.494   2.236 -0.5265 -2.0430 -2.1555
 6407TIP3    H240857   1.212   5.589   2.198  0.7058  1.1699  1.5932
 6408TIP3   OH240858   4.337   5.219   3.177  0.4385 -0.3403 -0.4332
 6408TIP3    H140859   4.394   5.294   3.193  1.3555 -0.7471 -1.5821
 6408TIP3    H240860   4.397   5.145   3.163 -0.3361 -0.7874 -1.6473
 6409TIP3   OH240861   6.552   2.622   0.072 -0.5956 -0.3899  0.3533
 6409TIP3    H140862   6.535   2.701   0.020 -0.6949 -0.2431  0.6070
 6409TIP3    H240863   6.478   2.617   0.133 -1.3684 -1.5003 -0.6473
 6410TIP3   OH240864   4.498   2.933   0.809  0.6934  0.2764 -0.5818
 6410TIP3    H140865   4.586   2.896   0.800  0.7938  0.6588 -1.2745
 6410TIP3    H240866   4.451   2.903   0.731  0.2533  0.1936 -0.2881
 6411TIP3   OH240867   4.017   3.701   1.243  0.2539 -0.6622  0.0606
 6411TIP3    H140868   4.000   3.741   1.328  0.5767 -0.0199 -0.1669
 6411TIP3    H240869   4.112   3.688   1.241  0.3109 -0.2411 -0.3792
 6412TIP3   OH240870   3.439   5.431   2.123  0.1677 -0.0058  0.6641
 6412TIP3    H140871   3.463   5.429   2.030 -0.4655  1.1718  0.4442
 6412TIP3    H240872   3.522   5.427   2.169  0.5849  0.5705  0.0026
 6413TIP3   OH240873   2.834   2.653   0.532  0.2706 -0.2059 -0.4058
 6413TIP3    H140874   2.851   2.737   0.575  1.8299 -0.2661 -0.8527
 6413TIP3    H240875   2.920   2.613   0.522 -0.5200 -2.3129  0.6688
 6414TIP3   OH240876   3.533   4.404   1.338 -0.3436 -0.4625  0.3490
 6414TIP3    H140877   3.480   4.473   1.379 -0.3092 -0.6950  0.7881
 6414TIP3    H240878   3.619   4.443   1.327 -0.6357 -0.0335 -0.4964
 6415TIP3   OH240879   2.549   4.792   3.948  0.1424  0.2899  0.1524
 6415TIP3    H140880   2.510   4.876   3.925  2.1633  0.8025 -1.7658
 6415TIP3    H240881   2.637   4.795   3.909  0.3948 -2.5842  0.3115
 6416TIP3   OH240882   0.175   3.402   8.031 -0.2736  0.0669 -0.0275
 6416TIP3    H140883   0.267   3.391   8.007 -0.5909  0.5062 -1.5400
 6416TIP3    H240884   0.157   3.329   8.090  1.9161  1.8494  3.1076
 6417TIP3   OH240885   2.359   4.853   0.912 -0.2246 -0.1689 -0.0587
 6417TIP3    H140886   2.306   4.923   0.950 -1.1292 -1.3597  0.9713
 6417TIP3    H240887   2.331   4.849   0.821  0.2459  1.1609 -0.2806
 6418TIP3   OH240888   4.061   6.159   1.335  0.1401  0.0215  0.4120
 6418TIP3    H140889   4.117   6.107   1.394 -1.3157 -1.3256  0.6592
 6418TIP3    H240890   4.114   6.170   1.256  1.8100  1.1569  1.6145
 6419TIP3   OH240891   5.995   3.893   0.943 -0.0840  0.0451  0.1107
 6419TIP3    H140892   5.963   3.976   0.908  0.6078 -0.6034 -2.2221
 6419TIP3    H240893   6.060   3.918   1.009  0.8881  1.4085 -1.2963
 6420TIP3   OH240894   2.122   5.722   0.748  0.0497  0.1265 -0.0252
 6420TIP3    H140895   2.208   5.748   0.715  0.0200 -0.8292 -0.9272
 6420TIP3    H240896   2.139   5.685   0.834  0.3276  1.3433  0.4616
 6421TIP3   OH240897   4.504   1.980   7.953  0.2951  0.1565  0.0857
 6421TIP3    H140898   4.410   2.000   7.959  0.0030 -0.4837 -1.6446
 6421TIP3    H240899   4.507   1.886   7.935  1.3023  0.0697  0.6648
 6422TIP3   OH240900   0.314   0.811   2.040  0.2173 -0.3057  0.1470
 6422TIP3    H140901   0.281   0.894   2.006 -0.3076 -0.5353  0.0868
 6422TIP3    H240902   0.276   0.745   1.982 -1.0257 -0.7366  1.4072
 6423TIP3   OH240903   4.526   3.805   1.573 -0.6191  0.0336 -0.0277
 6423TIP3    H140904   4.588   3.733   1.590 -0.2894 -0.3548 -2.4864
 6423TIP3    H240905   4.444   3.761   1.551 -0.8564  0.4502  0.0182
 6424TIP3   OH240906   4.864   4.432   8.249 -0.4259  0.1491  0.1371
 6424TIP3    H140907   4.931   4.426   8.316 -1.8920 -2.3484  1.5523
 6424TIP3    H240908   4.859   4.525   8.227  1.7953  0.7003  1.6667
 6425TIP3   OH240909   5.002   2.668   8.166  1.1153 -0.2494  0.0393
 6425TIP3    H140910   4.939   2.688   8.236  2.4835  0.8552  1.0144
 6425TIP3    H240911   4.999   2.746   8.110  1.5366 -0.2354  0.0370
 6426TIP3   OH240912   0.346   4.913   3.069 -0.0617 -0.9931 -0.1909
 6426TIP3    H140913   0.371   4.823   3.047 -2.2216 -2.3616  2.3822
 6426TIP3    H240914   0.395   4.933   3.149 -1.3399 -0.8032  0.5659
 6427TIP3   OH240915   2.563   0.598   1.396 -0.3554  0.0336 -0.0018
 6427TIP3    H140916   2.593   0.651   1.323  2.0578 -1.2149  0.0012
 6427TIP3    H240917   2.527   0.519   1.356 -0.2044 -0.0966  0.1170
 6428TIP3   OH240918   2.113   1.218   0.086 -0.0461 -0.4494  0.1807
 6428TIP3    H140919   2.052   1.261   0.025 -0.4748 -0.7904  0.3614
 6428TIP3    H240920   2.143   1.140   0.038 -1.1097 -1.2365  0.7356
 6429TIP3   OH240921   3.591   6.645   1.451  0.2829  0.5936 -0.6714
 6429TIP3    H140922   3.584   6.593   1.371 -1.7952  1.4835 -1.1413
 6429TIP3    H240923   3.671   6.614   1.493  0.9296 -0.5536 -2.6151
 6430TIP3   OH240924   5.631   3.412   0.196 -0.4957 -0.2515  0.7832
 6430TIP3    H140925   5.715   3.449   0.225  0.0914 -1.0661  0.1970
 6430TIP3    H240926   5.608   3.462   0.118  0.0858 -0.8186  0.2319
 6431TIP3   OH240927   1.572   3.925   3.291  0.0164 -0.5660 -0.4054
 6431TIP3    H140928   1.520   3.953   3.366  1.0614 -0.3036  0.2394
 6431TIP3    H240929   1.660   3.957   3.309  0.0151  0.7705 -2.4268
 6432TIP3   OH240930   1.874   1.893   8.877  0.6547  0.1805 -0.1270
 6432TIP3    H140931   1.790   1.848   8.875  0.3945  0.6629 -0.2005
 6432TIP3    H240932   1.938   1.824   8.863  0.3591 -0.4008  1.2282
 6433TIP3   OH240933   0.691   4.366   3.344 -0.2407 -0.3993 -0.1869
 6433TIP3    H140934   0.768   4.358   3.287 -0.2223 -1.2018 -0.0601
 6433TIP3    H240935   0.648   4.446   3.314  0.3273 -0.2540 -0.6474
 6434TIP3   OH240936   4.511   6.618   2.674 -0.0518 -0.3278  0.2635
 6434TIP3    H140937   4.563   6.633   2.752  2.7096  0.5907 -1.6105
 6434TIP3    H240938   4.545   6.536   2.637 -2.1622 -1.4269  0.5691
 6435TIP3   OH240939   1.475   1.117   0.762 -0.7346 -0.1686 -0.1484
 6435TIP3    H140940   1.555   1.155   0.799 -0.7214 -1.3869  1.1293
 6435TIP3    H240941   1.411   1.188   0.767  0.0440  0.5731 -0.4605
 6436TIP3   OH240942   2.758   4.779   8.839 -0.1276  0.5044  0.2736
 6436TIP3    H140943   2.674   4.811   8.805 -0.0765  1.0943  0.6978
 6436TIP3    H240944   2.777   4.835   8.913  0.5221  0.2011  0.3436
 6437TIP3   OH240945   5.436   0.310   1.803  0.2357  0.2547  0.3654
 6437TIP3    H140946   5.505   0.252   1.771 -0.8805 -0.5595 -0.6907
 6437TIP3    H240947   5.427   0.288   1.896  1.7588  0.7839  0.6575
 6438TIP3   OH240948   3.077   1.836   1.210  0.0654  0.3173 -0.3295
 6438TIP3    H140949   3.060   1.744   1.229  0.0152  0.2276 -0.8059
 6438TIP3    H240950   3.104   1.873   1.294  4.3364 -1.0894 -0.7976
 6439TIP3   OH240951   6.232   2.650   1.246  0.1629 -0.6656 -0.9580
 6439TIP3    H140952   6.204   2.706   1.318 -2.0819  0.1651 -2.3458
 6439TIP3    H240953   6.179   2.570   1.255 -0.8444 -0.1737 -2.1343
 6440TIP3   OH240954   5.675   6.308   2.105  0.0143  1.0338 -0.6291
 6440TIP3    H140955   5.744   6.323   2.170 -0.3793  0.3639 -0.0370
 6440TIP3    H240956   5.594   6.323   2.153 -0.2861  0.4163 -0.9399
 6441TIP3   OH240957   1.312   6.071   1.430  0.2422  0.1915 -0.4053
 6441TIP3    H140958   1.248   6.035   1.492  1.6559 -0.1356  0.9576
 6441TIP3    H240959   1.260   6.115   1.363 -1.4141 -0.9345  0.0865
 6442TIP3   OH240960   4.754   2.353   0.750 -0.4458  0.4559  0.2285
 6442TIP3    H140961   4.758   2.280   0.812  0.1310  0.7269  0.5133
 6442TIP3    H240962   4.706   2.317   0.675  1.0402 -0.6798 -0.2324
 6443TIP3   OH240963   6.184   6.010   3.590 -0.0687 -0.6587 -0.2330
 6443TIP3    H140964   6.146   6.098   3.590  0.2987 -0.4785  1.1929
 6443TIP3    H240965   6.276   6.023   3.568  0.0317 -0.6565  0.1798
 6444TIP3   OH240966   4.931   0.269   1.914  0.5884  0.3238 -0.1133
 6444TIP3    H140967   4.987   0.293   1.841 -0.0200  1.7659 -0.1412
 6444TIP3    H240968   4.979   0.298   1.992  0.7549 -0.2365 -0.0020
 6445TIP3   OH240969   2.906   4.066   1.228 -0.2374 -0.1926 -0.0043
 6445TIP3    H140970   2.836   4.051   1.165 -1.5405 -0.8120  1.5290
 6445TIP3    H240971   2.929   3.979   1.260 -0.7186  0.2012  1.5022
 6446TIP3   OH240972   3.690   3.546   0.203 -0.0891 -0.3627 -0.5511
 6446TIP3    H140973   3.706   3.632   0.165 -0.2826  0.7633  1.7306
 6446TIP3    H240974   3.775   3.502   0.198  0.9418  1.2589  1.2222
 6447TIP3   OH240975   4.596   1.043   2.126  0.0058 -0.3868 -0.4176
 6447TIP3    H140976   4.561   1.075   2.042  0.2861 -0.0526 -0.4101
 6447TIP3    H240977   4.670   0.987   2.101  1.2159  1.1227 -0.3470
 6448TIP3   OH240978   5.288   2.466   2.630  0.4490 -0.5963  0.1366
 6448TIP3    H140979   5.304   2.515   2.550 -0.1829 -0.7966 -0.1185
 6448TIP3    H240980   5.276   2.375   2.602  0.2835 -0.6798  0.4649
 6449TIP3   OH240981   6.510   0.446   1.593 -0.2617 -0.6030  0.0258
 6449TIP3    H140982   6.481   0.439   1.684  1.2146 -0.2392  0.5614
 6449TIP3    H240983   6.554   0.531   1.588 -1.7108  0.1264 -1.4782
 6450TIP3   OH240984   2.558   2.827   2.891 -0.3397  0.2828  0.5143
 6450TIP3    H140985   2.605   2.911   2.892  1.2583 -0.5366 -0.8164
 6450TIP3    H240986   2.577   2.789   2.977  0.3794  0.5353  0.4813
 6451TIP3   OH240987   2.097   5.889   2.094 -0.1127 -0.2056  0.0015
 6451TIP3    H140988   2.097   5.826   2.023  1.3449 -0.9728  0.6264
 6451TIP3    H240989   2.080   5.836   2.173  2.5834 -0.1573  0.7233
 6452TIP3   OH240990   1.160   6.668   2.387  0.3103 -0.3320 -0.4964
 6452TIP3    H140991   1.207   6.725   2.448  0.6411 -0.9738 -0.1326
 6452TIP3    H240992   1.221   6.595   2.372  0.5215  0.1571 -2.1526
 6453TIP3   OH240993   0.126   2.399   1.743  0.2684 -1.1276  0.2182
 6453TIP3    H140994   0.117   2.478   1.689  2.4213 -1.1973 -0.3197
 6453TIP3    H240995   0.039   2.360   1.742 -0.6362  0.7744 -0.2288
 6454TIP3   OH240996   3.896   0.459   2.858 -0.1363 -0.7788 -0.1471
 6454TIP3    H140997   3.904   0.466   2.953 -0.6488 -1.5424 -0.0349
 6454TIP3    H240998   3.907   0.365   2.840 -2.0819 -0.9581 -0.6155
 6455TIP3   OH240999   6.149   2.981   2.629 -0.2253  0.2849  0.3408
 6455TIP3    H141000   6.064   2.954   2.593 -0.1817  0.6856 -0.0756
 6455TIP3    H241001   6.200   2.900   2.634 -1.2604 -0.3105  2.4034
 6456TIP3   OH241002   3.097   0.674   2.902 -0.0520 -0.3064 -0.1832
 6456TIP3    H141003   3.104   0.659   2.996 -0.5231  1.7060  0.2174
 6456TIP3    H241004   3.177   0.723   2.880 -1.1028  1.4118 -0.3158
 6457TIP3   OH241005   1.235   4.878   3.008 -0.1779 -0.0319  0.0524
 6457TIP3    H141006   1.307   4.927   3.047 -1.2340  0.9541  0.8161
 6457TIP3    H241007   1.242   4.790   3.046  1.3999 -0.3779 -0.9133
 6458TIP3   OH241008   5.103   4.109   3.332  0.1477  0.6214 -0.2390
 6458TIP3    H141009   5.132   4.032   3.381 -0.0092 -0.6318 -2.0072
 6458TIP3    H241010   5.179   4.136   3.282  0.4499  2.1887  0.9821
 6459TIP3   OH241011   4.020   4.041   2.726 -0.2592 -0.4038 -0.1851
 6459TIP3    H141012   3.959   3.974   2.696 -0.4444 -1.1399  1.7243
 6459TIP3    H241013   4.106   4.007   2.704 -0.2983 -1.7446  1.5457
 6460TIP3   OH241014   3.856   2.604   8.520 -0.3537 -0.0452  0.0480
 6460TIP3    H141015   3.800   2.568   8.451  0.1857 -0.4887 -0.1600
 6460TIP3    H241016   3.840   2.699   8.517 -1.7959 -0.2453  0.6199
 6461TIP3   OH241017   0.263   6.555   2.188 -0.1540 -0.0321  0.1610
 6461TIP3    H141018   0.183   6.609   2.183  1.0334  1.8754  0.7484
 6461TIP3    H241019   0.235   6.477   2.236 -2.0903 -0.3002 -1.2482
 6462TIP3   OH241020   3.300   3.548   2.905  0.4373 -0.2050 -0.4644
 6462TIP3    H141021   3.209   3.576   2.900  0.4953  0.2337  0.5185
 6462TIP3    H241022   3.306   3.499   2.988  1.2518  0.4394 -0.1193
 6463TIP3   OH241023   2.734   5.969   1.987 -0.2183  0.0602  0.6163
 6463TIP3    H141024   2.699   6.003   2.069 -1.3586  1.4816 -0.4052
 6463TIP3    H241025   2.679   6.010   1.919  0.0232 -1.8621 -0.8123
 6464TIP3   OH241026   6.606   3.218   3.556 -0.0071 -0.4911  0.1969
 6464TIP3    H141027   6.636   3.306   3.577  1.3330 -0.7669 -0.4536
 6464TIP3    H241028   6.511   3.221   3.567  0.0060  1.0797 -0.0216
 6465TIP3   OH241029   5.366   3.433   3.629 -0.5586 -0.0752  0.0712
 6465TIP3    H141030   5.358   3.521   3.667  1.0527  0.7817 -1.3866
 6465TIP3    H241031   5.307   3.434   3.554  1.0662  0.6367 -1.2820
 6466TIP3   OH241032   1.149   1.730   2.989  0.1425  0.1026 -0.3900
 6466TIP3    H141033   1.094   1.670   2.939 -0.5257  0.5224 -0.1771
 6466TIP3    H241034   1.237   1.693   2.984 -0.4547 -1.6038  0.7752
 6467TIP3   OH241035   1.001   1.727   2.103 -0.4297  0.0075  0.4184
 6467TIP3    H141036   1.053   1.656   2.141  0.0596  0.5730  0.8401
 6467TIP3    H241037   0.921   1.685   2.071  0.2146 -0.8555 -0.0974
 6468TIP3   OH241038   3.643   1.530   1.844  0.6683 -0.5864 -0.1164
 6468TIP3    H141039   3.697   1.605   1.816 -1.6037  1.5486  0.8552
 6468TIP3    H241040   3.610   1.556   1.930 -2.9785 -1.1229 -1.2247
 6469TIP3   OH241041   3.043   5.614   2.302  0.2194  0.0546 -0.3529
 6469TIP3    H141042   3.055   5.554   2.228 -1.2692  0.3257 -0.8522
 6469TIP3    H241043   3.131   5.644   2.323  0.5418  2.1880 -3.9015
 6470TIP3   OH241044   2.612   4.262   2.511 -0.0672  0.3499 -0.1280
 6470TIP3    H141045   2.556   4.328   2.553 -0.6723 -0.0801 -0.2451
 6470TIP3    H241046   2.668   4.230   2.582 -1.2137 -0.5080  0.4137
 6471TIP3   OH241047   3.490   3.792   3.185 -0.2926 -0.8464 -0.6287
 6471TIP3    H141048   3.408   3.825   3.221  0.8580  0.2790  1.1256
 6471TIP3    H241049   3.552   3.865   3.195  0.8665 -1.5586 -2.1611
 6472TIP3   OH241050   0.950   4.030   8.739 -0.5967  0.2704 -0.2466
 6472TIP3    H141051   0.878   4.032   8.676 -1.1396  1.4086  0.3735
 6472TIP3    H241052   1.000   3.951   8.716 -0.3815  0.9984 -2.5043
 6473TIP3   OH241053   5.848   3.373   0.977 -0.0138  0.1276 -0.0632
 6473TIP3    H141054   5.789   3.420   1.037  0.7702 -0.0672  0.8975
 6473TIP3    H241055   5.934   3.379   1.019  0.0459 -2.5992  0.4099
 6474TIP3   OH241056   3.694   5.132   2.981 -0.0081 -0.5655 -0.2483
 6474TIP3    H141057   3.757   5.198   3.012  0.3343 -1.3947  0.9058
 6474TIP3    H241058   3.609   5.173   2.992  0.0871 -0.8187  1.9482
 6475TIP3   OH241059   2.845   2.966   2.524  0.2304  0.0379 -0.1378
 6475TIP3    H141060   2.841   2.961   2.619  3.3051 -1.1291  0.0746
 6475TIP3    H241061   2.858   3.058   2.504  0.3495  0.1932  0.6476
 6476TIP3   OH241062   2.252   0.440   1.146 -0.3626 -0.2154  0.2546
 6476TIP3    H141063   2.189   0.457   1.076 -0.7382 -0.2149  0.5913
 6476TIP3    H241064   2.310   0.373   1.110  0.3923  0.8760 -0.6264
 6477TIP3   OH241065   2.853   1.535   2.311 -0.7760 -0.5374 -0.3190
 6477TIP3    H141066   2.784   1.485   2.354 -0.9928 -0.6694 -0.8155
 6477TIP3    H241067   2.925   1.535   2.374 -1.2643 -0.2971  0.2537
 6478TIP3   OH241068   3.286   5.548   2.862  0.0313 -0.1722  0.2133
 6478TIP3    H141069   3.333   5.590   2.790  1.7941  0.6846  1.7847
 6478TIP3    H241070   3.241   5.619   2.907 -2.2874 -0.8872 -0.8110
 6479TIP3   OH241071   1.093   5.386   2.950  0.1810  0.1167  0.0708
 6479TIP3    H141072   1.097   5.400   2.855 -1.1651 -0.1886 -0.0538
 6479TIP3    H241073   1.131   5.299   2.963  0.4773  0.2071 -0.1687
 6480TIP3   OH241074   4.087   1.519   8.656  0.1272 -0.0429  0.2705
 6480TIP3    H141075   4.148   1.565   8.714  0.9461  0.7732 -1.1883
 6480TIP3    H241076   4.141   1.489   8.583 -1.0359 -0.2556 -0.5278
 6481TIP3   OH241077   0.545   2.656   3.594 -0.0894 -0.0267  0.1406
 6481TIP3    H141078   0.497   2.719   3.540 -0.1605 -0.7521 -0.6638
 6481TIP3    H241079   0.518   2.677   3.684  0.4561  1.5456 -0.0410
 6482TIP3   OH241080   3.676   1.816   2.912 -0.0764  0.1792  0.1637
 6482TIP3    H141081   3.682   1.725   2.883 -1.0818  0.0957  0.1953
 6482TIP3    H241082   3.592   1.822   2.957 -0.0398  1.1390  0.1276
 6483TIP3   OH241083   2.518   3.930   2.790  0.1024  0.4652 -0.2523
 6483TIP3    H141084   2.503   3.843   2.753  0.1135  0.5512 -0.4641
 6483TIP3    H241085   2.553   3.914   2.877  1.3084  0.2449 -0.7594
 6484TIP3   OH241086   5.713   5.352   2.266 -0.2036 -0.2875  0.0525
 6484TIP3    H141087   5.640   5.385   2.213  0.1134 -0.4743 -0.5037
 6484TIP3    H241088   5.678   5.273   2.307 -0.3310 -0.3518 -0.1761
 6485TIP3   OH241089   2.975   5.631   8.857 -0.1154  0.5548  0.1919
 6485TIP3    H141090   2.923   5.633   8.776  0.2568 -1.9230 -0.1866
 6485TIP3    H241091   3.066   5.638   8.827  0.0250 -0.4091  0.3439
 6486TIP3   OH241092   6.584   4.969   0.892  0.4384 -0.0640  0.3576
 6486TIP3    H141093   6.509   4.912   0.910  0.5256 -0.4017 -0.3370
 6486TIP3    H241094   6.549   5.037   0.833 -0.1368  1.7104  2.5898
 6487TIP3   OH241095   4.498   3.883   8.777 -0.4971 -0.1740  0.2529
 6487TIP3    H141096   4.530   3.821   8.712  0.1727  0.1588  0.2630
 6487TIP3    H241097   4.523   3.844   8.861 -0.2556  0.0071  0.2659
 6488TIP3   OH241098   0.707   1.786   2.289 -0.1178  0.4107 -0.0265
 6488TIP3    H141099   0.695   1.848   2.218 -0.9107  0.5251  0.2000
 6488TIP3    H241100   0.636   1.804   2.350 -1.3212 -1.7249 -0.6819
 6489TIP3   OH241101   4.182   6.787   8.776  0.5048 -0.3974 -0.0768
 6489TIP3    H141102   4.254   6.813   8.718 -1.4929 -0.0288 -2.5509
 6489TIP3    H241103   4.103   6.802   8.724 -1.4097 -0.5651  2.6045
 6490TIP3   OH241104   2.854   0.249   8.552  0.0573  0.0150  0.2301
 6490TIP3    H141105   2.884   0.332   8.589 -0.3621  0.0573  0.4748
 6490TIP3    H241106   2.905   0.239   8.471  2.6701 -1.1797  1.8977
 6491TIP3   OH241107   3.339   6.788   1.477 -0.6863  0.4605 -0.6555
 6491TIP3    H141108   3.317   6.812   1.567  0.1163 -0.0734 -0.3089
 6491TIP3    H241109   3.424   6.745   1.483 -0.6102  0.4338 -1.6759
 6492TIP3   OH241110   5.651   3.165   3.361  0.3476  0.2809 -0.6577
 6492TIP3    H141111   5.633   3.081   3.403  0.5467  1.1180  1.1847
 6492TIP3    H241112   5.577   3.179   3.302 -0.5186 -0.4523  0.2210
 6493TIP3   OH241113   4.715   6.497   2.306 -0.5211 -0.5541  0.0426
 6493TIP3    H141114   4.678   6.585   2.303 -1.2728 -0.8459  0.4961
 6493TIP3    H241115   4.771   6.491   2.229  0.1544  0.5939  0.4261
 6494TIP3   OH241116   2.909   2.059   0.659 -0.1900  0.0832  0.7843
 6494TIP3    H141117   2.960   2.140   0.660  0.6565 -0.4492  1.6961
 6494TIP3    H241118   2.972   1.991   0.638 -0.7636 -0.4435  0.7290
 6495TIP3   OH241119   3.171   3.715   1.954  0.0074 -0.1589  0.0007
 6495TIP3    H141120   3.258   3.731   1.918 -0.4559  1.3370 -0.5633
 6495TIP3    H241121   3.187   3.675   2.040  1.2681  0.5217  0.1048
 6496TIP3   OH241122   4.831   4.703   0.411  0.3714 -0.1578  0.1797
 6496TIP3    H141123   4.824   4.785   0.362 -0.1619  0.3937  1.1535
 6496TIP3    H241124   4.843   4.636   0.344 -0.6123  0.5468 -0.7252
 6497TIP3   OH241125   1.832   6.400   1.895  0.0826 -0.3960  0.0976
 6497TIP3    H141126   1.752   6.448   1.912  0.8195  0.6290  0.8083
 6497TIP3    H241127   1.822   6.366   1.805 -0.7895  0.4015 -0.1116
 6498TIP3   OH241128   0.857   0.986   2.330 -0.4037  0.0526 -0.3294
 6498TIP3    H141129   0.906   1.066   2.312  0.3359 -0.4828 -0.7418
 6498TIP3    H241130   0.863   0.975   2.425 -0.2956  0.3515 -0.3019
 6499TIP3   OH241131   3.059   1.205   2.216  0.2493  0.4563  0.0389
 6499TIP3    H141132   3.008   1.208   2.297 -0.7742  1.1088 -0.5919
 6499TIP3    H241133   3.043   1.117   2.181 -1.0434  0.8602 -0.4802
 6500TIP3   OH241134   0.869   4.295   0.561  0.1959  0.1284  0.0689
 6500TIP3    H141135   0.809   4.365   0.585  1.0583  0.7442  0.4694
 6500TIP3    H241136   0.812   4.223   0.534 -0.7150  0.7255  0.3581
 6501TIP3   OH241137   3.387   6.247   8.164 -0.3126  0.3960 -0.5256
 6501TIP3    H141138   3.466   6.282   8.205  0.3505  1.1253 -2.3204
 6501TIP3    H241139   3.315   6.280   8.218  0.5859 -0.9573  1.6278
 6502TIP3   OH241140   4.820   3.690   1.078  0.1869  0.5920 -0.5241
 6502TIP3    H141141   4.794   3.605   1.113  2.8295  0.1944  0.7676
 6502TIP3    H241142   4.768   3.701   0.998 -0.2650 -2.1771 -0.6986
 6503TIP3   OH241143   6.270   0.235   2.204 -0.2019  0.5145 -0.3387
 6503TIP3    H141144   6.190   0.279   2.176 -0.9476  1.1689  2.5408
 6503TIP3    H241145   6.340   0.298   2.186 -0.6455  0.9398 -0.5984
 6504TIP3   OH241146   2.247   1.823   0.044 -0.1476  0.2339 -0.1169
 6504TIP3    H141147   2.322   1.766   0.024  0.5142  1.7956 -2.4820
 6504TIP3    H241148   2.246   1.828   0.139 -1.0395 -4.6644  0.3862
 6505TIP3   OH241149   4.368   6.139   8.590  0.1674  0.0046  0.2290
 6505TIP3    H141150   4.281   6.171   8.611 -1.0443 -3.4852  1.2400
 6505TIP3    H241151   4.354   6.074   8.521  2.1092  0.0213 -0.2412
 6506TIP3   OH241152   6.138   6.152   0.963 -0.1421  0.0281  0.0803
 6506TIP3    H141153   6.111   6.061   0.977 -1.3243  0.2691 -0.5060
 6506TIP3    H241154   6.176   6.153   0.876  1.9040 -0.3215  0.9302
 6507TIP3   OH241155   1.940   5.206   0.846  0.2771  1.1507  0.1047
 6507TIP3    H141156   1.927   5.132   0.905 -1.0223 -0.8808 -2.4995
 6507TIP3    H241157   1.853   5.244   0.834  0.5453  1.6377 -0.3504
 6508TIP3   OH241158   5.186   1.856   0.301  1.1572 -0.2683 -0.4433
 6508TIP3    H141159   5.255   1.904   0.345  2.0224 -2.9114  1.3832
 6508TIP3    H241160   5.182   1.893   0.213  1.6500  3.0432  0.8009
 6509TIP3   OH241161   5.404   1.359   0.475  0.3056 -0.3252  0.1267
 6509TIP3    H141162   5.411   1.350   0.380  1.5144 -3.8757  0.3857
 6509TIP3    H241163   5.494   1.361   0.506 -0.0553 -0.4382  1.2479
 6510TIP3   OH241164   5.748   2.423   3.631  0.5615  0.0293 -0.1641
 6510TIP3    H141165   5.776   2.486   3.697  2.1411  0.5496 -1.2737
 6510TIP3    H241166   5.811   2.352   3.636 -0.0538 -0.5427 -0.2659
 6511TIP3   OH241167   2.110   0.298   2.908  0.8952  0.1365  0.0538
 6511TIP3    H141168   2.030   0.263   2.947  2.0052 -1.5120  0.9737
 6511TIP3    H241169   2.079   0.362   2.844 -1.1645 -0.6762  0.1460
 6512TIP3   OH241170   1.661   2.931   0.619  0.2768 -0.0247 -0.7239
 6512TIP3    H141171   1.676   2.836   0.610  1.3852  0.0185  0.3375
 6512TIP3    H241172   1.733   2.971   0.570 -0.1970  0.2795 -1.1793
 6513TIP3   OH241173   6.149   0.654   2.075 -0.2882  0.2436 -0.2782
 6513TIP3    H141174   6.225   0.675   2.129 -1.3104  0.1186  1.2654
 6513TIP3    H241175   6.113   0.574   2.115 -0.4437 -0.4918 -1.8318
 6514TIP3   OH241176   2.293   4.195   8.104 -0.2595 -0.0417 -0.0196
 6514TIP3    H141177   2.205   4.195   8.066  0.2092  0.1817 -1.1645
 6514TIP3    H241178   2.324   4.284   8.092 -0.6638  0.4976  2.3837
 6515TIP3   OH241179   6.644   6.544   1.939 -0.0321  0.4199  0.1607
 6515TIP3    H141180   6.578   6.530   2.006 -1.5507  2.0779 -0.8786
 6515TIP3    H241181   6.621   6.482   1.869  1.3656 -1.0947  0.9900
 6516TIP3   OH241182   4.508   6.635   3.276  0.7327 -0.6053  0.6461
 6516TIP3    H141183   4.429   6.587   3.251  0.5782 -0.9338  1.7066
 6516TIP3    H241184   4.488   6.671   3.362  1.2774  0.4058  0.3639
 6517TIP3   OH241185   1.968   6.595   0.798  0.4452  0.7085 -0.8987
 6517TIP3    H141186   1.878   6.623   0.784  0.3210  0.0327 -1.5379
 6517TIP3    H241187   1.972   6.572   0.891  0.4673  2.4675 -0.4408
 6518TIP3   OH241188   3.832   0.054   0.694 -0.0630 -0.0971  0.0404
 6518TIP3    H141189   3.877   0.132   0.662 -1.5640  0.8475  0.1388
 6518TIP3    H241190   3.901  -0.012   0.702  1.0909  0.9520 -0.8734
 6519TIP3   OH241191   4.001   4.027   1.627  0.2284  0.1525  0.0297
 6519TIP3    H141192   4.052   4.019   1.546  0.9473 -0.4994  0.5368
 6519TIP3    H241193   4.010   3.942   1.670  1.0316  0.9330  1.4793
 6520TIP3   OH241194   5.955   6.446   3.625  0.4095  0.2892  0.6119
 6520TIP3    H141195   5.928   6.372   3.572  0.0475  0.8484  0.0057
 6520TIP3    H241196   6.050   6.447   3.619  0.3436  0.6503 -0.4396
 6521TIP3   OH241197   3.671   3.247   8.058  0.6295 -0.1122 -0.3935
 6521TIP3    H141198   3.708   3.255   8.146  0.3674 -0.0482 -0.2895
 6521TIP3    H241199   3.746   3.260   8.000  0.8325 -0.3180 -0.1776
 6522TIP3   OH241200   4.770   6.587   0.572  0.2200  0.9399 -0.4775
 6522TIP3    H141201   4.784   6.528   0.498  1.7563 -0.7462  1.0648
 6522TIP3    H241202   4.688   6.632   0.551  0.7296  0.7535 -3.2954
 6523TIP3   OH241203   4.254   5.018   2.306 -0.4337 -0.0164 -0.4845
 6523TIP3    H141204   4.185   4.995   2.369  0.9075 -1.2804  0.5976
 6523TIP3    H241205   4.259   4.942   2.248  0.6583 -0.3527  0.0265
 6524TIP3   OH241206   6.712   5.818   2.887  0.4054 -0.3111 -0.4039
 6524TIP3    H141207   6.740   5.793   2.799  0.2514 -0.8880 -0.2958
 6524TIP3    H241208   6.622   5.785   2.893  0.6868 -0.9851  0.2474
 6525TIP3   OH241209   4.418   6.031   4.302  0.1433 -1.2253  0.4446
 6525TIP3    H141210   4.433   6.094   4.373 -0.7838  1.7771 -1.8137
 6525TIP3    H241211   4.327   6.003   4.314 -0.6228  0.7146 -0.5321
 6526TIP3   OH241212   4.560   2.893   8.258 -0.0235 -1.0946 -0.0273
 6526TIP3    H141213   4.596   2.974   8.295 -4.6757  0.7669  1.0344
 6526TIP3    H241214   4.563   2.907   8.163 -0.8322  0.4076  0.1460
 6527TIP3   OH241215   0.123   1.090   3.729  0.4024  0.6035 -0.2949
 6527TIP3    H141216   0.138   1.013   3.783 -0.1996  1.2373  0.8025
 6527TIP3    H241217   0.094   1.055   3.645  0.6629 -0.3777  0.0111
 6528TIP3   OH241218   3.471   4.994   1.704 -0.1806  0.1550  0.0603
 6528TIP3    H141219   3.430   4.910   1.727 -1.4797  1.6036  3.9207
 6528TIP3    H241220   3.542   5.004   1.768 -0.4898  2.2238  0.1400
 6529TIP3   OH241221   5.538   1.674   8.638 -0.3723  0.0132 -0.6294
 6529TIP3    H141222   5.519   1.670   8.544  1.2571  0.1194 -1.0054
 6529TIP3    H241223   5.533   1.583   8.667 -0.0241 -0.1427 -1.0316
 6530TIP3   OH241224   3.412   0.070   2.071 -0.6938  0.4732  0.8584
 6530TIP3    H141225   3.487   0.127   2.087 -0.4236 -0.1850  2.1251
 6530TIP3    H241226   3.446   0.001   2.014 -0.4938  0.5100  0.9304
 6531TIP3   OH241227   3.718   5.531   3.052  0.1444 -0.0318  0.6487
 6531TIP3    H141228   3.732   5.546   3.145 -0.2289 -0.9085  0.8494
 6531TIP3    H241229   3.639   5.478   3.047 -0.0350  0.2962 -0.1925
 6532TIP3   OH241230   4.609   1.093   8.506  0.1610  0.4214  0.1172
 6532TIP3    H141231   4.602   1.169   8.564 -1.7263 -0.1804  0.7485
 6532TIP3    H241232   4.565   1.022   8.554  1.1657 -0.8697 -0.8045
 6533TIP3   OH241233   6.306   2.444   0.660 -0.2635  0.0811  0.1761
 6533TIP3    H141234   6.389   2.400   0.643 -0.4792 -0.6270  0.9217
 6533TIP3    H241235   6.302   2.512   0.593  0.2148 -0.8316 -0.8170
 6534TIP3   OH241236   0.934   4.035   0.160 -0.1953  0.5172  0.1897
 6534TIP3    H141237   0.927   4.065   0.069  1.4344 -1.7685 -0.7649
 6534TIP3    H241238   1.011   4.080   0.194 -0.7383  1.2834  0.4429
 6535TIP3   OH241239   1.336   1.166   2.510 -0.3838  0.1562 -0.1861
 6535TIP3    H141240   1.370   1.146   2.597  0.2308  1.8254 -0.0093
 6535TIP3    H241241   1.290   1.086   2.484  1.4944 -1.2874  0.6258
 6536TIP3   OH241242   6.219   5.427   2.073 -0.3379  0.0035  0.2997
 6536TIP3    H141243   6.134   5.396   2.044 -0.3715  0.3799 -0.0058
 6536TIP3    H241244   6.243   5.367   2.144 -1.9130  1.2939  2.0239
 6537TIP3   OH241245   0.931   5.069   0.278  0.6694  0.1818  0.4525
 6537TIP3    H141246   0.866   5.099   0.214  0.7883  0.8075  0.6154
 6537TIP3    H241247   0.981   5.148   0.300  0.8015 -0.0768  1.1133
 6538TIP3   OH241248   0.852   5.443   3.052 -0.2729  0.3649 -0.0890
 6538TIP3    H141249   0.936   5.441   3.005  0.2636  2.9812  0.5804
 6538TIP3    H241250   0.865   5.384   3.126  0.5142 -0.2380 -0.6785
 6539TIP3   OH241251   3.933   1.542   2.971  0.2946 -0.0735  0.2575
 6539TIP3    H141252   3.847   1.511   2.941  0.4534 -0.6404  0.3651
 6539TIP3    H241253   3.971   1.466   3.016 -0.0355  0.8292  2.1372
 6540TIP3   OH241254   4.269   4.510   8.309  0.2303  0.0312  0.4293
 6540TIP3    H141255   4.272   4.588   8.364  1.1748 -0.6443  1.3669
 6540TIP3    H241256   4.182   4.474   8.324 -0.3702  1.1014 -0.3260
 6541TIP3   OH241257   3.000   1.041   3.959 -0.0219 -0.5596 -0.8127
 6541TIP3    H141258   2.981   0.953   3.927 -0.5265  0.4345 -3.6148
 6541TIP3    H241259   3.075   1.070   3.908  1.9177 -0.2572  1.9984
 6542TIP3   OH241260   2.159   3.773   2.428 -0.0899  0.4492  0.3548
 6542TIP3    H141261   2.153   3.708   2.498 -0.0945  1.8471  1.7134
 6542TIP3    H241262   2.126   3.728   2.350 -2.4674 -0.4438  1.7702
 6543TIP3   OH241263   3.980   2.594   1.144  0.2483  0.5690 -0.0391
 6543TIP3    H141264   4.011   2.556   1.226  0.1963 -1.2936 -0.8193
 6543TIP3    H241265   3.897   2.636   1.166 -1.1532 -2.2091  0.4462
 6544TIP3   OH241266   6.741   5.761   1.163 -0.4672  0.4723  0.3274
 6544TIP3    H141267   6.657   5.726   1.192  0.0909 -0.0588  1.3941
 6544TIP3    H241268   6.795   5.684   1.146 -0.1815  0.8042 -0.2992
 6545TIP3   OH241269   0.830   5.555   2.469  0.0571 -0.0671 -0.4332
 6545TIP3    H141270   0.738   5.542   2.489 -0.1029 -0.4974 -1.4023
 6545TIP3    H241271   0.861   5.615   2.537 -0.8277 -0.2489  0.1446
 6546TIP3   OH241272   4.860   6.482   2.725 -0.0235  0.1034  0.8609
 6546TIP3    H141273   4.791   6.503   2.662 -0.1837 -1.0732  0.6184
 6546TIP3    H241274   4.921   6.427   2.676  1.1134  1.1530  1.0646
 6547TIP3   OH241275   5.695   5.155   2.452 -0.0542  0.5214  0.1347
 6547TIP3    H141276   5.780   5.198   2.441 -0.4956  1.1811 -0.7971
 6547TIP3    H241277   5.717   5.064   2.469  0.8783  0.9524  1.3634
 6548TIP3   OH241278   2.063   6.595   1.858  0.1733  0.1569  0.0422
 6548TIP3    H141279   2.013   6.675   1.874 -1.0352 -0.2389 -1.5143
 6548TIP3    H241280   1.999   6.524   1.867  0.5665 -0.4144 -1.2843
 6549TIP3   OH241281   5.084   4.840   1.367  0.2924  0.1678 -0.3459
 6549TIP3    H141282   5.170   4.881   1.354  0.5662  0.2675  1.4202
 6549TIP3    H241283   5.027   4.883   1.304  1.3073  0.8541 -0.8339
 6550TIP3   OH241284   6.044   0.741   1.562 -0.2560 -0.1000  0.2988
 6550TIP3    H141285   5.952   0.716   1.572 -0.4271 -0.6232 -2.0341
 6550TIP3    H241286   6.090   0.658   1.552 -0.3331  0.1506 -3.8338
 6551TIP3   OH241287   0.541   2.018   1.780  0.0694 -0.0571 -0.4041
 6551TIP3    H141288   0.523   2.014   1.873  1.5496  1.4320 -0.0163
 6551TIP3    H241289   0.511   2.104   1.753 -2.3508 -1.2279 -1.8310
 6552TIP3   OH241290   0.768   3.577   1.211 -0.4452 -0.6215 -0.3317
 6552TIP3    H141291   0.758   3.598   1.304 -0.4873 -0.4525 -0.3729
 6552TIP3    H241292   0.709   3.638   1.167 -1.4081 -1.5702 -0.3930
 6553TIP3   OH241293   4.441   3.515   0.676 -0.1275  0.0682 -0.6021
 6553TIP3    H141294   4.365   3.460   0.657 -0.8322  0.9988 -0.5558
 6553TIP3    H241295   4.412   3.603   0.656  0.5466  0.5793  0.5766
 6554TIP3   OH241296   3.692   0.690   4.096 -0.4584  0.0843 -0.5237
 6554TIP3    H141297   3.751   0.657   4.165 -1.5087 -0.0014  0.3574
 6554TIP3    H241298   3.629   0.620   4.083 -1.1464  0.6866 -0.5074
 6555TIP3   OH241299   4.299   5.245   8.599  0.4657  0.0064  0.0037
 6555TIP3    H141300   4.296   5.239   8.503 -2.1517  0.5189 -0.0140
 6555TIP3    H241301   4.319   5.156   8.628  1.6683 -0.0758 -1.0063
 6556TIP3   OH241302   2.397   4.989   2.462 -0.0110 -0.0483  0.1535
 6556TIP3    H141303   2.312   5.030   2.449 -0.8163 -1.3754  0.9180
 6556TIP3    H241304   2.401   4.919   2.396 -0.3710 -1.2133  1.3163
 6557TIP3   OH241305   0.019   1.415   8.523  0.3550 -0.7316 -0.4655
 6557TIP3    H141306   0.027   1.510   8.515 -1.0573 -0.6808 -1.5771
 6557TIP3    H241307   0.098   1.381   8.480  0.6339 -0.0876 -0.4803
 6558TIP3   OH241308   2.897   4.430   0.911  0.3163 -0.2763  0.0295
 6558TIP3    H141309   2.866   4.490   0.844  1.7084 -1.3916 -1.7203
 6558TIP3    H241310   2.826   4.367   0.921 -1.7587  2.2225  2.8778
 6559TIP3   OH241311   0.955   1.514   3.124  0.3471  0.2013  0.5829
 6559TIP3    H141312   0.919   1.558   3.201 -0.8459 -1.4942  1.0485
 6559TIP3    H241313   0.906   1.432   3.119  2.5388 -1.1175 -0.1908
 6560TIP3   OH241314   1.469   3.603   2.678  0.1562  0.2886 -0.3763
 6560TIP3    H141315   1.469   3.672   2.612  2.3882  1.8516  1.1310
 6560TIP3    H241316   1.560   3.594   2.704 -0.1799 -2.6205  0.1927
 6561TIP3   OH241317   6.058   4.868   0.035 -0.2763  0.1131  0.1737
 6561TIP3    H141318   6.031   4.955   0.005  0.4907  0.4134  0.3282
 6561TIP3    H241319   5.995   4.809  -0.005 -1.4663  0.8322  0.9505
 6562TIP3   OH241320   2.161   6.538   1.035  0.9342 -0.4222 -0.4536
 6562TIP3    H141321   2.142   6.449   1.006 -0.3595  0.0834 -1.2519
 6562TIP3    H241322   2.195   6.528   1.124 -0.2227 -1.6545 -0.1171
 6563TIP3   OH241323   4.226   1.059   2.192  1.0269 -0.2691  0.2054
 6563TIP3    H141324   4.253   1.048   2.101 -1.6048 -2.3414 -0.4098
 6563TIP3    H241325   4.279   0.995   2.241  1.6256  0.0569  0.0001
 6564TIP3   OH241326   0.795   2.956   1.261  0.6870  0.0033  0.2346
 6564TIP3    H141327   0.773   2.987   1.174 -0.1879  1.1806  0.8440
 6564TIP3    H241328   0.743   2.877   1.272  0.9699 -0.2749 -0.3841
 6565TIP3   OH241329   5.128   5.564   2.734  0.2984  0.2301 -0.6023
 6565TIP3    H141330   5.099   5.599   2.651  0.2862  0.1214 -0.6440
 6565TIP3    H241331   5.153   5.641   2.786 -1.1029  0.4130 -0.1624
 6566TIP3   OH241332   3.075   5.371   0.480 -0.0434 -0.1319 -0.7324
 6566TIP3    H141333   3.049   5.406   0.395 -0.6857 -1.9173 -1.3257
 6566TIP3    H241334   3.126   5.292   0.458 -0.5295 -0.8201  0.5322
 6567TIP3   OH241335   0.764   0.887   0.427  0.3427  0.5485  0.2872
 6567TIP3    H141336   0.773   0.878   0.521  0.6379  0.1970  0.2273
 6567TIP3    H241337   0.843   0.848   0.391 -0.0796  0.0471 -0.1302
 6568TIP3   OH241338   1.053   4.604   0.883 -0.1820 -0.2030  0.4869
 6568TIP3    H141339   1.091   4.692   0.871 -1.0104  0.2411  1.0338
 6568TIP3    H241340   1.118   4.557   0.935  0.5215 -0.0936 -0.2748
 6569TIP3   OH241341   2.779   0.217   7.959  0.1732  0.3517  0.8063
 6569TIP3    H141342   2.731   0.281   7.906 -1.3899 -0.6120  0.9903
 6569TIP3    H241343   2.728   0.210   8.040  0.2655 -1.1382  0.7741
 6570TIP3   OH241344   5.329   1.976   1.215 -0.3243  0.6605 -0.1208
 6570TIP3    H141345   5.385   1.963   1.138 -0.2135  1.4720 -0.1843
 6570TIP3    H241346   5.390   1.979   1.289 -0.4333 -0.1547  0.0126
 6571TIP3   OH241347   5.214   5.180   0.533  0.0542  0.3666  0.2220
 6571TIP3    H141348   5.268   5.129   0.592 -0.5997 -0.5535  0.0396
 6571TIP3    H241349   5.140   5.123   0.512  0.8680  0.1187 -2.4742
 6572TIP3   OH241350   6.311   4.914   0.626 -0.1753 -0.2125  0.4489
 6572TIP3    H141351   6.220   4.943   0.634  0.5353  1.7890  2.5138
 6572TIP3    H241352   6.349   4.971   0.559 -0.0066  0.2614  0.9381
 6573TIP3   OH241353   1.201   6.728   2.896  0.0470 -0.8726  0.4581
 6573TIP3    H141354   1.125   6.784   2.880  1.0364  0.6328  0.8363
 6573TIP3    H241355   1.240   6.762   2.976  1.3461 -1.3576  0.0604
 6574TIP3   OH241356   1.232   4.097   1.710 -0.0542  0.0608 -0.4120
 6574TIP3    H141357   1.281   4.058   1.638 -1.6145 -0.4519 -1.2587
 6574TIP3    H241358   1.142   4.065   1.698 -1.1406  2.7626 -0.3326
 6575TIP3   OH241359   3.383   2.231   4.148 -0.3361 -0.1166  0.1853
 6575TIP3    H141360   3.393   2.235   4.243  1.9737  2.1322 -0.0258
 6575TIP3    H241361   3.382   2.138   4.127 -1.1243 -0.6527  2.4225
 6576TIP3   OH241362   4.341   3.861   2.212 -0.1414 -0.2446  0.4197
 6576TIP3    H141363   4.304   3.942   2.249  0.0047 -0.2800  0.6444
 6576TIP3    H241364   4.385   3.819   2.286  1.2047  0.2743 -0.0557
 6577TIP3   OH241365   1.957   1.501   0.765  0.1660 -0.5338  0.2698
 6577TIP3    H141366   1.969   1.476   0.673  0.4967  1.6102 -0.3305
 6577TIP3    H241367   2.029   1.562   0.783  0.0026 -0.7793  1.9194
 6578TIP3   OH241368   6.107   6.682   3.183 -0.0470 -0.3870  0.0844
 6578TIP3    H141369   6.024   6.717   3.150  0.1057 -0.9552 -0.9299
 6578TIP3    H241370   6.084   6.638   3.264 -0.7300 -0.4833 -0.1603
 6579TIP3   OH241371   2.097   2.645   1.168 -0.5620  0.1782 -0.4056
 6579TIP3    H141372   2.115   2.552   1.180 -1.3945  0.0610  0.0171
 6579TIP3    H241373   2.062   2.674   1.253 -3.2590  0.1481 -1.3952
 6580TIP3   OH241374   5.822   3.320   1.277 -0.1833 -0.3458 -0.0768
 6580TIP3    H141375   5.907   3.342   1.315  0.9046 -1.0923 -1.9506
 6580TIP3    H241376   5.795   3.241   1.323 -0.0002  0.0368  0.7027
 6581TIP3   OH241377   3.428   6.063   3.511  0.4909  0.3113  0.4085
 6581TIP3    H141378   3.507   6.107   3.542  0.2120  1.4748 -0.4444
 6581TIP3    H241379   3.437   5.973   3.542  1.8766  0.5562  0.8049
 6582TIP3   OH241380   6.749   6.068   1.317 -0.5955 -0.0774  0.5323
 6582TIP3    H141381   6.837   6.047   1.285 -1.2428 -0.3509 -1.1412
 6582TIP3    H241382   6.718   5.987   1.357 -0.5602 -0.3517  0.0081
 6583TIP3   OH241383   2.814   3.470   1.999  0.2073 -0.9211  0.3255
 6583TIP3    H141384   2.867   3.404   1.954  1.6516 -0.0003  0.6168
 6583TIP3    H241385   2.753   3.501   1.932 -1.2464 -3.2491  0.4512
 6584TIP3   OH241386   5.134   0.206   1.349 -0.1444  0.0215  0.0059
 6584TIP3    H141387   5.190   0.279   1.323 -0.4807  1.4317  2.8819
 6584TIP3    H241388   5.192   0.130   1.351  1.2999  1.1145  1.2807
 6585TIP3   OH241389   4.433   5.723   4.189  0.6904  0.6459  0.2268
 6585TIP3    H141390   4.492   5.648   4.189 -0.5525 -0.5531 -3.2575
 6585TIP3    H241391   4.373   5.707   4.262  1.3936 -0.9309  0.5025
 6586TIP3   OH241392   5.506   6.551   0.579 -0.1956  0.5785  0.1826
 6586TIP3    H141393   5.442   6.523   0.645 -0.2125  0.6720  0.2069
 6586TIP3    H241394   5.452   6.587   0.508 -0.1731  0.5761  0.1642
 6587TIP3   OH241395   4.902   5.896   2.118  0.3589  0.0498  0.2031
 6587TIP3    H141396   4.996   5.901   2.099 -0.0106  2.0745 -1.5448
 6587TIP3    H241397   4.876   5.811   2.083  1.2278  0.2850 -1.1303
 6588TIP3   OH241398   6.613   2.828   0.971 -0.2319 -0.0197  0.2562
 6588TIP3    H141399   6.654   2.757   0.922  0.5617  0.9442 -0.4940
 6588TIP3    H241400   6.578   2.785   1.049  0.5027 -1.1856 -0.0288
 6589TIP3   OH241401   0.965   2.908   8.797 -0.1883  0.0803 -0.4400
 6589TIP3    H141402   0.988   2.988   8.843 -0.1783 -1.5416  2.6396
 6589TIP3    H241403   0.929   2.937   8.713 -0.3689  3.2711  0.6402
 6590TIP3   OH241404   6.535   0.411   2.770 -0.5509 -0.5025 -0.5114
 6590TIP3    H141405   6.486   0.485   2.806 -1.0387 -1.5530  1.1369
 6590TIP3    H241406   6.621   0.447   2.749 -0.2801  0.2928  1.6428
 6591TIP3   OH241407   4.718   5.939   8.639  0.1269 -0.3564 -0.0232
 6591TIP3    H141408   4.773   5.943   8.717 -0.5375  0.4058  0.4115
 6591TIP3    H241409   4.644   5.885   8.664  0.3727 -0.9039 -0.4356
 6592TIP3   OH241410   3.859   6.781   4.287  0.1099 -0.1452 -0.0233
 6592TIP3    H141411   3.938   6.727   4.295 -0.4284 -0.8598  0.5934
 6592TIP3    H241412   3.796   6.741   4.347 -0.9560  0.0097 -1.0195
 6593TIP3   OH241413   2.663   0.608   2.314  0.0638 -0.6707 -0.1048
 6593TIP3    H141414   2.578   0.571   2.289  0.2881 -1.8843  0.8893
 6593TIP3    H241415   2.698   0.548   2.379  0.2936  1.4610  1.8567
 6594TIP3   OH241416   2.682   1.553   8.639  0.2092 -0.3228 -0.1207
 6594TIP3    H141417   2.684   1.649   8.638  0.4828 -0.3240 -1.3475
 6594TIP3    H241418   2.647   1.529   8.553 -2.8255 -1.3025  1.2772
 6595TIP3   OH241419   0.071   4.279   2.575 -0.4883 -0.2254  0.0308
 6595TIP3    H141420   0.006   4.246   2.636 -1.3022 -0.1041 -0.7548
 6595TIP3    H241421   0.151   4.288   2.628 -0.8494 -1.2508  0.7823
 6596TIP3   OH241422   1.899   5.952   2.483  0.2121 -0.0632 -0.5560
 6596TIP3    H141423   1.852   5.907   2.553  2.6489 -1.0638  0.5883
 6596TIP3    H241424   1.835   6.011   2.444 -1.0598  1.2954  3.1773
 6597TIP3   OH241425   4.370   1.789   0.857  0.2372 -0.1498  0.3242
 6597TIP3    H141426   4.434   1.761   0.923  3.1646 -1.9578 -2.9498
 6597TIP3    H241427   4.322   1.709   0.834 -1.3743  0.6421  0.7492
 6598TIP3   OH241428   4.312   1.068   1.920  0.4589  0.7691  0.1062
 6598TIP3    H141429   4.374   1.000   1.897  0.3879 -0.2254  2.5296
 6598TIP3    H241430   4.297   1.117   1.839 -0.1514 -2.5860 -1.9835
 6599TIP3   OH241431   1.233   0.596   3.475 -0.1460  0.2382  0.4655
 6599TIP3    H141432   1.144   0.585   3.507 -0.2760  0.4876  0.1942
 6599TIP3    H241433   1.286   0.609   3.554 -0.6282  2.0428  0.5255
 6600TIP3   OH241434   0.109   3.565   3.069  0.1226 -0.2955 -0.2252
 6600TIP3    H141435   0.037   3.577   3.132  1.8073  0.3456  1.6984
 6600TIP3    H241436   0.132   3.654   3.042  2.2981 -0.1357  1.8014
 6601TIP3   OH241437   2.648   5.843   3.198 -0.7804 -0.3376 -0.2661
 6601TIP3    H141438   2.709   5.909   3.228  0.2318 -0.4046 -2.0357
 6601TIP3    H241439   2.609   5.880   3.119 -0.1610 -1.8264 -1.3229
 6602TIP3   OH241440   3.665   5.442   2.452 -0.2950 -0.0821 -0.1949
 6602TIP3    H141441   3.583   5.405   2.417  0.4847 -1.0408 -1.0631
 6602TIP3    H241442   3.704   5.487   2.378  0.4103 -0.4291 -0.0380
 6603TIP3   OH241443   4.964   0.455   3.516 -0.7031 -0.5116 -0.4430
 6603TIP3    H141444   4.994   0.439   3.605 -3.8575 -2.5796  0.4241
 6603TIP3    H241445   5.024   0.406   3.461  0.8400  0.1778  0.5785
 6604TIP3   OH241446   6.421   5.041   0.415  0.1459 -0.1843 -0.0568
 6604TIP3    H141447   6.481   5.002   0.352  2.2282  0.2579  1.5387
 6604TIP3    H241448   6.336   5.040   0.372  1.1821 -1.3802 -2.1903
 6605TIP3   OH241449   0.807   0.997   0.143  0.3204 -0.0509  0.4241
 6605TIP3    H141450   0.816   0.993   0.238  2.6242  0.9254  0.3087
 6605TIP3    H241451   0.814   1.090   0.122 -0.0617 -0.2619 -0.7227
 6606TIP3   OH241452   1.806   2.035   8.279 -0.4797  0.1395  0.4585
 6606TIP3    H141453   1.777   2.087   8.204  2.3155 -1.0230 -1.6180
 6606TIP3    H241454   1.851   2.097   8.336 -0.0573  0.5656 -0.3266
 6607TIP3   OH241455   1.091   3.990   3.712 -0.1242  0.2446  0.4984
 6607TIP3    H141456   1.140   4.072   3.714  0.1303  0.0795  1.6120
 6607TIP3    H241457   0.999   4.017   3.717 -0.1748  0.5382 -1.2968
 6608TIP3   OH241458   4.000   1.848   0.111  0.2902  0.4394  0.0585
 6608TIP3    H141459   4.018   1.819   0.022  2.2372 -0.7018  0.7520
 6608TIP3    H241460   4.032   1.938   0.115  0.3721  0.4296 -0.3360
 6609TIP3   OH241461   2.934   3.701   1.800 -0.2851  0.0882 -0.6718
 6609TIP3    H141462   2.850   3.719   1.842  0.2692  1.6820 -0.1704
 6609TIP3    H241463   2.998   3.707   1.871  0.3718  0.0274 -1.2499
 6610TIP3   OH241464   0.535   0.343   0.053  0.2550 -0.2491 -0.3266
 6610TIP3    H141465   0.518   0.287   0.129 -1.1233  1.7056  0.8922
 6610TIP3    H241466   0.623   0.378   0.067 -0.5658  1.3215  1.2611
 6611TIP3   OH241467   4.821   6.033   3.102  0.3465 -0.1679  0.2749
 6611TIP3    H141468   4.814   6.016   3.196  1.6955 -0.1399  0.4063
 6611TIP3    H241469   4.736   6.067   3.076 -0.4559 -1.3755  1.2321
 6612TIP3   OH241470   6.465   2.667   2.169 -0.3071  0.4311  0.0790
 6612TIP3    H141471   6.483   2.617   2.089 -1.4470 -0.5922  0.4210
 6612TIP3    H241472   6.425   2.603   2.229 -3.7413  2.1076 -0.1559
 6613TIP3   OH241473   2.147   3.121   8.813  0.2353  0.3657  0.5139
 6613TIP3    H141474   2.062   3.076   8.811  0.0110  0.7967 -0.5790
 6613TIP3    H241475   2.185   3.096   8.897  0.4363 -2.4757 -0.2977
 6614TIP3   OH241476   4.330   0.502   2.220 -0.0881 -0.5189 -0.1156
 6614TIP3    H141477   4.298   0.590   2.244 -1.4559 -0.9628 -0.2184
 6614TIP3    H241478   4.299   0.489   2.131 -0.2809 -1.2752  0.0574
 6615TIP3   OH241479   2.476   2.389   0.950  0.0738 -0.7870  0.3938
 6615TIP3    H141480   2.406   2.402   1.015  0.3789  0.9227  0.4352
 6615TIP3    H241481   2.446   2.315   0.897 -2.0495  0.2204  0.0777
 6616TIP3   OH241482   4.143   0.775   2.821  0.2018  0.3002 -0.2399
 6616TIP3    H141483   4.216   0.813   2.771  1.3379 -0.4589  0.7839
 6616TIP3    H241484   4.173   0.777   2.912 -2.1364  2.3632  0.5746
 6617TIP3   OH241485   4.156   5.340   0.900 -0.1137  0.4568 -0.3839
 6617TIP3    H141486   4.104   5.284   0.843 -1.6190  1.5194 -0.1065
 6617TIP3    H241487   4.093   5.384   0.956  1.2512  0.2384  1.4282
 6618TIP3   OH241488   0.112   5.935   0.762  0.0504  0.4667  0.4215
 6618TIP3    H141489   0.079   5.948   0.851 -1.4888 -1.0872  0.1314
 6618TIP3    H241490   0.135   5.842   0.758 -0.5908  0.3314 -0.9812
 6619TIP3   OH241491   5.671   0.734   2.001  0.4209 -0.2309 -0.3886
 6619TIP3    H141492   5.670   0.819   1.957 -1.3689  0.2205  0.4256
 6619TIP3    H241493   5.762   0.724   2.031  0.5805  1.6450 -0.0581
 6620TIP3   OH241494   3.763   1.030   0.351 -0.5446 -0.4632  0.0134
 6620TIP3    H141495   3.750   1.125   0.352  0.6561 -0.2431  2.1695
 6620TIP3    H241496   3.858   1.020   0.340 -0.5137 -1.3492  0.9403
 6621TIP3   OH241497   1.889   3.647   0.423  1.1681  0.3485  0.1305
 6621TIP3    H141498   1.932   3.715   0.371 -2.2907  1.9534 -0.9058
 6621TIP3    H241499   1.870   3.577   0.359  1.1280  0.1800  0.3270
 6622TIP3   OH241500   2.786   5.695   3.436  0.2090  0.3163  0.7689
 6622TIP3    H141501   2.744   5.752   3.500  0.0830  1.0352  0.0574
 6622TIP3    H241502   2.864   5.743   3.409  0.4491 -0.1427  0.6360
 6623TIP3   OH241503   1.228   0.842   2.187  0.0331 -0.1451 -0.1937
 6623TIP3    H141504   1.188   0.884   2.111  0.6216 -1.1274 -1.0738
 6623TIP3    H241505   1.320   0.834   2.164  0.1312 -0.8812  0.4315
 6624TIP3   OH241506   2.262   0.869   0.280 -0.3904 -0.0502 -0.5757
 6624TIP3    H141507   2.233   0.782   0.254 -1.1078  0.1662 -0.5020
 6624TIP3    H241508   2.266   0.865   0.376 -0.5686  0.0475 -0.5651
 6625TIP3   OH241509   5.727   4.541   2.718 -0.0614 -0.4665  0.4401
 6625TIP3    H141510   5.743   4.538   2.623 -1.7712 -0.2051  0.1106
 6625TIP3    H241511   5.642   4.584   2.726 -1.7131 -3.7043  1.8918
 6626TIP3   OH241512   0.026   4.907   1.008 -0.3052  0.0700 -0.4115
 6626TIP3    H141513  -0.065   4.905   0.978 -0.8059  1.0724  0.9397
 6626TIP3    H241514   0.036   4.827   1.059 -0.5583  0.1603 -0.2203
 6627TIP3   OH241515   4.831   5.637   2.114 -0.7332  0.0412  0.1957
 6627TIP3    H141516   4.825   5.617   2.207 -0.0345 -1.3165 -0.0285
 6627TIP3    H241517   4.831   5.551   2.071 -1.7362  0.6535 -1.1088
 6628TIP3   OH241518   2.773   3.401   1.563 -0.0782 -0.3994  0.6696
 6628TIP3    H141519   2.744   3.349   1.638  2.7807 -2.0551  0.7741
 6628TIP3    H241520   2.864   3.422   1.583  0.5157 -0.1565 -1.9760
 6629TIP3   OH241521   1.898   0.598   0.418  0.6337 -0.5579 -0.7092
 6629TIP3    H141522   1.970   0.535   0.431  0.3050 -0.8737 -0.3988
 6629TIP3    H241523   1.845   0.560   0.348  1.1615  0.0381 -1.4591
 6630TIP3   OH241524   6.275   5.671   1.969 -0.0508  0.4707 -0.0251
 6630TIP3    H141525   6.250   5.594   2.020 -0.4024  1.3272  1.1580
 6630TIP3    H241526   6.303   5.637   1.884 -0.9944 -0.8811  0.1842
 6631TIP3   OH241527   3.808   6.113   8.550 -0.2832 -0.9079  0.5538
 6631TIP3    H141528   3.751   6.132   8.626 -0.7932 -2.6590  0.6443
 6631TIP3    H241529   3.828   6.020   8.558  0.9734 -0.7556 -0.6033
 6632TIP3   OH241530   4.055   2.788   3.130  0.1390  0.6866  0.3548
 6632TIP3    H141531   4.026   2.698   3.118 -0.5783  0.8520  0.7283
 6632TIP3    H241532   4.150   2.784   3.128  0.1102  0.2515 -1.8332
 6633TIP3   OH241533   5.254   4.433   1.850 -0.4407  0.1788  0.7391
 6633TIP3    H141534   5.238   4.400   1.938 -0.6085 -0.4288  0.4858
 6633TIP3    H241535   5.167   4.452   1.816 -1.0677 -4.7411 -1.2701
 6634TIP3   OH241536   2.841   2.127   8.344 -0.0705  0.2347 -0.4241
 6634TIP3    H141537   2.789   2.190   8.294 -1.4510 -0.2300  0.3730
 6634TIP3    H241538   2.800   2.042   8.324  1.2549 -0.3309 -0.8493
 6635TIP3   OH241539   0.483   0.907   0.389  0.6054  0.2654 -0.3554
 6635TIP3    H141540   0.574   0.880   0.399  0.3379 -1.3324 -1.8698
 6635TIP3    H241541   0.432   0.837   0.429 -0.0196 -0.2172 -1.9174
 6636TIP3   OH241542   1.726   5.016   2.116  0.2475 -0.4457  0.2589
 6636TIP3    H141543   1.812   5.001   2.076  0.4813  0.7249  0.2887
 6636TIP3    H241544   1.740   5.001   2.210  0.1368 -1.3888  0.1308
 6637TIP3   OH241545   6.679   4.384   3.325  0.3383  0.7485 -0.4351
 6637TIP3    H141546   6.694   4.313   3.387 -0.2221  0.6815 -0.3739
 6637TIP3    H241547   6.589   4.412   3.342  0.0010  0.3730 -1.5902
 6638TIP3   OH241548   3.218   3.297   2.705  0.0406 -0.2933  0.0034
 6638TIP3    H141549   3.312   3.308   2.692 -0.0413 -0.2323 -0.5526
 6638TIP3    H241550   3.177   3.352   2.638 -0.3861 -1.1958 -0.4927
 6639TIP3   OH241551   0.897   4.995   2.437  0.0636 -0.0749 -0.0632
 6639TIP3    H141552   0.843   5.038   2.370  0.7809  0.4923 -0.2985
 6639TIP3    H241553   0.982   4.984   2.394 -0.1294 -1.8610 -0.0464
 6640TIP3   OH241554   3.669   4.884   8.635  0.3625 -0.3033 -0.2096
 6640TIP3    H141555   3.759   4.858   8.655  0.7489 -0.5604 -2.0493
 6640TIP3    H241556   3.678   4.964   8.583 -0.3089 -1.3180 -1.9937
 6641TIP3   OH241557   6.008   6.759   3.735  0.4506  0.1057  0.2352
 6641TIP3    H141558   5.924   6.728   3.703  0.1202  1.2894 -0.0603
 6641TIP3    H241559   6.034   6.694   3.801 -0.5458 -0.4127  0.1288
 6642TIP3   OH241560   3.989   0.575   3.095 -0.4656 -0.3494  0.7709
 6642TIP3    H141561   4.084   0.588   3.092 -0.8723  3.8270  0.0302
 6642TIP3    H241562   3.960   0.631   3.167 -2.5082 -0.1584 -0.1377
 6643TIP3   OH241563   4.668   0.369   1.834  0.5706  0.1559 -0.2958
 6643TIP3    H141564   4.757   0.378   1.867 -0.2480  0.1454  2.1370
 6643TIP3    H241565   4.626   0.453   1.853  0.0620  0.1915 -1.4896
 6644TIP3   OH241566   4.020   2.561   2.347 -0.3694  0.1300  0.3685
 6644TIP3    H141567   4.113   2.580   2.363 -0.0396  0.0707 -1.3420
 6644TIP3    H241568   3.974   2.635   2.386  0.3350 -0.1511  1.8127
 6645TIP3   OH241569   0.698   1.360   2.924 -0.5605  0.3485  0.4432
 6645TIP3    H141570   0.776   1.417   2.923  0.2534 -0.7304 -0.2769
 6645TIP3    H241571   0.679   1.344   2.832 -0.2935 -1.1464  0.6209
 6646TIP3   OH241572   2.949   2.240   3.232  0.1278 -0.0883 -0.6636
 6646TIP3    H141573   3.026   2.297   3.224  0.4576 -0.6697 -1.7728
 6646TIP3    H241574   2.899   2.255   3.152  0.0502 -1.0924 -0.8191
 6647TIP3   OH241575   6.256   3.416   4.204  0.0405  0.2679  0.0471
 6647TIP3    H141576   6.162   3.428   4.215 -0.1139 -0.2231 -0.6697
 6647TIP3    H241577   6.282   3.363   4.279 -0.2342  0.5215  0.3207
 6648TIP3   OH241578   0.303   3.657   3.362 -0.8844 -0.0338  0.1035
 6648TIP3    H141579   0.309   3.576   3.311 -1.6619  0.3150 -0.5552
 6648TIP3    H241580   0.214   3.656   3.397 -1.3180  1.1051 -0.8942
 6649TIP3   OH241581   3.215   3.809   1.197  0.5129 -0.0193  0.2250
 6649TIP3    H141582   3.239   3.890   1.152 -0.4501  0.7151  0.9953
 6649TIP3    H241583   3.127   3.789   1.165  0.6959 -0.6963  0.1346
 6650TIP3   OH241584   6.752   6.066   3.012 -0.2573  0.5917  0.2809
 6650TIP3    H141585   6.778   6.123   2.940  1.3548  0.8292  1.0168
 6650TIP3    H241586   6.743   5.980   2.972  0.4525  0.7479 -0.2469
 6651TIP3   OH241587   1.825   2.534   8.513  0.3826  0.1378 -0.5135
 6651TIP3    H141588   1.737   2.565   8.496 -0.8484 -2.0039  1.4107
 6651TIP3    H241589   1.882   2.595   8.465 -1.9483  3.1503  0.2335
 6652TIP3   OH241590   5.112   3.996   0.208 -0.6234  0.4013  0.2958
 6652TIP3    H141591   5.069   3.911   0.210  2.1111 -1.0824  0.0661
 6652TIP3    H241592   5.074   4.039   0.131 -1.0306 -1.2036 -0.4484
 6653TIP3   OH241593   1.935   3.944   2.914 -0.4626  0.3091 -0.8555
 6653TIP3    H141594   1.851   3.899   2.906  0.2433 -1.3313  0.3768
 6653TIP3    H241595   1.995   3.895   2.858 -0.1437  1.0327 -1.1688
 6654TIP3   OH241596   0.048   0.390   2.563  0.3927  0.1478 -0.7789
 6654TIP3    H141597   0.090   0.306   2.582  0.2894  0.1887 -0.3633
 6654TIP3    H241598   0.095   0.424   2.488  0.3921 -0.3154 -0.9913
 6655TIP3   OH241599   1.499   6.425   2.135  0.4943  0.5192 -0.6254
 6655TIP3    H141600   1.472   6.444   2.045  0.4984  0.6562 -0.5981
 6655TIP3    H241601   1.587   6.387   2.126 -1.1376 -3.7612 -1.0746
 6656TIP3   OH241602   0.953   2.560   1.065  0.4103 -0.5286  0.5879
 6656TIP3    H141603   0.862   2.579   1.040  0.3335 -0.4006  0.9633
 6656TIP3    H241604   0.957   2.464   1.064  0.6212 -0.5231 -0.6586
 6657TIP3   OH241605   1.193   0.003   0.716 -0.4711 -0.3494 -0.1072
 6657TIP3    H141606   1.239   0.059   0.779  0.7193 -0.5249 -0.8003
 6657TIP3    H241607   1.102   0.031   0.721 -0.2824  0.1037  1.1975
 6658TIP3   OH241608   3.592   0.823   8.614 -0.2543  0.5209 -0.7173
 6658TIP3    H141609   3.625   0.803   8.526  1.7736  0.8628 -0.0798
 6658TIP3    H241610   3.505   0.860   8.599 -0.1493  0.1286 -2.5414
 6659TIP3   OH241611   0.501   2.846   0.998 -0.7668  0.2551  0.5599
 6659TIP3    H141612   0.419   2.814   1.035 -0.2729 -2.1464 -0.2649
 6659TIP3    H241613   0.537   2.902   1.067 -1.9381 -0.5944  1.9233
 6660TIP3   OH241614   2.108   0.145   3.267  0.2709 -0.3486 -0.7796
 6660TIP3    H141615   2.030   0.114   3.313 -0.6834  0.1345 -1.9863
 6660TIP3    H241616   2.181   0.121   3.323 -0.8190  0.0882  0.9018
 6661TIP3   OH241617   1.634   3.845   8.718  0.6319  0.1980  0.2445
 6661TIP3    H141618   1.701   3.887   8.772  0.3122 -0.0206  0.8268
 6661TIP3    H241619   1.555   3.898   8.733  0.0414 -0.9709  1.5347
 6662TIP3   OH241620   5.232   2.013   3.072 -0.7984  0.2923  0.0779
 6662TIP3    H141621   5.173   2.088   3.066 -0.0217  0.8851 -0.2383
 6662TIP3    H241622   5.202   1.966   3.150 -2.0626  0.2509 -0.4025
 6663TIP3   OH241623   4.584   0.358   0.822  0.2397  0.4484 -0.7620
 6663TIP3    H141624   4.510   0.419   0.821  0.5038  0.7752 -1.5771
 6663TIP3    H241625   4.550   0.279   0.782 -0.4426 -0.3917  1.3530
 6664TIP3   OH241626   4.355   3.555   2.707 -0.1952  0.0532 -0.2544
 6664TIP3    H141627   4.416   3.501   2.757 -2.1521 -0.2438  1.9500
 6664TIP3    H241628   4.328   3.499   2.634  0.0455 -0.8586  0.3394
 6665TIP3   OH241629   2.149   2.618   8.057  0.3893  0.3562  0.3226
 6665TIP3    H141630   2.163   2.560   8.131  0.4892  1.4050  1.1523
 6665TIP3    H241631   2.093   2.688   8.091 -1.5314 -0.3500 -1.2125
 6666TIP3   OH241632   1.361   3.276   3.466 -0.3941 -0.1374  0.0135
 6666TIP3    H141633   1.360   3.283   3.562  0.7329 -2.2986  0.2296
 6666TIP3    H241634   1.277   3.235   3.445 -0.3220 -0.3442  0.1301
 6667TIP3   OH241635   1.634   0.182   8.500 -0.4360  0.2588  0.1912
 6667TIP3    H141636   1.548   0.151   8.528 -0.6726  1.0485  0.3551
 6667TIP3    H241637   1.621   0.212   8.410 -0.7985  2.1158  0.8112
 6668TIP3   OH241638   6.677   0.504   8.168 -0.4055  0.2502 -0.2466
 6668TIP3    H141639   6.634   0.427   8.132 -1.2518  0.9327 -0.7236
 6668TIP3    H241640   6.707   0.476   8.254  0.2938 -0.9453 -0.8510
 6669TIP3   OH241641   5.293   0.889   1.504  0.3849  0.2517  0.1845
 6669TIP3    H141642   5.344   0.922   1.431  1.7284  0.6775  1.2645
 6669TIP3    H241643   5.264   0.802   1.475 -0.4313  1.0194 -1.4159
 6670TIP3   OH241644   1.354   3.284   0.260  0.0659 -0.0796  0.8838
 6670TIP3    H141645   1.306   3.359   0.224 -0.2321 -1.5389 -1.9910
 6670TIP3    H241646   1.290   3.213   0.264  0.4891 -0.4178  3.0240
 6671TIP3   OH241647   1.449   5.770   0.501  0.2577 -0.2004  0.6748
 6671TIP3    H141648   1.421   5.756   0.411 -0.8581  1.0181  0.8057
 6671TIP3    H241649   1.541   5.798   0.494  0.3982 -0.8122 -0.0162
 6672TIP3   OH241650   0.361   1.850   0.117  0.3680 -0.6333 -0.2279
 6672TIP3    H141651   0.361   1.943   0.141  0.0238 -0.3944 -1.1022
 6672TIP3    H241652   0.407   1.807   0.188  0.6315  0.2261  0.1360
 6673TIP3   OH241653   4.769   3.474   2.196  0.2713  0.1509  0.8428
 6673TIP3    H141654   4.820   3.492   2.117 -0.9284 -0.0277  0.0136
 6673TIP3    H241655   4.678   3.475   2.167 -0.1674 -0.3184  2.1470
 6674TIP3   OH241656   3.575   6.552   0.240 -0.1042  0.5748  0.0965
 6674TIP3    H141657   3.635   6.496   0.191 -0.6198 -0.2141  0.3445
 6674TIP3    H241658   3.581   6.637   0.197 -1.0832 -0.2617 -1.8372
 6675TIP3   OH241659   6.719   5.274   3.105  0.1502  0.4671  0.4171
 6675TIP3    H141660   6.792   5.237   3.154  0.5985  0.1897 -0.4533
 6675TIP3    H241661   6.690   5.203   3.048 -0.7111  0.6185  0.6517
 6676TIP3   OH241662   4.202   5.691   8.807  0.3715  0.4373  0.1056
 6676TIP3    H141663   4.293   5.693   8.835  0.0008 -1.6227  1.6881
 6676TIP3    H241664   4.203   5.642   8.724  0.5707 -1.1866  1.0207
 6677TIP3   OH241665   6.629   1.209   8.494  0.2237 -1.0000 -0.0246
 6677TIP3    H141666   6.634   1.221   8.399 -0.8020  0.8874  0.1183
 6677TIP3    H241667   6.703   1.258   8.528 -0.6694  0.2116  0.2424
 6678TIP3   OH241668   1.157   4.156   8.857 -0.5995  0.5189  0.0139
 6678TIP3    H141669   1.215   4.186   8.787  0.2700 -1.1555 -0.0253
 6678TIP3    H241670   1.080   4.123   8.812 -0.1235 -0.3760 -0.1687
 6679TIP3   OH241671   2.020   1.085   0.912  0.3285  0.1630 -0.0304
 6679TIP3    H141672   2.077   1.153   0.875 -0.6977  0.5903 -0.8525
 6679TIP3    H241673   2.012   1.109   1.004  3.0548 -1.0147  0.6163
 6680TIP3   OH241674   0.556   0.315   0.333  0.4600 -0.1648  0.0006
 6680TIP3    H141675   0.509   0.259   0.394  0.2625 -0.6676 -0.6015
 6680TIP3    H241676   0.624   0.357   0.386  0.1994 -0.4802  0.5897
 6681TIP3   OH241677   5.744   3.553   1.159  0.1644  0.8396 -0.6319
 6681TIP3    H141678   5.808   3.620   1.183  0.6502 -0.2023  1.1599
 6681TIP3    H241679   5.771   3.475   1.208 -0.5976 -0.5824 -2.3575
 6682TIP3   OH241680   5.755   2.467   8.638 -0.1116 -0.0177 -0.2354
 6682TIP3    H141681   5.693   2.396   8.655  0.1630 -0.1769  0.1298
 6682TIP3    H241682   5.746   2.485   8.545 -1.3582  0.5877 -0.0219
 6683TIP3   OH241683   4.973   5.318   1.397  0.1561  0.2663 -0.0322
 6683TIP3    H141684   4.915   5.382   1.438  0.6368  0.8612 -0.2875
 6683TIP3    H241685   4.988   5.253   1.466  1.0408  1.3096  0.8002
 6684TIP3   OH241686   3.052   2.702   1.772  0.1133  0.3885  0.1840
 6684TIP3    H141687   3.114   2.755   1.823  1.9919 -0.1026 -1.4307
 6684TIP3    H241688   3.108   2.654   1.711 -1.6953 -2.0066  0.2994
 6685TIP3   OH241689   4.742   0.726   8.692  0.1904 -0.1737  0.0312
 6685TIP3    H141690   4.664   0.775   8.664  0.9519  1.3080  0.3855
 6685TIP3    H241691   4.713   0.635   8.697 -1.4625  0.3191 -0.0352
 6686TIP3   OH241692   4.333   1.139   1.659 -0.0584  0.0275  0.3957
 6686TIP3    H141693   4.284   1.189   1.593  0.7233 -0.5429 -0.6639
 6686TIP3    H241694   4.370   1.065   1.610  1.5992  0.2732  1.1996
 6687TIP3   OH241695   6.566   0.898   0.733 -0.6970 -0.1533 -0.5899
 6687TIP3    H141696   6.547   0.856   0.649  0.1946 -2.1867  0.1516
 6687TIP3    H241697   6.481   0.902   0.778 -1.2010  1.0632 -1.6039
 6688TIP3   OH241698   3.832   3.047   0.227 -0.3493 -0.2521  0.1240
 6688TIP3    H141699   3.863   3.132   0.195 -1.4898 -0.2839 -1.1465
 6688TIP3    H241700   3.879   3.034   0.309  2.6925 -0.1342 -1.4585
 6689TIP3   OH241701   6.374   3.873   3.802  0.4628 -0.0142 -0.0798
 6689TIP3    H141702   6.392   3.780   3.792 -0.4437 -0.2012 -0.0660
 6689TIP3    H241703   6.459   3.916   3.789  0.8414 -0.8204 -0.3057
 6690TIP3   OH241704   1.699   5.327   0.778  0.1789 -1.1136  0.0289
 6690TIP3    H141705   1.648   5.405   0.799  1.2663  0.4372 -2.5352
 6690TIP3    H241706   1.634   5.264   0.746 -0.5985 -0.8668  1.0758
 6691TIP3   OH241707   3.022   4.331   2.876  0.0792  0.1283  0.7383
 6691TIP3    H141708   3.081   4.287   2.938  0.4090 -0.8706 -0.2625
 6691TIP3    H241709   3.031   4.282   2.795 -1.1866  0.7412  0.1976
 6692TIP3   OH241710   2.001   0.683   3.600 -0.2957 -0.0800  0.1738
 6692TIP3    H141711   2.058   0.695   3.676 -0.5553  0.0119  0.3524
 6692TIP3    H241712   1.914   0.705   3.631 -0.6527 -1.5166  0.2463
 6693TIP3   OH241713   1.667   4.682   0.113 -0.4891  0.0736  0.2627
 6693TIP3    H141714   1.588   4.695   0.060 -0.6033 -1.3363  0.0431
 6693TIP3    H241715   1.731   4.646   0.052 -0.1622 -0.2078  0.7673
 6694TIP3   OH241716   2.149   2.793   0.944 -0.3796  0.2662  0.3627
 6694TIP3    H141717   2.112   2.779   1.031  2.5265 -1.0125  1.5394
 6694TIP3    H241718   2.239   2.822   0.961 -0.2015  1.4998 -2.2565
 6695TIP3   OH241719   1.394   5.692   1.812  0.4551  0.6962 -0.2977
 6695TIP3    H141720   1.319   5.748   1.791 -1.2778 -1.5118 -0.3631
 6695TIP3    H241721   1.459   5.713   1.745 -1.0996  0.8963 -1.7974
 6696TIP3   OH241722   0.270   3.432   1.320 -0.1564 -0.4769  0.1455
 6696TIP3    H141723   0.245   3.524   1.326 -0.8305 -0.7338  2.0973
 6696TIP3    H241724   0.331   3.429   1.247 -0.4891  1.4232 -0.2846
 6697TIP3   OH241725   2.468   6.520   0.541 -0.3598 -0.1866 -0.2439
 6697TIP3    H141726   2.407   6.577   0.495  0.4116 -0.2057 -1.3196
 6697TIP3    H241727   2.495   6.455   0.476  0.7275 -0.2321  0.2284
 6698TIP3   OH241728   4.091   5.887   2.325 -0.1077 -0.2177 -0.5476
 6698TIP3    H141729   4.036   5.809   2.337  2.3154 -1.9101  0.1663
 6698TIP3    H241730   4.180   5.854   2.321  0.9597  2.4569 -1.3478
 6699TIP3   OH241731   2.352   3.778   8.500  0.1207 -0.3718  0.3940
 6699TIP3    H141732   2.376   3.695   8.459 -0.2631 -0.0532 -0.4878
 6699TIP3    H241733   2.296   3.822   8.436 -0.5575  0.1082  1.2878
 6700TIP3   OH241734   5.543   2.898   3.369 -0.3721  0.0402  0.4110
 6700TIP3    H141735   5.543   2.854   3.284  1.3965  0.6448  0.0472
 6700TIP3    H241736   5.625   2.870   3.411  0.1715  1.8941  0.7044
 6701TIP3   OH241737   0.807   4.849   1.298 -0.6549 -0.7468 -0.6148
 6701TIP3    H141738   0.791   4.830   1.206  1.0931 -1.7986 -0.7395
 6701TIP3    H241739   0.800   4.764   1.342  0.1867 -0.5439 -0.0572
 6702TIP3   OH241740   5.973   5.248   2.879 -0.3149 -1.2467 -0.5820
 6702TIP3    H141741   5.888   5.289   2.864 -0.9228 -2.6706 -1.2341
 6702TIP3    H241742   5.966   5.210   2.967  0.5996  0.7989  0.4355
 6703TIP3   OH241743   0.668   1.124   3.108 -0.4336  0.2752 -0.1943
 6703TIP3    H141744   0.711   1.161   3.032  0.7155  0.2204  0.4063
 6703TIP3    H241745   0.661   1.030   3.090  0.6123  0.1291  0.1154
 6704TIP3   OH241746   0.508   3.242   3.608 -0.1160  0.3248 -0.2938
 6704TIP3    H141747   0.461   3.252   3.525  2.7393 -1.1854 -2.2931
 6704TIP3    H241748   0.508   3.147   3.624  2.6192  0.1359 -0.7934
 6705TIP3   OH241749   5.071   6.577   1.540  0.5529 -0.2267  0.2327
 6705TIP3    H141750   5.065   6.671   1.520 -0.5513 -0.2278  0.4771
 6705TIP3    H241751   5.071   6.534   1.454 -1.7854 -0.1179  0.1046
 6706TIP3   OH241752   3.271   4.335   3.942  0.3400  0.1104 -0.3753
 6706TIP3    H141753   3.361   4.316   3.916  0.1398 -1.6466  0.1165
 6706TIP3    H241754   3.256   4.280   4.018 -0.0919  2.8251  1.6702
 6707TIP3   OH241755   1.497   3.725   0.815 -0.1269  0.0354 -0.1632
 6707TIP3    H141756   1.556   3.731   0.740 -0.4092 -1.3067 -0.5158
 6707TIP3    H241757   1.416   3.689   0.779 -0.3703 -0.3460  0.7286
 6708TIP3   OH241758   0.008   1.865   1.861 -0.2271  0.0118  0.1443
 6708TIP3    H141759  -0.046   1.943   1.878 -0.7932 -0.6938  1.7670
 6708TIP3    H241760   0.068   1.861   1.936  1.4397  0.2148 -1.1370
 6709TIP3   OH241761   0.656   6.297   0.060  0.4442 -0.7201 -0.3472
 6709TIP3    H141762   0.710   6.367   0.095 -0.3001 -1.0493  1.5591
 6709TIP3    H241763   0.631   6.245   0.136 -1.0956 -1.6039 -1.3997
 6710TIP3   OH241764   1.504   0.738   0.532 -0.3618  0.5509 -0.4065
 6710TIP3    H141765   1.539   0.753   0.444  0.0363  0.2973 -0.2914
 6710TIP3    H241766   1.515   0.823   0.576 -2.0955  1.1891 -1.1094
 6711TIP3   OH241767   0.868   1.978   2.117 -0.0306 -0.1538 -0.5621
 6711TIP3    H141768   0.913   1.898   2.145  1.2738  1.0035  0.8026
 6711TIP3    H241769   0.875   1.977   2.021  0.8797 -1.1515 -0.5099
 6712TIP3   OH241770   2.375   4.874   0.132 -0.1928  0.0090 -0.2740
 6712TIP3    H141771   2.364   4.866   0.037  0.3959  0.8006 -0.4128
 6712TIP3    H241772   2.366   4.784   0.165  0.8424 -0.4529 -1.2066
 6713TIP3   OH241773   2.160   2.944   8.390 -0.1031  0.1071 -0.8843
 6713TIP3    H141774   2.109   2.887   8.332 -0.0255  0.4091 -1.2544
 6713TIP3    H241775   2.245   2.901   8.397 -0.4231 -0.4405 -0.2034
 6714TIP3   OH241776   1.525   4.414   3.594 -0.1914 -0.1051 -0.3799
 6714TIP3    H141777   1.443   4.465   3.596 -0.3911 -0.4228  1.3037
 6714TIP3    H241778   1.552   4.410   3.686  0.4880 -1.9658 -0.6234
 6715TIP3   OH241779   4.851   2.965   8.445 -0.9432 -0.2717  0.2290
 6715TIP3    H141780   4.797   3.019   8.387 -0.1784 -0.0119 -0.2584
 6715TIP3    H241781   4.866   3.021   8.521  0.1097  0.3617 -0.4093
 6716TIP3   OH241782   6.683   3.324   0.086 -0.0821  0.2240 -0.4433
 6716TIP3    H141783   6.589   3.339   0.078 -0.0429  0.1865 -1.0081
 6716TIP3    H241784   6.719   3.409   0.111 -0.1275  0.5298 -1.3973
 6717TIP3   OH241785   1.544   4.563   1.816  0.7304 -0.1610  0.0295
 6717TIP3    H141786   1.591   4.615   1.882 -1.3193  0.2159  1.2699
 6717TIP3    H241787   1.498   4.496   1.866  0.7513 -1.1738 -1.2517
 6718TIP3   OH241788   4.708   5.836   4.170 -0.0937  0.1570  0.8211
 6718TIP3    H141789   4.629   5.784   4.187  2.3202 -3.1951  3.2410
 6718TIP3    H241790   4.746   5.797   4.092 -0.1371  0.8511  0.4496
 6719TIP3   OH241791   0.523   3.542   4.055  1.1496 -0.6960  0.0836
 6719TIP3    H141792   0.563   3.615   4.007  0.5385  0.1381  0.8183
 6719TIP3    H241793   0.456   3.583   4.110 -0.0810 -1.9599 -0.4174
 6720TIP3   OH241794   4.241   3.773   1.425 -0.2985  0.3226 -0.3162
 6720TIP3    H141795   4.169   3.728   1.469 -1.1340 -0.6105 -2.4839
 6720TIP3    H241796   4.207   3.861   1.408  1.0059  1.6457  3.1139
 6721TIP3   OH241797   5.351   4.261   0.186 -0.7877  0.6999 -0.4794
 6721TIP3    H141798   5.310   4.286   0.103  1.5038  3.7440 -0.8710
 6721TIP3    H241799   5.443   4.247   0.165 -0.6941 -1.7002  1.0897
 6722TIP3   OH241800   5.808   6.689   1.743 -0.0185 -0.6543  0.0338
 6722TIP3    H141801   5.774   6.602   1.724 -0.7114 -0.4906  0.4690
 6722TIP3    H241802   5.877   6.703   1.678 -1.9172 -0.3360 -2.0563
 6723TIP3   OH241803   4.355   5.120   3.418  0.2629 -0.1728 -0.0682
 6723TIP3    H141804   4.442   5.159   3.417 -0.3364  1.5140  2.2575
 6723TIP3    H241805   4.306   5.167   3.350  0.9270 -0.5452 -0.8102
 6724TIP3   OH241806   0.118   6.044   8.750 -0.6550  0.7050  0.2116
 6724TIP3    H141807   0.091   5.992   8.826 -0.4607 -0.5656 -0.5678
 6724TIP3    H241808   0.147   5.980   8.686 -0.7972  1.7593 -0.9470
 6725TIP3   OH241809   6.537   0.387   0.600 -0.3682 -0.1386  0.0096
 6725TIP3    H141810   6.509   0.309   0.551 -1.1188 -0.3204  0.6988
 6725TIP3    H241811   6.483   0.386   0.679  0.2070  0.6291  0.4254
 6726TIP3   OH241812   3.917   4.008   2.301 -0.1341 -0.2932 -0.5910
 6726TIP3    H141813   3.937   3.925   2.258 -0.3213 -1.3950  1.3721
 6726TIP3    H241814   3.907   3.987   2.393  0.1631  1.9850  0.0367
 6727TIP3   OH241815   0.117   0.667   2.900 -0.0858 -0.0037 -0.0298
 6727TIP3    H141816   0.190   0.725   2.874 -0.9276  1.0807 -0.0629
 6727TIP3    H241817   0.058   0.724   2.948 -0.4131 -1.1250  0.9215
 6728TIP3   OH241818   0.812   1.729   0.251 -0.1363  0.0408 -0.3269
 6728TIP3    H141819   0.881   1.717   0.186 -0.7932 -0.0927 -1.0203
 6728TIP3    H241820   0.731   1.720   0.201 -0.6712 -1.1548  0.7099
 6729TIP3   OH241821   1.491   5.242   1.658 -0.2235  0.0275  0.1385
 6729TIP3    H141822   1.465   5.179   1.591 -0.3922 -1.7050  1.7433
 6729TIP3    H241823   1.586   5.232   1.663 -0.2208  0.0930  0.2037
 6730TIP3   OH241824   4.519   2.008   0.782 -0.0622  0.0613  0.2326
 6730TIP3    H141825   4.489   1.923   0.814 -1.5675  0.8185  0.9659
 6730TIP3    H241826   4.539   1.993   0.690 -2.1287 -0.7053 -0.1487
 6731TIP3   OH241827   5.258   5.767   1.192 -0.4537 -0.2135 -0.2163
 6731TIP3    H141828   5.262   5.714   1.113 -0.9940 -0.6851  0.0610
 6731TIP3    H241829   5.294   5.711   1.261  1.8291  0.8646 -0.4371
 6732TIP3   OH241830   0.209   2.816   3.638 -0.6629 -0.1240 -0.7493
 6732TIP3    H141831   0.152   2.892   3.652  0.6845  0.7979 -0.0464
 6732TIP3    H241832   0.285   2.832   3.695 -0.1624 -1.8106 -0.8843
 6733TIP3   OH241833   2.928   3.163   1.275 -0.1369  0.9484  0.0224
 6733TIP3    H141834   2.909   3.206   1.192  0.0973 -1.4136 -1.3506
 6733TIP3    H241835   2.877   3.081   1.271 -0.5655  1.0301  2.4745
 6734TIP3   OH241836   5.097   6.280   2.224  0.4665  0.2501 -0.4043
 6734TIP3    H141837   5.037   6.246   2.159 -0.7369 -1.6593  1.5683
 6734TIP3    H241838   5.111   6.207   2.285 -0.2879  2.4629  2.7016
 6735TIP3   OH241839   2.781   3.241   8.406 -0.1396  0.5611 -0.0744
 6735TIP3    H141840   2.740   3.208   8.326 -0.7939  1.0787  0.0448
 6735TIP3    H241841   2.776   3.336   8.399  2.3001  0.7129 -0.7055
 6736TIP3   OH241842   2.885   2.713   0.186 -0.6361 -0.6373 -0.1868
 6736TIP3    H141843   2.854   2.667   0.264  0.5439  1.5475  1.7011
 6736TIP3    H241844   2.819   2.693   0.119 -1.4893 -2.9102  1.2078
 6737TIP3   OH241845   6.234   6.424   3.629 -0.6037 -0.1027 -1.0814
 6737TIP3    H141846   6.274   6.340   3.655 -0.4495  0.9057  2.6204
 6737TIP3    H241847   6.304   6.488   3.644 -1.7900  1.0382 -0.2305
 6738TIP3   OH241848   5.225   5.131   3.934 -0.1004  0.4905 -0.1187
 6738TIP3    H141849   5.132   5.109   3.930  0.3594 -2.4540  1.6764
 6738TIP3    H241850   5.265   5.081   3.863  0.1443  1.6680 -0.8271
 6739TIP3   OH241851   4.396   2.973   1.903  0.0490  0.2782 -0.0512
 6739TIP3    H141852   4.428   2.883   1.899 -2.2754 -0.5726 -2.1154
 6739TIP3    H241853   4.363   2.983   1.992  0.6038 -0.8103  0.2896
 6740TIP3   OH241854   3.892   2.137   1.094  0.0877 -0.5850  0.1295
 6740TIP3    H141855   3.797   2.140   1.095  0.0888  0.9755 -0.4554
 6740TIP3    H241856   3.917   2.101   1.179 -1.0066 -0.0205  0.7050
 6741TIP3   OH241857   3.890   4.487   0.944  0.1543  0.2507 -0.1710
 6741TIP3    H141858   3.834   4.558   0.973 -0.0648 -0.2379  0.6419
 6741TIP3    H241859   3.908   4.506   0.852  0.2502  1.4451  0.0812
 6742TIP3   OH241860   3.631   1.663   2.618  0.1148 -0.3755  0.6925
 6742TIP3    H141861   3.676   1.663   2.534  0.2714 -0.7439  0.7759
 6742TIP3    H241862   3.690   1.618   2.677 -0.3075 -0.7512  0.8334
 6743TIP3   OH241863   0.199   1.647   1.200  0.0309  0.6875 -0.6412
 6743TIP3    H141864   0.168   1.583   1.264 -0.3711  0.0954 -1.4065
 6743TIP3    H241865   0.121   1.697   1.176  0.2986  1.3313 -0.2174
 6744TIP3   OH241866   2.591   1.073   0.592 -0.2348  0.0872  0.7592
 6744TIP3    H141867   2.679   1.107   0.609 -0.1601 -0.0197  0.5948
 6744TIP3    H241868   2.592   1.052   0.498  0.3607 -2.1939  1.2060
 6745TIP3   OH241869   5.145   2.536   0.249  0.2869  0.0493 -0.0102
 6745TIP3    H141870   5.181   2.510   0.164  2.0281  0.5476  0.5271
 6745TIP3    H241871   5.086   2.608   0.229 -1.3592 -1.5081 -1.0525
 6746TIP3   OH241872   1.121   5.320   1.696 -0.1274 -0.2512  0.4217
 6746TIP3    H141873   1.167   5.277   1.624 -1.4720  3.6304 -3.1690
 6746TIP3    H241874   1.039   5.271   1.705  1.0823 -2.2779  1.2487
 6747TIP3   OH241875   2.795   6.598   8.652 -0.0519  0.3182  0.5336
 6747TIP3    H141876   2.837   6.520   8.613 -1.6596 -0.1700 -0.3226
 6747TIP3    H241877   2.863   6.665   8.650  0.9873 -0.7142  0.0926
 6748TIP3   OH241878   0.072   2.503   3.451 -0.4044 -0.3142  0.4536
 6748TIP3    H141879   0.100   2.423   3.407  1.1021  0.1807  0.4713
 6748TIP3    H241880   0.000   2.475   3.508  0.6079 -1.8053  1.0523
 6749TIP3   OH241881   4.309   2.275   2.279 -0.0821  0.5903 -0.2757
 6749TIP3    H141882   4.216   2.268   2.258 -0.2242  2.3036 -0.3814
 6749TIP3    H241883   4.353   2.276   2.194  0.0091  0.0696 -0.2352
 6750TIP3   OH241884   3.601   1.421   0.086  0.1802  0.0080 -0.4477
 6750TIP3    H141885   3.655   1.498   0.070 -0.1656  0.2507 -0.4474
 6750TIP3    H241886   3.537   1.422   0.015  0.5025 -0.5775 -0.7589
 6751TIP3   OH241887   6.006   3.713   1.897 -0.4880  0.1990  0.0806
 6751TIP3    H141888   5.948   3.739   1.969  0.6388  0.4066  0.9336
 6751TIP3    H241889   6.029   3.622   1.917  0.2569  0.4267  0.2943
 6752TIP3   OH241890   1.475   4.229   0.975 -0.1029 -0.0081  0.5984
 6752TIP3    H141891   1.394   4.184   0.999 -0.2442  0.1865  0.4886
 6752TIP3    H241892   1.514   4.175   0.907  0.1741 -0.4333  1.0868
 6753TIP3   OH241893   5.506   3.460   1.563  0.1628 -0.3009 -0.3447
 6753TIP3    H141894   5.504   3.394   1.632  1.0188 -1.6158 -1.5348
 6753TIP3    H241895   5.450   3.426   1.494  1.3036 -0.2444 -1.3409
 6754TIP3   OH241896   0.838   2.220   1.935  0.1453  0.3277  0.0569
 6754TIP3    H141897   0.874   2.136   1.964  1.8446  0.7163 -0.7574
 6754TIP3    H241898   0.759   2.231   1.986 -0.0093 -1.6678  0.3478
 6755TIP3   OH241899   3.104   4.066   0.070 -0.1083 -0.2165 -0.3456
 6755TIP3    H141900   3.097   3.989   0.128 -0.5203  0.4013  0.4417
 6755TIP3    H241901   3.198   4.073   0.051  0.2114  0.3121  1.2838
 6756TIP3   OH241902   3.677   3.988   3.259 -0.4199 -0.1744  0.4829
 6756TIP3    H141903   3.655   4.065   3.312 -1.3839  0.4311 -0.7446
 6756TIP3    H241904   3.747   4.019   3.201  0.1631 -0.6444  0.9160
 6757TIP3   OH241905   4.694   0.431   3.391 -0.0812  0.0208 -0.1107
 6757TIP3    H141906   4.785   0.437   3.422 -0.2265  2.4116  0.0029
 6757TIP3    H241907   4.660   0.520   3.399 -2.5429 -0.8850  0.0959
 6758TIP3   OH241908   5.660   2.936   2.147  0.2325 -0.5949  0.3773
 6758TIP3    H141909   5.573   2.898   2.133 -0.5106  1.6184 -1.7313
 6758TIP3    H241910   5.660   2.961   2.239 -0.6912 -2.1176  0.8373
 6759TIP3   OH241911   3.781   5.541   2.225  0.8287  0.1551  0.3355
 6759TIP3    H141912   3.771   5.554   2.130 -0.6664  0.1556  0.4579
 6759TIP3    H241913   3.786   5.446   2.236 -2.1785 -0.0961  0.4326
 6760TIP3   OH241914   3.290   0.101   3.423 -0.6781  0.3874 -0.0167
 6760TIP3    H141915   3.295   0.009   3.397 -0.2181  0.3689  0.1348
 6760TIP3    H241916   3.211   0.105   3.479 -0.0968 -0.1461  0.8696
 6761TIP3   OH241917   6.709   3.659   1.563  0.4271  0.3343  0.6156
 6761TIP3    H141918   6.773   3.673   1.493 -2.3708 -0.3226 -2.3491
 6761TIP3    H241919   6.664   3.744   1.571 -1.8974 -0.5846 -1.4259
 6762TIP3   OH241920   5.608   1.975   2.561 -0.5832  1.1858  0.5105
 6762TIP3    H141921   5.617   1.965   2.656 -0.7365 -1.0060  0.3458
 6762TIP3    H241922   5.687   1.936   2.525 -1.6646 -0.3245 -0.3188
 6763TIP3   OH241923   0.164   4.934   1.630 -0.8067 -0.1404  0.1768
 6763TIP3    H141924   0.074   4.911   1.653 -1.0674 -1.0730 -1.5893
 6763TIP3    H241925   0.160   4.956   1.537  0.6522  0.6765  0.2766
 6764TIP3   OH241926   4.067   5.282   1.896 -0.3374  0.2148  0.1938
 6764TIP3    H141927   3.974   5.258   1.886 -0.1439 -0.5505  0.1531
 6764TIP3    H241928   4.075   5.309   1.987 -0.1830 -1.7609  0.8235
 6765TIP3   OH241929   1.462   4.193   0.158 -0.3285  0.6927  0.2974
 6765TIP3    H141930   1.519   4.223   0.229  0.7233  1.6890 -0.9112
 6765TIP3    H241931   1.498   4.235   0.079 -2.5526  1.1223 -0.5703
 6766TIP3   OH241932   1.606   1.458   3.693 -0.4561 -0.4769 -0.0708
 6766TIP3    H141933   1.678   1.398   3.670 -0.9293 -0.7677 -0.8325
 6766TIP3    H241934   1.568   1.421   3.772 -0.7365 -1.1932 -0.5268
 6767TIP3   OH241935   1.495   2.581   0.832  0.3010 -0.3392  0.5623
 6767TIP3    H141936   1.432   2.514   0.804  1.4255 -0.5936 -1.5288
 6767TIP3    H241937   1.506   2.637   0.755  2.5094 -0.2294  0.9102
 6768TIP3   OH241938   3.149   2.666   0.122  0.2976 -0.2426  0.1333
 6768TIP3    H141939   3.160   2.723   0.046  0.8239 -0.7256 -0.1562
 6768TIP3    H241940   3.056   2.641   0.119 -0.1097  1.1112  0.6436
 6769TIP3   OH241941   4.675   6.482   1.117  0.0262 -0.7253 -0.4838
 6769TIP3    H141942   4.677   6.578   1.115  1.3804 -0.6483  1.8053
 6769TIP3    H241943   4.665   6.457   1.025 -3.1275  1.5940 -0.9764
 6770TIP3   OH241944   5.462   0.176   0.162  0.9271 -0.0917 -0.5788
 6770TIP3    H141945   5.368   0.191   0.149  1.3443  2.9453 -0.8012
 6770TIP3    H241946   5.499   0.178   0.074  1.3728  0.4715 -0.3899
 6771TIP3   OH241947   2.725   4.833   1.139  0.4941 -0.7377  0.3241
 6771TIP3    H141948   2.673   4.753   1.135  0.2238 -0.5310 -0.4177
 6771TIP3    H241949   2.815   4.804   1.123  0.6946 -1.1572  2.0571
 6772TIP3   OH241950   5.201   3.375   0.896  0.2336  0.7255  0.1236
 6772TIP3    H141951   5.116   3.337   0.873  0.0017  1.0828  0.4023
 6772TIP3    H241952   5.184   3.432   0.971  0.5119  1.7011 -0.5361
 6773TIP3   OH241953   0.896   1.654   0.839 -0.0664 -0.9490 -0.3167
 6773TIP3    H141954   0.844   1.633   0.916  1.3476 -0.7328  0.7512
 6773TIP3    H241955   0.846   1.721   0.793  0.2159  0.8377  1.8211
 6774TIP3   OH241956   5.917   0.215   0.730  0.8722  0.0739 -0.6241
 6774TIP3    H141957   5.931   0.161   0.652  1.1690  0.2146 -0.6702
 6774TIP3    H241958   5.846   0.274   0.707 -0.1388 -0.9484 -0.2393
 6775TIP3   OH241959   1.854   1.227   2.484 -0.3632 -0.0583  0.6011
 6775TIP3    H141960   1.820   1.184   2.406  1.4069 -1.6724  0.6378
 6775TIP3    H241961   1.943   1.191   2.495  0.5365  2.2658  1.7179
 6776TIP3   OH241962   5.489   0.337   7.691  0.3123 -0.3176 -0.0166
 6776TIP3    H141963   5.515   0.413   7.743  0.1557 -0.3215  0.0676
 6776TIP3    H241964   5.521   0.356   7.603  0.7575 -0.4042  0.1241
 6777TIP3   OH241965   0.676   5.447   2.142 -0.1692 -0.2251 -0.4320
 6777TIP3    H141966   0.710   5.516   2.199 -0.4676  0.7788 -1.4162
 6777TIP3    H241967   0.630   5.495   2.073 -1.3281 -1.4589 -0.5505
 6778TIP3   OH241968   3.258   0.524   0.709 -0.6020  0.3251  0.3943
 6778TIP3    H141969   3.350   0.525   0.732 -0.7993  1.1021  1.1997
 6778TIP3    H241970   3.233   0.616   0.704 -0.6876  0.2379 -2.5538
 6779TIP3   OH241971   4.753   2.879   2.523  0.0870 -0.5803 -0.4320
 6779TIP3    H141972   4.743   2.896   2.617  0.1812 -2.6794  0.0062
 6779TIP3    H241973   4.771   2.965   2.485 -2.1466  0.6837  1.1374
 6780TIP3   OH241974   0.232   1.863   3.209 -0.3437  0.7172 -0.3758
 6780TIP3    H141975   0.277   1.943   3.182  1.3137 -0.7343 -2.1906
 6780TIP3    H241976   0.235   1.807   3.132 -0.2438 -1.6201  1.2369
 6781TIP3   OH241977   4.525   0.844   8.590 -0.2196  0.3263  0.3294
 6781TIP3    H141978   4.500   0.789   8.516  0.2895 -0.1114  0.4781
 6781TIP3    H241979   4.450   0.841   8.649 -0.5587  0.5393 -0.0846
 6782TIP3   OH241980   2.931   4.389   0.159  0.6787  0.3312 -0.0514
 6782TIP3    H141981   3.014   4.405   0.205  0.7075  1.6197 -0.5057
 6782TIP3    H241982   2.891   4.317   0.206  0.7285  1.5689  1.9806
 6783TIP3   OH241983   1.627   3.310   2.454 -0.1337 -0.1539 -0.2594
 6783TIP3    H141984   1.665   3.369   2.390  1.3896 -1.5225 -0.6852
 6783TIP3    H241985   1.598   3.235   2.402 -0.9291 -0.3139  0.4047
 6784TIP3   OH241986   4.244   4.065   0.204  0.4742  0.8303 -0.0152
 6784TIP3    H141987   4.153   4.072   0.234  0.7145 -0.4600  1.0923
 6784TIP3    H241988   4.257   3.972   0.188  1.4458  1.0704 -0.7028
 6785TIP3   OH241989   5.982   1.198   0.901  0.0679 -0.2441  0.1951
 6785TIP3    H141990   5.951   1.263   0.965  2.0282  1.1808 -0.1948
 6785TIP3    H241991   5.909   1.137   0.892 -1.6332  1.5249  1.0928
 6786TIP3   OH241992   5.213   1.806   2.891  1.0114 -0.1387  0.3495
 6786TIP3    H141993   5.178   1.747   2.957 -1.3592  1.5906  0.8075
 6786TIP3    H241994   5.252   1.878   2.940  2.0751 -0.3350 -0.1771
 6787TIP3   OH241995   1.625   3.511   0.184 -0.4951  0.0981  0.0999
 6787TIP3    H141996   1.642   3.547   0.097 -0.7992 -2.5802 -1.1583
 6787TIP3    H241997   1.710   3.478   0.213 -0.6050  0.0634  0.3879
 6788TIP3   OH241998   0.316   6.421   3.422 -0.3098  0.3255 -0.6431
 6788TIP3    H141999   0.233   6.379   3.444  0.6104 -1.7151 -0.9086
 6788TIP3    H242000   0.337   6.474   3.499 -1.6717  0.6229 -0.4471
 6789TIP3   OH242001   2.497   0.762   0.847 -0.2458  0.1297 -0.4201
 6789TIP3    H142002   2.452   0.816   0.911 -0.3791 -1.9734  1.3709
 6789TIP3    H242003   2.442   0.765   0.769 -2.2671 -0.4600  0.9199
 6790TIP3   OH242004   6.564   4.283   1.771 -0.1100  0.0429 -0.2166
 6790TIP3    H142005   6.514   4.234   1.706 -1.5565  1.0789  0.0789
 6790TIP3    H242006   6.535   4.248   1.855 -2.0431  2.1239  0.0575
 6791TIP3   OH242007   6.265   4.290   2.195 -0.1939  0.0682 -0.1699
 6791TIP3    H142008   6.179   4.259   2.222 -0.9938  2.8694  0.9166
 6791TIP3    H242009   6.249   4.378   2.161  2.0495  0.0516 -1.4526
 6792TIP3   OH242010   4.365   6.549   1.765  0.5594  0.2127  0.2385
 6792TIP3    H142011   4.289   6.607   1.760  0.9678  0.7012 -0.4456
 6792TIP3    H242012   4.399   6.562   1.853 -0.0900  0.0574  0.5200
 6793TIP3   OH242013   3.629   0.376   2.505  0.0985  0.1810 -0.0411
 6793TIP3    H142014   3.701   0.346   2.451  1.1068 -1.2258  1.9629
 6793TIP3    H242015   3.649   0.344   2.593 -2.3046  0.8836  0.8600
 6794TIP3   OH242016   3.239   5.658   1.067  0.0885 -0.0779  0.5212
 6794TIP3    H142017   3.320   5.641   1.115 -0.9209 -1.2739  1.8937
 6794TIP3    H242018   3.233   5.588   1.003 -0.7437 -1.0855  1.6646
 6795TIP3   OH242019   3.814   3.052   2.923 -0.3971 -0.0096 -0.4714
 6795TIP3    H142020   3.840   2.965   2.892  1.0770  0.3638 -0.3215
 6795TIP3    H242021   3.764   3.036   3.003 -1.3647 -0.7795 -1.1963
 6796TIP3   OH242022   5.754   3.012   2.713  0.0571  0.3640 -0.5031
 6796TIP3    H142023   5.772   3.096   2.671  0.6141  1.2355  1.3359
 6796TIP3    H242024   5.668   2.987   2.681 -1.7732  3.4054  1.4240
 6797TIP3   OH242025   4.302   0.451   1.690 -0.0284  0.0203  0.2989
 6797TIP3    H142026   4.301   0.547   1.698 -3.4757  0.0154  2.0100
 6797TIP3    H242027   4.315   0.420   1.780  0.6689 -1.1254 -0.1877
 6798TIP3   OH242028   4.087   5.383   0.077  0.1655 -0.5178  0.3173
 6798TIP3    H142029   4.049   5.434   0.006 -1.7590 -0.6752  1.1916
 6798TIP3    H242030   4.114   5.449   0.142 -0.1241 -0.4851  0.4054
 6799TIP3   OH242031   0.879   4.379   3.011  0.1710 -0.0761  0.2128
 6799TIP3    H142032   0.963   4.396   3.054 -0.1828  1.0926  0.4576
 6799TIP3    H242033   0.895   4.301   2.958  1.0414 -0.6419  1.2761
 6800TIP3   OH242034   0.495   6.123   1.576  0.0690 -0.1291  0.0787
 6800TIP3    H142035   0.538   6.152   1.656  0.3110 -1.2283  0.3587
 6800TIP3    H242036   0.412   6.085   1.606 -0.3401  0.4500 -0.3015
 6801TIP3   OH242037   0.456   6.191   3.471  0.1861 -0.0610 -0.6804
 6801TIP3    H142038   0.496   6.194   3.558  2.7251 -0.3662 -1.7600
 6801TIP3    H242039   0.430   6.281   3.453  1.3483  0.3560 -0.3262
 6802TIP3   OH242040   6.038   4.771   8.495  0.1591 -0.0111  0.3949
 6802TIP3    H142041   6.121   4.817   8.507 -0.2080  0.9869 -0.6140
 6802TIP3    H242042   5.989   4.827   8.435 -0.7041 -1.2724 -0.1126
 6803TIP3   OH242043   5.353   4.583   2.281  0.0338  0.1563  0.1230
 6803TIP3    H142044   5.316   4.528   2.350 -2.3210  1.1166 -0.3060
 6803TIP3    H242045   5.358   4.671   2.320  0.1413  0.4054 -0.4370
 6804TIP3   OH242046   2.363   0.223   1.002 -0.6291  0.2743  0.8342
 6804TIP3    H142047   2.320   0.137   1.006 -0.0368 -0.0690  0.0310
 6804TIP3    H242048   2.455   0.203   0.987 -0.5627  1.0687  0.1226
 6805TIP3   OH242049   4.480   0.450   1.202  0.6261  0.4978 -0.0830
 6805TIP3    H142050   4.402   0.421   1.154 -0.3501 -0.9209  2.2136
 6805TIP3    H242051   4.538   0.374   1.200  0.5293  0.3901  1.0306
 6806TIP3   OH242052   4.865   5.940   1.444  0.1858 -0.6428 -0.2105
 6806TIP3    H142053   4.835   5.884   1.372  1.9304  0.3612 -1.8055
 6806TIP3    H242054   4.784   5.973   1.484 -0.8698 -0.4108 -2.3848
 6807TIP3   OH242055   5.780   0.355   0.013  0.6739 -0.0288  0.1846
 6807TIP3    H142056   5.790   0.438  -0.032 -1.8480  0.0359 -0.4118
 6807TIP3    H242057   5.729   0.376   0.092  0.3087 -0.9371  0.2091
 6808TIP3   OH242058   0.600   2.897   3.069  0.6110  0.4219  0.1040
 6808TIP3    H142059   0.529   2.840   3.097  0.1511  1.2643  0.6839
 6808TIP3    H242060   0.587   2.906   2.974  0.3890 -0.0178  0.0893
 6809TIP3   OH242061   3.286   2.197   1.918  0.5790  0.4147  0.1923
 6809TIP3    H142062   3.310   2.256   1.989  1.8692  1.2281 -0.8752
 6809TIP3    H242063   3.192   2.212   1.905 -0.1197 -1.0335  2.8342
 6810TIP3   OH242064   3.424   3.933   1.411 -0.3710  0.0860  0.3526
 6810TIP3    H142065   3.388   3.888   1.334 -2.3946  2.1540 -0.0487
 6810TIP3    H242066   3.502   3.977   1.379 -0.2472 -0.4478 -0.0863
 6811TIP3   OH242067   5.083   4.465   2.818 -0.0240  0.0875  0.7538
 6811TIP3    H142068   5.173   4.469   2.850 -0.1019  1.6551  0.8419
 6811TIP3    H242069   5.064   4.554   2.788 -1.5369 -0.2275  0.7053
 6812TIP3   OH242070   3.983   6.516   2.415 -0.3561 -0.7515 -0.0486
 6812TIP3    H142071   4.048   6.461   2.459  0.1795  0.1278  0.2674
 6812TIP3    H242072   3.907   6.459   2.406 -0.5466 -0.9069  2.1665
 6813TIP3   OH242073   1.875   4.810   1.812 -0.5526 -0.1742  0.1612
 6813TIP3    H142074   1.817   4.835   1.741 -0.8141 -0.7587  0.1665
 6813TIP3    H242075   1.817   4.776   1.880 -0.2115 -0.6720  0.2054
 6814TIP3   OH242076   2.967   1.989   3.372  0.4525 -0.0291 -0.6178
 6814TIP3    H142077   2.961   2.038   3.454 -1.3272 -0.2652 -0.5707
 6814TIP3    H242078   2.957   2.054   3.303  3.0791  0.3428 -0.7508
 6815TIP3   OH242079   5.534   5.488   1.488 -0.1366  1.0291 -0.6461
 6815TIP3    H142080   5.519   5.476   1.394 -0.4303 -0.5039 -0.4318
 6815TIP3    H242081   5.548   5.400   1.521  0.4223  1.5977  0.6851
 6816TIP3   OH242082   1.549   1.245   0.234  0.2595  0.3804 -1.0000
 6816TIP3    H142083   1.629   1.274   0.279 -1.0983  4.6513 -0.9118
 6816TIP3    H242084   1.577   1.231   0.144  1.3424  0.7922 -0.7474
 6817TIP3   OH242085   3.179   4.717   0.432  0.0895  0.1159  0.0406
 6817TIP3    H142086   3.196   4.705   0.525  0.8357  0.3625 -0.0538
 6817TIP3    H242087   3.115   4.649   0.410  1.6900 -1.5648  0.2295
 6818TIP3   OH242088   0.270   4.361   0.727 -0.1680  0.5259 -0.4099
 6818TIP3    H142089   0.355   4.319   0.741 -1.5818 -2.3420  0.3331
 6818TIP3    H242090   0.248   4.399   0.812  0.6949  2.1220 -0.8436
 6819TIP3   OH242091   5.781   1.009   0.960  0.2743  0.3837  0.4221
 6819TIP3    H142092   5.816   0.935   1.010 -0.1094 -0.7558 -0.9252
 6819TIP3    H242093   5.693   1.022   0.995  0.4474  0.4062  0.8625
 6820TIP3   OH242094   1.953   3.403   3.388 -0.0998  0.6869 -0.5657
 6820TIP3    H142095   2.021   3.351   3.431  0.1718  1.3029 -0.2311
 6820TIP3    H242096   1.887   3.339   3.361  1.1674 -0.0880 -2.0134
 6821TIP3   OH242097   2.571   3.304   3.427  0.3190  0.8408 -0.5672
 6821TIP3    H142098   2.581   3.346   3.341  0.8648  0.6850 -0.5850
 6821TIP3    H242099   2.624   3.358   3.486 -0.4946  1.2729 -0.2080
 6822TIP3   OH242100   5.244   1.517   3.889  0.0742 -0.1407 -0.4528
 6822TIP3    H142101   5.272   1.577   3.820  0.0704  3.1659  2.1345
 6822TIP3    H242102   5.324   1.498   3.938 -0.3800  0.0073  0.3649
 6823TIP3   OH242103   3.363   0.434   3.070  0.3813 -0.4135  0.2664
 6823TIP3    H142104   3.433   0.498   3.058 -0.1643  0.0271 -0.6874
 6823TIP3    H242105   3.285   0.487   3.091  0.1460 -0.8400  0.4882
 6824TIP3   OH242106   5.411   4.189   8.372  0.3343  0.9986  0.3574
 6824TIP3    H142107   5.498   4.225   8.390  1.9140 -1.3879 -1.7802
 6824TIP3    H242108   5.405   4.112   8.428 -0.3931  1.0845  0.4098
 6825TIP3   OH242109   2.529   3.164   2.686  0.3546  0.2859 -0.0529
 6825TIP3    H142110   2.484   3.131   2.764  1.1265 -0.2451  0.1860
 6825TIP3    H242111   2.531   3.259   2.698 -1.3897  0.4081 -0.4611
 6826TIP3   OH242112   0.382   6.791   2.531 -0.2340  0.1668  0.2204
 6826TIP3    H142113   0.466   6.822   2.566  1.0295 -2.0294 -0.6393
 6826TIP3    H242114   0.390   6.803   2.436  1.7121 -5.2286 -0.6398
 6827TIP3   OH242115   2.063   0.713   8.093 -0.0287 -0.0186 -0.3554
 6827TIP3    H142116   2.069   0.648   8.023 -0.0533  0.4297 -0.7762
 6827TIP3    H242117   2.097   0.794   8.054 -0.2620  0.2896  0.0751
 6828TIP3   OH242118   3.184   1.548   0.260 -0.0319  0.0884  0.2789
 6828TIP3    H142119   3.116   1.562   0.326  0.9325  2.0096  0.9203
 6828TIP3    H242120   3.139   1.502   0.189 -0.9414 -2.6834  2.4817
 6829TIP3   OH242121   1.576   5.758   1.622 -0.1583  0.4795  0.3500
 6829TIP3    H142122   1.638   5.698   1.578 -0.3667  0.1847  0.4572
 6829TIP3    H242123   1.567   5.831   1.561  0.1379  0.4285  0.2396
 6830TIP3   OH242124   5.561   2.013   1.887  0.4951 -0.6184 -0.4225
 6830TIP3    H142125   5.531   1.926   1.859  0.6613 -1.2977  1.4199
 6830TIP3    H242126   5.585   2.002   1.979  1.1244  1.2411 -0.3314
 6831TIP3   OH242127   6.664   6.071   0.431 -0.0319  0.1726  0.6782
 6831TIP3    H142128   6.674   5.980   0.401 -0.7162  0.2586  0.1707
 6831TIP3    H242129   6.722   6.121   0.374  0.9587 -0.0404  1.4835
 6832TIP3   OH242130   6.188   3.700   0.511 -0.4603  0.1695 -0.2185
 6832TIP3    H142131   6.225   3.743   0.434 -0.1519  1.8656  0.8085
 6832TIP3    H242132   6.244   3.729   0.583 -0.8964 -1.1542  0.6898
 6833TIP3   OH242133   2.514   3.986   2.470 -0.4298 -0.1364  0.4846
 6833TIP3    H142134   2.559   4.064   2.502 -1.6616 -0.2855  2.8181
 6833TIP3    H242135   2.572   3.914   2.491 -0.0688 -0.0186 -0.0805
 6834TIP3   OH242136   2.032   6.718   3.677  0.2080 -0.0287  0.0529
 6834TIP3    H142137   2.089   6.642   3.684  0.4089  0.1106 -0.0898
 6834TIP3    H242138   2.070   6.783   3.736 -0.1790 -0.1686  0.4736
 6835TIP3   OH242139   4.695   1.090   8.840  0.2734 -0.5808 -0.0243
 6835TIP3    H142140   4.602   1.067   8.839 -0.1091  0.8493  0.8023
 6835TIP3    H242141   4.715   1.116   8.750 -0.0366 -1.1953 -0.2749
 6836TIP3   OH242142   0.800   3.129   3.582 -0.3774 -0.4630  0.0338
 6836TIP3    H142143   0.728   3.193   3.585 -0.4623 -0.5456 -0.2075
 6836TIP3    H242144   0.759   3.046   3.604  0.0290 -0.1992  1.9833
 6837TIP3   OH242145   3.790   2.680   0.862 -0.2136 -0.1695 -0.1259
 6837TIP3    H142146   3.777   2.672   0.957  3.0320  1.4972  0.6137
 6837TIP3    H242147   3.733   2.752   0.836  0.8996  1.2607  1.1873
 6838TIP3   OH242148   5.915   1.735   2.845  0.7426  0.1199  0.8137
 6838TIP3    H142149   5.930   1.829   2.858  1.8857  0.1477 -0.5642
 6838TIP3    H242150   5.985   1.707   2.786  0.2386 -1.5462  0.9682
 6839TIP3   OH242151   0.202   4.411   8.831  0.3067 -0.1394  0.1006
 6839TIP3    H142152   0.178   4.441   8.743 -2.2183  1.4467  1.2351
 6839TIP3    H242153   0.296   4.428   8.836  0.5482 -0.3220 -2.2797
 6840TIP3   OH242154   1.229   1.426   1.038  0.0981 -0.3226 -0.2009
 6840TIP3    H142155   1.214   1.389   0.951  1.0249  1.1113 -1.0078
 6840TIP3    H242156   1.236   1.350   1.096 -1.2395 -1.2720 -1.2419
 6841TIP3   OH242157   1.409   1.057   2.827  0.2627  0.1000 -0.2580
 6841TIP3    H142158   1.477   1.039   2.892  0.6895  0.9256 -0.4677
 6841TIP3    H242159   1.353   0.979   2.830  0.4104  0.0096  0.9165
 6842TIP3   OH242160   6.115   4.449   3.136  0.1480  0.0327  0.0813
 6842TIP3    H142161   6.137   4.520   3.075  3.0844  0.6368  1.6657
 6842TIP3    H242162   6.109   4.491   3.221  0.6700 -1.4354  0.8696
 6843TIP3   OH242163   6.494   3.625   2.283 -0.2404 -0.0899  0.4402
 6843TIP3    H142164   6.483   3.671   2.200  1.0382 -0.7793 -0.1486
 6843TIP3    H242165   6.459   3.684   2.349 -2.3056  0.0294 -0.6748
 6844TIP3   OH242166   4.062   0.448   8.300  0.2281 -0.0650  0.1320
 6844TIP3    H142167   4.154   0.446   8.272  0.4900 -0.6166  1.0019
 6844TIP3    H242168   4.013   0.467   8.219  1.1945  1.6844 -0.0944
 6845TIP3   OH242169   3.915   0.863   8.351  0.0261 -0.8271  0.0072
 6845TIP3    H142170   3.829   0.826   8.369  0.2724 -0.4026  2.3084
 6845TIP3    H242171   3.973   0.823   8.417  1.9319 -2.1348 -2.2773
 6846TIP3   OH242172   2.080   3.340   2.197 -0.4219  0.2802  0.0361
 6846TIP3    H142173   2.064   3.349   2.290 -0.7476  1.3557 -0.1161
 6846TIP3    H242174   2.047   3.252   2.176  0.3229 -0.2596  1.0516
 6847TIP3   OH242175   3.521   3.794   0.887  0.2288  0.3835 -0.1489
 6847TIP3    H142176   3.557   3.770   0.972 -1.6090  0.2647  0.6443
 6847TIP3    H242177   3.434   3.755   0.886 -0.3510  1.6191 -1.4873
 6848TIP3   OH242178   3.891   3.446   1.225  0.2528 -0.0581 -0.0544
 6848TIP3    H142179   3.916   3.538   1.234  0.9357 -0.3350  1.1981
 6848TIP3    H242180   3.956   3.410   1.165 -0.3363  0.3798 -0.9731
 6849TIP3   OH242181   0.389   4.249   3.239  0.6344  0.2948 -0.1997
 6849TIP3    H142182   0.464   4.264   3.182  0.8882  2.0602  0.5212
 6849TIP3    H242183   0.313   4.270   3.184  0.6798 -0.8942 -0.7421
 6850TIP3   OH242184   5.837   5.248   3.617 -0.0859  0.0807 -0.2930
 6850TIP3    H142185   5.864   5.340   3.607  1.6500 -0.5025 -1.5484
 6850TIP3    H242186   5.860   5.226   3.707  0.1714  0.6856 -0.2033
 6851TIP3   OH242187   0.340   3.100   2.323 -0.1087  0.4010 -0.1041
 6851TIP3    H142188   0.420   3.060   2.289 -0.0131  0.5943 -0.1078
 6851TIP3    H242189   0.369   3.151   2.399 -0.6183 -1.8526  1.7200
 6852TIP3   OH242190   1.068   3.241   0.374  0.6166 -0.0459 -0.2891
 6852TIP3    H142191   1.090   3.328   0.339  1.1937 -0.5094 -1.0940
 6852TIP3    H242192   1.021   3.198   0.303  1.9553 -1.0585 -0.6043
 6853TIP3   OH242193   4.470   3.820   2.597  0.2395 -0.4247 -0.2518
 6853TIP3    H142194   4.536   3.753   2.579 -0.7517 -1.3859 -0.4168
 6853TIP3    H242195   4.412   3.780   2.662 -1.6954 -0.6780 -2.0020
 6854TIP3   OH242196   2.478   5.270   2.790 -0.0879 -0.0193  0.6746
 6854TIP3    H142197   2.490   5.179   2.762 -0.1101  0.6700 -1.8912
 6854TIP3    H242198   2.395   5.296   2.749 -0.4375  0.9643  1.9530
 6855TIP3   OH242199   2.329   5.592   3.281  0.2870 -0.6360  0.7103
 6855TIP3    H142200   2.369   5.509   3.253 -0.6004 -0.9836  0.4490
 6855TIP3    H242201   2.358   5.602   3.372  0.7000 -1.0480  0.6312
 6856TIP3   OH242202   3.210   6.149   1.992 -0.6410 -0.0480  0.6405
 6856TIP3    H142203   3.151   6.188   2.057 -1.7670  1.8470 -1.3865
 6856TIP3    H242204   3.274   6.217   1.974 -0.3196 -0.5554 -0.1837
 6857TIP3   OH242205   6.615   6.238   2.053 -0.6433 -0.3703  0.4484
 6857TIP3    H142206   6.546   6.288   2.009 -1.6797 -0.7132  1.6254
 6857TIP3    H242207   6.671   6.303   2.094  0.0964 -0.0639 -0.9717
 6858TIP3   OH242208   2.539   4.621   2.844  0.1818 -0.4494 -0.2577
 6858TIP3    H142209   2.537   4.669   2.761 -1.5890 -0.2779 -0.1653
 6858TIP3    H242210   2.448   4.624   2.875  0.9426  0.1945  2.1047
 6859TIP3   OH242211   4.588   3.451   1.123  0.2667  0.6122  0.1402
 6859TIP3    H142212   4.527   3.378   1.131 -0.1613  0.8057 -1.2133
 6859TIP3    H242213   4.653   3.435   1.191 -1.3287  0.4560  1.7173
 6860TIP3   OH242214   0.916   5.799   2.952  0.1080 -0.3956  0.3755
 6860TIP3    H142215   0.902   5.758   3.037  0.1752  0.4537  0.8016
 6860TIP3    H242216   0.909   5.893   2.968 -1.1816 -0.2508 -0.7914
 6861TIP3   OH242217   3.423   5.355   0.929  0.2705 -0.3470  0.0885
 6861TIP3    H142218   3.460   5.443   0.926 -1.4575  0.4090 -0.1716
 6861TIP3    H242219   3.329   5.369   0.941 -0.3339 -2.0795 -2.0355
 6862TIP3   OH242220   4.857   5.112   8.729  0.2271  0.2373  0.4607
 6862TIP3    H142221   4.815   5.075   8.807  0.7181  1.3169  1.2632
 6862TIP3    H242222   4.791   5.104   8.660  0.0546 -1.3958  0.7905
 6863TIP3   OH242223   5.569   2.468   3.434  0.2378 -0.2623 -0.2072
 6863TIP3    H142224   5.614   2.508   3.360  1.0804 -1.1717 -0.2000
 6863TIP3    H242225   5.638   2.450   3.498 -0.5454  1.0370  1.0770
 6864TIP3   OH242226   3.919   3.899   8.285 -0.4484 -0.2462  0.2071
 6864TIP3    H142227   3.915   3.804   8.278 -1.0075 -0.1047 -2.5202
 6864TIP3    H242228   3.831   3.929   8.260 -0.6450  1.0148  2.1343
 6865TIP3   OH242229   3.945   0.377   4.242  0.4409  0.5415 -0.1423
 6865TIP3    H142230   3.862   0.406   4.280 -1.2983 -1.3844 -2.2114
 6865TIP3    H242231   3.979   0.455   4.198  0.0596  1.4961  1.1588
 6866TIP3   OH242232   4.988   4.410   8.801 -0.2985 -0.1422 -0.1220
 6866TIP3    H142233   4.929   4.336   8.818 -0.6991  0.2060  0.0291
 6866TIP3    H242234   5.074   4.379   8.828 -0.1588 -1.1426 -1.6041
 6867TIP3   OH242235   3.266   2.391   1.637  0.2599  0.3133 -0.6498
 6867TIP3    H142236   3.194   2.420   1.581  0.5425  0.0539 -1.1501
 6867TIP3    H242237   3.322   2.469   1.646 -1.3767  1.3232  1.8706
 6868TIP3   OH242238   0.360   2.991   1.403 -0.0491 -0.1035 -0.4439
 6868TIP3    H142239   0.399   3.049   1.338 -0.3538  1.6639  0.8821
 6868TIP3    H242240   0.430   2.975   1.466 -0.5140  0.4161  0.2161
 6869TIP3   OH242241   2.962   6.451   3.053  0.6558  0.3620  0.0190
 6869TIP3    H142242   2.884   6.408   3.087 -0.9098  2.2011 -1.0582
 6869TIP3    H242243   3.016   6.468   3.130  0.1984 -1.2556  0.7390
 6870TIP3   OH242244   5.356   3.911   0.739 -0.1789  0.8923  0.2463
 6870TIP3    H142245   5.382   3.869   0.657  0.6161  1.1339  0.3650
 6870TIP3    H242246   5.329   3.839   0.796  0.0877  0.6489  0.0641
 6871TIP3   OH242247   2.462   0.914   1.291 -0.5211  0.1737 -0.1993
 6871TIP3    H142248   2.552   0.880   1.292 -0.7898 -0.5630 -0.3003
 6871TIP3    H242249   2.472   1.009   1.284  0.2480  0.0770 -0.4979
 6872TIP3   OH242250   1.164   1.255   1.629  0.1883  0.5904  0.3801
 6872TIP3    H142251   1.201   1.214   1.707 -0.6861 -0.3050  0.3494
 6872TIP3    H242252   1.188   1.347   1.636  0.6838  0.3961  1.3707
 6873TIP3   OH242253   4.975   2.869   1.929  0.1469  0.6169  0.9766
 6873TIP3    H142254   5.025   2.924   1.868 -0.4518  0.5340  0.3988
 6873TIP3    H242255   5.040   2.839   1.992  0.6763  1.1650  0.7110
 6874TIP3   OH242256   1.829   3.915   1.246 -0.2518  0.2443 -0.5036
 6874TIP3    H142257   1.905   3.951   1.294 -1.2975 -0.3891  1.7861
 6874TIP3    H242258   1.770   3.990   1.235 -2.3507 -0.3503  4.1042
 6875TIP3   OH242259   3.864   5.429   0.730 -0.2918 -0.7469  0.6640
 6875TIP3    H142260   3.863   5.347   0.779  1.4843 -0.2216  1.6969
 6875TIP3    H242261   3.923   5.485   0.780 -0.3340  0.6687 -0.8040
 6876TIP3   OH242262   3.687   6.269   3.031  0.3192  0.1262  0.3184
 6876TIP3    H142263   3.764   6.222   3.060  0.1092  0.5482  1.6353
 6876TIP3    H242264   3.621   6.201   3.015  0.5740 -0.1486  0.4398
 6877TIP3   OH242265   3.537   3.747   8.748  0.3212 -0.4657 -0.4864
 6877TIP3    H142266   3.447   3.771   8.769  0.6757  0.0537  0.5301
 6877TIP3    H242267   3.590   3.814   8.792  1.2254 -1.2461 -0.3692
 6878TIP3   OH242268   1.774   6.642   2.682  0.1728  0.6285  0.3596
 6878TIP3    H142269   1.689   6.597   2.689  0.4730  0.0498  0.3084
 6878TIP3    H242270   1.836   6.573   2.660  0.7234  0.9892  0.7585
 6879TIP3   OH242271   0.780   5.918   1.063  0.4499  0.1764 -0.4917
 6879TIP3    H142272   0.855   5.869   1.030  1.7878  1.4231  0.5139
 6879TIP3    H242273   0.819   5.993   1.108 -1.3523  0.0901  1.3651
 6880TIP3   OH242274   4.768   5.609   3.956 -0.3183 -0.4777 -0.2214
 6880TIP3    H142275   4.806   5.531   3.995 -1.6929 -0.7640  0.5937
 6880TIP3    H242276   4.678   5.585   3.936 -0.7026  0.8315 -0.1781
 6881TIP3   OH242277   3.867   4.294   8.594  0.3103  0.1384  0.7137
 6881TIP3    H142278   3.796   4.279   8.657 -0.9045 -0.3459 -0.7152
 6881TIP3    H242279   3.880   4.209   8.553 -0.0788  0.8006 -0.8341
 6882TIP3   OH242280   6.280   2.509   2.288 -0.0837  0.1231  0.1445
 6882TIP3    H142281   6.252   2.460   2.210 -0.7821  0.4138  0.2023
 6882TIP3    H242282   6.326   2.445   2.342 -0.2691 -0.2665 -0.1567
 6883TIP3   OH242283   6.273   0.527   8.147  0.1802 -0.5036 -0.4238
 6883TIP3    H142284   6.345   0.589   8.145  1.5254 -1.9898 -0.5577
 6883TIP3    H242285   6.208   0.562   8.086  0.5687  1.1010  0.0530
 6884TIP3   OH242286   3.823   5.991   0.478 -0.9270 -0.2486 -0.5271
 6884TIP3    H142287   3.845   5.972   0.387  0.9636 -0.0484 -0.1475
 6884TIP3    H242288   3.784   5.910   0.511 -2.1951 -0.1307 -1.6519
 6885TIP3   OH242289   0.126   5.343   1.942  0.5967  0.1889 -1.0916
 6885TIP3    H142290   0.178   5.301   1.873  1.6492  2.6788 -1.9276
 6885TIP3    H242291   0.035   5.328   1.916  0.7869 -3.0348 -0.3570
 6886TIP3   OH242292   2.730   5.526   0.818 -0.1951  0.8034 -0.0334
 6886TIP3    H142293   2.660   5.482   0.867  0.8195  0.7499  1.4425
 6886TIP3    H242294   2.711   5.507   0.727 -2.0749  0.7570  0.3320
 6887TIP3   OH242295   6.501   4.728   2.243 -0.0112 -0.8766 -0.4385
 6887TIP3    H142296   6.534   4.818   2.243 -0.9805 -0.5122 -0.5694
 6887TIP3    H242297   6.569   4.678   2.289 -0.2186  0.2005  1.1152
 6888TIP3   OH242298   0.952   4.285   2.234  0.3590 -0.0108  0.5178
 6888TIP3    H142299   0.989   4.362   2.278  0.4146 -0.6301  1.5880
 6888TIP3    H242300   0.917   4.231   2.305  0.6637 -1.1649 -0.1789
 6889TIP3   OH242301   0.856   3.935   2.697  0.1317 -0.4265  0.0361
 6889TIP3    H142302   0.761   3.933   2.687  0.0002  1.1180  0.7525
 6889TIP3    H242303   0.880   3.844   2.713 -1.3735 -0.6594  1.1540
 6890TIP3   OH242304   4.692   4.574   0.870 -0.0806 -0.5137 -0.1390
 6890TIP3    H142305   4.697   4.484   0.901 -2.0175 -1.0753 -1.2995
 6890TIP3    H242306   4.749   4.623   0.929  2.3217 -2.7233 -0.4603
 6891TIP3   OH242307   6.252   4.998   3.855  0.0815  0.1367  0.5717
 6891TIP3    H142308   6.226   5.082   3.891  0.0795 -0.6579  2.5457
 6891TIP3    H242309   6.174   4.943   3.862 -0.3435  0.2906 -1.9705
 6892TIP3   OH242310   6.576   2.736   2.467 -0.7609 -0.0825  0.3240
 6892TIP3    H142311   6.615   2.785   2.540  0.4770 -0.4209 -0.0883
 6892TIP3    H242312   6.619   2.650   2.471 -0.3182  0.0584 -1.0987
 6893TIP3   OH242313   2.323   2.439   0.330 -0.9159 -0.2195 -0.0528
 6893TIP3    H142314   2.278   2.402   0.254 -0.2622  1.0161 -1.0859
 6893TIP3    H242315   2.356   2.524   0.299  0.7929 -0.4132  1.1178
 6894TIP3   OH242316   3.847   0.994   1.032  0.7553 -0.1186  0.6175
 6894TIP3    H142317   3.858   0.915   0.980 -2.2187 -0.8759  0.9227
 6894TIP3    H242318   3.802   1.055   0.973  1.3441  0.6590  0.9577
 6895TIP3   OH242319   6.436   3.083   2.505 -0.0175  0.1101  0.2048
 6895TIP3    H142320   6.474   3.150   2.561  4.1471 -1.4989 -0.3163
 6895TIP3    H242321   6.356   3.055   2.550 -1.3145  4.4417  0.9918
 6896TIP3   OH242322   0.516   1.591   1.993  0.1486  0.0066  0.0033
 6896TIP3    H142323   0.531   1.524   1.925 -0.1836  0.9411 -1.0200
 6896TIP3    H242324   0.563   1.557   2.069 -0.4050 -1.6292 -0.3236
 6897TIP3   OH242325   1.754   0.736   3.790  0.7464 -0.3649  0.2328
 6897TIP3    H142326   1.674   0.765   3.833  0.5497 -0.6913  0.0888
 6897TIP3    H242327   1.815   0.809   3.800 -0.0363  0.4757 -0.9369
 6898TIP3   OH242328   2.101   4.497   3.397 -0.2037  0.2232 -0.2954
 6898TIP3    H142329   2.125   4.589   3.408  0.4902 -0.1340  1.4388
 6898TIP3    H242330   2.011   4.492   3.430  0.2044  0.0649  0.8444
 6899TIP3   OH242331   0.697   4.006   2.940  0.5333  0.5268 -0.2477
 6899TIP3    H142332   0.672   3.926   2.893  1.6052  0.0470 -0.0215
 6899TIP3    H242333   0.778   3.983   2.985  1.3052  1.9994 -0.8351
 6900TIP3   OH242334   4.726   4.156   2.721  0.4288  0.2321  0.0238
 6900TIP3    H142335   4.673   4.094   2.771  0.0368 -1.0891 -1.9180
 6900TIP3    H242336   4.719   4.238   2.770 -2.5473 -0.1568  0.4660
 6901TIP3   OH242337   4.729   0.418   0.463 -0.1135  0.7843  0.4061
 6901TIP3    H142338   4.780   0.476   0.520 -0.3188  1.2883  0.0851
 6901TIP3    H242339   4.735   0.459   0.376  0.4350 -0.1194  0.0014
 6902TIP3   OH242340   6.725   3.444   0.687 -0.3083 -0.3081 -0.3752
 6902TIP3    H142341   6.803   3.389   0.681  0.7226  1.0837 -0.3048
 6902TIP3    H242342   6.698   3.458   0.596 -0.2267 -0.4577 -0.4220
 6903TIP3   OH242343   4.075   3.255   1.329 -0.5007  0.0119  0.5739
 6903TIP3    H142344   4.123   3.293   1.256  0.3070 -0.3213  0.9184
 6903TIP3    H242345   4.089   3.161   1.320 -0.4286 -0.0343  1.1282
 6904TIP3   OH242346   1.266   1.256   8.540  0.0029 -0.6875 -0.1020
 6904TIP3    H142347   1.314   1.209   8.472 -0.0502 -0.8830 -0.0048
 6904TIP3    H242348   1.322   1.330   8.563 -0.6145  0.2226 -1.3936
 6905TIP3   OH242349   0.474   1.560   0.092  0.0326 -0.2575  0.7845
 6905TIP3    H142350   0.545   1.517   0.138  0.0131  1.5887  2.6799
 6905TIP3    H242351   0.414   1.589   0.161 -1.7632 -0.3677 -0.6479
 6906TIP3   OH242352   5.491   1.280   3.314  0.6883  0.6282  0.0020
 6906TIP3    H142353   5.569   1.314   3.269 -0.8815  2.7469 -1.2850
 6906TIP3    H242354   5.475   1.343   3.384  0.3279 -0.0151  0.5060
 6907TIP3   OH242355   2.838   1.373   2.020  0.2000 -0.6377 -0.6050
 6907TIP3    H142356   2.900   1.308   2.053 -0.0636 -0.2744  0.6510
 6907TIP3    H242357   2.827   1.435   2.093 -3.1170 -1.7402 -0.0110
 6908TIP3   OH242358   2.969   5.085   3.728 -0.0722 -0.4857  0.3900
 6908TIP3    H142359   2.913   5.149   3.772 -2.5163 -2.5715  0.5452
 6908TIP3    H242360   3.030   5.056   3.796 -0.4221  0.0196  0.9333
 6909TIP3   OH242361   2.492   2.132   0.717 -0.0106  0.0582  0.0323
 6909TIP3    H142362   2.497   2.224   0.691  1.1097 -0.5615 -2.2561
 6909TIP3    H242363   2.438   2.092   0.649 -2.3095 -0.6609  2.1673
 6910TIP3   OH242364   3.594   5.181   1.007 -0.0097 -0.1908  0.1917
 6910TIP3    H142365   3.587   5.173   1.102  1.3251 -1.2108  0.2290
 6910TIP3    H242366   3.542   5.259   0.986 -4.0980 -2.3873  1.1805
 6911TIP3   OH242367   2.338   4.662   8.851 -0.4285 -0.0819  0.3855
 6911TIP3    H142368   2.364   4.708   8.771  0.6878  1.6974  1.6748
 6911TIP3    H242369   2.375   4.574   8.841 -2.2746 -0.7013 -1.9939
 6912TIP3   OH242370   2.295   0.889   1.605  0.5704  0.0221  0.2265
 6912TIP3    H142371   2.281   0.899   1.699 -2.2942 -0.6741 -0.0510
 6912TIP3    H242372   2.322   0.976   1.575 -0.3420  0.7407  1.4291
 6913TIP3   OH242373   0.932   5.771   0.131 -0.4748  0.4812  0.3546
 6913TIP3    H142374   0.928   5.866   0.143  0.9349  0.5327  0.5611
 6913TIP3    H242375   0.910   5.757   0.039 -1.2885  0.9363  0.4664
 6914TIP3   OH242376   4.415   1.006   3.393  0.1488  0.5684  0.5306
 6914TIP3    H142377   4.453   1.028   3.308  0.1782 -1.7766 -0.1279
 6914TIP3    H242378   4.343   0.946   3.373 -1.0172  1.3737  2.0708
 6915TIP3   OH242379   6.475   5.031   3.665  0.2319 -0.3985  0.0542
 6915TIP3    H142380   6.540   5.090   3.703  0.2145 -0.3285 -0.0237
 6915TIP3    H242381   6.408   5.022   3.733 -0.7025  1.1463 -0.6006
 6916TIP3   OH242382   2.175   6.525   2.791 -0.4293  0.8535 -0.6753
 6916TIP3    H142383   2.269   6.539   2.798 -0.3936  0.1256  0.5053
 6916TIP3    H242384   2.137   6.613   2.791  0.2162  1.1353 -0.7271
 6917TIP3   OH242385   4.104   3.120   0.463 -0.1999 -0.1646  0.3178
 6917TIP3    H142386   4.038   3.186   0.487 -0.2685  0.0670 -0.5075
 6917TIP3    H242387   4.071   3.039   0.502  0.1018  0.3505  1.7119
 6918TIP3   OH242388   2.727   6.040   4.241 -0.2123  0.2976 -0.2342
 6918TIP3    H142389   2.806   6.011   4.285 -0.7043  1.5798  1.6278
 6918TIP3    H242390   2.757   6.110   4.182  0.3373 -0.8556 -1.3568
 6919TIP3   OH242391   4.231   2.816   2.475  0.4722 -0.3201 -0.0127
 6919TIP3    H142392   4.296   2.875   2.436  0.0331 -0.8538 -1.6098
 6919TIP3    H242393   4.271   2.729   2.469  0.5249 -0.3783  1.0358
 6920TIP3   OH242394   6.419   3.367   0.258  0.3035 -0.2133  0.4757
 6920TIP3    H142395   6.442   3.279   0.288  0.9617 -0.0690  0.4295
 6920TIP3    H242396   6.416   3.359   0.162 -0.6014 -0.4000  0.5109
 6921TIP3   OH242397   0.838   4.746   0.670 -0.1716  0.0062  0.4150
 6921TIP3    H142398   0.920   4.794   0.664  0.4298 -1.0167  0.2020
 6921TIP3    H242399   0.778   4.806   0.716  0.4574  1.0478 -0.1005
 6922TIP3   OH242400   1.192   5.602   0.073  0.3993  0.0698  0.2178
 6922TIP3    H142401   1.149   5.643  -0.002 -2.0725  0.5076  1.7596
 6922TIP3    H242402   1.142   5.523   0.090  1.0452 -0.1380  1.2817
 6923TIP3   OH242403   0.053   4.891   0.721  0.5205  0.1854  0.0782
 6923TIP3    H142404   0.081   4.979   0.696 -1.4666  0.8405 -0.0214
 6923TIP3    H242405   0.031   4.899   0.814 -0.2599 -0.0405 -0.0822
 6924TIP3   OH242406   2.974   2.955   0.278 -0.4490  0.1674  0.2321
 6924TIP3    H142407   2.949   2.864   0.266  0.4574 -0.4355  2.3354
 6924TIP3    H242408   2.966   2.970   0.372  0.6538  1.8679  0.1125
 6925TIP3   OH242409   2.521   3.125   1.210 -0.0262 -0.1834 -0.1866
 6925TIP3    H142410   2.586   3.072   1.256  1.1222  0.2213 -1.3162
 6925TIP3    H242411   2.437   3.085   1.234  0.6562 -1.0698  0.8230
 6926TIP3   OH242412   1.876   2.571   2.242 -0.8174  0.1658  0.0044
 6926TIP3    H142413   1.956   2.537   2.282 -1.7296  0.0646  1.8295
 6926TIP3    H242414   1.816   2.496   2.243 -0.8074  0.0859 -1.8367
 6927TIP3   OH242415   4.519   4.948   2.495  0.3373  0.1260  0.0423
 6927TIP3    H142416   4.613   4.945   2.479  0.1990 -0.5598 -0.6579
 6927TIP3    H242417   4.504   4.882   2.563  0.4088  0.5035  0.4306
 6928TIP3   OH242418   5.147   3.301   3.204  0.0986  0.1920  0.2250
 6928TIP3    H142419   5.092   3.341   3.270  0.2632  1.1531 -0.1991
 6928TIP3    H242420   5.129   3.207   3.210  0.8431  0.1298  2.2905
 6929TIP3   OH242421   2.787   5.559   2.398 -0.0072  0.4775  1.0652
 6929TIP3    H142422   2.720   5.567   2.330 -0.4372  0.7214  1.5055
 6929TIP3    H242423   2.870   5.571   2.352 -0.3312  1.4181  0.7029
 6930TIP3   OH242424   1.630   3.315   3.652 -0.0804  0.5380  0.3633
 6930TIP3    H142425   1.683   3.348   3.725 -0.3744  0.9750  0.3828
 6930TIP3    H242426   1.543   3.350   3.669 -0.1267  0.7220 -0.2547
 6931TIP3   OH242427   3.578   0.443   4.150  0.4153 -0.3342 -0.9148
 6931TIP3    H142428   3.521   0.410   4.081  1.3441 -0.1714 -1.7932
 6931TIP3    H242429   3.638   0.371   4.168 -1.1342 -1.1742  1.2895
 6932TIP3   OH242430   0.811   2.935   8.589 -0.0288 -0.2359  0.7937
 6932TIP3    H142431   0.795   3.026   8.567 -0.3008 -0.2117  1.0733
 6932TIP3    H242432   0.760   2.885   8.526  0.9875 -0.2293 -0.0605
 6933TIP3   OH242433   4.000   2.063   0.632  0.6852 -0.3108 -0.3418
 6933TIP3    H142434   4.071   2.017   0.675 -2.1934 -2.1108  2.9905
 6933TIP3    H242435   3.977   2.135   0.691 -1.4823 -0.9793 -0.2803
 6934TIP3   OH242436   4.952   6.609   0.017  0.1294 -0.0362  0.1073
 6934TIP3    H142437   4.927   6.652  -0.064 -0.2798  0.9929  0.7682
 6934TIP3    H242438   4.991   6.526  -0.012 -0.8904 -0.1351 -1.0886
 6935TIP3   OH242439   4.520   4.760   0.638  0.1888  0.0869  0.1330
 6935TIP3    H142440   4.517   4.841   0.690  0.7012  0.4380 -0.3763
 6935TIP3    H242441   4.468   4.780   0.560 -0.7204 -0.4958  0.5660
 6936TIP3   OH242442   6.201   0.257   2.853 -0.1905  0.5964 -0.0244
 6936TIP3    H142443   6.113   0.278   2.884 -0.9933 -1.2400 -0.9348
 6936TIP3    H242444   6.215   0.317   2.779  0.0622  2.0827  1.1739
 6937TIP3   OH242445   1.428   0.078   3.333 -0.1072  0.5551 -0.9025
 6937TIP3    H142446   1.411   0.161   3.378 -0.8721  0.5526 -1.1778
 6937TIP3    H242447   1.510   0.047   3.372 -1.0566  0.2451  0.9610
 6938TIP3   OH242448   3.191   6.774   3.837 -0.4857 -0.4499  0.4955
 6938TIP3    H142449   3.245   6.843   3.874 -0.8868 -0.9497  2.0819
 6938TIP3    H242450   3.113   6.771   3.893 -1.1855 -1.1498 -0.4718
 6939TIP3   OH242451   6.104   2.422   0.910 -0.4122  0.5266 -0.4112
 6939TIP3    H142452   6.132   2.446   0.822 -0.7450  0.9374 -0.4118
 6939TIP3    H242453   6.179   2.378   0.948 -0.1206  0.7151 -0.7613
 6940TIP3   OH242454   3.636   0.853   2.566  0.4806 -0.3473  0.1411
 6940TIP3    H142455   3.541   0.860   2.561  0.6226  0.9586 -1.6505
 6940TIP3    H242456   3.652   0.762   2.591 -1.2346  0.0032  3.0142
 6941TIP3   OH242457   1.616   3.351   0.646 -0.3147 -0.0246  0.0936
 6941TIP3    H142458   1.631   3.442   0.619 -1.9527 -0.2029 -1.6773
 6941TIP3    H242459   1.701   3.308   0.635  0.2442  1.0640 -0.0067
 6942TIP3   OH242460   1.656   3.640   0.594 -0.1795 -0.1837 -0.6065
 6942TIP3    H142461   1.739   3.646   0.546  1.1280  0.1592  1.5766
 6942TIP3    H242462   1.589   3.637   0.526  1.5956 -0.1480 -2.4382
 6943TIP3   OH242463   6.687   5.339   1.828  0.2424  0.1167  0.4149
 6943TIP3    H142464   6.707   5.311   1.739  1.0833  1.4424  0.1518
 6943TIP3    H242465   6.604   5.387   1.820 -1.2492 -2.2093  0.8810
 6944TIP3   OH242466   1.271   4.754   0.047  0.0798  0.4456  0.1708
 6944TIP3    H142467   1.307   4.756   0.136  1.3542 -2.0173 -0.2128
 6944TIP3    H242468   1.205   4.823   0.047  1.7580  2.2107  2.2501
 6945TIP3   OH242469   3.489   4.635   0.785  0.0240 -0.4858 -0.0631
 6945TIP3    H142470   3.498   4.649   0.879  0.2634 -1.6734  0.1058
 6945TIP3    H242471   3.562   4.683   0.746 -0.0326 -0.0566  0.3508
 6946TIP3   OH242472   4.490   6.685   1.990  0.2243  0.0437 -0.3044
 6946TIP3    H142473   4.429   6.758   1.980  0.6918  0.4019 -0.5978
 6946TIP3    H242474   4.490   6.667   2.084 -1.5325 -1.0194 -0.4793
 6947TIP3   OH242475   1.380   4.741   1.357  0.1205 -0.3679  0.1868
 6947TIP3    H142476   1.385   4.671   1.423 -0.0129 -2.3518 -1.7984
 6947TIP3    H242477   1.445   4.717   1.291  0.5433  1.7853 -0.2610
 6948TIP3   OH242478   4.764   3.362   3.460 -0.2283  0.3712 -0.2190
 6948TIP3    H142479   4.733   3.412   3.385 -0.4969  0.2970 -0.1567
 6948TIP3    H242480   4.770   3.272   3.428  1.1856  0.5811 -0.6212
 6949TIP3   OH242481   0.575   1.515   4.154  0.1428 -0.1501 -0.3948
 6949TIP3    H142482   0.631   1.440   4.170  1.4726  1.0776  1.0676
 6949TIP3    H242483   0.630   1.591   4.172 -0.7298  1.2848 -3.1243
 6950TIP3   OH242484   6.714   0.246   8.388 -0.1478 -0.1648 -0.8027
 6950TIP3    H142485   6.695   0.156   8.364  2.2756 -1.2162  0.8173
 6950TIP3    H242486   6.799   0.242   8.433 -1.6622  2.3237  2.7800
 6951TIP3   OH242487   6.240   6.022   3.217  0.5925 -0.2014 -0.1036
 6951TIP3    H142488   6.181   6.088   3.181  1.8168  0.8373 -0.2700
 6951TIP3    H242489   6.324   6.067   3.227  1.1212 -1.3569  1.0526
 6952TIP3   OH242490   3.981   5.230   2.549 -0.3321 -0.5977  0.4000
 6952TIP3    H142491   3.896   5.207   2.510 -0.4996  0.0068  0.3895
 6952TIP3    H242492   3.986   5.325   2.539 -1.0147 -0.2003  3.0791
 6953TIP3   OH242493   5.173   3.531   1.737 -0.2138 -0.4164  0.0230
 6953TIP3    H142494   5.227   3.504   1.812  0.4976  2.7566  0.7904
 6953TIP3    H242495   5.212   3.613   1.708 -1.6008 -0.6305 -2.7230
 6954TIP3   OH242496   1.520   5.730   3.867 -0.0645 -0.1869  1.1781
 6954TIP3    H142497   1.496   5.640   3.890 -0.3515 -0.6679 -0.8750
 6954TIP3    H242498   1.436   5.775   3.855  0.0800  0.1536  1.4044
 6955TIP3   OH242499   5.956   4.294   0.149  0.0970  0.5572  0.2905
 6955TIP3    H142500   5.864   4.289   0.177 -0.0583 -0.5444 -0.3766
 6955TIP3    H242501   5.974   4.388   0.144 -1.1188  0.7993  0.0622
 6956TIP3   OH242502   2.471   4.168   3.408  0.3317  0.4435 -0.4869
 6956TIP3    H142503   2.510   4.214   3.481  0.7612  0.3303 -0.6433
 6956TIP3    H242504   2.377   4.186   3.415  0.5765  2.1653 -1.1133
 6957TIP3   OH242505   1.069   3.747   4.117 -0.1700  0.1060 -0.1842
 6957TIP3    H142506   1.072   3.655   4.141 -1.7546 -0.0564 -0.5116
 6957TIP3    H242507   1.013   3.788   4.183 -0.8545  0.4994 -0.9894
 6958TIP3   OH242508   3.924   5.322   4.125 -0.1117  0.3693 -0.2128
 6958TIP3    H142509   3.875   5.371   4.191  0.9137  0.6851  0.3460
 6958TIP3    H242510   3.991   5.275   4.175 -0.0109 -0.2744 -0.9214
 6959TIP3   OH242511   4.317   2.610   3.698 -0.0491 -0.0370 -0.2132
 6959TIP3    H142512   4.289   2.647   3.782 -1.0591 -1.7429  0.2573
 6959TIP3    H242513   4.235   2.584   3.655  0.3311  1.8202 -2.2959
 6960TIP3   OH242514   1.762   6.110   1.818 -0.6372 -0.0201 -0.3829
 6960TIP3    H142515   1.787   6.177   1.754  0.0437 -0.2630 -0.3764
 6960TIP3    H242516   1.838   6.103   1.876 -1.2665  0.2389  0.4945
 6961TIP3   OH242517   0.414   0.029   8.894 -0.3636  0.1021  0.7902
 6961TIP3    H142518   0.344   0.079   8.854 -0.4974 -0.0107  0.8821
 6961TIP3    H242519   0.371  -0.022   8.963 -0.1229  0.3683  1.1420
 6962TIP3   OH242520   2.703   1.341   2.477  0.6741 -0.1008  0.2261
 6962TIP3    H142521   2.718   1.333   2.571 -0.2148  2.9027  0.7524
 6962TIP3    H242522   2.609   1.324   2.466  0.5813  0.4909  0.0591
 6963TIP3   OH242523   6.790   2.226   1.161 -0.0321  0.2227 -0.2666
 6963TIP3    H142524   6.775   2.195   1.251 -1.3161  1.8347  0.1408
 6963TIP3    H242525   6.885   2.233   1.154  0.1777 -1.3349  0.4353
 6964TIP3   OH242526   4.697   4.011   2.035  0.0388 -0.2496  0.6103
 6964TIP3    H142527   4.712   4.103   2.014 -1.3148  0.0321  0.7436
 6964TIP3    H242528   4.610   3.993   1.999 -0.1145 -1.2034  1.4166
 6965TIP3   OH242529   1.123   2.177   0.209 -0.3696 -0.0555 -0.1417
 6965TIP3    H142530   1.182   2.157   0.137  0.4574 -0.5798  0.6642
 6965TIP3    H242531   1.131   2.102   0.268  0.6126  1.3432  1.5543
 6966TIP3   OH242532   1.694   4.695   2.012 -0.4647 -0.0902  0.4347
 6966TIP3    H142533   1.769   4.687   2.071  0.2320  1.6336 -0.1748
 6966TIP3    H242534   1.618   4.690   2.070  0.1445 -0.5489  1.2187
 6967TIP3   OH242535   2.513   3.557   7.832 -0.0349 -0.7836  0.0801
 6967TIP3    H142536   2.579   3.537   7.898  0.3523 -2.6050 -0.8011
 6967TIP3    H242537   2.535   3.500   7.758 -0.5474  1.0770 -1.5737
 6968TIP3   OH242538   0.153   0.753   2.402  0.0450 -0.2440 -0.0165
 6968TIP3    H142539   0.220   0.786   2.342  2.0591 -2.3197  0.9387
 6968TIP3    H242540   0.099   0.830   2.423  1.6300  1.3430 -1.4374
 6969TIP3   OH242541   3.328   3.281   2.056 -0.3594 -0.6484 -0.2601
 6969TIP3    H142542   3.313   3.214   2.123 -1.5771  0.0648  0.2099
 6969TIP3    H242543   3.266   3.258   1.986 -1.0709  0.1854  0.0751
 6970TIP3   OH242544   1.913   4.202   2.092 -0.6130  0.4020 -0.1913
 6970TIP3    H142545   1.873   4.262   2.029 -0.3226 -0.1869 -0.9598
 6970TIP3    H242546   1.841   4.145   2.119 -0.7607  0.7197  0.0877
 6971TIP3   OH242547   0.590   0.688   3.814  0.6542  0.0355 -0.1813
 6971TIP3    H142548   0.618   0.779   3.814 -1.6942  0.8766  2.0295
 6971TIP3    H242549   0.504   0.689   3.772  0.2357 -1.0295  0.6138
 6972TIP3   OH242550   3.324   1.006   2.231 -0.0744 -0.2796 -0.7769
 6972TIP3    H142551   3.252   0.945   2.213  1.4228 -1.8765 -1.7404
 6972TIP3    H242552   3.383   0.995   2.157  1.6178  0.2643  0.4420
 6973TIP3   OH242553   2.701   4.402   8.520 -0.8009  0.5627  0.0130
 6973TIP3    H142554   2.795   4.393   8.503 -0.7285  0.4334  0.4776
 6973TIP3    H242555   2.678   4.485   8.477 -0.2051  1.2478  0.9721
 6974TIP3   OH242556   0.925   3.609   2.750 -0.1487  0.3109 -0.0456
 6974TIP3    H142557   0.949   3.566   2.832  0.3896 -2.2921 -1.4425
 6974TIP3    H242558   1.007   3.648   2.719 -0.5685  2.1936  1.0699
 6975TIP3   OH242559   3.541   5.311   3.152 -0.0691  0.9986  0.0709
 6975TIP3    H142560   3.459   5.361   3.156 -0.1570  0.8002  0.9304
 6975TIP3    H242561   3.528   5.239   3.213 -0.1543 -0.4247 -1.5627
 6976TIP3   OH242562   5.927   2.376   1.548 -0.3875  0.1844 -0.0380
 6976TIP3    H142563   5.921   2.280   1.542 -1.6836  0.3058 -1.0647
 6976TIP3    H242564   5.972   2.403   1.468  0.6375  0.4007  0.5952
 6977TIP3   OH242565   5.691   1.465   3.242  0.1491 -0.6682 -0.7163
 6977TIP3    H142566   5.694   1.558   3.222 -2.6247 -0.0707  1.0922
 6977TIP3    H242567   5.773   1.448   3.289  0.8711  0.7245 -1.4061
 6978TIP3   OH242568   5.100   4.813   8.854 -0.0872 -0.3775 -0.1525
 6978TIP3    H142569   5.072   4.840   8.942 -0.7014 -0.8527 -0.1977
 6978TIP3    H242570   5.104   4.894   8.804 -0.7193 -0.2210  0.0428
 6979TIP3   OH242571   2.398   3.149   2.943  0.5447 -0.4483  0.1321
 6979TIP3    H142572   2.358   3.064   2.956  0.2380 -0.1152  1.4944
 6979TIP3    H242573   2.371   3.201   3.018  0.0891  1.1079 -1.0448
 6980TIP3   OH242574   2.130   6.293   0.947  0.2225 -0.1159  0.5713
 6980TIP3    H142575   2.079   6.250   0.878  0.9727  0.2820 -0.2639
 6980TIP3    H242576   2.201   6.231   0.965  0.9277  0.4580 -0.1622
 6981TIP3   OH242577   3.943   4.857   8.710 -0.2725  0.2005 -0.6083
 6981TIP3    H142578   3.958   4.950   8.724 -0.7320  0.3349 -0.9922
 6981TIP3    H242579   3.988   4.814   8.783 -2.7052  0.8752  1.4078
 6982TIP3   OH242580   3.551   4.045   0.584  0.3984 -0.4547 -0.1342
 6982TIP3    H142581   3.488   4.065   0.654  1.1127  0.9307  0.1527
 6982TIP3    H242582   3.508   3.979   0.531 -0.6112 -0.7527  1.0060
 6983TIP3   OH242583   2.589   1.977   8.648 -0.0980  0.4145 -0.4047
 6983TIP3    H142584   2.511   1.939   8.607 -1.5158  0.2237  2.2392
 6983TIP3    H242585   2.559   2.061   8.683  0.7337  0.1620  0.9912
 6984TIP3   OH242586   2.157   4.913   0.331  0.4739  0.6861  0.6708
 6984TIP3    H142587   2.204   4.888   0.411  0.8983  2.1193  0.8912
 6984TIP3    H242588   2.224   4.917   0.264 -0.0511 -1.6834 -0.0993
 6985TIP3   OH242589   3.143   4.861   3.133 -0.4209 -0.2918  0.1845
 6985TIP3    H142590   3.186   4.893   3.053 -1.0716 -1.5162 -0.6773
 6985TIP3    H242591   3.107   4.940   3.173  1.5405  0.6114  0.3008
 6986TIP3   OH242592   5.201   1.279   1.807  0.6083  0.3186 -0.6612
 6986TIP3    H142593   5.295   1.290   1.792  0.7794  0.1028  0.1884
 6986TIP3    H242594   5.188   1.311   1.896  0.2927 -1.7850  0.1103
 6987TIP3   OH242595   3.531   1.019   3.872  0.4466 -0.7408  0.3642
 6987TIP3    H142596   3.573   1.033   3.956 -0.4447 -0.3787  0.7614
 6987TIP3    H242597   3.441   0.995   3.894  0.1697 -0.5067 -0.4863
 6988TIP3   OH242598   0.844   5.045   1.492 -0.2982 -0.6461 -0.1822
 6988TIP3    H142599   0.819   4.978   1.428 -1.2319 -1.2063  0.7435
 6988TIP3    H242600   0.790   5.121   1.470 -0.7029 -0.8778  0.0038
 6989TIP3   OH242601   4.772   2.718   1.473 -0.0560  0.6910 -0.2611
 6989TIP3    H142602   4.768   2.710   1.378 -0.5754  0.9893 -0.2728
 6989TIP3    H242603   4.859   2.752   1.491  0.5892 -0.7862 -0.5132
 6990TIP3   OH242604   1.093   6.173   8.579 -0.5898 -0.2836  0.0991
 6990TIP3    H142605   1.142   6.233   8.523 -1.1686 -0.3528 -0.4970
 6990TIP3    H242606   1.159   6.113   8.614  0.2789  1.7117  2.0921
 6991TIP3   OH242607   6.199   1.042   0.930  0.2995  0.7752 -0.0870
 6991TIP3    H142608   6.135   1.112   0.937  1.2179  1.6142  0.2733
 6991TIP3    H242609   6.243   1.042   1.015 -0.2093 -0.7725  0.1893
 6992TIP3   OH242610   5.633   0.137   1.716 -0.4951 -0.1590  0.1647
 6992TIP3    H142611   5.694   0.188   1.663  0.7944  1.1233  2.6935
 6992TIP3    H242612   5.660   0.046   1.705  0.6788  0.2235 -0.2090
 6993TIP3   OH242613   4.317   2.789   3.980 -0.3606 -0.0186  0.0442
 6993TIP3    H142614   4.403   2.821   3.952 -0.2701 -0.2414  0.0727
 6993TIP3    H242615   4.292   2.848   4.051 -0.5682  0.5209 -0.4659
 6994TIP3   OH242616   6.675   3.458   3.995 -0.2816  0.5764 -0.0901
 6994TIP3    H142617   6.660   3.543   4.036 -0.3765  0.3959  0.2546
 6994TIP3    H242618   6.703   3.401   4.067  1.1201  0.6611 -0.5398
 6995TIP3   OH242619   1.794   3.351   3.085 -0.2630  0.0652 -0.1636
 6995TIP3    H142620   1.849   3.371   3.009 -2.3067  0.2553 -1.6791
 6995TIP3    H242621   1.791   3.432   3.135 -1.4109  0.9491 -1.5930
 6996TIP3   OH242622   0.766   0.072   0.200 -0.0996 -0.0434 -0.1976
 6996TIP3    H142623   0.851   0.110   0.222 -0.2855 -0.1908  0.8300
 6996TIP3    H242624   0.703   0.141   0.222 -0.2828 -0.1279 -0.4531
 6997TIP3   OH242625   3.898   0.739   3.304 -0.7274 -0.8447 -0.3849
 6997TIP3    H142626   3.819   0.740   3.358  0.2354 -2.5555  1.1692
 6997TIP3    H242627   3.959   0.797   3.350 -0.9041  0.1597 -1.3664
 6998TIP3   OH242628   5.709   5.497   0.429 -0.1309  0.2697 -0.1287
 6998TIP3    H142629   5.673   5.476   0.343  1.6295 -0.7248 -0.6705
 6998TIP3    H242630   5.632   5.518   0.482 -1.4746 -1.3813 -1.2985
 6999TIP3   OH242631   3.318   0.786   1.286 -0.3865  0.1878  0.5824
 6999TIP3    H142632   3.388   0.850   1.275 -0.2585  0.0454  0.5597
 6999TIP3    H242633   3.265   0.820   1.358  0.6801 -0.5585  1.7639
 7000TIP3   OH242634   6.056   6.631   3.440 -0.3632 -0.1442 -0.1130
 7000TIP3    H142635   6.074   6.633   3.534  0.2404 -0.0924 -0.2259
 7000TIP3    H242636   6.039   6.722   3.417 -1.1092 -0.2337  0.0521
 7001TIP3   OH242637   5.995   2.314   3.435  0.1728  0.2004 -0.2601
 7001TIP3    H142638   5.977   2.283   3.524 -2.0568  2.0932  0.0407
 7001TIP3    H242639   5.958   2.247   3.378 -1.1137  0.4186  0.2979
 7002TIP3   OH242640   3.850   5.933   3.358 -0.0508  0.4854 -0.5328
 7002TIP3    H142641   3.761   5.902   3.372  0.4364 -0.7315 -0.0092
 7002TIP3    H242642   3.878   5.889   3.277  0.2634  0.4204 -0.3905
 7003TIP3   OH242643   2.883   1.394   4.150  0.6706  0.2665  0.2546
 7003TIP3    H142644   2.970   1.432   4.156  0.4464  0.7395  0.6071
 7003TIP3    H242645   2.833   1.438   4.219  0.0928  0.1672 -0.0940
 7004TIP3   OH242646   6.080   5.557   1.321 -0.7473 -0.1505  0.3067
 7004TIP3    H142647   6.141   5.508   1.376  0.0103  2.1247  1.6560
 7004TIP3    H242648   5.995   5.516   1.336 -0.9240  1.2399  4.6076
 7005TIP3   OH242649   5.051   5.753   8.437 -0.4120  0.3432  0.1206
 7005TIP3    H142650   4.993   5.746   8.361 -2.1898  0.8194  1.3809
 7005TIP3    H242651   5.113   5.822   8.413 -0.0334 -0.5076 -1.4508
 7006TIP3   OH242652   4.631   0.452   8.697 -0.2020 -0.1098  0.0665
 7006TIP3    H142653   4.569   0.422   8.630 -1.0077  2.6220 -0.5209
 7006TIP3    H242654   4.576   0.478   8.771  0.4246  0.2398  0.4169
 7007TIP3   OH242655   0.617   1.302   8.735  0.4191 -0.0268 -0.4272
 7007TIP3    H142656   0.559   1.241   8.781 -0.1091 -1.5281 -2.8828
 7007TIP3    H242657   0.679   1.246   8.689  0.2711  1.2909 -2.3184
 7008TIP3   OH242658   4.247   1.141   3.942  0.5083 -0.0811 -0.2857
 7008TIP3    H142659   4.331   1.096   3.940 -0.2319 -1.5345 -0.2480
 7008TIP3    H242660   4.260   1.219   3.889  1.8277 -0.3764 -0.4319
 7009TIP3   OH242661   0.699   3.793   0.437  0.1894 -0.6570  0.3991
 7009TIP3    H142662   0.639   3.770   0.508  0.9382  0.2893  1.3733
 7009TIP3    H242663   0.764   3.849   0.479 -0.3597  1.4580 -1.3973
 7010TIP3   OH242664   4.607   0.793   0.086  0.1516  0.1360  0.2356
 7010TIP3    H142665   4.640   0.862   0.144  0.6569  0.0604  0.0446
 7010TIP3    H242666   4.654   0.806   0.004  2.2816 -2.0247  0.9833
 7011TIP3   OH242667   3.319   6.053   8.629  0.9334  0.3631  0.1573
 7011TIP3    H142668   3.277   6.132   8.664  1.0000  0.3066  0.3710
 7011TIP3    H242669   3.350   6.007   8.707  1.5597  0.4946 -0.0080
 7012TIP3   OH242670   6.291   6.678   8.879 -0.6682 -0.1799  0.0997
 7012TIP3    H142671   6.249   6.681   8.965 -0.7402  0.2023  0.0555
 7012TIP3    H242672   6.265   6.594   8.842  0.8172 -1.1768  1.1781
 7013TIP3   OH242673   4.420   5.375   2.399  0.3326  0.4343 -0.3334
 7013TIP3    H142674   4.470   5.408   2.474 -2.4963  1.0298  1.4559
 7013TIP3    H242675   4.373   5.451   2.366 -1.3344 -0.5164 -0.2735
 7014TIP3   OH242676   0.026   6.008   1.014  0.4850 -0.3833 -0.1926
 7014TIP3    H142677  -0.047   6.060   1.050  0.9195  1.4062 -1.7405
 7014TIP3    H242678   0.020   5.924   1.060  0.1174  1.1941  2.9662
 7015TIP3   OH242679   5.093   1.546   1.682 -0.0300 -0.1649 -0.4416
 7015TIP3    H142680   5.126   1.457   1.679 -1.1344 -0.5992 -0.0557
 7015TIP3    H242681   5.073   1.561   1.774  0.0687  0.4614 -0.5165
 7016TIP3   OH242682   2.588   1.165   1.356 -0.2054  0.2025  0.3418
 7016TIP3    H142683   2.643   1.087   1.356  0.3164  0.5583  0.7597
 7016TIP3    H242684   2.650   1.238   1.350 -0.4400  0.7176  2.9469
 7017TIP3   OH242685   5.338   3.046   2.411  0.2138  0.1814 -0.0663
 7017TIP3    H142686   5.272   3.085   2.467  0.6536 -0.1243  0.6762
 7017TIP3    H242687   5.327   3.090   2.326 -0.5263  0.5627  0.2245
 7018TIP3   OH242688   3.322   1.265   2.419  0.0014  0.3989 -0.1502
 7018TIP3    H142689   3.336   1.334   2.354 -0.7645  1.7277  1.0312
 7018TIP3    H242690   3.349   1.184   2.375  2.2989  1.5944 -1.1224
 7019TIP3   OH242691   0.703   1.716   8.853 -0.1481  0.0243  0.5169
 7019TIP3    H142692   0.630   1.662   8.884 -0.6859  0.2914 -0.2422
 7019TIP3    H242693   0.746   1.662   8.786 -2.0349  1.2714 -1.9077
 7020TIP3   OH242694   1.231   1.761   2.673 -0.1064 -0.1214  1.0195
 7020TIP3    H142695   1.213   1.669   2.687 -0.7571  0.0757  1.5189
 7020TIP3    H242696   1.229   1.772   2.578 -0.1364 -0.5981  0.9651
 7021TIP3   OH242697   4.277   2.398   3.020 -0.2544 -0.2436 -0.4118
 7021TIP3    H142698   4.345   2.447   2.974  0.2548 -0.9455 -0.4324
 7021TIP3    H242699   4.289   2.307   2.991  0.9956 -0.9688  2.1167
 7022TIP3   OH242700   1.026   4.924   0.048 -0.2142 -0.3154  0.4227
 7022TIP3    H142701   1.097   4.982   0.075 -0.9928  0.9306 -0.1103
 7022TIP3    H242702   0.947   4.965   0.083 -1.2467  1.2268 -3.2502
 7023TIP3   OH242703   1.250   1.465   1.404 -0.3894  0.5932  0.1424
 7023TIP3    H142704   1.176   1.433   1.353  0.4769  2.2949 -2.3640
 7023TIP3    H242705   1.223   1.552   1.434 -0.2169  0.3244  1.1055
 7024TIP3   OH242706   2.316   5.248   0.202 -0.0066  0.4122  0.4666
 7024TIP3    H142707   2.319   5.202   0.118 -0.8132  0.0840  0.6125
 7024TIP3    H242708   2.408   5.260   0.226  0.2438 -1.4880  0.6106
 7025TIP3   OH242709   3.371   4.080   0.057 -0.3626  0.1948 -0.0731
 7025TIP3    H142710   3.437   4.040   0.114  0.0778  0.9679 -0.0172
 7025TIP3    H242711   3.392   4.049  -0.031  0.6232  1.1171 -0.1787
 7026TIP3   OH242712   4.177   2.978   1.347  0.1025  0.5342  0.0312
 7026TIP3    H142713   4.242   3.009   1.410 -0.3339  0.8757  0.3143
 7026TIP3    H242714   4.101   2.955   1.401 -0.6259  1.7359 -0.4466
 7027TIP3   OH242715   2.228   4.301   0.572 -0.4491  0.0561  0.5805
 7027TIP3    H142716   2.292   4.327   0.638 -1.0856 -0.7482  1.5508
 7027TIP3    H242717   2.155   4.263   0.622 -0.5828 -1.3901 -0.6133
 7028TIP3   OH242718   3.998   4.256   0.739  0.5859  0.2370 -0.2674
 7028TIP3    H142719   3.943   4.332   0.719  1.2595  0.9674  0.5658
 7028TIP3    H242720   3.990   4.200   0.663  1.0215  1.6997 -1.4359
 7029TIP3   OH242721   0.067   1.454   1.976  0.2176 -0.1180  0.0287
 7029TIP3    H142722   0.136   1.389   1.967 -1.9331 -2.8563  1.6283
 7029TIP3    H242723   0.012   1.442   1.898 -0.2823 -0.3921  0.4136
 7030TIP3   OH242724   2.399   1.165   3.086 -0.3250 -0.1174  0.9849
 7030TIP3    H142725   2.328   1.134   3.030 -0.4500 -0.4133  1.3027
 7030TIP3    H242726   2.381   1.127   3.172  1.0485 -1.4786  0.7223
 7031TIP3   OH242727   6.147   6.181   0.671  0.4734 -0.2216  0.2561
 7031TIP3    H142728   6.096   6.210   0.595 -0.3209  0.0718  0.8896
 7031TIP3    H242729   6.234   6.164   0.636 -0.1688 -1.2272 -0.9585
 7032TIP3   OH242730   5.459   1.106   1.642  0.2039 -0.0898  0.2423
 7032TIP3    H142731   5.434   1.175   1.581 -2.5275  0.4877  1.8538
 7032TIP3    H242732   5.397   1.035   1.623  1.2542 -1.0731  0.3911
 7033TIP3   OH242733   4.115   5.250   0.433  0.6034  0.2762  0.3237
 7033TIP3    H142734   4.135   5.239   0.340  0.9369  0.0360  0.4245
 7033TIP3    H242735   4.172   5.188   0.478 -0.1544 -0.2052  0.6338
 7034TIP3   OH242736   2.791   4.002   2.665  0.2417  0.4119  0.1073
 7034TIP3    H142737   2.762   4.087   2.700  0.1222  0.9846 -1.2892
 7034TIP3    H242738   2.717   3.943   2.681 -0.5908  1.1448 -0.8765
 7035TIP3   OH242739   0.912   5.938   2.337  0.3889  0.5952  0.0735
 7035TIP3    H142740   0.983   5.992   2.301  1.6530 -1.4677 -0.7319
 7035TIP3    H242741   0.942   5.913   2.424  0.8067 -0.5102 -0.3756
 7036TIP3   OH242742   6.693   4.237   8.892 -0.1687 -0.6116  0.0212
 7036TIP3    H142743   6.692   4.270   8.802 -0.6720 -0.4243  0.0907
 7036TIP3    H242744   6.786   4.240   8.917  0.0736 -1.3370 -0.7237
 7037TIP3   OH242745   2.145   0.638   0.190 -0.0976  0.3209 -0.1737
 7037TIP3    H142746   2.175   0.558   0.147  2.3192 -1.0082  3.4021
 7037TIP3    H242747   2.074   0.609   0.248  1.7174  0.2693  2.1971
 7038TIP3   OH242748   6.561   2.977   8.359  0.4117  0.1246  0.1601
 7038TIP3    H142749   6.480   2.987   8.409  0.2516  0.6898 -0.1992
 7038TIP3    H242750   6.550   3.035   8.284  0.1778 -1.5466 -1.1417
 7039TIP3   OH242751   3.409   4.121   8.599  0.5296  0.2854 -0.0389
 7039TIP3    H142752   3.315   4.119   8.579 -0.1063 -1.6758  2.6512
 7039TIP3    H242753   3.448   4.060   8.537 -1.0356 -3.8219  2.5654
 7040TIP3   OH242754   5.560   5.248   1.609 -0.2777 -0.8751  0.1618
 7040TIP3    H142755   5.523   5.160   1.611  1.0323 -1.4382  1.4886
 7040TIP3    H242756   5.654   5.233   1.598 -0.0108  0.3529  0.7041
 7041TIP3   OH242757   6.407   2.746   3.645 -0.4290  0.1382  0.2197
 7041TIP3    H142758   6.405   2.651   3.644  2.9071 -0.0281 -0.5634
 7041TIP3    H242759   6.387   2.769   3.736 -0.3788 -1.3395  0.6302
 7042TIP3   OH242760   6.332   6.277   2.021  0.2619  0.3483  0.2380
 7042TIP3    H142761   6.373   6.342   2.077  0.1572  0.8911 -0.3044
 7042TIP3    H242762   6.245   6.313   2.001  0.6228  0.6012 -0.9872
 7043TIP3   OH242763   0.764   1.232   1.256 -0.1172  0.0089  0.5740
 7043TIP3    H142764   0.727   1.242   1.168 -1.0734  2.0132  1.1303
 7043TIP3    H242765   0.716   1.158   1.294 -0.5060 -0.1517 -0.2028
 7044TIP3   OH242766   2.129   6.175   3.536 -0.5475  0.4661  0.4414
 7044TIP3    H142767   2.198   6.230   3.499 -1.8220  1.1360 -0.9968
 7044TIP3    H242768   2.130   6.195   3.629  1.3967  0.2198  0.5195
 7045TIP3   OH242769   2.465   5.344   2.014 -0.8863 -0.0815 -0.4004
 7045TIP3    H142770   2.524   5.356   1.940  1.2534 -3.0931  0.6359
 7045TIP3    H242771   2.379   5.370   1.981  0.2429  0.1188 -3.4422
 7046TIP3   OH242772   1.375   3.236   2.943  0.1405 -0.5038 -0.2718
 7046TIP3    H142773   1.311   3.306   2.932  0.7409  0.0675 -0.1999
 7046TIP3    H242774   1.371   3.214   3.036  1.6210  1.1100  0.2404
 7047TIP3   OH242775   1.785   2.129   3.281 -0.2595  0.2150  0.5907
 7047TIP3    H142776   1.847   2.184   3.231  0.9972 -0.7795  1.0218
 7047TIP3    H242777   1.779   2.048   3.230 -2.0036  0.6538  0.0339
 7048TIP3   OH242778   4.151   0.753   2.049  0.2574 -0.6957  0.2294
 7048TIP3    H142779   4.102   0.826   2.088  0.7918 -0.7973  1.1193
 7048TIP3    H242780   4.091   0.679   2.055 -0.0903 -0.4566 -0.1942
 7049TIP3   OH242781   0.727   0.490   3.938 -0.2800  0.1100  0.1459
 7049TIP3    H142782   0.723   0.501   4.033 -0.2506 -1.2937  0.3266
 7049TIP3    H242783   0.669   0.558   3.904  0.5192  1.3245  1.0991
 7050TIP3   OH242784   6.276   3.909   1.896 -0.2928 -0.2909  0.0714
 7050TIP3    H142785   6.297   4.002   1.907 -0.3275 -0.3681  0.8418
 7050TIP3    H242786   6.181   3.904   1.906 -0.3591 -0.3403 -0.5287
 7051TIP3   OH242787   0.456   3.678   8.831 -0.0356  0.0356  0.2997
 7051TIP3    H142788   0.534   3.627   8.811  0.0153  0.5154 -0.7776
 7051TIP3    H242789   0.470   3.761   8.787 -1.0456  0.2205  0.3123
 7052TIP3   OH242790   6.348   2.556   0.256 -0.0335 -0.0511  0.2639
 7052TIP3    H142791   6.271   2.609   0.236 -0.9697 -0.4385  2.5224
 7052TIP3    H242792   6.317   2.466   0.257  0.5629 -0.2627  0.6601
 7053TIP3   OH242793   3.998   1.606   0.595  0.2880  1.0892 -0.2124
 7053TIP3    H142794   4.085   1.616   0.555  0.9390  2.3626  1.3561
 7053TIP3    H242795   3.950   1.684   0.568  0.4738  1.5741  0.7877
 7054TIP3   OH242796   0.512   3.347   2.186 -0.2827  0.1507  0.5544
 7054TIP3    H142797   0.442   3.286   2.206  0.0300 -0.6153 -0.5689
 7054TIP3    H242798   0.592   3.293   2.189  0.6905  1.4709  4.3705
 7055TIP3   OH242799   5.469   4.961   1.596  0.0920 -0.0235 -0.0584
 7055TIP3    H142800   5.544   4.908   1.570  0.2764 -0.3312  1.0388
 7055TIP3    H242801   5.399   4.897   1.613  0.0007  0.1546  0.2535
 7056TIP3   OH242802   4.155   4.386   0.173  0.7712  0.0233 -0.1172
 7056TIP3    H142803   4.141   4.313   0.233 -2.1399  0.1601 -0.4824
 7056TIP3    H242804   4.154   4.345   0.086  1.1529  0.2851 -0.2471
 7057TIP3   OH242805   2.795   0.039   1.160 -0.2626 -0.0116  0.3256
 7057TIP3    H142806   2.823   0.070   1.246  0.2075 -0.1639  0.2354
 7057TIP3    H242807   2.842   0.095   1.098  0.7951 -1.0245  0.1588
 7058TIP3   OH242808   3.531   2.553   0.076 -0.8938 -0.2108 -0.7149
 7058TIP3    H142809   3.602   2.592   0.127  1.7705  0.2190 -4.2986
 7058TIP3    H242810   3.460   2.617   0.079 -0.9147 -0.2500  2.3011
 7059TIP3   OH242811   5.149   5.087   2.348 -0.6052  0.3257 -1.2409
 7059TIP3    H142812   5.061   5.056   2.332 -0.8539 -1.0575  1.9993
 7059TIP3    H242813   5.197   5.069   2.267 -2.7053 -1.0979 -2.2367
 7060TIP3   OH242814   1.350   3.978   1.941 -0.2997 -0.0704 -0.0499
 7060TIP3    H142815   1.280   4.011   1.885 -0.2133  0.1111 -0.0513
 7060TIP3    H242816   1.338   4.024   2.024 -1.0717 -1.1114  0.4356
 7061TIP3   OH242817   3.642   4.063   2.885  0.1104 -0.1187  0.6833
 7061TIP3    H142818   3.590   3.983   2.899  0.5961 -1.0663 -2.2273
 7061TIP3    H242819   3.581   4.135   2.899 -0.2996 -0.9102  3.5514
 7062TIP3   OH242820   4.153   4.162   1.796  0.0799  0.1803  0.2787
 7062TIP3    H142821   4.098   4.148   1.873 -0.7158  1.6551  0.0018
 7062TIP3    H242822   4.096   4.144   1.721  0.6962 -0.7158  0.0029
 7063TIP3   OH242823   3.457   2.828   1.339 -0.9097  0.3368 -0.2315
 7063TIP3    H142824   3.518   2.778   1.283 -0.1963 -0.6410  1.3424
 7063TIP3    H242825   3.376   2.777   1.337 -0.1566 -1.0464  1.4409
 7064TIP3   OH242826   3.093   5.712   3.351 -0.4712 -0.4594 -0.5166
 7064TIP3    H142827   3.069   5.634   3.300 -0.9534 -0.8193  0.2444
 7064TIP3    H242828   3.182   5.732   3.322  0.1195 -2.0058  0.0999
 7065TIP3   OH242829   0.770   3.266   1.348  0.4523  0.1058  0.6920
 7065TIP3    H142830   0.836   3.215   1.302  0.2591 -0.2275  0.7793
 7065TIP3    H242831   0.810   3.352   1.361  0.6817  0.0581  0.3114
 7066TIP3   OH242832   6.795   2.597   1.172 -0.4869  0.0702  0.4241
 7066TIP3    H142833   6.730   2.549   1.121 -0.3816 -0.0352  0.3878
 7066TIP3    H242834   6.747   2.669   1.212 -0.2847  1.1242 -1.1301
 7067TIP3   OH242835   0.802   0.385   0.781 -0.3728  0.5017 -0.2406
 7067TIP3    H142836   0.842   0.462   0.821 -1.1729  0.5815  0.4033
 7067TIP3    H242837   0.762   0.418   0.700  1.3907  0.3069 -1.2526
 7068TIP3   OH242838   0.182   3.351   1.552  0.1327  0.1283 -0.5000
 7068TIP3    H142839   0.179   3.430   1.605  0.5704 -0.2845  0.1448
 7068TIP3    H242840   0.220   3.380   1.469 -0.5994  0.7822 -0.6190
 7069TIP3   OH242841   4.389   5.364   1.040 -0.4430 -0.3651  0.2818
 7069TIP3    H142842   4.459   5.355   0.976 -1.1279  4.3472 -1.5440
 7069TIP3    H242843   4.309   5.342   0.992 -0.6160 -1.7775  1.1521
 7070TIP3   OH242844   6.383   0.450   1.356 -0.2283 -0.0953 -0.1545
 7070TIP3    H142845   6.307   0.394   1.374 -0.0069 -0.1364  0.6987
 7070TIP3    H242846   6.438   0.441   1.434  0.6082  0.0124 -0.7296
 7071TIP3   OH242847   0.884   4.281   2.641 -0.2307 -0.5721  0.6973
 7071TIP3    H142848   0.905   4.373   2.654 -0.3720 -0.6610  1.6174
 7071TIP3    H242849   0.922   4.237   2.718 -0.7773 -1.1834  0.6193
 7072TIP3   OH242850   1.229   1.863   1.942 -0.0272  0.6705  0.3642
 7072TIP3    H142851   1.244   1.952   1.975 -0.4267  0.1887  1.9033
 7072TIP3    H242852   1.169   1.824   2.005  0.8211 -0.9785  0.1907
 7073TIP3   OH242853   6.377   3.631   8.826 -0.2988  0.1071  0.3751
 7073TIP3    H142854   6.420   3.598   8.747  0.0826  1.6663 -0.1004
 7073TIP3    H242855   6.398   3.725   8.828 -2.1798  0.5699  1.0937
 7074TIP3   OH242856   6.644   1.013   1.159  0.4556  0.1504 -0.3350
 7074TIP3    H142857   6.639   1.082   1.092  0.8105 -0.7784 -1.3527
 7074TIP3    H242858   6.627   0.932   1.111  1.4711 -0.6198  0.5643
 7075TIP3   OH242859   0.469   0.658   8.795  0.5699  0.4022  0.1337
 7075TIP3    H142860   0.440   0.632   8.707  1.0649  0.1722  0.0348
 7075TIP3    H242861   0.451   0.582   8.849  0.0261  0.6361  0.2902
 7076TIP3   OH242862   1.568   4.521   0.795  0.2883  0.2279 -0.1715
 7076TIP3    H142863   1.641   4.562   0.749 -0.2223 -1.0927 -2.2834
 7076TIP3    H242864   1.490   4.567   0.763 -0.0259 -0.2784 -0.1479
 7077TIP3   OH242865   4.020   4.959   1.962  0.0337 -0.3186 -0.2961
 7077TIP3    H142866   3.978   5.036   2.002 -0.4817 -1.3713  1.2797
 7077TIP3    H242867   4.061   4.993   1.882  0.1508  1.6749  0.5423
 7078TIP3   OH242868   3.273   4.962   2.914 -0.3539  0.3525  0.1203
 7078TIP3    H142869   3.314   4.962   2.827  0.5210 -0.4903  0.5026
 7078TIP3    H242870   3.271   5.054   2.939  0.6622  0.4965 -0.2355
 7079TIP3   OH242871   2.732   0.143   0.783  0.0629 -0.1285 -0.8660
 7079TIP3    H142872   2.794   0.070   0.782  0.9046  0.5684 -0.8268
 7079TIP3    H242873   2.787   0.221   0.776 -0.8545  0.5224 -6.9343
 7080TIP3   OH242874   5.364   5.028   0.709 -0.0005 -0.2945  0.1997
 7080TIP3    H142875   5.362   4.977   0.790  1.1593  0.3704  0.6723
 7080TIP3    H242876   5.442   4.997   0.663  0.7966  1.0917  0.5486
 7081TIP3   OH242877   4.903   5.015   2.593 -0.4504 -0.3824 -0.1572
 7081TIP3    H142878   4.983   5.067   2.602 -0.3149 -0.8654  1.7832
 7081TIP3    H242879   4.895   5.000   2.499  0.8389  1.0546 -0.5407
 7082TIP3   OH242880   2.920   6.040   8.640  0.2221  0.1199 -0.1565
 7082TIP3    H142881   2.958   6.007   8.721  0.9298 -1.7872 -1.2096
 7082TIP3    H242882   2.853   6.102   8.668  1.2629  0.4017  1.8384
 7083TIP3   OH242883   5.499   1.404   8.670 -0.8400  0.3880  0.2730
 7083TIP3    H142884   5.439   1.375   8.739  0.1435 -1.1414  0.5382
 7083TIP3    H242885   5.497   1.333   8.605  0.6453  0.3041  0.2785
 7084TIP3   OH242886   0.470   6.382   1.791  0.0968  1.0796  0.7235
 7084TIP3    H142887   0.548   6.415   1.747  0.1666  0.5975  0.4723
 7084TIP3    H242888   0.442   6.453   1.849  0.0323  1.6989 -0.0619
 7085TIP3   OH242889   1.012   1.476   3.518  0.1550 -0.7826 -0.3410
 7085TIP3    H142890   0.925   1.441   3.537 -0.2778  0.6331  0.4424
 7085TIP3    H242891   1.070   1.429   3.578 -0.4653  0.0523  0.9525
 7086TIP3   OH242892   3.347   4.493   3.606  0.9669  0.5514  0.5189
 7086TIP3    H142893   3.429   4.501   3.655  0.4043 -0.1180  1.6146
 7086TIP3    H242894   3.372   4.508   3.515  2.2794  0.4928  0.8466
 7087TIP3   OH242895   1.545   0.865   1.226  0.0530  0.0740  0.1570
 7087TIP3    H142896   1.455   0.850   1.253  0.0728 -0.6825 -0.1692
 7087TIP3    H242897   1.598   0.824   1.294  0.1142 -1.0641 -0.5567
 7088TIP3   OH242898   3.602   6.485   2.793  0.1053  0.6606 -0.0805
 7088TIP3    H142899   3.653   6.451   2.866 -1.1669  0.4460  0.7342
 7088TIP3    H242900   3.607   6.416   2.727 -0.8129 -0.2642  0.7899
 7089TIP3   OH242901   0.733   3.124   1.925  0.4790  0.7179  0.8279
 7089TIP3    H142902   0.723   3.199   1.983  3.9666  0.2585  2.2732
 7089TIP3    H242903   0.785   3.158   1.852 -1.6991  0.6640 -0.8510
 7090TIP3   OH242904   5.066   0.692   1.178  0.1652 -0.3736 -0.1398
 7090TIP3    H142905   5.035   0.741   1.254  0.8404  1.5735 -1.0567
 7090TIP3    H242906   5.063   0.601   1.206 -1.2099  0.1489  1.6233
 7091TIP3   OH242907   6.310   4.573   0.233 -0.3352  0.0370 -0.3717
 7091TIP3    H142908   6.367   4.503   0.204 -0.9292 -1.4701  1.8362
 7091TIP3    H242909   6.369   4.637   0.274  0.2490  1.1143 -2.7462
 7092TIP3   OH242910   0.600   4.714   1.654 -0.1522  0.2052  0.0914
 7092TIP3    H142911   0.620   4.788   1.596 -0.7845  0.6389  0.4156
 7092TIP3    H242912   0.525   4.744   1.706  1.8626  0.8030  2.9126
 7093TIP3   OH242913   4.216   4.995   1.626 -0.1357 -0.0028 -0.1464
 7093TIP3    H142914   4.302   5.025   1.596  0.7209  0.3633  2.3859
 7093TIP3    H242915   4.233   4.909   1.664 -1.4100 -1.0493 -1.8689
 7094TIP3   OH242916   5.899   3.632   3.472 -0.3616 -0.0935 -0.7643
 7094TIP3    H142917   5.911   3.665   3.383 -1.5242 -0.9240 -1.2470
 7094TIP3    H242918   5.809   3.601   3.475 -0.8347  1.3137  1.1851
 7095TIP3   OH242919   0.591   0.668   0.851 -0.6146 -0.4114  0.1182
 7095TIP3    H142920   0.627   0.742   0.900  0.4340 -1.3075  0.7579
 7095TIP3    H242921   0.509   0.647   0.896 -0.8930  0.3072 -0.0367
 7096TIP3   OH242922   6.461   2.032   2.737 -0.0131 -0.2350 -0.5101
 7096TIP3    H142923   6.399   1.982   2.684 -0.6728  1.7573 -1.7139
 7096TIP3    H242924   6.407   2.073   2.804  0.4507 -0.6765  0.1521
 7097TIP3   OH242925   6.575   6.629   2.439 -0.0598 -0.1287  0.2871
 7097TIP3    H142926   6.598   6.704   2.494  1.7194 -1.0635  0.8789
 7097TIP3    H242927   6.519   6.666   2.371  0.0781  1.5834  1.0501
 7098TIP3   OH242928   0.591   5.854   2.805 -0.3103  0.3172 -0.0479
 7098TIP3    H142929   0.686   5.846   2.795 -0.1950  0.2708  0.9771
 7098TIP3    H242930   0.559   5.867   2.716  0.5757 -0.4894 -0.5134
 7099TIP3   OH242931   4.956   6.061   1.015 -0.7266 -0.0246  0.1149
 7099TIP3    H142932   4.974   6.006   0.939  2.2181  0.7829  0.1030
 7099TIP3    H242933   4.980   6.007   1.091  1.0968  0.7292  0.1492
 7100TIP3   OH242934   3.668   1.641   0.360  0.7885  0.4985 -0.0626
 7100TIP3    H142935   3.583   1.601   0.339  0.8724  0.1243  0.3037
 7100TIP3    H242936   3.680   1.624   0.454  0.5253  1.9363  0.2675
 7101TIP3   OH242937   5.375   3.499   2.941  0.3232  0.1712  0.1817
 7101TIP3    H142938   5.463   3.535   2.925  0.2319 -0.2885 -1.5092
 7101TIP3    H242939   5.351   3.457   2.859 -0.8538 -1.0735  1.1179
 7102TIP3   OH242940   1.514   5.974   2.237 -0.2532 -0.6373 -0.0052
 7102TIP3    H142941   1.587   6.035   2.241 -0.6398 -0.2047  0.6630
 7102TIP3    H242942   1.436   6.028   2.253 -0.8255 -0.9298 -1.5727
 7103TIP3   OH242943   2.983   0.233   1.043  0.0189  0.2455  0.5617
 7103TIP3    H142944   2.955   0.316   1.083 -0.2426  0.1886  0.4970
 7103TIP3    H242945   3.037   0.260   0.968  0.6514  0.3511  1.0504
 7104TIP3   OH242946   3.581   3.711   8.486 -0.9418  0.4208 -0.0814
 7104TIP3    H142947   3.565   3.725   8.580 -1.0396  0.2004 -0.0648
 7104TIP3    H242948   3.532   3.781   8.443 -1.2595  0.2559  0.0099
 7105TIP3   OH242949   6.183   6.587   0.285 -0.2796 -0.4038 -0.2186
 7105TIP3    H142950   6.099   6.541   0.286  0.4904 -1.8775  1.3725
 7105TIP3    H242951   6.159   6.679   0.280 -2.0044 -0.7603  0.5375
 7106TIP3   OH242952   2.978   0.084   2.901  0.1144 -0.2009 -0.4062
 7106TIP3    H142953   3.058   0.115   2.943  0.3501 -0.3904 -0.7177
 7106TIP3    H242954   2.914   0.080   2.972  0.3609  0.0139 -0.1698
 7107TIP3   OH242955   2.358   0.260   3.045 -0.1859  0.3737 -0.1525
 7107TIP3    H142956   2.284   0.232   2.990 -1.5458 -0.8909  2.1846
 7107TIP3    H242957   2.356   0.356   3.040 -2.4084  0.4031  0.3126
 7108TIP3   OH242958   1.415   2.923   0.153 -0.2463  0.4921  0.0274
 7108TIP3    H142959   1.430   2.967   0.237 -0.3659  0.7375 -0.0802
 7108TIP3    H242960   1.321   2.905   0.152 -0.5289  1.8732 -0.7270
 7109TIP3   OH242961   3.465   2.663   3.409  0.1446  0.0740 -0.2275
 7109TIP3    H142962   3.525   2.660   3.484 -1.3975 -0.7489  1.0204
 7109TIP3    H242963   3.473   2.577   3.369  0.9198  0.4921 -1.0205
 7110TIP3   OH242964   3.020   3.911   1.656  0.9999  0.3991 -0.1930
 7110TIP3    H142965   2.992   3.836   1.708 -2.9970  2.4002  0.9337
 7110TIP3    H242966   2.986   3.894   1.568  0.1730  0.7686  0.0410
 7111TIP3   OH242967   0.603   5.328   4.002  0.1487 -0.1413  0.2686
 7111TIP3    H142968   0.641   5.292   3.922 -0.2540 -0.6909  0.3214
 7111TIP3    H242969   0.660   5.402   4.024  1.6181 -1.3695  0.7544
 7112TIP3   OH242970   2.855   2.781   1.553 -0.1126  0.2561  0.1907
 7112TIP3    H142971   2.781   2.741   1.599 -0.9975 -1.1541 -2.2360
 7112TIP3    H242972   2.926   2.718   1.562 -0.4006 -0.2032 -0.5957
 7113TIP3   OH242973   2.809   3.052   3.537  0.5163 -0.3829 -0.4047
 7113TIP3    H142974   2.714   3.056   3.550  0.3350 -2.5774 -0.6579
 7113TIP3    H242975   2.831   3.137   3.499 -0.8024  1.4581  2.5878
 7114TIP3   OH242976   4.949   1.338   8.087  0.0065  0.2486  0.2358
 7114TIP3    H142977   4.936   1.430   8.068 -0.4129  0.7550  2.6079
 7114TIP3    H242978   4.864   1.297   8.068  0.1040  0.4039 -0.5304
 7115TIP3   OH242979   1.026   1.215   2.338  0.1759 -0.1559 -0.1802
 7115TIP3    H142980   1.027   1.298   2.291  0.1275 -0.0400  0.0185
 7115TIP3    H242981   1.108   1.215   2.388 -0.7197  0.7056  1.3947
 7116TIP3   OH242982   1.134   0.575   2.994  0.0204 -0.1610  0.2383
 7116TIP3    H142983   1.186   0.568   3.074 -1.4921 -0.7711  1.2156
 7116TIP3    H242984   1.098   0.487   2.981  0.2995 -0.0978 -1.1726
 7117TIP3   OH242985   4.892   0.545   2.723 -0.5287  0.1791 -0.3049
 7117TIP3    H142986   4.892   0.640   2.735 -0.9405  0.2576 -0.9206
 7117TIP3    H242987   4.800   0.520   2.721 -0.4623 -0.0048 -1.8689
 7118TIP3   OH242988   2.681   1.744   2.485  0.3348  0.2425 -0.2967
 7118TIP3    H142989   2.617   1.791   2.432  3.1835  0.8460 -3.4997
 7118TIP3    H242990   2.678   1.654   2.454  0.3048  0.0226  0.3211
 7119TIP3   OH242991   3.733   2.017   2.311  0.5409 -0.3507 -0.0896
 7119TIP3    H142992   3.754   1.983   2.398  0.0702 -0.0281  0.1521
 7119TIP3    H242993   3.818   2.043   2.274  0.7098 -0.2022  0.3941
 7120TIP3   OH242994   3.409   2.085   0.147 -0.2192 -0.3870  0.3827
 7120TIP3    H142995   3.464   2.011   0.118 -0.0913 -0.2461  0.2624
 7120TIP3    H242996   3.415   2.084   0.242  0.0916 -0.2988  0.3645
 7121TIP3   OH242997   5.603   3.677   4.088  0.4753 -0.3885  0.9022
 7121TIP3    H142998   5.596   3.752   4.148  0.4881  0.1833  0.2048
 7121TIP3    H242999   5.589   3.600   4.144 -0.8530  0.1864  1.4025
 7122TIP3   OH243000   3.379   2.306   8.892 -0.5014  0.2952  0.1849
 7122TIP3    H143001   3.436   2.364   8.943 -0.3743  0.8111 -0.5217
 7122TIP3    H243002   3.375   2.225   8.943 -1.6610  1.3246  1.8347
 7123TIP3   OH243003   0.217   3.263   1.942 -0.1191  0.7495 -0.1990
 7123TIP3    H143004   0.169   3.188   1.977 -1.4175  0.9218 -1.5461
 7123TIP3    H243005   0.231   3.319   2.019  0.2019 -0.4847  0.6857
 7124TIP3   OH243006   2.077   1.496   2.236 -0.2163 -0.0840  0.1464
 7124TIP3    H143007   2.167   1.523   2.217 -0.3310  0.1008 -0.1324
 7124TIP3    H243008   2.078   1.401   2.222  0.4457 -0.4194  2.1401
 7125TIP3   OH243009   0.747   6.221   3.128 -0.2679 -0.0796 -0.8352
 7125TIP3    H143010   0.661   6.193   3.158 -0.2670  1.3210  0.6411
 7125TIP3    H243011   0.732   6.307   3.088  0.2420 -0.4924 -1.9645
 7126TIP3   OH243012   2.487   5.907   8.631  0.4978 -0.7833  0.5493
 7126TIP3    H143013   2.467   5.941   8.545 -1.7540 -0.4490  1.1561
 7126TIP3    H243014   2.517   5.983   8.681 -0.5834 -0.4738  0.7441
 7127TIP3   OH243015   3.079   6.257   2.202  0.1935 -0.0713 -0.8172
 7127TIP3    H143016   3.044   6.312   2.272  3.2526 -0.2386  1.0288
 7127TIP3    H243017   3.036   6.172   2.216  0.8979 -0.1641  1.0629
 7128TIP3   OH243018   4.097   4.973   2.964  0.3864  0.2244 -0.6499
 7128TIP3    H143019   4.061   4.887   2.984  1.6076 -0.5063 -1.4679
 7128TIP3    H243020   4.056   4.996   2.880 -1.4415  1.3658  0.4774
 7129TIP3   OH243021   2.035   2.288   2.838 -0.3562 -0.2950 -0.2465
 7129TIP3    H143022   2.015   2.207   2.792  1.5703 -0.6420 -0.5540
 7129TIP3    H243023   2.113   2.321   2.795  0.7367  0.0718  1.8984
 7130TIP3   OH243024   4.544   0.423   4.296 -0.5817 -0.3250 -0.3152
 7130TIP3    H143025   4.620   0.391   4.345 -1.3908 -1.3860  0.2866
 7130TIP3    H243026   4.528   0.511   4.330 -0.9627 -0.9458  1.1562
 7131TIP3   OH243027   0.542   2.568   3.077 -0.3585  0.2877  0.7500
 7131TIP3    H143028   0.488   2.632   3.124 -0.4472 -1.5313  3.3182
 7131TIP3    H243029   0.481   2.497   3.055  0.4004 -0.4443  0.9918
 7132TIP3   OH243030   4.954   5.944   0.761 -0.3837 -0.3663  0.0080
 7132TIP3    H143031   4.986   5.855   0.744 -1.4785 -0.5219 -1.3927
 7132TIP3    H243032   4.861   5.940   0.742 -0.2014  1.4193 -1.4861
 7133TIP3   OH243033   2.677   0.289   3.715 -0.3430 -0.0842  0.6108
 7133TIP3    H143034   2.699   0.317   3.804 -0.7687 -0.6146  0.8880
 7133TIP3    H243035   2.623   0.211   3.727  0.4103 -0.7337 -0.1459
 7134TIP3   OH243036   1.752   5.175   3.625 -0.2386 -0.5389  0.3716
 7134TIP3    H143037   1.674   5.147   3.577  0.0935 -2.5076  0.8697
 7134TIP3    H243038   1.765   5.106   3.691  0.3677  1.1264  2.0840
 7135TIP3   OH243039   5.371   2.861   8.777  0.1131 -0.1942  0.1734
 7135TIP3    H143040   5.321   2.860   8.695 -1.3107 -0.5464  1.0074
 7135TIP3    H243041   5.462   2.861   8.750 -0.3359 -0.2046 -1.4136
 7136TIP3   OH243042   2.741   0.431   7.792  0.4385  0.0254  0.2998
 7136TIP3    H143043   2.836   0.426   7.779  0.7580 -2.2720  2.5874
 7136TIP3    H243044   2.730   0.506   7.852  0.9990 -0.5116  1.1031
 7137TIP3   OH243045   6.409   2.553   0.918 -0.3885 -0.2475 -0.2944
 7137TIP3    H143046   6.385   2.527   0.829  1.7500  1.0914 -1.3262
 7137TIP3    H243047   6.371   2.640   0.928 -2.2919 -1.1512  0.8913
 7138TIP3   OH243048   2.068   3.120   1.884 -0.2418  0.2696  0.1218
 7138TIP3    H143049   2.136   3.143   1.948  0.0300  0.6418 -0.3017
 7138TIP3    H243050   1.997   3.083   1.937 -0.1687  0.9113  0.6753
 7139TIP3   OH243051   4.613   4.392   1.633  0.8948  0.1860  0.1096
 7139TIP3    H143052   4.584   4.424   1.719 -0.1061  0.1115 -0.1892
 7139TIP3    H243053   4.599   4.465   1.574 -1.8820 -0.8682 -0.6768
 7140TIP3   OH243054   0.194   1.262   2.529 -1.0577  0.0735  0.0542
 7140TIP3    H143055   0.194   1.312   2.610  3.0754 -0.3118  0.5272
 7140TIP3    H243056   0.215   1.326   2.461 -2.4206  0.0438 -0.4146
 7141TIP3   OH243057   6.309   2.779   2.409 -0.4476  0.5800 -0.7594
 7141TIP3    H143058   6.272   2.709   2.355  0.7442  0.4445 -1.4391
 7141TIP3    H243059   6.404   2.765   2.405 -0.2724  1.2482  0.4565
 7142TIP3   OH243060   5.237   3.643   3.440 -0.3496  0.5106 -0.6474
 7142TIP3    H143061   5.302   3.632   3.370 -0.3429  1.3936 -0.7873
 7142TIP3    H243062   5.243   3.735   3.463 -0.5169  0.2738  0.3659
 7143TIP3   OH243063   6.323   1.343   1.228 -0.2424 -0.2678  0.7812
 7143TIP3    H143064   6.286   1.265   1.188  0.1451 -0.4599  0.7934
 7143TIP3    H243065   6.418   1.330   1.224  0.1256  2.0945 -3.1060
 7144TIP3   OH243066   3.298   5.653   3.770 -0.7185 -0.0665 -0.1557
 7144TIP3    H143067   3.215   5.628   3.729 -0.9439 -0.9828  0.8284
 7144TIP3    H243068   3.277   5.663   3.863  0.2678 -0.2672  0.0958
 7145TIP3   OH243069   5.680   1.799   0.572 -0.3812  0.3051 -0.7497
 7145TIP3    H143070   5.703   1.743   0.647 -2.4280 -2.5193 -2.0518
 7145TIP3    H243071   5.618   1.862   0.608 -0.3885 -0.2145  0.2057
 7146TIP3   OH243072   6.683   1.322   0.737 -0.0471 -0.0940  0.5907
 7146TIP3    H143073   6.765   1.288   0.701  0.3561 -0.6142  1.9494
 7146TIP3    H243074   6.637   1.358   0.661  0.4456 -1.7841 -0.5727
 7147LIG     O143075   4.525   4.645   5.990 -0.0044 -0.3335 -0.2113
 7147LIG     O243076   4.380   4.694   5.768  0.5549  0.2305  0.2922
 7147LIG     O343077   4.543   4.362   5.882 -0.1802 -0.0917  0.5000
 7147LIG     O443078   4.518   4.816   5.609  0.0805 -0.3403 -0.0412
 7147LIG     O543079   4.621   4.481   5.622  0.0566 -0.0089 -0.1629
 7147LIG     O643080   4.464   4.475   5.377  0.0976  0.2884 -0.3921
 7147LIG     O743081   4.371   4.735   5.289 -0.1649  0.0849 -0.2311
 7147LIG     O843082   4.300   5.026   5.589  0.3691  0.2585 -0.1790
 7147LIG     O943083   4.176   4.846   5.547 -0.8905 -0.0640 -0.2919
 7147LIG      N43084   4.236   4.723   6.379  0.1668 -0.0819 -0.1715
 7147LIG     C143085   4.361   4.724   6.123  0.2489  0.1387 -0.5967
 7147LIG     C243086   4.220   4.788   6.130  0.9437  0.8832 -0.0226
 7147LIG     C343087   4.448   4.763   6.000 -0.0630  0.1272 -0.5779
 7147LIG     C443088   4.151   4.713   6.253 -0.4235  0.0141  0.1177
 7147LIG     C543089   4.440   4.752   6.253 -0.3912 -0.3697  0.0564
 7147LIG     C643090   4.342   4.574   6.113 -0.0927  0.1582 -0.1264
 7147LIG     C743091   4.125   4.555   6.224  0.2976 -0.7235 -0.6897
 7147LIG     C843092   4.376   4.674   6.368 -0.1047 -0.2174  0.2862
 7147LIG     C943093   4.377   4.792   5.869 -0.0413 -0.0308 -0.6212
 7147LIG    C1043094   4.239   4.487   6.145 -0.0587 -0.2078 -0.1152
 7147LIG    C1143095   4.152   4.794   5.994  0.0568  0.0014  0.1935
 7147LIG    C1243096   4.440   4.534   6.015 -0.0019  0.0488  0.1710
 7147LIG    C1343097   4.228   4.791   5.879 -0.3622 -0.4151 -0.3177
 7147LIG    C1443098   4.222   4.859   6.441  0.1225 -0.5298 -0.1345
 7147LIG    C1543099   4.236   4.359   6.098 -0.6116  0.3723 -0.3771
 7147LIG    C1643100   4.441   4.397   5.974 -0.9281 -0.4290  0.8910
 7147LIG    C1743101   4.332   4.313   6.008 -1.0553 -0.2769 -0.7266
 7147LIG    C1843102   4.496   4.695   5.685 -1.5486  0.7857 -0.0545
 7147LIG    C1943103   4.503   4.562   5.593  0.2673 -0.2402  0.2048
 7147LIG    C2043104   4.495   4.600   5.445  0.4345 -0.0671  0.2231
 7147LIG    C2143105   4.383   4.703   5.428 -0.1423 -0.1030 -0.0682
 7147LIG    C2243106   4.421   4.829   5.501  0.2772 -1.2282  0.0612
 7147LIG    C2343107   4.291   4.895   5.547 -0.1994  0.1286 -0.9746
 7147LIG     H143108   4.238   4.893   6.162 -0.4285  0.7311  1.3921
 7147LIG     H243109   4.518   4.849   6.010 -2.0717  1.7448  0.3376
 7147LIG     H343110   4.052   4.760   6.270 -0.4094  0.0239  0.1749
 7147LIG     H443111   4.433   4.863   6.259  0.5672 -0.3297  0.6921
 7147LIG     H543112   4.548   4.729   6.245 -0.4027 -1.7428  2.6900
 7147LIG     H643113   4.031   4.534   6.170 -1.6930 -0.0081  2.2604
 7147LIG     H743114   4.118   4.504   6.323  3.0613  0.8559  0.4614
 7147LIG     H843115   4.389   4.564   6.360  0.0271 -0.1881  0.1123
 7147LIG     H943116   4.413   4.708   6.467 -0.5775  0.5287  0.2146
 7147LIG    H1043117   4.406   4.892   5.829 -2.3536  0.5989 -0.8630
 7147LIG    H1143118   4.044   4.782   6.008 -0.0418  1.8603  1.4838
 7147LIG    H1243119   4.176   4.738   5.798 -0.7625 -0.0176 -0.3231
 7147LIG    H1343120   4.198   4.845   6.549 -0.2180  2.1216  0.1835
 7147LIG    H1443121   4.139   4.919   6.399  1.3355  2.0396  0.9441
 7147LIG    H1543122   4.316   4.917   6.449  0.7433 -1.6986  2.1313
 7147LIG    H1643123   4.152   4.298   6.130 -2.3950  2.4318 -0.9202
 7147LIG    H1743124   4.346   4.213   5.968  0.4055 -0.0308 -0.8929
 7147LIG    H1843125   4.589   4.692   5.745 -1.1840  1.0986 -0.5903
 7147LIG    H1943126   4.426   4.491   5.629  0.8522 -2.0882 -1.9777
 7147LIG    H2043127   4.599   4.631   5.424  0.5858 -1.6774 -1.7126
 7147LIG    H2143128   4.537   4.266   5.883 -2.6470 -0.0464 -1.5414
 7147LIG    H2243129   4.291   4.662   5.474 -1.1987  0.8138 -1.3312
 7147LIG    H2343130   4.463   4.909   5.437 -0.9303  0.9061  1.7942
 7147LIG    H2443131   4.595   4.445   5.708 -2.2820 -2.2038 -1.6551
 7147LIG    H2543132   4.535   4.419   5.408  0.0513  0.0668 -0.6899
 7147LIG    H2643133   4.351   4.647   5.257 -2.3803  0.2827  0.4241
 7147LIG    H2743134   4.220   5.053   5.634  1.4332  1.3204  1.1775
   6.79768   6.79768   8.89466
