* GENERATED BY CHARMM-GUI (HTTP://WWW.CHARMM-GUI.ORG) V3.7 ON OCT, 22. 2024. JOB
* GENERATES ION CONFORMATION USING MONTE-CARLO SIMULATION
*  DATE:    10/22/24      9:54:44      CREATED BY USER: apache
*
     22320  EXT
         1         1  CHL1      C3             -0.8400145203        1.4726500152       17.3001800000  MEMB      1               0.0000000000
         2         1  CHL1      H3             -1.8404575115        1.8594798185       17.0106800000  MEMB      1               0.0000000000
         3         1  CHL1      O3             -0.7956443157        1.3388381448       18.6998200000  MEMB      1               0.0000000000
         4         1  CHL1      H3'            -0.5840817235        2.1862744748       19.0981900000  MEMB      1               0.0000000000
         5         1  CHL1      C4             -0.4369993095        0.2066923971       16.5903500000  MEMB      1               0.0000000000
         6         1  CHL1      H4A             0.5445077138       -0.0769992347       17.0267800000  MEMB      1               0.0000000000
         7         1  CHL1      H4B            -1.2514303771       -0.5309686927       16.7542800000  MEMB      1               0.0000000000
         8         1  CHL1      C5             -0.2371121998        0.3778818193       15.1547700000  MEMB      1               0.0000000000
         9         1  CHL1      C6             -0.8703469942       -0.3456456013       14.2075200000  MEMB      1               0.0000000000
        10         1  CHL1      H6             -1.4686003698       -1.1910696582       14.5781200000  MEMB      1               0.0000000000
        11         1  CHL1      C7             -0.5359842275       -0.1058378945       12.7769100000  MEMB      1               0.0000000000
        12         1  CHL1      H7A            -0.6457139699       -1.0536997292       12.2078400000  MEMB      1               0.0000000000
        13         1  CHL1      H7B            -1.3632482126        0.5524806814       12.4354800000  MEMB      1               0.0000000000
        14         1  CHL1      C8              0.7570891523        0.6165570154       12.4961400000  MEMB      1               0.0000000000
        15         1  CHL1      H8              1.5415413888       -0.1235117910       12.7630600000  MEMB      1               0.0000000000
        16         1  CHL1      C14             0.7775441840        0.8931315155       11.0258300000  MEMB      1               0.0000000000
        17         1  CHL1      H14            -0.0911057438        1.5489226927       10.8028600000  MEMB      1               0.0000000000
        18         1  CHL1      C15             0.6106982962       -0.3005350200       10.0766700000  MEMB      1               0.0000000000
        19         1  CHL1      H15A            1.2807721903       -1.1252108461       10.4010700000  MEMB      1               0.0000000000
        20         1  CHL1      H15B           -0.4005072961       -0.7463156034        9.9623700000  MEMB      1               0.0000000000
        21         1  CHL1      C16             1.2530063431        0.3187627422        8.7293900000  MEMB      1               0.0000000000
        22         1  CHL1      H16A            2.0020703310       -0.4573174660        8.4630800000  MEMB      1               0.0000000000
        23         1  CHL1      H16B            0.4973959092        0.3450381947        7.9153400000  MEMB      1               0.0000000000
        24         1  CHL1      C17             1.8050543343        1.7568485714        9.0410300000  MEMB      1               0.0000000000
        25         1  CHL1      H17             0.8936404763        2.3408546230        8.7908600000  MEMB      1               0.0000000000
        26         1  CHL1      C13             1.9960899365        1.7201888660       10.5321500000  MEMB      1               0.0000000000
        27         1  CHL1      C18             3.2980012077        0.9789803995       10.8654800000  MEMB      1               0.0000000000
        28         1  CHL1      H18A            3.3906919230        0.0820419620       10.2164500000  MEMB      1               0.0000000000
        29         1  CHL1      H18B            4.1535400695        1.6834131677       10.7871900000  MEMB      1               0.0000000000
        30         1  CHL1      H18C            3.4023042681        0.6343036025       11.9165000000  MEMB      1               0.0000000000
        31         1  CHL1      C12             1.9829663228        3.1110487763       11.2733600000  MEMB      1               0.0000000000
        32         1  CHL1      H12A            2.8514220848        3.7398340846       10.9822700000  MEMB      1               0.0000000000
        33         1  CHL1      H12B            1.0551638963        3.6432211205       10.9728800000  MEMB      1               0.0000000000
        34         1  CHL1      C11             2.0125659184        2.8187900329       12.8243600000  MEMB      1               0.0000000000
        35         1  CHL1      H11A            3.0039268759        2.3589878596       13.0246400000  MEMB      1               0.0000000000
        36         1  CHL1      H11B            2.0900684047        3.7716795572       13.3903300000  MEMB      1               0.0000000000
        37         1  CHL1      C9              0.8524241360        1.9158639386       13.2776900000  MEMB      1               0.0000000000
        38         1  CHL1      H9             -0.0601909231        2.5193918962       13.0847900000  MEMB      1               0.0000000000
        39         1  CHL1      C10             0.7767753895        1.5514412978       14.7513200000  MEMB      1               0.0000000000
        40         1  CHL1      C19             2.2549522363        1.2765754710       15.2257500000  MEMB      1               0.0000000000
        41         1  CHL1      H19A            2.8053533469        2.2328014753       15.0953000000  MEMB      1               0.0000000000
        42         1  CHL1      H19B            2.2694168990        1.0308011487       16.3091300000  MEMB      1               0.0000000000
        43         1  CHL1      H19C            2.7810928436        0.4473263915       14.7062900000  MEMB      1               0.0000000000
        44         1  CHL1      C1              0.3050623211        2.8435112973       15.5681200000  MEMB      1               0.0000000000
        45         1  CHL1      H1A             1.0009488701        3.6975848310       15.4245900000  MEMB      1               0.0000000000
        46         1  CHL1      H1B            -0.6756217842        3.1165723785       15.1231400000  MEMB      1               0.0000000000
        47         1  CHL1      C2              0.1191062346        2.6125227891       17.0360500000  MEMB      1               0.0000000000
        48         1  CHL1      H2A            -0.3205927399        3.5537190411       17.4299200000  MEMB      1               0.0000000000
        49         1  CHL1      H2B             1.0658668467        2.3973565497       17.5761100000  MEMB      1               0.0000000000
        50         1  CHL1      C20             2.9491488464        2.2227304459        8.1270600000  MEMB      1               0.0000000000
        51         1  CHL1      H20             3.7543233920        1.4573236916        8.1145600000  MEMB      1               0.0000000000
        52         1  CHL1      C21             3.5248883152        3.5288178953        8.5443500000  MEMB      1               0.0000000000
        53         1  CHL1      H21A            4.2700344277        3.4138472175        9.3603500000  MEMB      1               0.0000000000
        54         1  CHL1      H21B            2.7539453286        4.3092204081        8.7202300000  MEMB      1               0.0000000000
        55         1  CHL1      H21C            4.0686449175        4.0364289811        7.7191300000  MEMB      1               0.0000000000
        56         1  CHL1      C22             2.3450032887        2.1704954948        6.7056800000  MEMB      1               0.0000000000
        57         1  CHL1      H22A            1.8468678603        1.2047375830        6.4744300000  MEMB      1               0.0000000000
        58         1  CHL1      H22B            1.6224391323        3.0103001531        6.6223700000  MEMB      1               0.0000000000
        59         1  CHL1      C23             3.4485636547        2.3076454800        5.5931900000  MEMB      1               0.0000000000
        60         1  CHL1      H23A            4.0750760862        3.2087814948        5.7656600000  MEMB      1               0.0000000000
        61         1  CHL1      H23B            3.9993198454        1.3481214556        5.6946900000  MEMB      1               0.0000000000
        62         1  CHL1      C24             2.7601013996        2.3017039793        4.2160900000  MEMB      1               0.0000000000
        63         1  CHL1      H24A            2.4170641904        1.2509829730        4.1037100000  MEMB      1               0.0000000000
        64         1  CHL1      H24B            1.8818272035        2.9795109227        4.2755200000  MEMB      1               0.0000000000
        65         1  CHL1      C25             3.6481450843        2.7238845096        2.9697500000  MEMB      1               0.0000000000
        66         1  CHL1      H25             4.0613523174        3.7511843660        3.0604000000  MEMB      1               0.0000000000
        67         1  CHL1      C26             4.8939430607        1.8340372091        2.8578700000  MEMB      1               0.0000000000
        68         1  CHL1      H26A            5.5018712197        2.1505727952        1.9834800000  MEMB      1               0.0000000000
        69         1  CHL1      H26B            5.5441563099        2.0936271619        3.7205100000  MEMB      1               0.0000000000
        70         1  CHL1      H26C            4.7535852066        0.7323025706        2.8860600000  MEMB      1               0.0000000000
        71         1  CHL1      C27             2.9232527229        2.6582874825        1.6498500000  MEMB      1               0.0000000000
        72         1  CHL1      H27A            2.4544915422        1.6536042772        1.5778500000  MEMB      1               0.0000000000
        73         1  CHL1      H27B            2.1569242367        3.4608317135        1.5951700000  MEMB      1               0.0000000000
        74         1  CHL1      H27C            3.5961397641        2.8187755949        0.7804900000  MEMB      1               0.0000000000
        75         2  SLPC      N               4.2741895895       -3.3429081617       18.4944774364  MEMB      2               0.0000000000
        76         2  SLPC      C13             5.4856109799       -4.1639324424       18.6558097364  MEMB      2               0.0000000000
        77         2  SLPC      H13A            5.6898116345       -4.7148637872       17.7496218649  MEMB      2               0.0000000000
        78         2  SLPC      H13B            6.3430686141       -3.5537683976       18.8984333334  MEMB      2               0.0000000000
        79         2  SLPC      H13C            5.2197112776       -4.8121270372       19.4777228026  MEMB      2               0.0000000000
        80         2  SLPC      C14             4.4720982767       -2.3442357058       17.3559705925  MEMB      2               0.0000000000
        81         2  SLPC      H14A            5.1314260016       -1.5313883764       17.6223654042  MEMB      2               0.0000000000
        82         2  SLPC      H14B            4.9260452083       -2.7821508524       16.4792936701  MEMB      2               0.0000000000
        83         2  SLPC      H14C            3.5709580403       -1.8485181257       17.0264096821  MEMB      2               0.0000000000
        84         2  SLPC      C15             4.0234852772       -2.5151949659       19.7623037675  MEMB      2               0.0000000000
        85         2  SLPC      H15A            4.9974654051       -2.2466260439       20.1439233555  MEMB      2               0.0000000000
        86         2  SLPC      H15B            3.5288578394       -1.5668537259       19.6126625698  MEMB      2               0.0000000000
        87         2  SLPC      H15C            3.5413422123       -3.1464998225       20.4940087031  MEMB      2               0.0000000000
        88         2  SLPC      C12             3.0035818144       -4.1149978082       18.2011454934  MEMB      2               0.0000000000
        89         2  SLPC      H12A            2.1610622853       -3.4540317376       18.0608436501  MEMB      2               0.0000000000
        90         2  SLPC      H12B            2.7211162207       -4.7266728341       19.0452231466  MEMB      2               0.0000000000
        91         2  SLPC      C11             2.9578499171       -5.0982344087       16.9926746256  MEMB      2               0.0000000000
        92         2  SLPC      H11A            2.8732183233       -4.4635424678       16.0847513692  MEMB      2               0.0000000000
        93         2  SLPC      H11B            2.0658111423       -5.7024728271       17.2637536485  MEMB      2               0.0000000000
        94         2  SLPC      P               5.0013365526       -6.1508851998       15.5260252968  MEMB      2               0.0000000000
        95         2  SLPC      O13             5.2563803782       -4.9298889368       14.7737864970  MEMB      2               0.0000000000
        96         2  SLPC      O14             6.1998322673       -6.8958151873       15.9329578897  MEMB      2               0.0000000000
        97         2  SLPC      O12             4.0907010249       -5.8969394725       16.7296961785  MEMB      2               0.0000000000
        98         2  SLPC      O11             4.1256761565       -7.1373847153       14.5751524344  MEMB      2               0.0000000000
        99         2  SLPC      C1              3.3571944928       -6.4507428918       13.5408237145  MEMB      2               0.0000000000
       100         2  SLPC      HA              2.5040864120       -5.9640302564       14.0600909863  MEMB      2               0.0000000000
       101         2  SLPC      HB              3.9131546438       -5.6035682196       13.0852752207  MEMB      2               0.0000000000
       102         2  SLPC      C2              2.9704869087       -7.5163051881       12.4165856975  MEMB      2               0.0000000000
       103         2  SLPC      HS              2.0575918871       -8.1396247931       12.5280146982  MEMB      2               0.0000000000
       104         2  SLPC      O21             4.0773575709       -8.3800262184       12.0759261410  MEMB      2               0.0000000000
       105         2  SLPC      C21             4.0838064604       -9.5436268076       12.5864293975  MEMB      2               0.0000000000
       106         2  SLPC      O22             3.1804384580      -10.1257648181       13.2090585458  MEMB      2               0.0000000000
       107         2  SLPC      C22             5.3770457394      -10.2688551010       12.3539223954  MEMB      2               0.0000000000
       108         2  SLPC      H2R             6.0889846797      -10.0541000064       13.1793582210  MEMB      2               0.0000000000
       109         2  SLPC      H2S             5.2426664182      -11.3715942421       12.3690640648  MEMB      2               0.0000000000
       110         2  SLPC      C3              2.7184089309       -6.6490567149       11.1381631178  MEMB      2               0.0000000000
       111         2  SLPC      HX              1.8587541860       -5.9639582137       11.2992674800  MEMB      2               0.0000000000
       112         2  SLPC      HY              2.4894485409       -7.4107348622       10.3624410057  MEMB      2               0.0000000000
       113         2  SLPC      O31             3.8103060183       -5.8425317545       10.7825644546  MEMB      2               0.0000000000
       114         2  SLPC      C31             3.5293427155       -5.0471988936        9.7175295141  MEMB      2               0.0000000000
       115         2  SLPC      O32             2.4493527379       -4.7731461165        9.3040235444  MEMB      2               0.0000000000
       116         2  SLPC      C32             4.9165769219       -4.5233751747        9.1791388536  MEMB      2               0.0000000000
       117         2  SLPC      H2X             5.1965850601       -3.6290903388        9.7759397394  MEMB      2               0.0000000000
       118         2  SLPC      H2Y             4.5908430055       -4.1853501060        8.1721839089  MEMB      2               0.0000000000
       119         2  SLPC      C23             6.0612072361       -9.7234150171       11.0849073227  MEMB      2               0.0000000000
       120         2  SLPC      H3R             7.1685191216       -9.7525267039       11.1705463445  MEMB      2               0.0000000000
       121         2  SLPC      H3S             5.8525508764       -8.6668014026       10.8122335779  MEMB      2               0.0000000000
       122         2  SLPC      C24             5.5985696772      -10.4097377289        9.7657496474  MEMB      2               0.0000000000
       123         2  SLPC      H4R             5.6126940139      -11.5121285603        9.9030663128  MEMB      2               0.0000000000
       124         2  SLPC      H4S             6.2907856533      -10.0159446244        8.9910981393  MEMB      2               0.0000000000
       125         2  SLPC      C25             4.1222954114      -10.0407167524        9.2827198064  MEMB      2               0.0000000000
       126         2  SLPC      H5R             3.9780904634       -8.9800322665        9.5801663806  MEMB      2               0.0000000000
       127         2  SLPC      H5S             3.3924675175      -10.7213545596        9.7709864322  MEMB      2               0.0000000000
       128         2  SLPC      C26             3.9731653540      -10.3009725458        7.7272439087  MEMB      2               0.0000000000
       129         2  SLPC      H6R             4.3080140043      -11.2944544801        7.3595604125  MEMB      2               0.0000000000
       130         2  SLPC      H6S             4.3804076964       -9.3798989707        7.2580983570  MEMB      2               0.0000000000
       131         2  SLPC      C27             2.4883724812      -10.3655521331        7.2001443679  MEMB      2               0.0000000000
       132         2  SLPC      H7R             2.1173926082      -11.3342563436        7.5980228637  MEMB      2               0.0000000000
       133         2  SLPC      H7S             2.6781426654      -10.3352859092        6.1058907111  MEMB      2               0.0000000000
       134         2  SLPC      C28             1.6654861240       -9.1120642895        7.5459224370  MEMB      2               0.0000000000
       135         2  SLPC      H8R             1.4398868557       -9.1867493429        8.6312096293  MEMB      2               0.0000000000
       136         2  SLPC      H8S             0.6473549847       -9.1457633311        7.1025329269  MEMB      2               0.0000000000
       137         2  SLPC      C29             2.3883114234       -7.8827356925        7.1909682219  MEMB      2               0.0000000000
       138         2  SLPC      H9R             3.1449899254       -7.4495793004        7.8616495098  MEMB      2               0.0000000000
       139         2  SLPC      C210            2.3133350852       -7.2432431643        6.0593448781  MEMB      2               0.0000000000
       140         2  SLPC      H10R            2.7206603279       -6.2244183319        5.9813568614  MEMB      2               0.0000000000
       141         2  SLPC      C211            1.4212318795       -7.6699301511        4.9440497986  MEMB      2               0.0000000000
       142         2  SLPC      H11R            0.5629523335       -8.3301484600        5.1926236250  MEMB      2               0.0000000000
       143         2  SLPC      H11S            2.0750702509       -8.2639190875        4.2702596547  MEMB      2               0.0000000000
       144         2  SLPC      C212            0.8386879166       -6.5191362971        4.1012124781  MEMB      2               0.0000000000
       145         2  SLPC      H12R           -0.1832369941       -6.1483468548        4.2690949185  MEMB      2               0.0000000000
       146         2  SLPC      C213            1.5081231951       -5.7250152691        3.2393219555  MEMB      2               0.0000000000
       147         2  SLPC      H13R            0.8429167441       -5.0147989369        2.7263955970  MEMB      2               0.0000000000
       148         2  SLPC      C214            2.9620948289       -5.8523273892        2.9385712581  MEMB      2               0.0000000000
       149         2  SLPC      H14R            3.6256975705       -6.4913321974        3.5595582799  MEMB      2               0.0000000000
       150         2  SLPC      H14S            3.3934847910       -4.8366614660        3.0675917569  MEMB      2               0.0000000000
       151         2  SLPC      C215            3.1563757240       -6.1216365546        1.3874768188  MEMB      2               0.0000000000
       152         2  SLPC      H15R            4.1849521761       -6.0161000419        0.9810115664  MEMB      2               0.0000000000
       153         2  SLPC      H15S            2.4850604612       -5.3791277816        0.9054627011  MEMB      2               0.0000000000
       154         2  SLPC      C216            2.7375212542       -7.5340909848        0.9845329231  MEMB      2               0.0000000000
       155         2  SLPC      H16R            2.8852646046       -7.6250076472       -0.1128392215  MEMB      2               0.0000000000
       156         2  SLPC      H16S            1.6778478520       -7.6980489526        1.2752759052  MEMB      2               0.0000000000
       157         2  SLPC      C217            3.5440976703       -8.6162860172        1.7291617249  MEMB      2               0.0000000000
       158         2  SLPC      H17R            3.5435349944       -8.6798828543        2.8383395585  MEMB      2               0.0000000000
       159         2  SLPC      H17S            4.5757102948       -8.4500498141        1.3517203864  MEMB      2               0.0000000000
       160         2  SLPC      C218            3.1446889145       -9.9815205549        1.1844063047  MEMB      2               0.0000000000
       161         2  SLPC      H18R            2.1725005439      -10.3771350756        1.5486305242  MEMB      2               0.0000000000
       162         2  SLPC      H18S            3.9003012700      -10.7941287899        1.2395338691  MEMB      2               0.0000000000
       163         2  SLPC      H18T            2.9987980021       -9.8984480062        0.0861644088  MEMB      2               0.0000000000
       164         2  SLPC      C33             6.0129155918       -5.6151405715        9.3107458123  MEMB      2               0.0000000000
       165         2  SLPC      H3X             5.6028664083       -6.6194050962        9.0706759254  MEMB      2               0.0000000000
       166         2  SLPC      H3Y             6.3749703345       -5.5441204494       10.3586930558  MEMB      2               0.0000000000
       167         2  SLPC      C34             7.3562179779       -5.4267405956        8.4588380705  MEMB      2               0.0000000000
       168         2  SLPC      H4X             7.8080554548       -6.4248335494        8.2745170267  MEMB      2               0.0000000000
       169         2  SLPC      H4Y             8.1387863871       -4.7607221993        8.8811253797  MEMB      2               0.0000000000
       170         2  SLPC      C35             7.0940339022       -5.0370993177        6.9503402634  MEMB      2               0.0000000000
       171         2  SLPC      H5X             7.9627457134       -4.9317550760        6.2658235300  MEMB      2               0.0000000000
       172         2  SLPC      H5Y             6.5798403638       -4.0545735624        6.8827453151  MEMB      2               0.0000000000
       173         2  SLPC      C36             6.1158146848       -5.9724737938        6.1856245466  MEMB      2               0.0000000000
       174         2  SLPC      H6X             5.8955721393       -5.3719196843        5.2772476635  MEMB      2               0.0000000000
       175         2  SLPC      H6Y             5.1205582421       -6.0290763346        6.6761162303  MEMB      2               0.0000000000
       176         2  SLPC      C37             6.4826962801       -7.4512599935        6.0340887348  MEMB      2               0.0000000000
       177         2  SLPC      H7X             5.6283178051       -8.0613650912        5.6705921931  MEMB      2               0.0000000000
       178         2  SLPC      H7Y             6.8819447170       -7.8754541287        6.9801239156  MEMB      2               0.0000000000
       179         2  SLPC      C38             7.5810802503       -7.7181225746        4.9992637572  MEMB      2               0.0000000000
       180         2  SLPC      H8X             7.5436362025       -8.7967416218        4.7356351930  MEMB      2               0.0000000000
       181         2  SLPC      H8Y             8.5903667362       -7.4376662146        5.3694074859  MEMB      2               0.0000000000
       182         2  SLPC      C39             7.4151309759       -6.9695090684        3.6728595128  MEMB      2               0.0000000000
       183         2  SLPC      H9X             7.6939540241       -5.8967791169        3.7492088837  MEMB      2               0.0000000000
       184         2  SLPC      H9Y             6.3446912932       -6.9470380478        3.3762532881  MEMB      2               0.0000000000
       185         2  SLPC      C310            8.2321784891       -7.5844134115        2.5143458072  MEMB      2               0.0000000000
       186         2  SLPC      H10X            8.1395256904       -8.6915318797        2.5093300998  MEMB      2               0.0000000000
       187         2  SLPC      H10Y            9.2622764095       -7.2726625000        2.7900824921  MEMB      2               0.0000000000
       188         2  SLPC      C311            8.0349528080       -7.0548232767        1.0396422256  MEMB      2               0.0000000000
       189         2  SLPC      H11X            7.0862421977       -7.4961447441        0.6661404226  MEMB      2               0.0000000000
       190         2  SLPC      H11Y            8.8310438325       -7.5840174106        0.4735033491  MEMB      2               0.0000000000
       191         2  SLPC      C312            8.1627530100       -5.5376573435        0.7304478490  MEMB      2               0.0000000000
       192         2  SLPC      H12X            9.0796183568       -5.1584538537        1.2303321116  MEMB      2               0.0000000000
       193         2  SLPC      H12Y            7.3575210735       -5.1526097072        1.3920077846  MEMB      2               0.0000000000
       194         2  SLPC      C313            7.9033678285       -5.0562436701       -0.7375438811  MEMB      2               0.0000000000
       195         2  SLPC      H13X            8.6435115610       -5.5460005764       -1.4058596270  MEMB      2               0.0000000000
       196         2  SLPC      H13Y            8.0142941250       -3.9571398656       -0.8558098352  MEMB      2               0.0000000000
       197         2  SLPC      C314            6.5752490308       -5.4926717171       -1.3920484096  MEMB      2               0.0000000000
       198         2  SLPC      H14X            6.0791552614       -6.4008001168       -0.9876780608  MEMB      2               0.0000000000
       199         2  SLPC      H14Y            6.8413111836       -5.7182830914       -2.4468611211  MEMB      2               0.0000000000
       200         2  SLPC      C315            5.5003642030       -4.4165854717       -1.3745622482  MEMB      2               0.0000000000
       201         2  SLPC      H15X            5.8139214922       -3.5585449079       -2.0068353284  MEMB      2               0.0000000000
       202         2  SLPC      H15Y            5.3480625910       -4.0597526399       -0.3335067199  MEMB      2               0.0000000000
       203         2  SLPC      C316            4.1500626609       -4.8503716397       -1.9818382859  MEMB      2               0.0000000000
       204         2  SLPC      H16X            3.6838769476       -5.6736748708       -1.3994602709  MEMB      2               0.0000000000
       205         2  SLPC      H16Y            4.3323507302       -5.0741431647       -3.0546939870  MEMB      2               0.0000000000
       206         2  SLPC      C317            3.1237110850       -3.7353675263       -1.8478139169  MEMB      2               0.0000000000
       207         2  SLPC      H17X            3.4708634869       -2.8110272898       -2.3571280105  MEMB      2               0.0000000000
       208         2  SLPC      H17Y            3.0976424200       -3.4875992638       -0.7651071805  MEMB      2               0.0000000000
       209         2  SLPC      C318            1.7089266312       -4.1582967052       -2.3583411135  MEMB      2               0.0000000000
       210         2  SLPC      H18X            0.9591267621       -3.3430710336       -2.4451079550  MEMB      2               0.0000000000
       211         2  SLPC      H18Y            1.2820298209       -4.9274464586       -1.6797471277  MEMB      2               0.0000000000
       212         2  SLPC      H18Z            1.7262665812       -4.5167145657       -3.4097963336  MEMB      2               0.0000000000
       213         3  POPC      N              -2.8862153930       -5.6460607241       21.1119367749  MEMB      3               0.0000000000
       214         3  POPC      C12            -3.7325872107       -6.8087713223       20.7196912635  MEMB      3               0.0000000000
       215         3  POPC      H12A           -4.5965181511       -6.8951761682       21.3619977241  MEMB      3               0.0000000000
       216         3  POPC      H12B           -3.1759850146       -7.7206342801       20.8781212211  MEMB      3               0.0000000000
       217         3  POPC      C13            -1.5894514812       -5.5799054747       20.4856451034  MEMB      3               0.0000000000
       218         3  POPC      H13A           -1.1894740723       -4.6546523423       20.8733622789  MEMB      3               0.0000000000
       219         3  POPC      H13B           -0.9927223893       -6.4516300792       20.7101679085  MEMB      3               0.0000000000
       220         3  POPC      H13C           -1.6929612166       -5.4969106181       19.4138253138  MEMB      3               0.0000000000
       221         3  POPC      C14            -3.5944155967       -4.4145572887       20.6087577590  MEMB      3               0.0000000000
       222         3  POPC      H14A           -4.4268316698       -4.2144305583       21.2671140188  MEMB      3               0.0000000000
       223         3  POPC      H14B           -3.0026575270       -3.5120309900       20.6496093440  MEMB      3               0.0000000000
       224         3  POPC      H14C           -4.0163148047       -4.5777011473       19.6280513790  MEMB      3               0.0000000000
       225         3  POPC      C15            -2.6953028848       -5.5624456446       22.6357434419  MEMB      3               0.0000000000
       226         3  POPC      H15A           -2.1121516451       -6.4329711870       22.8975064462  MEMB      3               0.0000000000
       227         3  POPC      H15B           -3.5916137386       -5.6401264109       23.2332315261  MEMB      3               0.0000000000
       228         3  POPC      H15C           -2.1906973247       -4.6350461761       22.8631272022  MEMB      3               0.0000000000
       229         3  POPC      C11            -4.3079139388       -6.8204516218       19.2880050225  MEMB      3               0.0000000000
       230         3  POPC      H11A           -5.2219142007       -6.1957445931       19.3810944889  MEMB      3               0.0000000000
       231         3  POPC      H11B           -4.4612116346       -7.8598439097       18.9267787605  MEMB      3               0.0000000000
       232         3  POPC      P              -3.4854147756       -6.5357945335       16.7653545718  MEMB      3               0.0000000000
       233         3  POPC      O13            -3.2928168604       -5.2589177253       15.9955443213  MEMB      3               0.0000000000
       234         3  POPC      O14            -4.6572457002       -7.4102415405       16.4751824455  MEMB      3               0.0000000000
       235         3  POPC      O12            -3.5430524625       -6.1467991843       18.3057014965  MEMB      3               0.0000000000
       236         3  POPC      O11            -2.1128562403       -7.3134104734       16.6084377964  MEMB      3               0.0000000000
       237         3  POPC      C1             -0.9213979980       -6.8208588100       17.2643641696  MEMB      3               0.0000000000
       238         3  POPC      HA             -0.7853188460       -7.3754655233       18.2173673350  MEMB      3               0.0000000000
       239         3  POPC      HB             -0.9453437915       -5.7594990780       17.5918747450  MEMB      3               0.0000000000
       240         3  POPC      C2              0.4018867165       -6.7896823094       16.4478498120  MEMB      3               0.0000000000
       241         3  POPC      HS              1.1362603408       -6.2088420294       17.0458806093  MEMB      3               0.0000000000
       242         3  POPC      O21             0.2279165437       -6.2701823641       15.1181918663  MEMB      3               0.0000000000
       243         3  POPC      C21             0.4259439419       -4.8916645440       15.1136354409  MEMB      3               0.0000000000
       244         3  POPC      O22             0.7300336983       -4.1766575710       16.0247938463  MEMB      3               0.0000000000
       245         3  POPC      C22             0.2501122119       -4.4954421213       13.6107544191  MEMB      3               0.0000000000
       246         3  POPC      H2R             1.0401468504       -3.7555446652       13.3603184416  MEMB      3               0.0000000000
       247         3  POPC      H2S            -0.7163564801       -3.9478205951       13.6299849675  MEMB      3               0.0000000000
       248         3  POPC      C3              1.0320431450       -8.2215873901       16.2788192226  MEMB      3               0.0000000000
       249         3  POPC      HX              1.3143156433       -8.4531638292       17.3281121712  MEMB      3               0.0000000000
       250         3  POPC      HY              1.9107459352       -8.2139928990       15.5990067623  MEMB      3               0.0000000000
       251         3  POPC      O31             0.0421153865       -9.2097240996       15.8970523272  MEMB      3               0.0000000000
       252         3  POPC      C31            -0.0461729707       -9.4055006049       14.5658152231  MEMB      3               0.0000000000
       253         3  POPC      O32             0.6770060248       -8.8608230369       13.7163578476  MEMB      3               0.0000000000
       254         3  POPC      C32            -1.1615305284      -10.3468846459       14.2382923003  MEMB      3               0.0000000000
       255         3  POPC      H2X            -1.3295172266      -11.0933634996       15.0438173463  MEMB      3               0.0000000000
       256         3  POPC      H2Y            -0.8225809997      -10.8434327237       13.3040148980  MEMB      3               0.0000000000
       257         3  POPC      C23             0.2230621055       -5.5916043638       12.5444010208  MEMB      3               0.0000000000
       258         3  POPC      H3R            -0.7508182608       -6.1201663376       12.4637778041  MEMB      3               0.0000000000
       259         3  POPC      H3S             1.0534800066       -6.3101028268       12.7131823254  MEMB      3               0.0000000000
       260         3  POPC      C24             0.4323210898       -5.1418742229       11.1197942292  MEMB      3               0.0000000000
       261         3  POPC      H4R             0.5195920879       -6.0372366489       10.4678507100  MEMB      3               0.0000000000
       262         3  POPC      H4S             1.3222121095       -4.4940934152       10.9688142563  MEMB      3               0.0000000000
       263         3  POPC      C25            -0.7828164776       -4.3352072702       10.6107409036  MEMB      3               0.0000000000
       264         3  POPC      H5R            -0.9487023403       -3.4091810598       11.2017385393  MEMB      3               0.0000000000
       265         3  POPC      H5S            -1.6966962581       -4.9499746434       10.7563637090  MEMB      3               0.0000000000
       266         3  POPC      C26            -0.5579158615       -3.9331713813        9.0865946284  MEMB      3               0.0000000000
       267         3  POPC      H6R            -1.5399495185       -3.7910995901        8.5868482733  MEMB      3               0.0000000000
       268         3  POPC      H6S            -0.0817847780       -4.7921948119        8.5672695507  MEMB      3               0.0000000000
       269         3  POPC      C27             0.3049848803       -2.6654991733        8.9447213759  MEMB      3               0.0000000000
       270         3  POPC      H7R             1.0047346753       -2.7090889935        9.8065634104  MEMB      3               0.0000000000
       271         3  POPC      H7S            -0.4324109536       -1.8574282879        9.1386027675  MEMB      3               0.0000000000
       272         3  POPC      C28             0.9107271457       -2.3893431002        7.6633946398  MEMB      3               0.0000000000
       273         3  POPC      H8R             1.4378348377       -1.4398097089        7.8976264641  MEMB      3               0.0000000000
       274         3  POPC      H8S             0.1242597459       -2.0382244449        6.9616074950  MEMB      3               0.0000000000
       275         3  POPC      C29             1.8968334426       -3.3720446561        7.1556333965  MEMB      3               0.0000000000
       276         3  POPC      H91             2.8599938400       -3.1814593387        7.6516162001  MEMB      3               0.0000000000
       277         3  POPC      C210            1.7080709648       -4.3278588926        6.1864679881  MEMB      3               0.0000000000
       278         3  POPC      H101            2.4976592992       -5.0829005761        6.0581619125  MEMB      3               0.0000000000
       279         3  POPC      C211            0.4380260483       -4.6610322320        5.3073501961  MEMB      3               0.0000000000
       280         3  POPC      H11R           -0.4905666100       -4.5531844437        5.9076882405  MEMB      3               0.0000000000
       281         3  POPC      H11S            0.5125140088       -5.6135790152        4.7404043563  MEMB      3               0.0000000000
       282         3  POPC      C212            0.2362200046       -3.5983649884        4.1852623526  MEMB      3               0.0000000000
       283         3  POPC      H12R            0.1256898514       -2.6805558285        4.8014853228  MEMB      3               0.0000000000
       284         3  POPC      H12S           -0.6551423802       -3.8134690621        3.5579475818  MEMB      3               0.0000000000
       285         3  POPC      C213            1.4276244715       -3.3869290998        3.1774001452  MEMB      3               0.0000000000
       286         3  POPC      H13R            2.3348740179       -2.8995105270        3.5941043410  MEMB      3               0.0000000000
       287         3  POPC      H13S            0.9399754911       -2.6015233566        2.5612365704  MEMB      3               0.0000000000
       288         3  POPC      C214            1.8160462254       -4.6340184903        2.3755553669  MEMB      3               0.0000000000
       289         3  POPC      H14R            0.9466769341       -5.2299799564        2.0243456925  MEMB      3               0.0000000000
       290         3  POPC      H14S            2.4123362586       -5.2265073811        3.1019964962  MEMB      3               0.0000000000
       291         3  POPC      C215            2.7198106275       -4.2686171896        1.2180435357  MEMB      3               0.0000000000
       292         3  POPC      H15R            3.6332972441       -3.7886627021        1.6297549623  MEMB      3               0.0000000000
       293         3  POPC      H15S            2.2470697835       -3.5081224162        0.5604083779  MEMB      3               0.0000000000
       294         3  POPC      C216            3.1144451338       -5.5682415419        0.3966291260  MEMB      3               0.0000000000
       295         3  POPC      H16R            2.3460744088       -5.6572582447       -0.4008697711  MEMB      3               0.0000000000
       296         3  POPC      H16S            2.9033152067       -6.4693558870        1.0112328923  MEMB      3               0.0000000000
       297         3  POPC      C217            4.4661087314       -5.4618650996       -0.3492264384  MEMB      3               0.0000000000
       298         3  POPC      H17R            4.5235951405       -6.3595393393       -1.0012969285  MEMB      3               0.0000000000
       299         3  POPC      H17S            5.2220988437       -5.6258585384        0.4482119107  MEMB      3               0.0000000000
       300         3  POPC      C218            4.8715544900       -4.1758541769       -1.1705047606  MEMB      3               0.0000000000
       301         3  POPC      H18R            5.7694858935       -4.3731267513       -1.7943024335  MEMB      3               0.0000000000
       302         3  POPC      H18S            5.1740235964       -3.3951868540       -0.4401667509  MEMB      3               0.0000000000
       303         3  POPC      H18T            3.9754722062       -3.8905587475       -1.7620820928  MEMB      3               0.0000000000
       304         3  POPC      C33            -2.5161754504       -9.6329427699       14.0703494189  MEMB      3               0.0000000000
       305         3  POPC      H3X            -2.7928315894       -9.2691983215       15.0830053860  MEMB      3               0.0000000000
       306         3  POPC      H3Y            -3.2872990967      -10.3560949667       13.7286774811  MEMB      3               0.0000000000
       307         3  POPC      C34            -2.5598976964       -8.5547547061       13.0109557771  MEMB      3               0.0000000000
       308         3  POPC      H4X            -2.3043905145       -9.0186612584       12.0343149528  MEMB      3               0.0000000000
       309         3  POPC      H4Y            -1.7459671928       -7.7996493870       13.0516288275  MEMB      3               0.0000000000
       310         3  POPC      C35            -3.9756464494       -7.9341751593       12.8462802534  MEMB      3               0.0000000000
       311         3  POPC      H5X            -4.2054466250       -7.2817897761       13.7157091073  MEMB      3               0.0000000000
       312         3  POPC      H5Y            -4.7294304436       -8.7501295221       12.8275852833  MEMB      3               0.0000000000
       313         3  POPC      C36            -4.0419622427       -7.0396978033       11.5434874228  MEMB      3               0.0000000000
       314         3  POPC      H6X            -3.4065107472       -6.1328341184       11.6336014580  MEMB      3               0.0000000000
       315         3  POPC      H6Y            -4.9973778944       -6.4938423679       11.6969274104  MEMB      3               0.0000000000
       316         3  POPC      C37            -4.0832948888       -7.8311217995       10.2016698030  MEMB      3               0.0000000000
       317         3  POPC      H7X            -4.3917657297       -8.8945603024       10.2925865519  MEMB      3               0.0000000000
       318         3  POPC      H7Y            -3.0602275320       -7.8284823912        9.7684875446  MEMB      3               0.0000000000
       319         3  POPC      C38            -4.8961079774       -7.2975481696        9.0852138947  MEMB      3               0.0000000000
       320         3  POPC      H8X            -4.6011115203       -6.2791799576        8.7532141492  MEMB      3               0.0000000000
       321         3  POPC      H8Y            -5.9096874546       -7.2292818766        9.5350107945  MEMB      3               0.0000000000
       322         3  POPC      C39            -4.9774085059       -8.2178511420        7.9012243416  MEMB      3               0.0000000000
       323         3  POPC      H9X            -5.9073316656       -7.9443442598        7.3583087620  MEMB      3               0.0000000000
       324         3  POPC      H9Y            -4.9247233665       -9.2345539509        8.3460401428  MEMB      3               0.0000000000
       325         3  POPC      C310           -3.8266596545       -8.0766565827        6.8265706435  MEMB      3               0.0000000000
       326         3  POPC      H10X           -2.8083588481       -8.1992334073        7.2536061539  MEMB      3               0.0000000000
       327         3  POPC      H10Y           -3.8875699818       -7.0511198992        6.4036221389  MEMB      3               0.0000000000
       328         3  POPC      C311           -3.8490001840       -9.0791630963        5.6523487122  MEMB      3               0.0000000000
       329         3  POPC      H11X           -4.8765945582       -9.1235303397        5.2323452741  MEMB      3               0.0000000000
       330         3  POPC      H11Y           -3.6099232536      -10.0070629238        6.2146342756  MEMB      3               0.0000000000
       331         3  POPC      C312           -2.7857300669       -8.8600949977        4.5792727274  MEMB      3               0.0000000000
       332         3  POPC      H12X           -2.7813441900       -9.8207167857        4.0211439243  MEMB      3               0.0000000000
       333         3  POPC      H12Y           -1.7551483217       -8.7672351561        4.9837468174  MEMB      3               0.0000000000
       334         3  POPC      C313           -3.0340363654       -7.7462629190        3.5919642914  MEMB      3               0.0000000000
       335         3  POPC      H13X           -3.1171987458       -6.7313503182        4.0362130334  MEMB      3               0.0000000000
       336         3  POPC      H13Y           -4.0167597533       -8.0119513197        3.1470084083  MEMB      3               0.0000000000
       337         3  POPC      C314           -2.0364795561       -7.6176614069        2.4196814412  MEMB      3               0.0000000000
       338         3  POPC      H14X           -1.9057554741       -8.5493063198        1.8286910599  MEMB      3               0.0000000000
       339         3  POPC      H14Y           -1.0586108956       -7.3246144142        2.8581070984  MEMB      3               0.0000000000
       340         3  POPC      C315           -2.2940139719       -6.5464830567        1.3674104852  MEMB      3               0.0000000000
       341         3  POPC      H15X           -1.6169458195       -6.5442232223        0.4865602265  MEMB      3               0.0000000000
       342         3  POPC      H15Y           -2.1593154871       -5.5485165881        1.8367077483  MEMB      3               0.0000000000
       343         3  POPC      C316           -3.6672026983       -6.8172436279        0.7088783238  MEMB      3               0.0000000000
       344         3  POPC      H16X           -3.5236161704       -7.7998569506        0.2107076570  MEMB      3               0.0000000000
       345         3  POPC      H16Y           -3.9288474191       -6.0470556591       -0.0478733234  MEMB      3               0.0000000000
       346         3  POPC      H16Z           -4.4541427679       -6.6896767328        1.4826838630  MEMB      3               0.0000000000
       347         4  SLPC      N               5.8650530892        0.9669340272       17.4319312838  MEMB      4               0.0000000000
       348         4  SLPC      C13             7.0473358352        0.6910893571       16.5092006086  MEMB      4               0.0000000000
       349         4  SLPC      H13A            7.3982228807       -0.3028625719       16.7444411131  MEMB      4               0.0000000000
       350         4  SLPC      H13B            6.7953925374        0.7000670375       15.4590368715  MEMB      4               0.0000000000
       351         4  SLPC      H13C            7.8198121238        1.3725280340       16.8337335073  MEMB      4               0.0000000000
       352         4  SLPC      C14             6.3221451420        0.8993572029       18.8328875336  MEMB      4               0.0000000000
       353         4  SLPC      H14A            7.1130524213        1.6292012166       18.9234053868  MEMB      4               0.0000000000
       354         4  SLPC      H14B            5.5457858622        1.1372876120       19.5449657035  MEMB      4               0.0000000000
       355         4  SLPC      H14C            6.7833821736       -0.0559071631       19.0356934835  MEMB      4               0.0000000000
       356         4  SLPC      C15             4.6752575948        0.1188743913       17.0679487099  MEMB      4               0.0000000000
       357         4  SLPC      H15A            3.9969020801        0.1731487858       17.9065714474  MEMB      4               0.0000000000
       358         4  SLPC      H15B            4.1806955953        0.5823066708       16.2270926213  MEMB      4               0.0000000000
       359         4  SLPC      H15C            4.9637435547       -0.9105382992       16.9146996034  MEMB      4               0.0000000000
       360         4  SLPC      C12             5.4579162613        2.3427807450       17.1564789021  MEMB      4               0.0000000000
       361         4  SLPC      H12A            4.4569841299        2.4578448346       17.5454457057  MEMB      4               0.0000000000
       362         4  SLPC      H12B            5.2675811773        2.3989612327       16.0948686383  MEMB      4               0.0000000000
       363         4  SLPC      C11             6.2754513274        3.5731957286       17.5034698972  MEMB      4               0.0000000000
       364         4  SLPC      H11A            6.0398137329        4.1585146204       18.4179083989  MEMB      4               0.0000000000
       365         4  SLPC      H11B            6.1288307674        4.3107790759       16.6856714462  MEMB      4               0.0000000000
       366         4  SLPC      P               8.7197211205        4.0100793387       16.5266944782  MEMB      4               0.0000000000
       367         4  SLPC      O13             8.6072834620        5.4860692624       16.5681908662  MEMB      4               0.0000000000
       368         4  SLPC      O14            10.0458142387        3.4979678260       16.7765779588  MEMB      4               0.0000000000
       369         4  SLPC      O12             7.6436569288        3.3277494682       17.4914900947  MEMB      4               0.0000000000
       370         4  SLPC      O11             8.3670129172        3.4790027695       15.1351296627  MEMB      4               0.0000000000
       371         4  SLPC      C1              7.6497406791        4.2086297660       14.1746076679  MEMB      4               0.0000000000
       372         4  SLPC      HA              6.8131916973        4.7723514656       14.6401447293  MEMB      4               0.0000000000
       373         4  SLPC      HB              8.3518776585        4.8449098532       13.5945451920  MEMB      4               0.0000000000
       374         4  SLPC      C2              6.9094808705        3.2393219345       13.2749010600  MEMB      4               0.0000000000
       375         4  SLPC      HS              6.5264143091        2.4822501241       13.9921340236  MEMB      4               0.0000000000
       376         4  SLPC      O21             7.7671278902        2.6980496618       12.2249105432  MEMB      4               0.0000000000
       377         4  SLPC      C21             8.2013039107        1.4594451616       12.3727232593  MEMB      4               0.0000000000
       378         4  SLPC      O22             8.0100519758        0.8315350049       13.4324581421  MEMB      4               0.0000000000
       379         4  SLPC      C22             9.0348627749        1.0324536651       11.1481129221  MEMB      4               0.0000000000
       380         4  SLPC      H2R             9.9516906516        1.6599084843       11.1411733493  MEMB      4               0.0000000000
       381         4  SLPC      H2S             9.3731884203       -0.0149453337       11.2991487921  MEMB      4               0.0000000000
       382         4  SLPC      C3              5.5962445959        3.8066284740       12.4755624257  MEMB      4               0.0000000000
       383         4  SLPC      HX              5.0422075497        4.5696375960       13.0630830504  MEMB      4               0.0000000000
       384         4  SLPC      HY              4.8483450012        2.9898740204       12.3867965578  MEMB      4               0.0000000000
       385         4  SLPC      O31             6.0044790690        4.4207095171       11.2622982854  MEMB      4               0.0000000000
       386         4  SLPC      C31             6.4784770777        5.7031966276       11.3336359411  MEMB      4               0.0000000000
       387         4  SLPC      O32             6.3549758605        6.4617240550       12.2662907447  MEMB      4               0.0000000000
       388         4  SLPC      C32             7.0980531895        6.1234093055       10.0051094043  MEMB      4               0.0000000000
       389         4  SLPC      H2X             7.2050144283        7.2264302779        9.9262123893  MEMB      4               0.0000000000
       390         4  SLPC      H2Y             6.4959062284        5.6937229088        9.1761887825  MEMB      4               0.0000000000
       391         4  SLPC      C23             8.1957565732        1.1972761490        9.8841782363  MEMB      4               0.0000000000
       392         4  SLPC      H3R             8.8633598008        0.8222776133        9.0791918229  MEMB      4               0.0000000000
       393         4  SLPC      H3S             8.1853123843        2.2746535515        9.6131251309  MEMB      4               0.0000000000
       394         4  SLPC      C24             6.8757991725        0.5053528680        9.9234962141  MEMB      4               0.0000000000
       395         4  SLPC      H4R             6.2011200048        0.7969665678       10.7566169549  MEMB      4               0.0000000000
       396         4  SLPC      H4S             7.2390894665       -0.5413375349       10.0058381088  MEMB      4               0.0000000000
       397         4  SLPC      C25             6.1647622401        0.7215491179        8.5994668320  MEMB      4               0.0000000000
       398         4  SLPC      H5R             6.2838809665        1.7768314517        8.2731067499  MEMB      4               0.0000000000
       399         4  SLPC      H5S             5.0712775422        0.5937029691        8.7486890368  MEMB      4               0.0000000000
       400         4  SLPC      C26             6.6096726030       -0.2802344196        7.4615681786  MEMB      4               0.0000000000
       401         4  SLPC      H6R             6.2217688598       -1.2975080955        7.6829420185  MEMB      4               0.0000000000
       402         4  SLPC      H6S             7.7170935518       -0.2990333931        7.3744690162  MEMB      4               0.0000000000
       403         4  SLPC      C27             6.0408228536        0.0959953686        6.1144004511  MEMB      4               0.0000000000
       404         4  SLPC      H7R             6.3833894924       -0.5544557659        5.2814041132  MEMB      4               0.0000000000
       405         4  SLPC      H7S             6.5511446925        1.0520995509        5.8699465439  MEMB      4               0.0000000000
       406         4  SLPC      C28             4.4873266349        0.3434000559        6.0002068849  MEMB      4               0.0000000000
       407         4  SLPC      H8R             4.2105682571        0.8623007409        6.9427923109  MEMB      4               0.0000000000
       408         4  SLPC      H8S             4.0852440888       -0.6912554668        6.0464457431  MEMB      4               0.0000000000
       409         4  SLPC      C29             3.9432338606        1.0945642388        4.8318282318  MEMB      4               0.0000000000
       410         4  SLPC      H9R             4.0923964633        0.6336968269        3.8442287573  MEMB      4               0.0000000000
       411         4  SLPC      C210            3.5451265993        2.4237864025        4.8806337369  MEMB      4               0.0000000000
       412         4  SLPC      H10R            3.3570664488        2.9938385245        3.9588566224  MEMB      4               0.0000000000
       413         4  SLPC      C211            3.5754825966        3.2718871612        6.1914367641  MEMB      4               0.0000000000
       414         4  SLPC      H11R            4.5377894626        2.9822440831        6.6651384581  MEMB      4               0.0000000000
       415         4  SLPC      H11S            2.7126810497        2.9788999340        6.8270889639  MEMB      4               0.0000000000
       416         4  SLPC      C212            3.5149093349        4.7896048600        6.0137203133  MEMB      4               0.0000000000
       417         4  SLPC      H12R            2.6474835430        5.3541432146        6.3863707841  MEMB      4               0.0000000000
       418         4  SLPC      C213            4.4753578041        5.5740364648        5.3652660771  MEMB      4               0.0000000000
       419         4  SLPC      H13R            4.3625557465        6.6679095382        5.3920448367  MEMB      4               0.0000000000
       420         4  SLPC      C214            5.7322948894        5.0582380779        4.6844674268  MEMB      4               0.0000000000
       421         4  SLPC      H14R            5.9452419773        4.0051601293        4.9673127909  MEMB      4               0.0000000000
       422         4  SLPC      H14S            6.6426618538        5.6542672448        4.9087490093  MEMB      4               0.0000000000
       423         4  SLPC      C215            5.6019402126        4.9695660688        3.1068463278  MEMB      4               0.0000000000
       424         4  SLPC      H15R            5.3598928843        5.9371952391        2.6175323773  MEMB      4               0.0000000000
       425         4  SLPC      H15S            4.7148915521        4.3580629140        2.8356836554  MEMB      4               0.0000000000
       426         4  SLPC      C216            6.9831528335        4.4452025507        2.4863759274  MEMB      4               0.0000000000
       427         4  SLPC      H16R            7.2481705617        3.4726128303        2.9534472610  MEMB      4               0.0000000000
       428         4  SLPC      H16S            7.6555400267        5.2363631915        2.8817001946  MEMB      4               0.0000000000
       429         4  SLPC      C217            6.8769890761        4.3867306342        1.0020247144  MEMB      4               0.0000000000
       430         4  SLPC      H17R            5.9937665214        3.7960506941        0.6774699107  MEMB      4               0.0000000000
       431         4  SLPC      H17S            7.7796936774        3.8782144800        0.6009558901  MEMB      4               0.0000000000
       432         4  SLPC      C218            6.9099945383        5.8276173396        0.4101425431  MEMB      4               0.0000000000
       433         4  SLPC      H18R            6.1071064615        6.5109976998        0.7604047196  MEMB      4               0.0000000000
       434         4  SLPC      H18S            6.7244961476        5.6836332233       -0.6757578082  MEMB      4               0.0000000000
       435         4  SLPC      H18T            7.9423028408        6.1307743626        0.6871930378  MEMB      4               0.0000000000
       436         4  SLPC      C33             8.5246173197        5.5733346260        9.9276787601  MEMB      4               0.0000000000
       437         4  SLPC      H3X             8.3856711178        4.5140634426       10.2325710926  MEMB      4               0.0000000000
       438         4  SLPC      H3Y             9.1147429130        6.0579212077       10.7346786270  MEMB      4               0.0000000000
       439         4  SLPC      C34             9.2189988298        5.9129174809        8.6463325640  MEMB      4               0.0000000000
       440         4  SLPC      H4X            10.3037518610        5.6730314154        8.6370246989  MEMB      4               0.0000000000
       441         4  SLPC      H4Y             9.1829611903        7.0154512288        8.5142658581  MEMB      4               0.0000000000
       442         4  SLPC      C35             8.7434124526        5.0890859177        7.4003896209  MEMB      4               0.0000000000
       443         4  SLPC      H5X             9.0555312551        5.7851867330        6.5927104718  MEMB      4               0.0000000000
       444         4  SLPC      H5Y             7.6374264563        5.0779179610        7.2955495414  MEMB      4               0.0000000000
       445         4  SLPC      C36             9.2590359998        3.6697985763        7.0306173323  MEMB      4               0.0000000000
       446         4  SLPC      H6X             8.6906041076        2.9366453947        7.6419213480  MEMB      4               0.0000000000
       447         4  SLPC      H6Y            10.2776248883        3.4162559885        7.3946415396  MEMB      4               0.0000000000
       448         4  SLPC      C37             9.0539676549        3.2389300803        5.5977644399  MEMB      4               0.0000000000
       449         4  SLPC      H7X             9.4112809176        4.0387273222        4.9144105013  MEMB      4               0.0000000000
       450         4  SLPC      H7Y             7.9597507056        3.1174980877        5.4485515417  MEMB      4               0.0000000000
       451         4  SLPC      C38             9.8188354085        1.9392450971        5.3002385596  MEMB      4               0.0000000000
       452         4  SLPC      H8X             9.0562708294        1.1694974678        5.0546682156  MEMB      4               0.0000000000
       453         4  SLPC      H8Y            10.1923981293        1.4936748804        6.2469375462  MEMB      4               0.0000000000
       454         4  SLPC      C39            10.8880833027        1.9135316555        4.2552834591  MEMB      4               0.0000000000
       455         4  SLPC      H9X            11.2550279357        0.8654500451        4.2206849810  MEMB      4               0.0000000000
       456         4  SLPC      H9Y            11.7590434822        2.5879002064        4.4001149867  MEMB      4               0.0000000000
       457         4  SLPC      C310           10.5122131184        2.3448724779        2.8632315177  MEMB      4               0.0000000000
       458         4  SLPC      H10X           10.2924472207        3.4318650520        2.7963648582  MEMB      4               0.0000000000
       459         4  SLPC      H10Y            9.6066463599        1.7977425234        2.5242347161  MEMB      4               0.0000000000
       460         4  SLPC      C311           11.6344375110        2.0603558797        1.8649794493  MEMB      4               0.0000000000
       461         4  SLPC      H11X           11.8334725765        0.9737794969        1.9835442964  MEMB      4               0.0000000000
       462         4  SLPC      H11Y           12.5151081510        2.6580338201        2.1836034170  MEMB      4               0.0000000000
       463         4  SLPC      C312           11.3404536562        2.3424249945        0.3771818809  MEMB      4               0.0000000000
       464         4  SLPC      H12X           12.3765653664        2.3350670473       -0.0237410368  MEMB      4               0.0000000000
       465         4  SLPC      H12Y           10.8840113149        3.3377010667        0.1890147834  MEMB      4               0.0000000000
       466         4  SLPC      C313           10.4204958426        1.3714998647       -0.4109019983  MEMB      4               0.0000000000
       467         4  SLPC      H13X           10.5786973987        0.3513083012       -0.0004103604  MEMB      4               0.0000000000
       468         4  SLPC      H13Y           10.8652321938        1.4247927450       -1.4276073876  MEMB      4               0.0000000000
       469         4  SLPC      C314            8.9624556530        1.7073095147       -0.4857473868  MEMB      4               0.0000000000
       470         4  SLPC      H14X            8.7740444907        2.7055490619       -0.9355705639  MEMB      4               0.0000000000
       471         4  SLPC      H14Y            8.6716190073        1.7224258180        0.5864030618  MEMB      4               0.0000000000
       472         4  SLPC      C315            8.1477857088        0.8055651515       -1.3442101988  MEMB      4               0.0000000000
       473         4  SLPC      H15X            8.4257044590       -0.2692317534       -1.3877292642  MEMB      4               0.0000000000
       474         4  SLPC      H15Y            8.3585364005        1.2141724497       -2.3556178381  MEMB      4               0.0000000000
       475         4  SLPC      C316            6.6597962544        0.8884357793       -1.0418464287  MEMB      4               0.0000000000
       476         4  SLPC      H16X            6.1240727898        0.6822577426       -1.9930624383  MEMB      4               0.0000000000
       477         4  SLPC      H16Y            6.5036625566        1.9135851743       -0.6430846734  MEMB      4               0.0000000000
       478         4  SLPC      C317            6.0842645671       -0.1120798482       -0.0612619659  MEMB      4               0.0000000000
       479         4  SLPC      H17X            6.3522652578       -1.1480027079       -0.3601937989  MEMB      4               0.0000000000
       480         4  SLPC      H17Y            4.9777782106       -0.0150825579       -0.0367622348  MEMB      4               0.0000000000
       481         4  SLPC      C318            6.6107743967        0.1397282875        1.3388156365  MEMB      4               0.0000000000
       482         4  SLPC      H18X            6.4698961735        1.1844545694        1.6895599476  MEMB      4               0.0000000000
       483         4  SLPC      H18Y            7.6823020468       -0.1297442311        1.4551511941  MEMB      4               0.0000000000
       484         4  SLPC      H18Z            5.9972856245       -0.5382239009        1.9699518009  MEMB      4               0.0000000000
       485         5  OSM       N              -8.6485861530       -1.6072753815       22.4720931771  MEMB      5               0.0000000000
       486         5  OSM       C15            -8.6104042942       -2.3191603512       23.7926851994  MEMB      5               0.0000000000
       487         5  OSM       H15A           -7.6493642236       -2.1435302223       24.2530719449  MEMB      5               0.0000000000
       488         5  OSM       H15B           -8.7019122577       -3.3719805891       23.5699840830  MEMB      5               0.0000000000
       489         5  OSM       H15C           -9.4214207244       -1.8574032978       24.3362224207  MEMB      5               0.0000000000
       490         5  OSM       C14            -8.1311927308       -2.5009698942       21.3675075440  MEMB      5               0.0000000000
       491         5  OSM       H14A           -7.0846942383       -2.6465526620       21.5912187440  MEMB      5               0.0000000000
       492         5  OSM       H14B           -8.3303877645       -1.9392527328       20.4668438479  MEMB      5               0.0000000000
       493         5  OSM       H14C           -8.5861303933       -3.4631709921       21.5508133717  MEMB      5               0.0000000000
       494         5  OSM       C13           -10.0007871217       -1.2239982366       22.1463332624  MEMB      5               0.0000000000
       495         5  OSM       H13A          -10.4815506333       -0.7656926768       22.9979332204  MEMB      5               0.0000000000
       496         5  OSM       H13B          -10.6338225031       -2.0241712127       21.7922295067  MEMB      5               0.0000000000
       497         5  OSM       H13C          -10.1099835551       -0.3800942780       21.4812751923  MEMB      5               0.0000000000
       498         5  OSM       C12            -7.7819901097       -0.3525747376       22.5228331111  MEMB      5               0.0000000000
       499         5  OSM       H12A           -6.7860153846       -0.6919720986       22.7662331959  MEMB      5               0.0000000000
       500         5  OSM       H12B           -8.1308296799        0.2581774841       23.3424017903  MEMB      5               0.0000000000
       501         5  OSM       C11            -7.5627529875        0.4696405327       21.2392766415  MEMB      5               0.0000000000
       502         5  OSM       H11A           -7.1633502090       -0.1363828455       20.3981261660  MEMB      5               0.0000000000
       503         5  OSM       H11B           -6.7888658750        1.2301803663       21.4780205507  MEMB      5               0.0000000000
       504         5  OSM       P              -8.9615129563        1.9352948419       19.4605516038  MEMB      5               0.0000000000
       505         5  OSM       O13           -10.3815155828        2.1066363621       19.1211449314  MEMB      5               0.0000000000
       506         5  OSM       O14            -8.0826803862        3.0819277051       19.6015393171  MEMB      5               0.0000000000
       507         5  OSM       O11            -8.3530398764        0.8576359833       18.3972080542  MEMB      5               0.0000000000
       508         5  OSM       O12            -8.7937222042        1.0898793055       20.8788271607  MEMB      5               0.0000000000
       509         5  OSM       C1S            -9.0284923488       -0.1525007593       17.8470931107  MEMB      5               0.0000000000
       510         5  OSM       H1S           -10.0318001052       -0.2914338405       18.3035930769  MEMB      5               0.0000000000
       511         5  OSM       H1T            -8.4731640188       -1.1147189603       17.8553089500  MEMB      5               0.0000000000
       512         5  OSM       NF            -10.1107141636       -0.8182621579       15.6592915485  MEMB      5               0.0000000000
       513         5  OSM       HNF            -9.6947096037       -1.5005016768       15.0630543745  MEMB      5               0.0000000000
       514         5  OSM       C2S            -9.1598162213        0.1274738920       16.3250795415  MEMB      5               0.0000000000
       515         5  OSM       H2S            -9.5112301679        1.1594825990       16.1110999860  MEMB      5               0.0000000000
       516         5  OSM       C3S            -7.7345672344       -0.0669182573       15.6391947820  MEMB      5               0.0000000000
       517         5  OSM       H3S            -7.2620627634       -0.9424717584       16.1336307385  MEMB      5               0.0000000000
       518         5  OSM       O3             -7.0275637372        1.1483711209       15.9028657537  MEMB      5               0.0000000000
       519         5  OSM       HO3            -7.5449108738        1.6322287739       16.5508116917  MEMB      5               0.0000000000
       520         5  OSM       C4S            -7.7798821632       -0.3245321162       14.2011384895  MEMB      5               0.0000000000
       521         5  OSM       H4S            -8.1623575045        0.5429742061       13.6433343451  MEMB      5               0.0000000000
       522         5  OSM       C5S            -7.4227873165       -1.4480296862       13.5782531515  MEMB      5               0.0000000000
       523         5  OSM       H5S            -6.9988604002       -2.3145485091       14.1068657235  MEMB      5               0.0000000000
       524         5  OSM       C6S            -7.4887524651       -1.6826156726       12.0507453144  MEMB      5               0.0000000000
       525         5  OSM       H6S            -6.5125331212       -2.0672628145       11.6855559898  MEMB      5               0.0000000000
       526         5  OSM       H6T            -7.7962294375       -0.7342993127       11.5603624362  MEMB      5               0.0000000000
       527         5  OSM       C7S            -8.5777046555       -2.7653189186       11.8523552811  MEMB      5               0.0000000000
       528         5  OSM       H7S            -9.4922907469       -2.4444643438       12.3954072790  MEMB      5               0.0000000000
       529         5  OSM       H7T            -8.1103415171       -3.7083753882       12.2080770652  MEMB      5               0.0000000000
       530         5  OSM       C8S            -8.9077958149       -3.0358077851       10.3515652689  MEMB      5               0.0000000000
       531         5  OSM       H8S            -8.1967978374       -3.7811503326        9.9353122217  MEMB      5               0.0000000000
       532         5  OSM       H8T            -8.6222390014       -2.1492104257        9.7459886328  MEMB      5               0.0000000000
       533         5  OSM       C9S           -10.3774846905       -3.3514198088       10.0025965015  MEMB      5               0.0000000000
       534         5  OSM       H9S           -11.0417087413       -2.6139453642       10.5018545291  MEMB      5               0.0000000000
       535         5  OSM       H9T           -10.6717109333       -4.3305785305       10.4373374421  MEMB      5               0.0000000000
       536         5  OSM       C10S          -10.7314164324       -3.3026816845        8.5243730440  MEMB      5               0.0000000000
       537         5  OSM       H10S          -10.6382386602       -2.2649584746        8.1386663080  MEMB      5               0.0000000000
       538         5  OSM       H10T          -11.7921496011       -3.6266406750        8.4594367517  MEMB      5               0.0000000000
       539         5  OSM       C11S           -9.8116403549       -4.2052459201        7.5889727974  MEMB      5               0.0000000000
       540         5  OSM       H11S           -9.5720333024       -5.1691400009        8.0867862395  MEMB      5               0.0000000000
       541         5  OSM       H11T           -8.8189892045       -3.7356337595        7.4203641878  MEMB      5               0.0000000000
       542         5  OSM       C12S          -10.3735989875       -4.5102372311        6.1764802233  MEMB      5               0.0000000000
       543         5  OSM       H12S          -11.2827922298       -5.1380081356        6.2930664789  MEMB      5               0.0000000000
       544         5  OSM       H12T           -9.5555718599       -5.1606724204        5.7995363739  MEMB      5               0.0000000000
       545         5  OSM       C13S          -10.6605685156       -3.3102885843        5.3214932320  MEMB      5               0.0000000000
       546         5  OSM       H13S          -10.2579926405       -3.5454286211        4.3130475223  MEMB      5               0.0000000000
       547         5  OSM       H13T          -10.0654518870       -2.4354618281        5.6603663542  MEMB      5               0.0000000000
       548         5  OSM       C14S          -12.1240173305       -2.9368498739        5.2575696465  MEMB      5               0.0000000000
       549         5  OSM       H14S          -12.4185925167       -2.6215901937        6.2813655013  MEMB      5               0.0000000000
       550         5  OSM       H14T          -12.7996327348       -3.7969861455        5.0625556278  MEMB      5               0.0000000000
       551         5  OSM       C15S          -12.3969135471       -1.8797242182        4.1347858836  MEMB      5               0.0000000000
       552         5  OSM       H15S          -13.4541192872       -2.0917831451        3.8670756272  MEMB      5               0.0000000000
       553         5  OSM       H15T          -11.7826380205       -2.1100473172        3.2381601703  MEMB      5               0.0000000000
       554         5  OSM       C16S          -12.2589379498       -0.4322590153        4.5733940459  MEMB      5               0.0000000000
       555         5  OSM       H16S          -11.1817443226       -0.1617289743        4.5453168170  MEMB      5               0.0000000000
       556         5  OSM       H16T          -12.7055312444       -0.4211148674        5.5906202994  MEMB      5               0.0000000000
       557         5  OSM       C17S          -12.9767713955        0.4946755616        3.6498529154  MEMB      5               0.0000000000
       558         5  OSM       H17S          -13.4233680356        1.3012215309        4.2698178586  MEMB      5               0.0000000000
       559         5  OSM       H17T          -13.8279744051       -0.0850876616        3.2331407355  MEMB      5               0.0000000000
       560         5  OSM       C18S          -12.0790990970        1.1235995002        2.5575849756  MEMB      5               0.0000000000
       561         5  OSM       H18S          -11.3494747419        0.3096832503        2.3588151121  MEMB      5               0.0000000000
       562         5  OSM       H18T          -11.6039679424        2.1040047254        2.7752472810  MEMB      5               0.0000000000
       563         5  OSM       H18U          -12.7291926442        1.2569539193        1.6665659953  MEMB      5               0.0000000000
       564         5  OSM       C1F           -11.4752536781       -0.8132931071       16.0137193519  MEMB      5               0.0000000000
       565         5  OSM       OF            -11.9684976258        0.0150846355       16.7578861484  MEMB      5               0.0000000000
       566         5  OSM       C2F           -12.3401837260       -1.9217954211       15.4000136944  MEMB      5               0.0000000000
       567         5  OSM       H2F           -12.8939926411       -2.3227660484       16.2757072864  MEMB      5               0.0000000000
       568         5  OSM       H2G           -11.6866273860       -2.6469226278       14.8695651421  MEMB      5               0.0000000000
       569         5  OSM       C3F           -13.3959818495       -1.2814105783       14.4116122485  MEMB      5               0.0000000000
       570         5  OSM       H3F           -13.8690173361       -0.4055743651       14.9050381312  MEMB      5               0.0000000000
       571         5  OSM       H3G           -14.1566763898       -2.0909598626       14.4287903941  MEMB      5               0.0000000000
       572         5  OSM       C4F           -12.7619132010       -0.9614620209       13.0726636479  MEMB      5               0.0000000000
       573         5  OSM       H4F           -13.5588353927       -1.3574178681       12.4074902336  MEMB      5               0.0000000000
       574         5  OSM       H4G           -11.9078071620       -1.6631953581       12.9613350601  MEMB      5               0.0000000000
       575         5  OSM       C5F           -12.3895183292        0.5100257627       12.7928495313  MEMB      5               0.0000000000
       576         5  OSM       H5F           -11.4729041063        0.7334937569       13.3795361355  MEMB      5               0.0000000000
       577         5  OSM       H5G           -13.1755215950        1.1165310767       13.2915187060  MEMB      5               0.0000000000
       578         5  OSM       C6F           -12.0699613872        0.7653114960       11.2731243027  MEMB      5               0.0000000000
       579         5  OSM       H6F           -12.4259946656        1.7376787573       10.8705525627  MEMB      5               0.0000000000
       580         5  OSM       H6G           -12.5883566570       -0.0531081099       10.7292705241  MEMB      5               0.0000000000
       581         5  OSM       C7F           -10.4505172701        0.8488507614       11.0458358144  MEMB      5               0.0000000000
       582         5  OSM       H7F           -10.0773301986        0.7249902556       10.0067444874  MEMB      5               0.0000000000
       583         5  OSM       H7G           -10.0765690044       -0.1059168996       11.4735075140  MEMB      5               0.0000000000
       584         5  OSM       C8F            -9.7145729426        2.1849373198       11.4741312944  MEMB      5               0.0000000000
       585         5  OSM       H8F            -8.6512105981        2.0381923405       11.1876920823  MEMB      5               0.0000000000
       586         5  OSM       H8G            -9.9095002368        2.4069406547       12.5451299675  MEMB      5               0.0000000000
       587         5  OSM       C9F           -10.2701039585        3.3813254407       10.7333077453  MEMB      5               0.0000000000
       588         5  OSM       H9F           -11.2158698072        3.7301517144       11.1735889549  MEMB      5               0.0000000000
       589         5  OSM       C10F           -9.7345634432        4.0221346849        9.6807442741  MEMB      5               0.0000000000
       590         5  OSM       H10F          -10.1912487788        4.8791036795        9.1639823831  MEMB      5               0.0000000000
       591         5  OSM       C11F           -8.4026864338        3.5972385137        9.1215787632  MEMB      5               0.0000000000
       592         5  OSM       H11F           -7.8475361155        2.8691767209        9.7509076096  MEMB      5               0.0000000000
       593         5  OSM       H11G           -7.7514370081        4.4956277447        9.1771818261  MEMB      5               0.0000000000
       594         5  OSM       C12F           -8.3198616311        3.0280035828        7.6133574729  MEMB      5               0.0000000000
       595         5  OSM       H12F           -7.2493946628        3.1284297036        7.3334714082  MEMB      5               0.0000000000
       596         5  OSM       H12G           -8.9461046934        3.6750160253        6.9625762572  MEMB      5               0.0000000000
       597         5  OSM       C13F           -8.7607069807        1.5240186062        7.4535669711  MEMB      5               0.0000000000
       598         5  OSM       H13F           -9.8141233782        1.5146860657        7.8064806523  MEMB      5               0.0000000000
       599         5  OSM       H13G           -8.0978125239        0.9218127143        8.1110168785  MEMB      5               0.0000000000
       600         5  OSM       C14F           -8.7501796111        0.9793075959        5.9981837846  MEMB      5               0.0000000000
       601         5  OSM       H14F           -9.4028580416        1.5110822497        5.2732366774  MEMB      5               0.0000000000
       602         5  OSM       H14G           -9.2477817760       -0.0111492818        6.0737370984  MEMB      5               0.0000000000
       603         5  OSM       C15F           -7.4360605146        0.8315757584        5.2847029075  MEMB      5               0.0000000000
       604         5  OSM       H15F           -6.7441774862        0.1787765634        5.8586988911  MEMB      5               0.0000000000
       605         5  OSM       H15G           -6.9943626368        1.8210769159        5.0395268756  MEMB      5               0.0000000000
       606         5  OSM       C16F           -7.5186842640        0.1686813037        3.8767802010  MEMB      5               0.0000000000
       607         5  OSM       H16F           -7.9804856728        0.9772397519        3.2707327095  MEMB      5               0.0000000000
       608         5  OSM       H16G           -8.2383723362       -0.6776385687        3.8661501518  MEMB      5               0.0000000000
       609         5  OSM       C17F           -6.1729758474       -0.1142959788        3.2767290339  MEMB      5               0.0000000000
       610         5  OSM       H17F           -5.5342625972       -0.8829751774        3.7620116810  MEMB      5               0.0000000000
       611         5  OSM       H17G           -5.4870239616        0.7587044047        3.3174849638  MEMB      5               0.0000000000
       612         5  OSM       C18F           -6.3112258237       -0.5711197412        1.7905162407  MEMB      5               0.0000000000
       613         5  OSM       H18F           -6.5966486199        0.3632810540        1.2616020132  MEMB      5               0.0000000000
       614         5  OSM       H18G           -7.1454201681       -1.2978546417        1.6890374758  MEMB      5               0.0000000000
       615         5  OSM       H18H           -5.3563772495       -0.9177306941        1.3405750629  MEMB      5               0.0000000000
       616         6  CHL1      C3              1.8391475739        9.0859102334       17.3964750000  MEMB      6               0.0000000000
       617         6  CHL1      H3              1.8444400469       10.1899390811       17.5206550000  MEMB      6               0.0000000000
       618         6  CHL1      O3              1.3469582261        8.5736517666       18.6035250000  MEMB      6               0.0000000000
       619         6  CHL1      H3'             2.1340780332        8.5603312813       19.1529550000  MEMB      6               0.0000000000
       620         6  CHL1      C4              0.8391103981        8.6619691496       16.3148050000  MEMB      6               0.0000000000
       621         6  CHL1      H4A             0.7459223450        7.5586059550       16.4055050000  MEMB      6               0.0000000000
       622         6  CHL1      H4B            -0.1292260115        9.1512993972       16.5539550000  MEMB      6               0.0000000000
       623         6  CHL1      C5              1.3781142240        8.9734930551       14.9062050000  MEMB      6               0.0000000000
       624         6  CHL1      C6              0.6150034924        9.7797546051       14.1546850000  MEMB      6               0.0000000000
       625         6  CHL1      H6             -0.3007760941       10.2062921752       14.5898950000  MEMB      6               0.0000000000
       626         6  CHL1      C7              0.9482059429       10.0565356685       12.6424650000  MEMB      6               0.0000000000
       627         6  CHL1      H7A             0.0265342436        9.9645787702       12.0289550000  MEMB      6               0.0000000000
       628         6  CHL1      H7B             1.4180436019       11.0526886952       12.4966950000  MEMB      6               0.0000000000
       629         6  CHL1      C8              2.0052424313        9.0244476597       12.1170850000  MEMB      6               0.0000000000
       630         6  CHL1      H8              1.4692415920        8.0699920019       11.9272650000  MEMB      6               0.0000000000
       631         6  CHL1      C14             2.6126277494        9.5189694569       10.8810750000  MEMB      6               0.0000000000
       632         6  CHL1      H14             3.2289925597       10.3461766374       11.2935550000  MEMB      6               0.0000000000
       633         6  CHL1      C15             1.7950190544       10.3245128972        9.8612450000  MEMB      6               0.0000000000
       634         6  CHL1      H15A            0.8899792758        9.7494096720        9.5705650000  MEMB      6               0.0000000000
       635         6  CHL1      H15B            1.6156095965       11.3958866618       10.0942350000  MEMB      6               0.0000000000
       636         6  CHL1      C16             2.6873415800       10.3323207938        8.5870750000  MEMB      6               0.0000000000
       637         6  CHL1      H16A            2.0175140704        9.8318494397        7.8555250000  MEMB      6               0.0000000000
       638         6  CHL1      H16B            2.9705310249       11.3666847700        8.2968850000  MEMB      6               0.0000000000
       639         6  CHL1      C17             3.9257688348        9.5606432417        8.9792750000  MEMB      6               0.0000000000
       640         6  CHL1      H17             4.6795227977       10.2319095706        9.4435650000  MEMB      6               0.0000000000
       641         6  CHL1      C13             3.6023018825        8.6224391365       10.1337450000  MEMB      6               0.0000000000
       642         6  CHL1      C18             3.0522905307        7.2888483059        9.7737750000  MEMB      6               0.0000000000
       643         6  CHL1      H18A            2.5822765884        6.7495086762       10.6237850000  MEMB      6               0.0000000000
       644         6  CHL1      H18B            2.2982442617        7.5005601355        8.9857850000  MEMB      6               0.0000000000
       645         6  CHL1      H18C            3.7795038955        6.5938421750        9.3021350000  MEMB      6               0.0000000000
       646         6  CHL1      C12             4.8122035116        8.4358207604       11.0769750000  MEMB      6               0.0000000000
       647         6  CHL1      H12A            5.5918769241        7.7099837390       10.7614050000  MEMB      6               0.0000000000
       648         6  CHL1      H12B            5.4457407953        9.3457871329       11.1471150000  MEMB      6               0.0000000000
       649         6  CHL1      C11             4.2850123347        7.9601501627       12.5384450000  MEMB      6               0.0000000000
       650         6  CHL1      H11A            4.0282575615        6.8857497214       12.4198950000  MEMB      6               0.0000000000
       651         6  CHL1      H11B            5.1133980976        8.0765206775       13.2695750000  MEMB      6               0.0000000000
       652         6  CHL1      C9              3.0763411509        8.7930787159       13.1671850000  MEMB      6               0.0000000000
       653         6  CHL1      H9              3.6014117810        9.7626520398       13.3033550000  MEMB      6               0.0000000000
       654         6  CHL1      C10             2.7238871587        8.3196515057       14.5634850000  MEMB      6               0.0000000000
       655         6  CHL1      C19             2.6258962444        6.7549608780       14.5800850000  MEMB      6               0.0000000000
       656         6  CHL1      H19A            3.6449289526        6.3183867467       14.6528450000  MEMB      6               0.0000000000
       657         6  CHL1      H19B            2.0675815436        6.3500586826       15.4510850000  MEMB      6               0.0000000000
       658         6  CHL1      H19C            2.1837004673        6.2586375951       13.6898950000  MEMB      6               0.0000000000
       659         6  CHL1      C1              3.6895477582        8.8728755041       15.6687650000  MEMB      6               0.0000000000
       660         6  CHL1      H1A             4.6883281187        8.4209733522       15.4884050000  MEMB      6               0.0000000000
       661         6  CHL1      H1B             3.7427180046        9.9732629219       15.5250950000  MEMB      6               0.0000000000
       662         6  CHL1      C2              3.2658677385        8.6248703469       17.0887350000  MEMB      6               0.0000000000
       663         6  CHL1      H2A             4.0478896288        9.0589848941       17.7477550000  MEMB      6               0.0000000000
       664         6  CHL1      H2B             3.1616517539        7.5352068797       17.2787850000  MEMB      6               0.0000000000
       665         6  CHL1      C20             4.6707144671        9.0082542440        7.6907050000  MEMB      6               0.0000000000
       666         6  CHL1      H20             4.9991691529        9.9595311191        7.2200350000  MEMB      6               0.0000000000
       667         6  CHL1      C21             3.7399420108        8.3244392411        6.7119350000  MEMB      6               0.0000000000
       668         6  CHL1      H21A            3.5159450825        7.2961758619        7.0680550000  MEMB      6               0.0000000000
       669         6  CHL1      H21B            4.2949024610        8.2092038748        5.7563850000  MEMB      6               0.0000000000
       670         6  CHL1      H21C            2.8813109761        8.9913554657        6.4832450000  MEMB      6               0.0000000000
       671         6  CHL1      C22             5.9991960645        8.2590418266        7.9345050000  MEMB      6               0.0000000000
       672         6  CHL1      H22A            6.5504798954        8.9106570534        8.6457050000  MEMB      6               0.0000000000
       673         6  CHL1      H22B            5.7578775447        7.2775942243        8.3958350000  MEMB      6               0.0000000000
       674         6  CHL1      C23             6.9100977514        7.9107140365        6.7311350000  MEMB      6               0.0000000000
       675         6  CHL1      H23A            6.3852688704        7.1517629778        6.1123650000  MEMB      6               0.0000000000
       676         6  CHL1      H23B            7.0772704026        8.8132993495        6.1052750000  MEMB      6               0.0000000000
       677         6  CHL1      C24             8.2279305294        7.4037128019        7.2105850000  MEMB      6               0.0000000000
       678         6  CHL1      H24A            8.5580177519        8.1531824192        7.9613550000  MEMB      6               0.0000000000
       679         6  CHL1      H24B            7.9552831473        6.4607793644        7.7310350000  MEMB      6               0.0000000000
       680         6  CHL1      C25             9.1680819294        7.2210023548        6.0169850000  MEMB      6               0.0000000000
       681         6  CHL1      H25             8.7711324436        6.4341226821        5.3405450000  MEMB      6               0.0000000000
       682         6  CHL1      C26             9.5376674473        8.5485967499        5.3542650000  MEMB      6               0.0000000000
       683         6  CHL1      H26A            9.7988045006        9.2078185824        6.2095650000  MEMB      6               0.0000000000
       684         6  CHL1      H26B           10.3211142132        8.5292474697        4.5667550000  MEMB      6               0.0000000000
       685         6  CHL1      H26C            8.6532194405        8.9762350071        4.8354350000  MEMB      6               0.0000000000
       686         6  CHL1      C27            10.5098259693        6.7319223715        6.5119150000  MEMB      6               0.0000000000
       687         6  CHL1      H27A           11.3292883471        6.7518132009        5.7619850000  MEMB      6               0.0000000000
       688         6  CHL1      H27B           10.9647126442        7.4741160854        7.2022250000  MEMB      6               0.0000000000
       689         6  CHL1      H27C           10.4895412232        5.6911971592        6.9002350000  MEMB      6               0.0000000000
       690         7  OSM       N              -8.2653763222        8.0050115395       21.6334124188  MEMB      7               0.0000000000
       691         7  OSM       C15            -8.6980502546        9.2320294902       20.7629610445  MEMB      7               0.0000000000
       692         7  OSM       H15A           -9.4372262210        9.8768116386       21.2149284793  MEMB      7               0.0000000000
       693         7  OSM       H15B           -8.9692065635        8.9109970829       19.7680678851  MEMB      7               0.0000000000
       694         7  OSM       H15C           -7.7919909065        9.7407718813       20.4686183887  MEMB      7               0.0000000000
       695         7  OSM       C14            -7.3253478986        8.4698912922       22.7734600342  MEMB      7               0.0000000000
       696         7  OSM       H14A           -6.4532079414        9.0194579144       22.4513601650  MEMB      7               0.0000000000
       697         7  OSM       H14B           -7.1043488328        7.6961772099       23.4938250710  MEMB      7               0.0000000000
       698         7  OSM       H14C           -7.9927628971        9.1378579895       23.2976524444  MEMB      7               0.0000000000
       699         7  OSM       C13            -9.3319493048        7.4171397613       22.3919136597  MEMB      7               0.0000000000
       700         7  OSM       H13A          -10.2081110872        7.2774948740       21.7760889916  MEMB      7               0.0000000000
       701         7  OSM       H13B           -9.6044106323        8.1759959090       23.1104554086  MEMB      7               0.0000000000
       702         7  OSM       H13C           -9.1281271630        6.4734520428       22.8759693646  MEMB      7               0.0000000000
       703         7  OSM       C12            -7.5761617140        6.8926956544       20.7985687189  MEMB      7               0.0000000000
       704         7  OSM       H12A           -8.2732652980        6.3185572286       20.2062751228  MEMB      7               0.0000000000
       705         7  OSM       H12B           -7.0422870883        6.2053432076       21.4380407896  MEMB      7               0.0000000000
       706         7  OSM       C11            -6.5795192951        7.4429163913       19.7163197960  MEMB      7               0.0000000000
       707         7  OSM       H11A           -7.2383348066        7.9556807659       18.9832742164  MEMB      7               0.0000000000
       708         7  OSM       H11B           -6.0677882695        6.5776059194       19.2433607530  MEMB      7               0.0000000000
       709         7  OSM       P              -4.1602907893        7.7790493667       20.6389677575  MEMB      7               0.0000000000
       710         7  OSM       O13            -3.3896292305        8.8425211963       21.3648734495  MEMB      7               0.0000000000
       711         7  OSM       O14            -4.4405339659        6.5114517355       21.3846057522  MEMB      7               0.0000000000
       712         7  OSM       O11            -3.4264086102        7.3965716920       19.2903708603  MEMB      7               0.0000000000
       713         7  OSM       O12            -5.5826488005        8.3482032208       20.2445465083  MEMB      7               0.0000000000
       714         7  OSM       C1S            -2.7935206766        8.4546279132       18.5413584650  MEMB      7               0.0000000000
       715         7  OSM       H1S            -1.8228512251        8.6803828214       19.0324353251  MEMB      7               0.0000000000
       716         7  OSM       H1T            -3.3621981636        9.4090328796       18.5351879713  MEMB      7               0.0000000000
       717         7  OSM       NF             -3.9172838450        8.0196012506       16.4251021286  MEMB      7               0.0000000000
       718         7  OSM       HNF            -3.9788292535        7.0982586177       16.0491381776  MEMB      7               0.0000000000
       719         7  OSM       C2S            -2.6534475294        7.9765813629       17.1019780268  MEMB      7               0.0000000000
       720         7  OSM       H2S            -2.0689548823        8.7922359994       16.6251164169  MEMB      7               0.0000000000
       721         7  OSM       C3S            -2.0406028099        6.6326608720       16.9981531045  MEMB      7               0.0000000000
       722         7  OSM       H3S            -2.8126508604        5.8662839307       17.2238278547  MEMB      7               0.0000000000
       723         7  OSM       O3             -0.9063809435        6.4865512668       17.8661377671  MEMB      7               0.0000000000
       724         7  OSM       HO3            -0.8974608457        7.3246574590       18.3342172498  MEMB      7               0.0000000000
       725         7  OSM       C4S            -1.6702740209        6.4004740792       15.5349121833  MEMB      7               0.0000000000
       726         7  OSM       H4S            -0.8266112260        6.9226248509       15.0599472405  MEMB      7               0.0000000000
       727         7  OSM       C5S            -2.2342403310        5.5884367627       14.6572070655  MEMB      7               0.0000000000
       728         7  OSM       H5S            -3.1478765657        5.1206830452       15.0527765273  MEMB      7               0.0000000000
       729         7  OSM       C6S            -1.9913054790        5.2721646079       13.2095969737  MEMB      7               0.0000000000
       730         7  OSM       H6S            -1.9155020503        4.1662639115       13.1350390381  MEMB      7               0.0000000000
       731         7  OSM       H6T            -1.0644372019        5.8016746877       12.9016109898  MEMB      7               0.0000000000
       732         7  OSM       C7S            -3.0507700779        5.6263835648       12.2046705318  MEMB      7               0.0000000000
       733         7  OSM       H7S            -3.2365901103        6.7165849787       12.3107505676  MEMB      7               0.0000000000
       734         7  OSM       H7T            -4.0391291095        5.2063183778       12.4892975850  MEMB      7               0.0000000000
       735         7  OSM       C8S            -2.6540709371        5.2796731999       10.7484802266  MEMB      7               0.0000000000
       736         7  OSM       H8S            -2.6146964812        4.1859146422       10.5575274971  MEMB      7               0.0000000000
       737         7  OSM       H8T            -1.6518493346        5.6704312076       10.4706660047  MEMB      7               0.0000000000
       738         7  OSM       C9S            -3.6353858475        5.8243727705        9.6508290431  MEMB      7               0.0000000000
       739         7  OSM       H9S            -3.5765994896        6.9334891505        9.6777745726  MEMB      7               0.0000000000
       740         7  OSM       H9T            -4.6602609361        5.5807939827       10.0038474597  MEMB      7               0.0000000000
       741         7  OSM       C10S           -3.2670064030        5.3814844624        8.3099894415  MEMB      7               0.0000000000
       742         7  OSM       H10S           -3.6498685238        4.3657596202        8.0732602471  MEMB      7               0.0000000000
       743         7  OSM       H10T           -2.1800682951        5.3632273461        8.0807448324  MEMB      7               0.0000000000
       744         7  OSM       C11S           -4.0741411939        6.2048822308        7.2933971283  MEMB      7               0.0000000000
       745         7  OSM       H11S           -4.0662207806        7.2221599923        7.7399440341  MEMB      7               0.0000000000
       746         7  OSM       H11T           -5.1232677503        5.8583469128        7.1769168458  MEMB      7               0.0000000000
       747         7  OSM       C12S           -3.2873887194        6.1682595372        6.0080768865  MEMB      7               0.0000000000
       748         7  OSM       H12S           -3.2504296262        5.1192397591        5.6440541280  MEMB      7               0.0000000000
       749         7  OSM       H12T           -2.2265255743        6.4406273866        6.1943714475  MEMB      7               0.0000000000
       750         7  OSM       C13S           -3.9958810731        7.1605428565        5.0038388967  MEMB      7               0.0000000000
       751         7  OSM       H13S           -4.1246094551        8.1698645246        5.4499555087  MEMB      7               0.0000000000
       752         7  OSM       H13T           -4.9971113563        6.7206252553        4.8080553421  MEMB      7               0.0000000000
       753         7  OSM       C14S           -3.3518937558        7.1730245071        3.6124706197  MEMB      7               0.0000000000
       754         7  OSM       H14S           -3.9457982776        7.7507697126        2.8723291953  MEMB      7               0.0000000000
       755         7  OSM       H14T           -3.5170045637        6.1657057812        3.1738714187  MEMB      7               0.0000000000
       756         7  OSM       C15S           -1.9270700319        7.7209612399        3.5941604886  MEMB      7               0.0000000000
       757         7  OSM       H15S           -1.4129856719        7.1846669782        4.4202500259  MEMB      7               0.0000000000
       758         7  OSM       H15T           -1.7469912187        8.7959204403        3.8094621976  MEMB      7               0.0000000000
       759         7  OSM       C16S           -1.1143100687        7.4257932655        2.2984218478  MEMB      7               0.0000000000
       760         7  OSM       H16S           -1.2412158505        6.3580924963        2.0187238529  MEMB      7               0.0000000000
       761         7  OSM       H16T           -0.0423279557        7.5256415621        2.5726581064  MEMB      7               0.0000000000
       762         7  OSM       C17S           -1.5261222360        8.2991857058        1.1025447879  MEMB      7               0.0000000000
       763         7  OSM       H17S           -2.5067529530        7.9118700493        0.7523009669  MEMB      7               0.0000000000
       764         7  OSM       H17T           -0.9122064304        8.0278990986        0.2172015841  MEMB      7               0.0000000000
       765         7  OSM       C18S           -1.4864059799        9.8689053211        1.2057094090  MEMB      7               0.0000000000
       766         7  OSM       H18S           -0.5457390640       10.2147318448        1.6851577744  MEMB      7               0.0000000000
       767         7  OSM       H18T           -2.3067895388       10.2144519490        1.8704577046  MEMB      7               0.0000000000
       768         7  OSM       H18U           -1.5240623938       10.3868378474        0.2235440051  MEMB      7               0.0000000000
       769         7  OSM       C1F            -4.6116650673        9.1052895499       15.9577122817  MEMB      7               0.0000000000
       770         7  OSM       OF             -4.3267813336       10.3134322558       16.1987379347  MEMB      7               0.0000000000
       771         7  OSM       C2F            -5.8743131042        8.7235104484       15.1403038014  MEMB      7               0.0000000000
       772         7  OSM       H2F            -6.8376522860        9.0760562955       15.5669304574  MEMB      7               0.0000000000
       773         7  OSM       H2G            -5.9340227829        7.6222718263       15.0060309221  MEMB      7               0.0000000000
       774         7  OSM       C3F            -5.7378147257        9.3815194274       13.7858356517  MEMB      7               0.0000000000
       775         7  OSM       H3F            -4.7300682375        9.1810729473       13.3632376278  MEMB      7               0.0000000000
       776         7  OSM       H3G            -5.8996962222       10.4760396276       13.8865392757  MEMB      7               0.0000000000
       777         7  OSM       C4F            -6.8627850781        8.8770630018       12.8412869717  MEMB      7               0.0000000000
       778         7  OSM       H4F            -7.4407697610        9.7291558240       12.4239232382  MEMB      7               0.0000000000
       779         7  OSM       H4G            -7.5467525971        8.3326547478       13.5269465482  MEMB      7               0.0000000000
       780         7  OSM       C5F            -6.4079010679        7.8135570436       11.8863370357  MEMB      7               0.0000000000
       781         7  OSM       H5F            -5.9268971675        6.8876017017       12.2678637600  MEMB      7               0.0000000000
       782         7  OSM       H5G            -5.5866274962        8.2669157291       11.2911083877  MEMB      7               0.0000000000
       783         7  OSM       C6F            -7.4556126160        7.3373918853       10.8824963623  MEMB      7               0.0000000000
       784         7  OSM       H6F            -7.1924159777        6.5194124701       10.1782529223  MEMB      7               0.0000000000
       785         7  OSM       H6G            -7.7490572148        8.2261900051       10.2839571100  MEMB      7               0.0000000000
       786         7  OSM       C7F            -8.7292634999        6.6817866283       11.5359134386  MEMB      7               0.0000000000
       787         7  OSM       H7F            -9.1369733081        7.4660264252       12.2090122887  MEMB      7               0.0000000000
       788         7  OSM       H7G            -8.5166388892        5.7456241705       12.0951196758  MEMB      7               0.0000000000
       789         7  OSM       C8F            -9.7698414823        6.4031295874       10.4460244052  MEMB      7               0.0000000000
       790         7  OSM       H8F           -10.8005340686        6.1634613543       10.7844815471  MEMB      7               0.0000000000
       791         7  OSM       H8G            -9.5498632953        5.5512613847        9.7676062833  MEMB      7               0.0000000000
       792         7  OSM       C9F           -10.0198482594        7.6730973067        9.7790188332  MEMB      7               0.0000000000
       793         7  OSM       H9F           -10.0944252427        8.4771906318       10.5259268692  MEMB      7               0.0000000000
       794         7  OSM       C10F          -10.0996819174        8.0144662323        8.5116394524  MEMB      7               0.0000000000
       795         7  OSM       H10F          -10.2138369164        9.0668271484        8.2124649927  MEMB      7               0.0000000000
       796         7  OSM       C11F           -9.9096807576        6.9494070998        7.3969938528  MEMB      7               0.0000000000
       797         7  OSM       H11F          -10.5858747391        7.1267335717        6.5334904310  MEMB      7               0.0000000000
       798         7  OSM       H11G          -10.1695120080        5.9176292537        7.7167485242  MEMB      7               0.0000000000
       799         7  OSM       C12F           -8.5346957150        6.7963573072        6.8220835282  MEMB      7               0.0000000000
       800         7  OSM       H12F           -8.4277813145        5.9535317856        6.1061674787  MEMB      7               0.0000000000
       801         7  OSM       H12G           -7.7540394637        6.5860803705        7.5841078403  MEMB      7               0.0000000000
       802         7  OSM       C13F           -8.0903590983        8.0720885407        6.1099168517  MEMB      7               0.0000000000
       803         7  OSM       H13F           -6.9827602382        8.0622404456        6.0236095379  MEMB      7               0.0000000000
       804         7  OSM       H13G           -8.2886932041        8.9289204718        6.7887560775  MEMB      7               0.0000000000
       805         7  OSM       C14F           -8.8280618085        8.4567415276        4.8500225001  MEMB      7               0.0000000000
       806         7  OSM       H14F           -8.2726202781        9.3041865661        4.3943445137  MEMB      7               0.0000000000
       807         7  OSM       H14G           -9.8458363962        8.7494552066        5.1858412484  MEMB      7               0.0000000000
       808         7  OSM       C15F           -8.6829179630        7.4329624249        3.6616033639  MEMB      7               0.0000000000
       809         7  OSM       H15F           -9.1039096511        6.4569734084        3.9849185322  MEMB      7               0.0000000000
       810         7  OSM       H15G           -7.5842963976        7.2898714950        3.5786781149  MEMB      7               0.0000000000
       811         7  OSM       C16F           -9.2325019177        7.8936869342        2.3240153162  MEMB      7               0.0000000000
       812         7  OSM       H16F           -8.6965147644        8.8293562052        2.0565054342  MEMB      7               0.0000000000
       813         7  OSM       H16G          -10.3005539725        8.1934202648        2.3852186416  MEMB      7               0.0000000000
       814         7  OSM       C17F           -9.1019130156        6.8081323826        1.2650126735  MEMB      7               0.0000000000
       815         7  OSM       H17F           -9.5267036133        5.8194413105        1.5413528763  MEMB      7               0.0000000000
       816         7  OSM       H17G           -8.0214190007        6.7460925222        1.0140043542  MEMB      7               0.0000000000
       817         7  OSM       C18F           -9.8318340664        7.2568995026       -0.0260778585  MEMB      7               0.0000000000
       818         7  OSM       H18F           -9.1473812655        8.0062698440       -0.4780615034  MEMB      7               0.0000000000
       819         7  OSM       H18G          -10.7971773105        7.7826288215        0.1352954242  MEMB      7               0.0000000000
       820         7  OSM       H18H           -9.8810490437        6.4472464674       -0.7852625281  MEMB      7               0.0000000000
       821         8  CHL1      C3              1.4009513705      -13.2666034978       17.5064950000  MEMB      8               0.0000000000
       822         8  CHL1      H3              2.4202412872      -13.3701635991       17.9361750000  MEMB      8               0.0000000000
       823         8  CHL1      O3              0.5028808905      -12.6269552555       18.4935050000  MEMB      8               0.0000000000
       824         8  CHL1      H3'             0.3351480343      -13.2481106894       19.2059850000  MEMB      8               0.0000000000
       825         8  CHL1      C4              1.1970616308      -12.4323736021       16.2245050000  MEMB      8               0.0000000000
       826         8  CHL1      H4A             0.0977612492      -12.3461933978       16.0887650000  MEMB      8               0.0000000000
       827         8  CHL1      H4B             1.5484098740      -11.4010412092       16.4418250000  MEMB      8               0.0000000000
       828         8  CHL1      C5              1.8206877546      -13.1381199977       14.9913550000  MEMB      8               0.0000000000
       829         8  CHL1      C6              2.7291841283      -12.4647105341       14.2743250000  MEMB      8               0.0000000000
       830         8  CHL1      H6              2.9651210862      -11.4239977991       14.5412650000  MEMB      8               0.0000000000
       831         8  CHL1      C7              3.4437212047      -12.9875873871       13.1397650000  MEMB      8               0.0000000000
       832         8  CHL1      H7A             3.4145184593      -12.1712084665       12.3867750000  MEMB      8               0.0000000000
       833         8  CHL1      H7B             4.4871622931      -13.2546557277       13.4122150000  MEMB      8               0.0000000000
       834         8  CHL1      C8              2.7004980883      -14.2552494103       12.5551850000  MEMB      8               0.0000000000
       835         8  CHL1      H8              1.7694842305      -13.8707831353       12.0864350000  MEMB      8               0.0000000000
       836         8  CHL1      C14             3.6102439300      -15.0105775158       11.5456050000  MEMB      8               0.0000000000
       837         8  CHL1      H14             4.3977345553      -15.4916202177       12.1642950000  MEMB      8               0.0000000000
       838         8  CHL1      C15             4.4287973826      -14.1930642175       10.5479850000  MEMB      8               0.0000000000
       839         8  CHL1      H15A            3.7046795988      -13.4657189986       10.1226050000  MEMB      8               0.0000000000
       840         8  CHL1      H15B            5.2840683399      -13.7126841420       11.0695750000  MEMB      8               0.0000000000
       841         8  CHL1      C16             4.9098224496      -15.1937792620        9.5968150000  MEMB      8               0.0000000000
       842         8  CHL1      H16A            4.4596277515      -14.7812151823        8.6686750000  MEMB      8               0.0000000000
       843         8  CHL1      H16B            6.0150136375      -15.2379065733        9.4923450000  MEMB      8               0.0000000000
       844         8  CHL1      C17             4.0698743288      -16.5019094555        9.8464150000  MEMB      8               0.0000000000
       845         8  CHL1      H17             4.8332947084      -17.0684259691       10.4213650000  MEMB      8               0.0000000000
       846         8  CHL1      C13             2.9353093238      -16.1011011044       10.7773250000  MEMB      8               0.0000000000
       847         8  CHL1      C18             1.7191537681      -15.5538497929        9.9619750000  MEMB      8               0.0000000000
       848         8  CHL1      H18A            2.0287741233      -14.6436154755        9.4052650000  MEMB      8               0.0000000000
       849         8  CHL1      H18B            1.4081832237      -16.3320910007        9.2326150000  MEMB      8               0.0000000000
       850         8  CHL1      H18C            0.8040545833      -15.2703663936       10.5246050000  MEMB      8               0.0000000000
       851         8  CHL1      C12             2.4787426845      -17.1154692900       11.8172250000  MEMB      8               0.0000000000
       852         8  CHL1      H12A            1.9151089682      -17.9130811580       11.2876450000  MEMB      8               0.0000000000
       853         8  CHL1      H12B            3.4269891392      -17.4187543935       12.3103350000  MEMB      8               0.0000000000
       854         8  CHL1      C11             1.5935470395      -16.5113663754       12.9283550000  MEMB      8               0.0000000000
       855         8  CHL1      H11A            0.6651185658      -16.2032679856       12.4016550000  MEMB      8               0.0000000000
       856         8  CHL1      H11B            1.3556645747      -17.2537320898       13.7199450000  MEMB      8               0.0000000000
       857         8  CHL1      C9              2.2609401277      -15.2561522163       13.6342550000  MEMB      8               0.0000000000
       858         8  CHL1      H9              3.2598479295      -15.5089107217       14.0497250000  MEMB      8               0.0000000000
       859         8  CHL1      C10             1.3800599265      -14.6111147704       14.6722350000  MEMB      8               0.0000000000
       860         8  CHL1      C19            -0.1525792317      -14.6742103562       14.2605150000  MEMB      8               0.0000000000
       861         8  CHL1      H19A           -0.8261460937      -14.2850992089       15.0537550000  MEMB      8               0.0000000000
       862         8  CHL1      H19B           -0.3974375582      -14.1647185355       13.3040650000  MEMB      8               0.0000000000
       863         8  CHL1      H19C           -0.4529739399      -15.7363429726       14.1341450000  MEMB      8               0.0000000000
       864         8  CHL1      C1              1.5964993309      -15.2536801718       16.0911050000  MEMB      8               0.0000000000
       865         8  CHL1      H1A             1.2279066628      -16.2627691159       15.8079250000  MEMB      8               0.0000000000
       866         8  CHL1      H1B             2.6872638864      -15.2696223473       16.3015750000  MEMB      8               0.0000000000
       867         8  CHL1      C2              0.8892432997      -14.6316084742       17.2347750000  MEMB      8               0.0000000000
       868         8  CHL1      H2A             0.9637613417      -15.2414540515       18.1604350000  MEMB      8               0.0000000000
       869         8  CHL1      H2B            -0.2016492915      -14.5790031127       17.0310050000  MEMB      8               0.0000000000
       870         8  CHL1      C20             3.7630681098      -17.2209581157        8.4826550000  MEMB      8               0.0000000000
       871         8  CHL1      H20             3.2211784102      -16.4607919382        7.8802850000  MEMB      8               0.0000000000
       872         8  CHL1      C21             2.9883423175      -18.4982591176        8.6133750000  MEMB      8               0.0000000000
       873         8  CHL1      H21A            3.6072042935      -19.2198507805        9.1883850000  MEMB      8               0.0000000000
       874         8  CHL1      H21B            2.6414863922      -18.9117194252        7.6422550000  MEMB      8               0.0000000000
       875         8  CHL1      H21C            2.0425038099      -18.3444948631        9.1755550000  MEMB      8               0.0000000000
       876         8  CHL1      C22             5.0643325583      -17.5037845629        7.6963050000  MEMB      8               0.0000000000
       877         8  CHL1      H22A            5.5931599389      -16.5386744708        7.5438850000  MEMB      8               0.0000000000
       878         8  CHL1      H22B            5.7178030774      -18.2298425826        8.2256050000  MEMB      8               0.0000000000
       879         8  CHL1      C23             4.9475517273      -18.0631070595        6.2725150000  MEMB      8               0.0000000000
       880         8  CHL1      H23A            5.9681734168      -18.2526496525        5.8766450000  MEMB      8               0.0000000000
       881         8  CHL1      H23B            4.4133165530      -19.0338300624        6.3537650000  MEMB      8               0.0000000000
       882         8  CHL1      C24             4.0434735168      -17.1876313962        5.3658750000  MEMB      8               0.0000000000
       883         8  CHL1      H24A            2.9958069048      -17.1930404399        5.7356050000  MEMB      8               0.0000000000
       884         8  CHL1      H24B            4.3072459817      -16.1111502820        5.4429450000  MEMB      8               0.0000000000
       885         8  CHL1      C25             4.0627508507      -17.6528223924        3.8806850000  MEMB      8               0.0000000000
       886         8  CHL1      H25             3.8447895577      -18.7410011570        3.8289750000  MEMB      8               0.0000000000
       887         8  CHL1      C26             2.9270405901      -16.9654697194        3.1809050000  MEMB      8               0.0000000000
       888         8  CHL1      H26A            3.2817069260      -15.9393768648        2.9449650000  MEMB      8               0.0000000000
       889         8  CHL1      H26B            2.6362189987      -17.5799208084        2.3021650000  MEMB      8               0.0000000000
       890         8  CHL1      H26C            2.0135803111      -16.8922862368        3.8090450000  MEMB      8               0.0000000000
       891         8  CHL1      C27             5.2904777397      -17.3474582559        3.0597350000  MEMB      8               0.0000000000
       892         8  CHL1      H27A            5.6049265473      -16.2917165073        3.2041250000  MEMB      8               0.0000000000
       893         8  CHL1      H27B            6.1099621729      -17.9162962098        3.5488050000  MEMB      8               0.0000000000
       894         8  CHL1      H27C            5.0847870158      -17.5187239928        1.9814550000  MEMB      8               0.0000000000
       895         9  OSM       N              12.9470424691       -2.7159484932       22.9540478672  MEMB      9               0.0000000000
       896         9  OSM       C15            13.6557258381       -1.9901874015       24.0986160771  MEMB      9               0.0000000000
       897         9  OSM       H15A           14.7287692745       -2.0460935395       24.2074843827  MEMB      9               0.0000000000
       898         9  OSM       H15B           13.2226116545       -2.1402226193       25.0765228793  MEMB      9               0.0000000000
       899         9  OSM       H15C           13.6604182757       -0.9356321495       23.8656112043  MEMB      9               0.0000000000
       900         9  OSM       C14            13.3209673757       -4.1236431315       23.0228252189  MEMB      9               0.0000000000
       901         9  OSM       H14A           12.9521516252       -4.6175364312       23.9096420832  MEMB      9               0.0000000000
       902         9  OSM       H14B           14.3969822799       -4.2156897393       23.0337480452  MEMB      9               0.0000000000
       903         9  OSM       H14C           13.0087245070       -4.6537676227       22.1352034573  MEMB      9               0.0000000000
       904         9  OSM       C13            11.4606342154       -2.6280825830       23.0885479596  MEMB      9               0.0000000000
       905         9  OSM       H13A           11.1304145229       -1.6004036454       23.0534606795  MEMB      9               0.0000000000
       906         9  OSM       H13B           11.0408347562       -3.0410604703       23.9938753075  MEMB      9               0.0000000000
       907         9  OSM       H13C           11.0626046318       -3.0768831880       22.1904663796  MEMB      9               0.0000000000
       908         9  OSM       C12            13.3647435482       -2.0233659710       21.6365845666  MEMB      9               0.0000000000
       909         9  OSM       H12A           14.4412504341       -2.0918334832       21.5832428709  MEMB      9               0.0000000000
       910         9  OSM       H12B           13.0661823708       -0.9913531374       21.7470870136  MEMB      9               0.0000000000
       911         9  OSM       C11            12.7355600928       -2.5388715583       20.3385724274  MEMB      9               0.0000000000
       912         9  OSM       H11A           13.1218386334       -1.8769177290       19.5342547702  MEMB      9               0.0000000000
       913         9  OSM       H11B           11.6751694255       -2.2140922080       20.2721567386  MEMB      9               0.0000000000
       914         9  OSM       P              11.8419646181       -4.5927866169       19.2066264110  MEMB      9               0.0000000000
       915         9  OSM       O13            12.1437133068       -6.0395904058       19.2503914391  MEMB      9               0.0000000000
       916         9  OSM       O14            10.5049211275       -4.2181961463       19.7520278709  MEMB      9               0.0000000000
       917         9  OSM       O11            12.0107531283       -4.1106823489       17.6523508848  MEMB      9               0.0000000000
       918         9  OSM       O12            12.9135601801       -3.8684702041       19.9994092810  MEMB      9               0.0000000000
       919         9  OSM       C1S            11.0752088813       -4.4688107757       16.6480514052  MEMB      9               0.0000000000
       920         9  OSM       H1S            10.5536955182       -3.6463073837       16.1134179706  MEMB      9               0.0000000000
       921         9  OSM       H1T            10.2949107138       -5.1496147986       17.0504960787  MEMB      9               0.0000000000
       922         9  OSM       NF             12.3630278615       -4.2986717882       14.4253717163  MEMB      9               0.0000000000
       923         9  OSM       HNF            12.3105229631       -4.6966690177       13.5127651845  MEMB      9               0.0000000000
       924         9  OSM       C2S            11.9325909913       -5.2129407907       15.4817914392  MEMB      9               0.0000000000
       925         9  OSM       H2S            12.8715427273       -5.6217928613       15.9125243839  MEMB      9               0.0000000000
       926         9  OSM       C3S            11.0848428018       -6.3885756706       14.8614137345  MEMB      9               0.0000000000
       927         9  OSM       H3S            10.3127424243       -5.8292505346       14.2910300768  MEMB      9               0.0000000000
       928         9  OSM       O3             10.5590122760       -7.3670949131       15.7222167920  MEMB      9               0.0000000000
       929         9  OSM       HO3            10.9394325437       -7.0987693220       16.5617891676  MEMB      9               0.0000000000
       930         9  OSM       C4S            11.9901662380       -6.9384463267       13.7722963855  MEMB      9               0.0000000000
       931         9  OSM       H4S            11.6624951985       -6.6974383069       12.7502656581  MEMB      9               0.0000000000
       932         9  OSM       C5S            13.0724642830       -7.6831491472       14.0565351700  MEMB      9               0.0000000000
       933         9  OSM       H5S            13.1944527641       -7.9534366713       15.1158101793  MEMB      9               0.0000000000
       934         9  OSM       C6S            14.1194585526       -8.2987504002       13.1369300770  MEMB      9               0.0000000000
       935         9  OSM       H6S            13.7209672633       -9.2896749961       12.8309983595  MEMB      9               0.0000000000
       936         9  OSM       H6T            14.9456902592       -8.6527299076       13.7898927298  MEMB      9               0.0000000000
       937         9  OSM       C7S            14.7187855388       -7.5513436312       11.9691013703  MEMB      9               0.0000000000
       938         9  OSM       H7S            15.5553545073       -8.2161485034       11.6649494845  MEMB      9               0.0000000000
       939         9  OSM       H7T            15.2337500830       -6.6404662802       12.3425113506  MEMB      9               0.0000000000
       940         9  OSM       C8S            13.8723674835       -7.1941916763       10.7695290805  MEMB      9               0.0000000000
       941         9  OSM       H8S            13.1888388157       -6.3774167667       11.0857379810  MEMB      9               0.0000000000
       942         9  OSM       H8T            13.2531612199       -8.0300958131       10.3794414953  MEMB      9               0.0000000000
       943         9  OSM       C9S            14.6722059744       -6.6342251422        9.6103388388  MEMB      9               0.0000000000
       944         9  OSM       H9S            15.5015401232       -7.3586006786        9.4626726470  MEMB      9               0.0000000000
       945         9  OSM       H9T            15.0293595324       -5.5921164497        9.7544638750  MEMB      9               0.0000000000
       946         9  OSM       C10S           13.8459296662       -6.5087629647        8.2901521458  MEMB      9               0.0000000000
       947         9  OSM       H10S           14.3695069486       -5.6699062128        7.7836868969  MEMB      9               0.0000000000
       948         9  OSM       H10T           12.8334004202       -6.2149362772        8.6405394657  MEMB      9               0.0000000000
       949         9  OSM       C11S           13.7573753257       -7.8189767302        7.5707969799  MEMB      9               0.0000000000
       950         9  OSM       H11S           13.5211147942       -8.6513803586        8.2676517121  MEMB      9               0.0000000000
       951         9  OSM       H11T           14.7120379344       -7.8885082849        7.0067888051  MEMB      9               0.0000000000
       952         9  OSM       C12S           12.6120541504       -7.7847811076        6.5243320736  MEMB      9               0.0000000000
       953         9  OSM       H12S           11.6733560726       -7.9412047200        7.0976550819  MEMB      9               0.0000000000
       954         9  OSM       H12T           12.7373453718       -8.7798341365        6.0463239725  MEMB      9               0.0000000000
       955         9  OSM       C13S           12.5885984036       -6.5308078415        5.7055353358  MEMB      9               0.0000000000
       956         9  OSM       H13S           13.5686410495       -6.2727621925        5.2502881182  MEMB      9               0.0000000000
       957         9  OSM       H13T           12.0765834955       -5.7244142354        6.2728894636  MEMB      9               0.0000000000
       958         9  OSM       C14S           11.6278284437       -6.6193531914        4.4959080133  MEMB      9               0.0000000000
       959         9  OSM       H14S           10.6755476349       -6.9815764338        4.9389399953  MEMB      9               0.0000000000
       960         9  OSM       H14T           12.1475525671       -7.4677907541        4.0015799830  MEMB      9               0.0000000000
       961         9  OSM       C15S           11.5697162747       -5.3198829092        3.6796132471  MEMB      9               0.0000000000
       962         9  OSM       H15S           11.3787267206       -4.4821906682        4.3839680280  MEMB      9               0.0000000000
       963         9  OSM       H15T           10.6427995888       -5.3103381158        3.0671969483  MEMB      9               0.0000000000
       964         9  OSM       C16S           12.9078621861       -5.0362120510        2.9150936180  MEMB      9               0.0000000000
       965         9  OSM       H16S           13.8377557127       -4.8074411302        3.4783717247  MEMB      9               0.0000000000
       966         9  OSM       H16T           12.7377429583       -4.1067560195        2.3307204215  MEMB      9               0.0000000000
       967         9  OSM       C17S           13.1534355791       -6.1558428587        1.9073071547  MEMB      9               0.0000000000
       968         9  OSM       H17S           12.1786918664       -6.6609439049        1.7368142926  MEMB      9               0.0000000000
       969         9  OSM       H17T           13.7629438221       -7.0009251480        2.2928674920  MEMB      9               0.0000000000
       970         9  OSM       C18S           13.8096826735       -5.5860254621        0.6396844343  MEMB      9               0.0000000000
       971         9  OSM       H18S           13.2382363644       -4.7707236848        0.1466794815  MEMB      9               0.0000000000
       972         9  OSM       H18T           13.8481511019       -6.4301848827       -0.0815897225  MEMB      9               0.0000000000
       973         9  OSM       H18U           14.8733013685       -5.3314833281        0.8352456451  MEMB      9               0.0000000000
       974         9  OSM       C1F            12.8082166301       -3.0476855365       14.5940707567  MEMB      9               0.0000000000
       975         9  OSM       OF             13.3467365771       -2.7089202339       15.6114339048  MEMB      9               0.0000000000
       976         9  OSM       C2F            12.6159672760       -2.1262214927       13.4375808808  MEMB      9               0.0000000000
       977         9  OSM       H2F            12.7282507429       -2.7376758344       12.5168001771  MEMB      9               0.0000000000
       978         9  OSM       H2G            13.3579752030       -1.3005017581       13.3936265179  MEMB      9               0.0000000000
       979         9  OSM       C3F            11.3346661887       -1.2314270727       13.4720711348  MEMB      9               0.0000000000
       980         9  OSM       H3F            11.3118660953       -0.5161527370       14.3218848575  MEMB      9               0.0000000000
       981         9  OSM       H3G            10.4069174482       -1.8351157033       13.5677955142  MEMB      9               0.0000000000
       982         9  OSM       C4F            11.1267162750       -0.2628876317       12.2659083635  MEMB      9               0.0000000000
       983         9  OSM       H4F            12.1678872239        0.0940792049       12.1147182175  MEMB      9               0.0000000000
       984         9  OSM       H4G            10.5144869922        0.5519320821       12.7081365260  MEMB      9               0.0000000000
       985         9  OSM       C5F            10.5961598192       -0.9551678982       10.9813877664  MEMB      9               0.0000000000
       986         9  OSM       H5F             9.6156021894       -1.4389279573       11.1783751064  MEMB      9               0.0000000000
       987         9  OSM       H5G            11.2929808537       -1.8122871921       10.8626100897  MEMB      9               0.0000000000
       988         9  OSM       C6F            10.4575571712       -0.1365783080        9.7026191210  MEMB      9               0.0000000000
       989         9  OSM       H6F            11.4013746937        0.4165333374        9.5087194576  MEMB      9               0.0000000000
       990         9  OSM       H6G             9.6198882158        0.5808029194        9.8367682470  MEMB      9               0.0000000000
       991         9  OSM       C7F            10.2075960820       -0.9040384281        8.4039288363  MEMB      9               0.0000000000
       992         9  OSM       H7F             9.9683508826       -0.1509299253        7.6229611605  MEMB      9               0.0000000000
       993         9  OSM       H7G             9.1888973646       -1.3326574467        8.5173298912  MEMB      9               0.0000000000
       994         9  OSM       C8F            11.4001446283       -1.8571963087        8.0539564741  MEMB      9               0.0000000000
       995         9  OSM       H8F            11.0998114774       -2.5226851680        7.2165527044  MEMB      9               0.0000000000
       996         9  OSM       H8G            11.4226389602       -2.6065350475        8.8738999458  MEMB      9               0.0000000000
       997         9  OSM       C9F            12.7555187911       -1.4053788700        7.8928390574  MEMB      9               0.0000000000
       998         9  OSM       H9F            13.3861510675       -1.1513468459        8.7575764671  MEMB      9               0.0000000000
       999         9  OSM       C10F           13.4662761609       -1.3432758589        6.7567456715  MEMB      9               0.0000000000
      1000         9  OSM       H10F           14.4329752167       -0.8192382852        6.7863632983  MEMB      9               0.0000000000
      1001         9  OSM       C11F           13.0577235012       -1.6403291010        5.3768667991  MEMB      9               0.0000000000
      1002         9  OSM       H11F           11.9799295700       -1.8568247190        5.2162074313  MEMB      9               0.0000000000
      1003         9  OSM       H11G           13.6234217759       -2.4930993396        4.9443276920  MEMB      9               0.0000000000
      1004         9  OSM       C12F           13.3225263871       -0.5381212990        4.2846496037  MEMB      9               0.0000000000
      1005         9  OSM       H12F           14.4086399925       -0.3089708405        4.2380897790  MEMB      9               0.0000000000
      1006         9  OSM       H12G           12.7759365578        0.4077497677        4.4868575918  MEMB      9               0.0000000000
      1007         9  OSM       C13F           13.0662728026       -0.9692455129        2.8434235380  MEMB      9               0.0000000000
      1008         9  OSM       H13F           13.6607223884       -1.8487915356        2.5157807113  MEMB      9               0.0000000000
      1009         9  OSM       H13G           13.5099366298       -0.1354859251        2.2583337784  MEMB      9               0.0000000000
      1010         9  OSM       C14F           11.6074748196       -1.1170568566        2.4391755358  MEMB      9               0.0000000000
      1011         9  OSM       H14F           10.9992466511       -1.6633708535        3.1914519160  MEMB      9               0.0000000000
      1012         9  OSM       H14G           11.5996442691       -1.6805387856        1.4817064092  MEMB      9               0.0000000000
      1013         9  OSM       C15F           10.8710518267        0.2079336812        2.1864801484  MEMB      9               0.0000000000
      1014         9  OSM       H15F           11.3389128655        0.6334389211        1.2730395473  MEMB      9               0.0000000000
      1015         9  OSM       H15G           11.2328781036        0.9049562958        2.9723312057  MEMB      9               0.0000000000
      1016         9  OSM       C16F            9.3541632411        0.1690023760        2.0648591904  MEMB      9               0.0000000000
      1017         9  OSM       H16F            8.9305604513        1.1959663789        2.0799141227  MEMB      9               0.0000000000
      1018         9  OSM       H16G            8.9895653388       -0.2743242419        3.0160957571  MEMB      9               0.0000000000
      1019         9  OSM       C17F            8.6698899653       -0.4489953235        0.7717961269  MEMB      9               0.0000000000
      1020         9  OSM       H17F            7.6346362270       -0.0490503518        0.8229319902  MEMB      9               0.0000000000
      1021         9  OSM       H17G            8.6578342791       -1.5485724672        0.9302444013  MEMB      9               0.0000000000
      1022         9  OSM       C18F            9.1824393038       -0.0010458286       -0.5822818370  MEMB      9               0.0000000000
      1023         9  OSM       H18F            9.2561045930        1.0978989188       -0.4366260273  MEMB      9               0.0000000000
      1024         9  OSM       H18G            8.5377732856       -0.3125494921       -1.4318060779  MEMB      9               0.0000000000
      1025         9  OSM       H18H           10.1792263868       -0.4768815150       -0.7019343049  MEMB      9               0.0000000000
      1026        10  OSM       N             -11.6140060154       -9.3552418792       22.4127958936  MEMB      10              0.0000000000
      1027        10  OSM       C15           -11.7235095016       -9.9927185594       23.7584763129  MEMB      10              0.0000000000
      1028        10  OSM       H15A          -11.8763459638      -11.0617458534       23.7435958837  MEMB      10              0.0000000000
      1029        10  OSM       H15B          -12.5742801380       -9.5265231917       24.2330826353  MEMB      10              0.0000000000
      1030        10  OSM       H15C          -10.8102664134       -9.8064335884       24.3040815176  MEMB      10              0.0000000000
      1031        10  OSM       C14           -10.2422922412       -9.5510508499       21.7384254215  MEMB      10              0.0000000000
      1032        10  OSM       H14A           -9.4135597510       -9.1044591041       22.2677252047  MEMB      10              0.0000000000
      1033        10  OSM       H14B          -10.3407264417       -9.1228242884       20.7518491890  MEMB      10              0.0000000000
      1034        10  OSM       H14C          -10.1709907753      -10.6229023450       21.6268426612  MEMB      10              0.0000000000
      1035        10  OSM       C13           -12.5656672054      -10.0246960785       21.5500692181  MEMB      10              0.0000000000
      1036        10  OSM       H13A          -12.3257663890      -11.0766647485       21.5030629790  MEMB      10              0.0000000000
      1037        10  OSM       H13B          -12.3966675857       -9.6677391468       20.5448722068  MEMB      10              0.0000000000
      1038        10  OSM       H13C          -13.6074318685       -9.9327006975       21.8196307469  MEMB      10              0.0000000000
      1039        10  OSM       C12           -11.9726880465       -7.9145001515       22.4623502969  MEMB      10              0.0000000000
      1040        10  OSM       H12A          -11.2364560417       -7.3310136896       22.9951785143  MEMB      10              0.0000000000
      1041        10  OSM       H12B          -12.8261705061       -7.8189240284       23.1172037350  MEMB      10              0.0000000000
      1042        10  OSM       C11           -12.1178237901       -7.2595472365       21.0258031396  MEMB      10              0.0000000000
      1043        10  OSM       H11A          -12.5899225577       -6.2657745423       21.1802686531  MEMB      10              0.0000000000
      1044        10  OSM       H11B          -12.8326028580       -7.6982363030       20.2971305402  MEMB      10              0.0000000000
      1045        10  OSM       P             -10.3595907844       -5.8693848409       19.6520843078  MEMB      10              0.0000000000
      1046        10  OSM       O13           -11.0416773479       -4.6944133277       20.1661200122  MEMB      10              0.0000000000
      1047        10  OSM       O14            -8.8917916064       -5.8302003699       19.7038344932  MEMB      10              0.0000000000
      1048        10  OSM       O11           -10.9183986016       -6.2190918266       18.1833300300  MEMB      10              0.0000000000
      1049        10  OSM       O12           -10.8890097599       -7.1596600574       20.3467108723  MEMB      10              0.0000000000
      1050        10  OSM       C1S           -10.4057889203       -7.2826072155       17.4391256504  MEMB      10              0.0000000000
      1051        10  OSM       H1S           -10.8154926134       -8.2173826847       17.8780545324  MEMB      10              0.0000000000
      1052        10  OSM       H1T            -9.3211824638       -7.2304344993       17.6741318967  MEMB      10              0.0000000000
      1053        10  OSM       NF            -10.0058976340       -8.2223997345       15.2322534073  MEMB      10              0.0000000000
      1054        10  OSM       HNF            -9.0793756520       -8.1205105933       14.8784388836  MEMB      10              0.0000000000
      1055        10  OSM       C2S           -10.5089691878       -7.0382599728       15.9140149385  MEMB      10              0.0000000000
      1056        10  OSM       H2S           -11.5781906761       -6.9260967224       15.6338259550  MEMB      10              0.0000000000
      1057        10  OSM       C3S            -9.6936499367       -5.9275717681       15.3934917146  MEMB      10              0.0000000000
      1058        10  OSM       H3S            -8.6443390287       -6.2289414256       15.5995113379  MEMB      10              0.0000000000
      1059        10  OSM       O3            -10.1724942915       -4.7313094016       15.9552790058  MEMB      10              0.0000000000
      1060        10  OSM       HO3           -10.7656809235       -5.0126221792       16.6557022369  MEMB      10              0.0000000000
      1061        10  OSM       C4S            -9.8118921279       -5.7264667804       13.9523838403  MEMB      10              0.0000000000
      1062        10  OSM       H4S           -10.8439816347       -5.6943711681       13.5732253835  MEMB      10              0.0000000000
      1063        10  OSM       C5S            -8.7632911857       -5.6419141242       13.0653902614  MEMB      10              0.0000000000
      1064        10  OSM       H5S            -7.7522564135       -5.7711348283       13.4790457075  MEMB      10              0.0000000000
      1065        10  OSM       C6S            -8.8360781122       -5.4316476749       11.5533446401  MEMB      10              0.0000000000
      1066        10  OSM       H6S            -8.1816869271       -6.2192592963       11.1223440239  MEMB      10              0.0000000000
      1067        10  OSM       H6T            -8.3623075370       -4.4348734057       11.4256605561  MEMB      10              0.0000000000
      1068        10  OSM       C7S           -10.2689375861       -5.5246697680       11.0151609600  MEMB      10              0.0000000000
      1069        10  OSM       H7S           -10.9023631881       -4.7021385776       11.4108060810  MEMB      10              0.0000000000
      1070        10  OSM       H7T           -10.7333161375       -6.3901192778       11.5344592573  MEMB      10              0.0000000000
      1071        10  OSM       C8S           -10.3169240780       -5.6985282109        9.4690402157  MEMB      10              0.0000000000
      1072        10  OSM       H8S           -11.3956316916       -5.5579016334        9.2433532006  MEMB      10              0.0000000000
      1073        10  OSM       H8T            -9.9931677495       -6.7314801310        9.2190140299  MEMB      10              0.0000000000
      1074        10  OSM       C9S            -9.4351345106       -4.7126902898        8.7549503144  MEMB      10              0.0000000000
      1075        10  OSM       H9S            -8.3691824756       -4.8593413025        9.0316469911  MEMB      10              0.0000000000
      1076        10  OSM       H9T            -9.6827687453       -3.6539414391        8.9830933657  MEMB      10              0.0000000000
      1077        10  OSM       C10S           -9.4253699668       -4.9366541198        7.1719728402  MEMB      10              0.0000000000
      1078        10  OSM       H10S           -8.8073663624       -4.0710530156        6.8508382512  MEMB      10              0.0000000000
      1079        10  OSM       H10T          -10.4377258102       -4.9953932084        6.7180933778  MEMB      10              0.0000000000
      1080        10  OSM       C11S           -8.7553241795       -6.2691739709        6.7872273192  MEMB      10              0.0000000000
      1081        10  OSM       H11S           -9.4403512321       -7.0801734275        7.1148541691  MEMB      10              0.0000000000
      1082        10  OSM       H11T           -7.8481097362       -6.3321468849        7.4254417824  MEMB      10              0.0000000000
      1083        10  OSM       C12S           -8.3866361414       -6.2748257317        5.2592186718  MEMB      10              0.0000000000
      1084        10  OSM       H12S           -7.6498172879       -5.4618700976        5.0845135114  MEMB      10              0.0000000000
      1085        10  OSM       H12T           -9.2931303989       -5.9914437864        4.6827777533  MEMB      10              0.0000000000
      1086        10  OSM       C13S           -7.6510323593       -7.5854060874        4.8599408164  MEMB      10              0.0000000000
      1087        10  OSM       H13S           -8.3061854595       -8.4592199511        5.0637668103  MEMB      10              0.0000000000
      1088        10  OSM       H13T           -6.7317942230       -7.5727815391        5.4837694967  MEMB      10              0.0000000000
      1089        10  OSM       C14S           -7.3230633961       -7.7315757934        3.3066186933  MEMB      10              0.0000000000
      1090        10  OSM       H14S           -6.8434801514       -8.7274880329        3.1949050146  MEMB      10              0.0000000000
      1091        10  OSM       H14T           -6.5226778029       -6.9686504392        3.1986893190  MEMB      10              0.0000000000
      1092        10  OSM       C15S           -8.4856569849       -7.5575908638        2.2782058615  MEMB      10              0.0000000000
      1093        10  OSM       H15S           -8.9558743004       -6.5510743267        2.2900978895  MEMB      10              0.0000000000
      1094        10  OSM       H15T           -9.2640489430       -8.2841231183        2.5953463941  MEMB      10              0.0000000000
      1095        10  OSM       C16S           -7.9932590345       -7.6524583839        0.8526477497  MEMB      10              0.0000000000
      1096        10  OSM       H16S           -7.3750526305       -8.5676101566        0.7316539605  MEMB      10              0.0000000000
      1097        10  OSM       H16T           -7.3529303491       -6.8263897733        0.4759364198  MEMB      10              0.0000000000
      1098        10  OSM       C17S           -9.1207434442       -7.8498166229       -0.1874760056  MEMB      10              0.0000000000
      1099        10  OSM       H17S           -8.5944283672       -8.0122389676       -1.1523234149  MEMB      10              0.0000000000
      1100        10  OSM       H17T           -9.6118533916       -6.8565100854       -0.2679376829  MEMB      10              0.0000000000
      1101        10  OSM       C18S          -10.1077360423       -9.0535977699       -0.0299337449  MEMB      10              0.0000000000
      1102        10  OSM       H18S           -9.5274987981       -9.9865138399       -0.1952025401  MEMB      10              0.0000000000
      1103        10  OSM       H18T          -10.8227890049       -9.0662990719       -0.8801445779  MEMB      10              0.0000000000
      1104        10  OSM       H18U          -10.6068057170       -9.1815563577        0.9543814106  MEMB      10              0.0000000000
      1105        10  OSM       C1F           -10.5274976620       -9.4481250739       15.2893534832  MEMB      10              0.0000000000
      1106        10  OSM       OF            -11.6125056593       -9.6821426883       15.8409753848  MEMB      10              0.0000000000
      1107        10  OSM       C2F            -9.6694030102      -10.6004742176       14.7288411734  MEMB      10              0.0000000000
      1108        10  OSM       H2F            -9.4462084699      -11.3067574390       15.5568923331  MEMB      10              0.0000000000
      1109        10  OSM       H2G            -8.7349475124      -10.0515495987       14.4843096749  MEMB      10              0.0000000000
      1110        10  OSM       C3F           -10.3625586487      -11.3344553785       13.4974430506  MEMB      10              0.0000000000
      1111        10  OSM       H3F           -11.3186148190      -11.8230628813       13.7829960426  MEMB      10              0.0000000000
      1112        10  OSM       H3G            -9.7128838639      -12.1534433880       13.1212752889  MEMB      10              0.0000000000
      1113        10  OSM       C4F           -10.5686798587      -10.6287460047       12.1907089992  MEMB      10              0.0000000000
      1114        10  OSM       H4F           -11.2400298382       -9.7537961444       12.3251446271  MEMB      10              0.0000000000
      1115        10  OSM       H4G           -11.0821996223      -11.4212367302       11.6054079603  MEMB      10              0.0000000000
      1116        10  OSM       C5F            -9.2009788569      -10.2344642782       11.5899404647  MEMB      10              0.0000000000
      1117        10  OSM       H5F            -8.5580428737      -11.1329056868       11.4726475746  MEMB      10              0.0000000000
      1118        10  OSM       H5G            -8.6397248487       -9.5130156102       12.2214670149  MEMB      10              0.0000000000
      1119        10  OSM       C6F            -9.2686061460       -9.6121645178       10.1731232515  MEMB      10              0.0000000000
      1120        10  OSM       H6F            -8.4704290955       -8.8393773745       10.1672767352  MEMB      10              0.0000000000
      1121        10  OSM       H6G           -10.2598919598       -9.2640944529        9.8118462859  MEMB      10              0.0000000000
      1122        10  OSM       C7F            -8.8614600262      -10.5972972676        9.0280704438  MEMB      10              0.0000000000
      1123        10  OSM       H7F            -9.7190959950      -11.2881001712        8.8811946208  MEMB      10              0.0000000000
      1124        10  OSM       H7G            -8.0563047018      -11.1926922290        9.5092676181  MEMB      10              0.0000000000
      1125        10  OSM       C8F            -8.5908862477      -10.0750817498        7.6303811587  MEMB      10              0.0000000000
      1126        10  OSM       H8F            -7.8926753422       -9.2119623444        7.6733599257  MEMB      10              0.0000000000
      1127        10  OSM       H8G            -9.6061915526       -9.7557039951        7.3118318186  MEMB      10              0.0000000000
      1128        10  OSM       C9F            -7.9810731607      -10.9709422342        6.5447327758  MEMB      10              0.0000000000
      1129        10  OSM       H9F            -6.9273310987      -11.2360214478        6.7160825723  MEMB      10              0.0000000000
      1130        10  OSM       C10F           -8.5704750858      -11.2062825216        5.3861337523  MEMB      10              0.0000000000
      1131        10  OSM       H10F           -8.0327305973      -11.8233546397        4.6512512675  MEMB      10              0.0000000000
      1132        10  OSM       C11F           -9.8999732474      -10.7742911051        4.7747752008  MEMB      10              0.0000000000
      1133        10  OSM       H11F           -9.6890033788      -10.1374660790        3.8891874694  MEMB      10              0.0000000000
      1134        10  OSM       H11G          -10.4257187186      -10.1217199788        5.5042027854  MEMB      10              0.0000000000
      1135        10  OSM       C12F          -10.9171370244      -11.8450879057        4.2537471953  MEMB      10              0.0000000000
      1136        10  OSM       H12F          -11.1329059776      -12.6604842055        4.9768610350  MEMB      10              0.0000000000
      1137        10  OSM       H12G          -10.5564280446      -12.3341184307        3.3236624957  MEMB      10              0.0000000000
      1138        10  OSM       C13F          -12.3443725021      -11.3164578378        4.1394367774  MEMB      10              0.0000000000
      1139        10  OSM       H13F          -12.7035540219      -10.9013289745        5.1053439852  MEMB      10              0.0000000000
      1140        10  OSM       H13G          -12.9814561222      -12.1873344027        3.8748231134  MEMB      10              0.0000000000
      1141        10  OSM       C14F          -12.5242680280      -10.2849647880        3.0545297178  MEMB      10              0.0000000000
      1142        10  OSM       H14F          -12.3521724763      -10.6621592838        2.0237876227  MEMB      10              0.0000000000
      1143        10  OSM       H14G          -11.7853542636       -9.4719310642        3.2197679527  MEMB      10              0.0000000000
      1144        10  OSM       C15F          -13.9091705100       -9.6911831970        3.0939865669  MEMB      10              0.0000000000
      1145        10  OSM       H15F          -14.1611956375       -9.6529253771        4.1753480249  MEMB      10              0.0000000000
      1146        10  OSM       H15G          -14.6679877136      -10.3283555707        2.5914650122  MEMB      10              0.0000000000
      1147        10  OSM       C16F          -14.1003414554       -8.2710433820        2.6270878859  MEMB      10              0.0000000000
      1148        10  OSM       H16F          -13.4480498315       -7.6010395623        3.2270309810  MEMB      10              0.0000000000
      1149        10  OSM       H16G          -15.1497326946       -7.9132687792        2.6984775715  MEMB      10              0.0000000000
      1150        10  OSM       C17F          -13.6205287462       -8.1092014791        1.1263103981  MEMB      10              0.0000000000
      1151        10  OSM       H17F          -14.3701124915       -8.4704277068        0.3901305425  MEMB      10              0.0000000000
      1152        10  OSM       H17G          -12.6978829760       -8.6876972721        0.9063369642  MEMB      10              0.0000000000
      1153        10  OSM       C18F          -13.3605793095       -6.6366225260        0.6788492598  MEMB      10              0.0000000000
      1154        10  OSM       H18F          -14.1980148853       -5.9275634979        0.8527994142  MEMB      10              0.0000000000
      1155        10  OSM       H18G          -12.9568903816       -6.6066301145       -0.3557791458  MEMB      10              0.0000000000
      1156        10  OSM       H18H          -12.4527678061       -6.3800304672        1.2656718076  MEMB      10              0.0000000000
      1157        11  CHL1      C3              9.4711302927       10.1112744771       17.2983800000  MEMB      11              0.0000000000
      1158        11  CHL1      H3              9.9378361531       11.0860549305       17.0408900000  MEMB      11              0.0000000000
      1159        11  CHL1      O3              9.5902184273        9.9097181229       18.7016200000  MEMB      11              0.0000000000
      1160        11  CHL1      H3'            10.5122435120        9.6611865698       18.8001100000  MEMB      11              0.0000000000
      1161        11  CHL1      C4              8.0127566880       10.0266298905       16.9782000000  MEMB      11              0.0000000000
      1162        11  CHL1      H4A             7.6204818783        9.0314961868       17.2784700000  MEMB      11              0.0000000000
      1163        11  CHL1      H4B             7.4995963160       10.8897343531       17.4536300000  MEMB      11              0.0000000000
      1164        11  CHL1      C5              7.7692515151       10.1476575053       15.4756700000  MEMB      11              0.0000000000
      1165        11  CHL1      C6              6.9492872274       11.0754477992       14.8970500000  MEMB      11              0.0000000000
      1166        11  CHL1      H6              6.4188553225       11.7737113499       15.5611900000  MEMB      11              0.0000000000
      1167        11  CHL1      C7              6.5997146909       11.2025991526       13.4266200000  MEMB      11              0.0000000000
      1168        11  CHL1      H7A             5.5225996584       11.3838242935       13.2233900000  MEMB      11              0.0000000000
      1169        11  CHL1      H7B             7.2131546248       12.0432085668       13.0375300000  MEMB      11              0.0000000000
      1170        11  CHL1      C8              7.1132100844        9.9589889236       12.6028200000  MEMB      11              0.0000000000
      1171        11  CHL1      H8              6.3476933886        9.1625201412       12.7208800000  MEMB      11              0.0000000000
      1172        11  CHL1      C14             7.2342861999       10.3855540551       11.1064900000  MEMB      11              0.0000000000
      1173        11  CHL1      H14             7.9219902476       11.2546540009       11.0287200000  MEMB      11              0.0000000000
      1174        11  CHL1      C15             5.9632940650       10.8745945511       10.3271600000  MEMB      11              0.0000000000
      1175        11  CHL1      H15A            5.0114991602       10.3076935493       10.4110100000  MEMB      11              0.0000000000
      1176        11  CHL1      H15B            5.8931078472       11.9623835214       10.5418900000  MEMB      11              0.0000000000
      1177        11  CHL1      C16             6.4004642978       10.8037197506        8.8329400000  MEMB      11              0.0000000000
      1178        11  CHL1      H16A            5.5861219367       10.2623968867        8.3055600000  MEMB      11              0.0000000000
      1179        11  CHL1      H16B            6.4180118082       11.8234530978        8.3923000000  MEMB      11              0.0000000000
      1180        11  CHL1      C17             7.7113883105       10.0003475343        8.7943500000  MEMB      11              0.0000000000
      1181        11  CHL1      H17             8.5421543666       10.7378681462        8.8089500000  MEMB      11              0.0000000000
      1182        11  CHL1      C13             7.7606425477        9.3089594327       10.1576100000  MEMB      11              0.0000000000
      1183        11  CHL1      C18             6.7540565082        8.1880358267       10.2032800000  MEMB      11              0.0000000000
      1184        11  CHL1      H18A            5.8113966575        8.4861664547        9.6965000000  MEMB      11              0.0000000000
      1185        11  CHL1      H18B            7.2241659924        7.3618967269        9.6281200000  MEMB      11              0.0000000000
      1186        11  CHL1      H18C            6.4898674673        7.7984512895       11.2096300000  MEMB      11              0.0000000000
      1187        11  CHL1      C12             9.1836186585        8.9377343555       10.7409400000  MEMB      11              0.0000000000
      1188        11  CHL1      H12A            9.6841405958        8.1762794229       10.1053300000  MEMB      11              0.0000000000
      1189        11  CHL1      H12B            9.7437822505        9.8965910406       10.7075100000  MEMB      11              0.0000000000
      1190        11  CHL1      C11             9.1649416578        8.5238187415       12.2164300000  MEMB      11              0.0000000000
      1191        11  CHL1      H11A            8.6890151741        7.5258529262       12.3254200000  MEMB      11              0.0000000000
      1192        11  CHL1      H11B           10.2067688562        8.3858870513       12.5768200000  MEMB      11              0.0000000000
      1193        11  CHL1      C9              8.4868674685        9.4861267655       13.1091700000  MEMB      11              0.0000000000
      1194        11  CHL1      H9              9.0695747374       10.4202612940       12.9602500000  MEMB      11              0.0000000000
      1195        11  CHL1      C10             8.5099833125        9.1241038729       14.6169000000  MEMB      11              0.0000000000
      1196        11  CHL1      C19             8.0549427427        7.6293966748       14.8006200000  MEMB      11              0.0000000000
      1197        11  CHL1      H19A            8.8826160001        6.9299638252       14.5555400000  MEMB      11              0.0000000000
      1198        11  CHL1      H19B            7.7765231165        7.4233037293       15.8562400000  MEMB      11              0.0000000000
      1199        11  CHL1      H19C            7.2147259877        7.3809424433       14.1175200000  MEMB      11              0.0000000000
      1200        11  CHL1      C1             10.0115859466        9.1014289016       15.1032600000  MEMB      11              0.0000000000
      1201        11  CHL1      H1A            10.5759848196        8.2503794799       14.6656600000  MEMB      11              0.0000000000
      1202        11  CHL1      H1B            10.5467353326       10.0261308975       14.7985400000  MEMB      11              0.0000000000
      1203        11  CHL1      C2             10.2937289191        9.0368210922       16.6173500000  MEMB      11              0.0000000000
      1204        11  CHL1      H2A            11.3796748401        9.2337534644       16.7449100000  MEMB      11              0.0000000000
      1205        11  CHL1      H2B             9.8985431751        8.0384564503       16.9026800000  MEMB      11              0.0000000000
      1206        11  CHL1      C20             7.7667497047        9.1230133729        7.5062300000  MEMB      11              0.0000000000
      1207        11  CHL1      H20             6.7604650305        8.7003424999        7.2987300000  MEMB      11              0.0000000000
      1208        11  CHL1      C21             8.7823782041        8.0116896242        7.5386600000  MEMB      11              0.0000000000
      1209        11  CHL1      H21A            8.9526826203        7.6192329230        6.5133300000  MEMB      11              0.0000000000
      1210        11  CHL1      H21B            8.4058481722        7.1624877997        8.1481000000  MEMB      11              0.0000000000
      1211        11  CHL1      H21C            9.8168492345        8.3628398078        7.7408300000  MEMB      11              0.0000000000
      1212        11  CHL1      C22             7.9213839702       10.0572163228        6.2912600000  MEMB      11              0.0000000000
      1213        11  CHL1      H22A            7.3077938741       10.9768202635        6.4015100000  MEMB      11              0.0000000000
      1214        11  CHL1      H22B            8.9501099970       10.4349448629        6.4739200000  MEMB      11              0.0000000000
      1215        11  CHL1      C23             7.8753706155        9.2848142290        4.9918300000  MEMB      11              0.0000000000
      1216        11  CHL1      H23A            8.6982537876        8.5635256918        4.7996900000  MEMB      11              0.0000000000
      1217        11  CHL1      H23B            6.9080835907        8.7413055169        4.9345800000  MEMB      11              0.0000000000
      1218        11  CHL1      C24             7.7643825325       10.2471539877        3.7893300000  MEMB      11              0.0000000000
      1219        11  CHL1      H24A            6.8247724660       10.8389544454        3.8243000000  MEMB      11              0.0000000000
      1220        11  CHL1      H24B            8.6760656671       10.8812543942        3.8221700000  MEMB      11              0.0000000000
      1221        11  CHL1      C25             7.6939838111        9.4830977666        2.4442100000  MEMB      11              0.0000000000
      1222        11  CHL1      H25             8.5737628813        8.8079438105        2.3772800000  MEMB      11              0.0000000000
      1223        11  CHL1      C26             6.4716459817        8.5141943911        2.4645400000  MEMB      11              0.0000000000
      1224        11  CHL1      H26A            6.4249140584        7.8311573009        3.3395200000  MEMB      11              0.0000000000
      1225        11  CHL1      H26B            5.6630735680        9.2535534761        2.6485600000  MEMB      11              0.0000000000
      1226        11  CHL1      H26C            6.2801100952        7.9399577455        1.5329300000  MEMB      11              0.0000000000
      1227        11  CHL1      C27             7.6503601035       10.4861213834        1.2735300000  MEMB      11              0.0000000000
      1228        11  CHL1      H27A            6.8701009378       11.2477690705        1.4866500000  MEMB      11              0.0000000000
      1229        11  CHL1      H27B            8.6466511793       10.9661459398        1.1672000000  MEMB      11              0.0000000000
      1230        11  CHL1      H27C            7.3822971350       10.0451639507        0.2896600000  MEMB      11              0.0000000000
      1231        12  CHL1      C3             -5.7565020235      -13.5547077857       17.2938650000  MEMB      12              0.0000000000
      1232        12  CHL1      H3             -4.6892260671      -13.5399421442       16.9856050000  MEMB      12              0.0000000000
      1233        12  CHL1      O3             -6.0746127965      -13.5618070143       18.7061350000  MEMB      12              0.0000000000
      1234        12  CHL1      H3'            -5.8165706500      -12.6938549014       19.0249950000  MEMB      12              0.0000000000
      1235        12  CHL1      C4             -6.4221413898      -12.3265925979       16.6908950000  MEMB      12              0.0000000000
      1236        12  CHL1      H4A            -7.4818402502      -12.4751125148       16.9897350000  MEMB      12              0.0000000000
      1237        12  CHL1      H4B            -6.1732547825      -11.3799835825       17.2165450000  MEMB      12              0.0000000000
      1238        12  CHL1      C5             -6.1680801642      -12.2738135478       15.1777150000  MEMB      12              0.0000000000
      1239        12  CHL1      C6             -5.4907539719      -11.2376413131       14.6656150000  MEMB      12              0.0000000000
      1240        12  CHL1      H6             -5.2286957451      -10.3703282607       15.2893950000  MEMB      12              0.0000000000
      1241        12  CHL1      C7             -5.0193898967      -11.1680198625       13.2590850000  MEMB      12              0.0000000000
      1242        12  CHL1      H7A            -4.9905476414      -10.1577356646       12.7977750000  MEMB      12              0.0000000000
      1243        12  CHL1      H7B            -3.9458495423      -11.4425615349       13.3396250000  MEMB      12              0.0000000000
      1244        12  CHL1      C8             -5.6928726598      -12.1816675937       12.3056850000  MEMB      12              0.0000000000
      1245        12  CHL1      H8             -6.7391524417      -11.8185156072       12.2177050000  MEMB      12              0.0000000000
      1246        12  CHL1      C14            -4.9908669673      -12.1636851108       10.9734450000  MEMB      12              0.0000000000
      1247        12  CHL1      H14            -3.9149318114      -12.2913923028       11.2191750000  MEMB      12              0.0000000000
      1248        12  CHL1      C15            -5.0632489748      -10.8059533292       10.2378750000  MEMB      12              0.0000000000
      1249        12  CHL1      H15A           -6.1389140234      -10.5299584966       10.2049050000  MEMB      12              0.0000000000
      1250        12  CHL1      H15B           -4.3200758901      -10.0852105244       10.6410350000  MEMB      12              0.0000000000
      1251        12  CHL1      C16            -4.7890408926      -11.1332073242        8.7541150000  MEMB      12              0.0000000000
      1252        12  CHL1      H16A           -5.5573522542      -10.7269172906        8.0620550000  MEMB      12              0.0000000000
      1253        12  CHL1      H16B           -3.7695477694      -10.7186015986        8.6023150000  MEMB      12              0.0000000000
      1254        12  CHL1      C17            -4.7356017062      -12.6725470969        8.6874850000  MEMB      12              0.0000000000
      1255        12  CHL1      H17            -3.7075726220      -13.0162738001        8.9310450000  MEMB      12              0.0000000000
      1256        12  CHL1      C13            -5.5638308522      -13.1811669146        9.9536050000  MEMB      12              0.0000000000
      1257        12  CHL1      C18            -7.1195403724      -13.0733580193        9.6760650000  MEMB      12              0.0000000000
      1258        12  CHL1      H18A           -7.4519169963      -12.1322682992        9.1880150000  MEMB      12              0.0000000000
      1259        12  CHL1      H18B           -7.5187703163      -13.9869033821        9.1857950000  MEMB      12              0.0000000000
      1260        12  CHL1      H18C           -7.5943284308      -13.1305784401       10.6788750000  MEMB      12              0.0000000000
      1261        12  CHL1      C12            -5.2877620264      -14.5450302961       10.6184750000  MEMB      12              0.0000000000
      1262        12  CHL1      H12A           -5.7098435881      -15.2402841705        9.8616550000  MEMB      12              0.0000000000
      1263        12  CHL1      H12B           -4.1954945387      -14.7479052435       10.6286550000  MEMB      12              0.0000000000
      1264        12  CHL1      C11            -5.9046743731      -14.7047872807       12.0313250000  MEMB      12              0.0000000000
      1265        12  CHL1      H11A           -7.0079384332      -14.6730346612       11.9043650000  MEMB      12              0.0000000000
      1266        12  CHL1      H11B           -5.5745103204      -15.6848003334       12.4374050000  MEMB      12              0.0000000000
      1267        12  CHL1      C9             -5.6220339999      -13.5544984276       12.9857850000  MEMB      12              0.0000000000
      1268        12  CHL1      H9             -4.5465330050      -13.5915505480       13.2618950000  MEMB      12              0.0000000000
      1269        12  CHL1      C10            -6.4269868130      -13.5803667245       14.3645650000  MEMB      12              0.0000000000
      1270        12  CHL1      C19            -7.9708878927      -13.4857078417       14.1038650000  MEMB      12              0.0000000000
      1271        12  CHL1      H19A           -8.2360056094      -12.5640294638       13.5430150000  MEMB      12              0.0000000000
      1272        12  CHL1      H19B           -8.3239295338      -14.3818962610       13.5502150000  MEMB      12              0.0000000000
      1273        12  CHL1      H19C           -8.5373932942      -13.5687239787       15.0559650000  MEMB      12              0.0000000000
      1274        12  CHL1      C1             -6.1870833741      -14.9190345272       15.1353250000  MEMB      12              0.0000000000
      1275        12  CHL1      H1A            -6.7667453559      -15.7081207313       14.6103050000  MEMB      12              0.0000000000
      1276        12  CHL1      H1B            -5.1269797591      -15.2454977725       15.0726050000  MEMB      12              0.0000000000
      1277        12  CHL1      C2             -6.3703869374      -14.8853330939       16.6477050000  MEMB      12              0.0000000000
      1278        12  CHL1      H2A            -5.8979607641      -15.7944073029       17.0774850000  MEMB      12              0.0000000000
      1279        12  CHL1      H2B            -7.4552899151      -14.7185986003       16.8194850000  MEMB      12              0.0000000000
      1280        12  CHL1      C20            -5.0289615865      -13.2861977095        7.3060250000  MEMB      12              0.0000000000
      1281        12  CHL1      H20            -6.1144369821      -13.1602932727        7.1054650000  MEMB      12              0.0000000000
      1282        12  CHL1      C21            -4.7116145598      -14.8126509061        7.1941850000  MEMB      12              0.0000000000
      1283        12  CHL1      H21A           -3.6496876926      -15.0550998392        7.4129650000  MEMB      12              0.0000000000
      1284        12  CHL1      H21B           -4.9375184539      -15.0966564129        6.1441250000  MEMB      12              0.0000000000
      1285        12  CHL1      H21C           -5.4086979706      -15.4810889036        7.7433450000  MEMB      12              0.0000000000
      1286        12  CHL1      C22            -4.1693654944      -12.3955388201        6.3523550000  MEMB      12              0.0000000000
      1287        12  CHL1      H22A           -4.6573273278      -11.3990922250        6.4097650000  MEMB      12              0.0000000000
      1288        12  CHL1      H22B           -3.1607313993      -12.3145078227        6.8110750000  MEMB      12              0.0000000000
      1289        12  CHL1      C23            -3.9580455289      -12.8221520038        4.9081050000  MEMB      12              0.0000000000
      1290        12  CHL1      H23A           -3.2791240575      -12.1202503639        4.3782750000  MEMB      12              0.0000000000
      1291        12  CHL1      H23B           -3.4401772435      -13.7969701056        5.0340550000  MEMB      12              0.0000000000
      1292        12  CHL1      C24            -5.3011952840      -12.9882275036        4.1994350000  MEMB      12              0.0000000000
      1293        12  CHL1      H24A           -6.0430758917      -13.4881869964        4.8582050000  MEMB      12              0.0000000000
      1294        12  CHL1      H24B           -5.6660768252      -11.9587820800        3.9958950000  MEMB      12              0.0000000000
      1295        12  CHL1      C25            -5.3801475033      -13.5735009863        2.7551150000  MEMB      12              0.0000000000
      1296        12  CHL1      H25            -5.0480398871      -14.6216401292        2.9145550000  MEMB      12              0.0000000000
      1297        12  CHL1      C26            -6.7694322601      -13.5388901255        2.1955450000  MEMB      12              0.0000000000
      1298        12  CHL1      H26A           -7.1468135282      -12.4940349054        2.2094750000  MEMB      12              0.0000000000
      1299        12  CHL1      H26B           -6.7416337181      -14.0857513776        1.2288550000  MEMB      12              0.0000000000
      1300        12  CHL1      H26C           -7.4313498854      -14.1221843503        2.8707850000  MEMB      12              0.0000000000
      1301        12  CHL1      C27            -4.3703311262      -12.8881030402        1.7264050000  MEMB      12              0.0000000000
      1302        12  CHL1      H27A           -4.6313720003      -11.8158767418        1.8548550000  MEMB      12              0.0000000000
      1303        12  CHL1      H27B           -3.3068242980      -13.0833726365        1.9816150000  MEMB      12              0.0000000000
      1304        12  CHL1      H27C           -4.6555035074      -13.2024617123        0.6996750000  MEMB      12              0.0000000000
      1305        13  SAPC      N               9.0289914912      -11.1933985016       21.8354513504  MEMB      13              0.0000000000
      1306        13  SAPC      C12             8.3935688894      -10.4556663312       20.7418853010  MEMB      13              0.0000000000
      1307        13  SAPC      H12A            8.2231850779       -9.4555540374       21.1122159210  MEMB      13              0.0000000000
      1308        13  SAPC      H12B            7.3942861047      -10.8312420042       20.5782481727  MEMB      13              0.0000000000
      1309        13  SAPC      C13             8.0919142450      -11.0525674203       22.9931691937  MEMB      13              0.0000000000
      1310        13  SAPC      H13A            7.2095698137      -11.5787610598       22.6600197002  MEMB      13              0.0000000000
      1311        13  SAPC      H13B            8.5720832165      -11.3822024848       23.9026625938  MEMB      13              0.0000000000
      1312        13  SAPC      H13C            7.7711191964      -10.0232182396       23.0558663229  MEMB      13              0.0000000000
      1313        13  SAPC      C14             9.1743018599      -12.6414740364       21.5051102211  MEMB      13              0.0000000000
      1314        13  SAPC      H14A            8.2456139030      -13.0833341578       21.1754158298  MEMB      13              0.0000000000
      1315        13  SAPC      H14B            9.8827112423      -12.7777653731       20.7013808895  MEMB      13              0.0000000000
      1316        13  SAPC      H14C            9.5318078319      -13.2208138317       22.3435342781  MEMB      13              0.0000000000
      1317        13  SAPC      C15            10.3859519698      -10.5308732144       22.1358557807  MEMB      13              0.0000000000
      1318        13  SAPC      H15A           11.1454873024      -10.7898618493       21.4130618739  MEMB      13              0.0000000000
      1319        13  SAPC      H15B           10.2682604308       -9.4663866673       22.2752011534  MEMB      13              0.0000000000
      1320        13  SAPC      H15C           10.6590309232      -11.0850454976       23.0217006154  MEMB      13              0.0000000000
      1321        13  SAPC      C11             9.0007546868      -10.6424390677       19.3536841020  MEMB      13              0.0000000000
      1322        13  SAPC      H11A            8.4503989492      -10.0694556747       18.5770764055  MEMB      13              0.0000000000
      1323        13  SAPC      H11B            8.8822882567      -11.6897483152       19.0023579897  MEMB      13              0.0000000000
      1324        13  SAPC      P              11.4388801138      -10.4790431971       18.2822872727  MEMB      13              0.0000000000
      1325        13  SAPC      O13            11.6535520628       -9.3121954276       17.3581103729  MEMB      13              0.0000000000
      1326        13  SAPC      O14            12.6760296632      -10.9612707435       18.9496146442  MEMB      13              0.0000000000
      1327        13  SAPC      O12            10.2813905010      -10.0954974823       19.3662499757  MEMB      13              0.0000000000
      1328        13  SAPC      O11            10.8056638247      -11.6887142362       17.4785817910  MEMB      13              0.0000000000
      1329        13  SAPC      C1             10.9776672387      -13.0157964807       17.9536930683  MEMB      13              0.0000000000
      1330        13  SAPC      HA             12.0504281207      -13.2386433284       18.1376617823  MEMB      13              0.0000000000
      1331        13  SAPC      HB             10.4235815176      -13.2674879750       18.8831883496  MEMB      13              0.0000000000
      1332        13  SAPC      C2             10.6510902203      -14.0364841956       16.7692147315  MEMB      13              0.0000000000
      1333        13  SAPC      HS             10.7043038490      -15.0239922810       17.2754921834  MEMB      13              0.0000000000
      1334        13  SAPC      O21            11.6675650302      -13.8614550334       15.7551608884  MEMB      13              0.0000000000
      1335        13  SAPC      C21            11.8408465318      -14.9287074494       15.0193045723  MEMB      13              0.0000000000
      1336        13  SAPC      O22            11.2024390743      -15.9818095293       15.1156037042  MEMB      13              0.0000000000
      1337        13  SAPC      C22            13.0147964982      -14.6513900521       14.1427461645  MEMB      13              0.0000000000
      1338        13  SAPC      H2R            13.2738656395      -13.5753413453       14.0461885207  MEMB      13              0.0000000000
      1339        13  SAPC      H2S            13.8822966603      -15.2397123895       14.5110409644  MEMB      13              0.0000000000
      1340        13  SAPC      C3              9.2357428021      -13.7941420527       16.1659236072  MEMB      13              0.0000000000
      1341        13  SAPC      HX              8.5344957839      -13.5117431197       16.9800637667  MEMB      13              0.0000000000
      1342        13  SAPC      HY              8.7953169230      -14.7429424415       15.7915926313  MEMB      13              0.0000000000
      1343        13  SAPC      O31             9.3763533187      -12.7690277036       15.1804855254  MEMB      13              0.0000000000
      1344        13  SAPC      C31             8.3973805711      -12.4219706454       14.3965615244  MEMB      13              0.0000000000
      1345        13  SAPC      O32             7.3572622332      -13.0287070516       14.3260525463  MEMB      13              0.0000000000
      1346        13  SAPC      C32             8.8707394887      -11.3025112995       13.4568672734  MEMB      13              0.0000000000
      1347        13  SAPC      H2X             8.1193739026      -11.2176125290       12.6428876399  MEMB      13              0.0000000000
      1348        13  SAPC      H2Y             9.8709304047      -11.6197376323       13.0917555278  MEMB      13              0.0000000000
      1349        13  SAPC      C23            12.7521614864      -15.1675612615       12.7074539436  MEMB      13              0.0000000000
      1350        13  SAPC      H3R            12.2078929075      -16.1309437391       12.8073877337  MEMB      13              0.0000000000
      1351        13  SAPC      H3S            13.7634048389      -15.3978556730       12.3091163379  MEMB      13              0.0000000000
      1352        13  SAPC      C24            12.0708428512      -14.0632430006       11.8513225347  MEMB      13              0.0000000000
      1353        13  SAPC      H4R            12.7020666381      -13.1490845538       11.8651674754  MEMB      13              0.0000000000
      1354        13  SAPC      H4S            11.1713612863      -13.8970541742       12.4819057613  MEMB      13              0.0000000000
      1355        13  SAPC      C25            11.8086177273      -14.5502220624       10.4726541996  MEMB      13              0.0000000000
      1356        13  SAPC      H5R            12.6004327674      -14.5585572886        9.7091369042  MEMB      13              0.0000000000
      1357        13  SAPC      C26            10.5485128487      -14.8866967243       10.0526073962  MEMB      13              0.0000000000
      1358        13  SAPC      H6R            10.4276175046      -15.3377162135        9.0566330705  MEMB      13              0.0000000000
      1359        13  SAPC      C27             9.3031365814      -14.8092641111       10.8867231461  MEMB      13              0.0000000000
      1360        13  SAPC      H7R             9.0909474622      -13.7964614309       11.2911082588  MEMB      13              0.0000000000
      1361        13  SAPC      H7S             9.4092100699      -15.5862498068       11.6737193263  MEMB      13              0.0000000000
      1362        13  SAPC      C28             8.1364664856      -15.3325704543       10.0938570017  MEMB      13              0.0000000000
      1363        13  SAPC      H8R             7.8725923720      -16.3980291684       10.1657467543  MEMB      13              0.0000000000
      1364        13  SAPC      C29             7.1922217028      -14.6489315854        9.4151509707  MEMB      13              0.0000000000
      1365        13  SAPC      H9R             6.4722366467      -15.2417042796        8.8318489582  MEMB      13              0.0000000000
      1366        13  SAPC      C210            7.1587578401      -13.1484462266        9.2828081665  MEMB      13              0.0000000000
      1367        13  SAPC      H10R            6.9385020895      -12.6426864697       10.2471814534  MEMB      13              0.0000000000
      1368        13  SAPC      H10S            6.2903690540      -12.9152402722        8.6302463172  MEMB      13              0.0000000000
      1369        13  SAPC      C211            8.2810365403      -12.5156693112        8.4967392221  MEMB      13              0.0000000000
      1370        13  SAPC      H11R            8.7194399161      -13.2106855424        7.7654695026  MEMB      13              0.0000000000
      1371        13  SAPC      C212            8.7547883002      -11.2782800418        8.6104326641  MEMB      13              0.0000000000
      1372        13  SAPC      H12R            9.4945305551      -10.9942867042        7.8474587331  MEMB      13              0.0000000000
      1373        13  SAPC      C213            8.3161572140      -10.1468258696        9.5272421099  MEMB      13              0.0000000000
      1374        13  SAPC      H13R            8.9399180994      -10.1347061021       10.4465338756  MEMB      13              0.0000000000
      1375        13  SAPC      H13S            7.2779331424      -10.4198287718        9.8133908247  MEMB      13              0.0000000000
      1376        13  SAPC      C214            8.3780105758       -8.9038750597        8.7086983156  MEMB      13              0.0000000000
      1377        13  SAPC      H14R            9.2072595554       -8.2843941977        9.0809752295  MEMB      13              0.0000000000
      1378        13  SAPC      C215            7.6466972269       -8.3912148897        7.7299831903  MEMB      13              0.0000000000
      1379        13  SAPC      H15R            7.9393840502       -7.3736584160        7.4317993673  MEMB      13              0.0000000000
      1380        13  SAPC      C216            6.4675444253       -8.8685258989        6.9906597504  MEMB      13              0.0000000000
      1381        13  SAPC      H16R            5.6133654569       -8.1581083730        6.9880947747  MEMB      13              0.0000000000
      1382        13  SAPC      H16S            6.0767918873       -9.6927777616        7.6248852613  MEMB      13              0.0000000000
      1383        13  SAPC      C217            6.6469085039       -9.6427037143        5.7159114954  MEMB      13              0.0000000000
      1384        13  SAPC      H17R            5.8288472631      -10.3942665557        5.7001043086  MEMB      13              0.0000000000
      1385        13  SAPC      H17S            7.5776451931      -10.2489273245        5.7392182487  MEMB      13              0.0000000000
      1386        13  SAPC      C218            6.6877500116       -8.8447390549        4.4598082261  MEMB      13              0.0000000000
      1387        13  SAPC      H18R            7.0092353542       -7.7907902501        4.6017956106  MEMB      13              0.0000000000
      1388        13  SAPC      H18S            5.6417374552       -8.5275148347        4.2609428721  MEMB      13              0.0000000000
      1389        13  SAPC      C219            7.3519545734       -9.5446262239        3.3142102073  MEMB      13              0.0000000000
      1390        13  SAPC      H19R            6.9945982237      -10.5965741251        3.3189805394  MEMB      13              0.0000000000
      1391        13  SAPC      H19S            8.4519237778       -9.6812449814        3.3898646266  MEMB      13              0.0000000000
      1392        13  SAPC      C220            7.1442484499       -8.7732683266        2.0299163780  MEMB      13              0.0000000000
      1393        13  SAPC      H20R            6.0845952087       -8.8953181460        1.7191768130  MEMB      13              0.0000000000
      1394        13  SAPC      H20S            7.8231892483       -9.1881480443        1.2545222450  MEMB      13              0.0000000000
      1395        13  SAPC      H20T            7.2832315964       -7.6989678814        2.2766621375  MEMB      13              0.0000000000
      1396        13  SAPC      C33             9.0247728574      -10.0347632517       14.2331437391  MEMB      13              0.0000000000
      1397        13  SAPC      H3X             9.5127890369      -10.2733860563       15.2022775656  MEMB      13              0.0000000000
      1398        13  SAPC      H3Y             7.9758957447       -9.6995869447       14.3809090080  MEMB      13              0.0000000000
      1399        13  SAPC      C34            10.0460203709       -9.0188197376       13.6235997719  MEMB      13              0.0000000000
      1400        13  SAPC      H4X             9.8748550898       -8.1021199653       14.2274910367  MEMB      13              0.0000000000
      1401        13  SAPC      H4Y             9.5859358585       -8.8171899815       12.6326463732  MEMB      13              0.0000000000
      1402        13  SAPC      C35            11.5490695632       -9.3041557023       13.4854714583  MEMB      13              0.0000000000
      1403        13  SAPC      H5X            11.8024300253       -9.8891668082       14.3953571977  MEMB      13              0.0000000000
      1404        13  SAPC      H5Y            12.1369036083       -8.3803445212       13.6734733576  MEMB      13              0.0000000000
      1405        13  SAPC      C36            11.9563439909       -9.9920387874       12.1358733036  MEMB      13              0.0000000000
      1406        13  SAPC      H6X            11.1715473456      -10.7312689195       11.8676307973  MEMB      13              0.0000000000
      1407        13  SAPC      H6Y            12.9595350009      -10.3814494315       12.4120762550  MEMB      13              0.0000000000
      1408        13  SAPC      C37            12.1122127444       -8.8903632651       11.0406811374  MEMB      13              0.0000000000
      1409        13  SAPC      H7X            12.6547513009       -8.0342974888       11.4957903046  MEMB      13              0.0000000000
      1410        13  SAPC      H7Y            11.1364901844       -8.5515093049       10.6314566377  MEMB      13              0.0000000000
      1411        13  SAPC      C38            12.8152177616       -9.3533715335        9.7319587092  MEMB      13              0.0000000000
      1412        13  SAPC      H8X            13.8930156473       -9.4245717565        9.9919659171  MEMB      13              0.0000000000
      1413        13  SAPC      H8Y            12.6760254460       -8.4990653402        9.0354619809  MEMB      13              0.0000000000
      1414        13  SAPC      C39            12.3625791618      -10.6887586254        9.2178810092  MEMB      13              0.0000000000
      1415        13  SAPC      H9X            11.2869343809      -10.8786127982        9.4210178252  MEMB      13              0.0000000000
      1416        13  SAPC      H9Y            12.9323783168      -11.4818909584        9.7475890137  MEMB      13              0.0000000000
      1417        13  SAPC      C310           12.6163107669      -10.8016107926        7.7205286679  MEMB      13              0.0000000000
      1418        13  SAPC      H10X           13.7061597739      -10.7185042286        7.5214217341  MEMB      13              0.0000000000
      1419        13  SAPC      H10Y           12.0500631300       -9.9904140064        7.2149153393  MEMB      13              0.0000000000
      1420        13  SAPC      C311           12.1008396689      -12.1076277493        7.0991943337  MEMB      13              0.0000000000
      1421        13  SAPC      H11X           10.9986439822      -12.2129967717        7.0076356747  MEMB      13              0.0000000000
      1422        13  SAPC      H11Y           12.3519522752      -12.9951305952        7.7185509016  MEMB      13              0.0000000000
      1423        13  SAPC      C312           12.8642088111      -12.4658940691        5.7040040499  MEMB      13              0.0000000000
      1424        13  SAPC      H12X           13.8613323587      -12.8996042755        5.9319550101  MEMB      13              0.0000000000
      1425        13  SAPC      H12Y           12.9727302179      -11.5649438244        5.0630416965  MEMB      13              0.0000000000
      1426        13  SAPC      C313           12.2768055611      -13.6111281335        4.8441288860  MEMB      13              0.0000000000
      1427        13  SAPC      H13X           11.2766556089      -13.3563714201        4.4328874457  MEMB      13              0.0000000000
      1428        13  SAPC      H13Y           12.3185367326      -14.5002763046        5.5089560527  MEMB      13              0.0000000000
      1429        13  SAPC      C314           13.1891662268      -14.0404063822        3.6372490434  MEMB      13              0.0000000000
      1430        13  SAPC      H14X           14.0788196928      -14.6164260197        3.9704749247  MEMB      13              0.0000000000
      1431        13  SAPC      H14Y           13.5735842629      -13.0642965743        3.2715260939  MEMB      13              0.0000000000
      1432        13  SAPC      C315           12.4568652225      -14.9332503573        2.6469748209  MEMB      13              0.0000000000
      1433        13  SAPC      H15X           11.9623955439      -15.8273981441        3.0832321766  MEMB      13              0.0000000000
      1434        13  SAPC      H15Y           13.3396428472      -15.2104456469        2.0320050622  MEMB      13              0.0000000000
      1435        13  SAPC      C316           11.4141906715      -14.3229331811        1.7867965124  MEMB      13              0.0000000000
      1436        13  SAPC      H16X           10.4064925131      -14.3678711540        2.2524649709  MEMB      13              0.0000000000
      1437        13  SAPC      H16Y           11.1416982615      -15.0493071958        0.9915306711  MEMB      13              0.0000000000
      1438        13  SAPC      C317           11.6215397620      -12.9568232255        1.1863043868  MEMB      13              0.0000000000
      1439        13  SAPC      H17X           12.6820355795      -12.9551720595        0.8551449222  MEMB      13              0.0000000000
      1440        13  SAPC      H17Y           11.4564171014      -12.1707393286        1.9538519216  MEMB      13              0.0000000000
      1441        13  SAPC      C318           10.7911364464      -12.7888777023       -0.1557965973  MEMB      13              0.0000000000
      1442        13  SAPC      H18X           10.6560409390      -11.7274299288       -0.4547933746  MEMB      13              0.0000000000
      1443        13  SAPC      H18Y            9.7284554108      -12.9938509385        0.0952331390  MEMB      13              0.0000000000
      1444        13  SAPC      H18Z           11.1975199426      -13.4062332933       -0.9852831097  MEMB      13              0.0000000000
      1445        14  SLPC      N             -12.0752021463        6.3495714769       18.1620356737  MEMB      14              0.0000000000
      1446        14  SLPC      C13           -12.1176492450        5.1473493866       17.3290346729  MEMB      14              0.0000000000
      1447        14  SLPC      H13A          -12.7299682523        4.3454208204       17.7142309530  MEMB      14              0.0000000000
      1448        14  SLPC      H13B          -12.4740879966        5.4453153474       16.3540640245  MEMB      14              0.0000000000
      1449        14  SLPC      H13C          -11.0658081600        4.9187931066       17.2407617958  MEMB      14              0.0000000000
      1450        14  SLPC      C14           -11.5907480782        7.5123414911       17.3224730269  MEMB      14              0.0000000000
      1451        14  SLPC      H14A          -12.3922706945        7.8299431127       16.6720189017  MEMB      14              0.0000000000
      1452        14  SLPC      H14B          -11.3356188090        8.2923761811       18.0245093676  MEMB      14              0.0000000000
      1453        14  SLPC      H14C          -10.7952527247        7.1820422056       16.6709441855  MEMB      14              0.0000000000
      1454        14  SLPC      C15           -11.0852534420        6.0878126997       19.3229614308  MEMB      14              0.0000000000
      1455        14  SLPC      H15A          -11.5437796984        5.3829287626       20.0006726144  MEMB      14              0.0000000000
      1456        14  SLPC      H15B          -10.0965698761        5.7991902655       18.9979977260  MEMB      14              0.0000000000
      1457        14  SLPC      H15C          -10.9358331125        6.9852750500       19.9048849306  MEMB      14              0.0000000000
      1458        14  SLPC      C12           -13.4438737471        6.5954371733       18.7594371117  MEMB      14              0.0000000000
      1459        14  SLPC      H12A          -13.3539678558        7.3824199425       19.4935861508  MEMB      14              0.0000000000
      1460        14  SLPC      H12B          -13.6472552585        5.7554770616       19.4071275369  MEMB      14              0.0000000000
      1461        14  SLPC      C11           -14.5649792909        7.0173651779       17.7629678691  MEMB      14              0.0000000000
      1462        14  SLPC      H11A          -14.2130906596        7.9375842438       17.2494581791  MEMB      14              0.0000000000
      1463        14  SLPC      H11B          -15.4882461260        7.2730492922       18.3255734926  MEMB      14              0.0000000000
      1464        14  SLPC      P             -15.8993259655        6.2038868265       15.6137052709  MEMB      14              0.0000000000
      1465        14  SLPC      O13           -15.2416922103        5.5664738251       14.4692185791  MEMB      14              0.0000000000
      1466        14  SLPC      O14           -17.2516215455        5.7561223656       15.9889090958  MEMB      14              0.0000000000
      1467        14  SLPC      O12           -14.8979447066        5.9552828529       16.8204518363  MEMB      14              0.0000000000
      1468        14  SLPC      O11           -15.8927640379        7.7659217715       15.4488054279  MEMB      14              0.0000000000
      1469        14  SLPC      C1            -17.0995563643        8.4937141655       15.3053744614  MEMB      14              0.0000000000
      1470        14  SLPC      HA            -18.0257240175        7.9709505493       15.6267035454  MEMB      14              0.0000000000
      1471        14  SLPC      HB            -16.9638088161        9.3697893491       15.9749907873  MEMB      14              0.0000000000
      1472        14  SLPC      C2            -17.2360448613        9.2426989894       13.9453539779  MEMB      14              0.0000000000
      1473        14  SLPC      HS            -18.2090713427        9.7787225716       13.9305445098  MEMB      14              0.0000000000
      1474        14  SLPC      O21           -17.2864969136        8.2699904406       12.9052016724  MEMB      14              0.0000000000
      1475        14  SLPC      C21           -18.3926862202        7.4822551774       12.8880464594  MEMB      14              0.0000000000
      1476        14  SLPC      O22           -19.4332136345        7.7542897017       13.4157077100  MEMB      14              0.0000000000
      1477        14  SLPC      C22           -18.2792171126        6.2102980068       12.0999144662  MEMB      14              0.0000000000
      1478        14  SLPC      H2R           -17.6227042956        5.4969896818       12.6425956089  MEMB      14              0.0000000000
      1479        14  SLPC      H2S           -19.2857561085        5.7419510487       12.0568847829  MEMB      14              0.0000000000
      1480        14  SLPC      C3            -16.0640422925       10.1881124644       13.5411044017  MEMB      14              0.0000000000
      1481        14  SLPC      HX            -16.1549585677       11.0285885282       14.2619758514  MEMB      14              0.0000000000
      1482        14  SLPC      HY            -16.2707903970       10.6132167483       12.5356879875  MEMB      14              0.0000000000
      1483        14  SLPC      O31           -14.8600739926        9.5688644111       13.6413764385  MEMB      14              0.0000000000
      1484        14  SLPC      C31           -13.8895964783       10.0281075722       12.8433040182  MEMB      14              0.0000000000
      1485        14  SLPC      O32           -13.9353400352       10.9639308328       12.0285816906  MEMB      14              0.0000000000
      1486        14  SLPC      C32           -12.7510128531        9.0383830821       12.7769852870  MEMB      14              0.0000000000
      1487        14  SLPC      H2X           -13.0800808072        7.9794812998       12.8459965445  MEMB      14              0.0000000000
      1488        14  SLPC      H2Y           -12.0751473647        9.3375880984       13.6064449113  MEMB      14              0.0000000000
      1489        14  SLPC      C23           -17.8255128440        6.5449599203       10.6736251623  MEMB      14              0.0000000000
      1490        14  SLPC      H3R           -18.1878890937        7.5438802696       10.3493373470  MEMB      14              0.0000000000
      1491        14  SLPC      H3S           -18.2610321869        5.8718600417        9.9044825110  MEMB      14              0.0000000000
      1492        14  SLPC      C24           -16.3201892384        6.5039342404       10.4188751082  MEMB      14              0.0000000000
      1493        14  SLPC      H4R           -15.8617421645        5.6395579127       10.9451839756  MEMB      14              0.0000000000
      1494        14  SLPC      H4S           -15.8751667742        7.4178338530       10.8672758505  MEMB      14              0.0000000000
      1495        14  SLPC      C25           -15.7790206926        6.3375460286        8.9930398354  MEMB      14              0.0000000000
      1496        14  SLPC      H5R           -16.1943134841        5.3424589483        8.7253565215  MEMB      14              0.0000000000
      1497        14  SLPC      H5S           -14.6811999640        6.3609375931        9.1620469675  MEMB      14              0.0000000000
      1498        14  SLPC      C26           -16.2686568742        7.3488209347        7.9890540592  MEMB      14              0.0000000000
      1499        14  SLPC      H6R           -17.3708850445        7.3916527170        7.8564661773  MEMB      14              0.0000000000
      1500        14  SLPC      H6S           -15.8327267966        7.1555361284        6.9855967032  MEMB      14              0.0000000000
      1501        14  SLPC      C27           -16.0297491770        8.8249621858        8.2479550986  MEMB      14              0.0000000000
      1502        14  SLPC      H7R           -14.9971366420        9.0584195572        7.9110130882  MEMB      14              0.0000000000
      1503        14  SLPC      H7S           -16.2338954949        9.1175439130        9.3001152431  MEMB      14              0.0000000000
      1504        14  SLPC      C28           -16.9596990679        9.7715206569        7.3619398285  MEMB      14              0.0000000000
      1505        14  SLPC      H8R           -16.4482330104       10.7573562560        7.3911275081  MEMB      14              0.0000000000
      1506        14  SLPC      H8S           -17.8915346082        9.8201739178        7.9649626448  MEMB      14              0.0000000000
      1507        14  SLPC      C29           -16.9660093541        9.3880218142        5.8387599396  MEMB      14              0.0000000000
      1508        14  SLPC      H9R           -17.1597818824        8.3197749758        5.6618399229  MEMB      14              0.0000000000
      1509        14  SLPC      C210          -16.7994069086       10.1371679933        4.7834355022  MEMB      14              0.0000000000
      1510        14  SLPC      H10R          -16.9649327669        9.6534195128        3.8094801197  MEMB      14              0.0000000000
      1511        14  SLPC      C211          -16.4861856355       11.6217108829        4.6562213025  MEMB      14              0.0000000000
      1512        14  SLPC      H11R          -16.5732747774       12.2271847141        5.5836567419  MEMB      14              0.0000000000
      1513        14  SLPC      H11S          -17.2545436629       11.9860102084        3.9412153863  MEMB      14              0.0000000000
      1514        14  SLPC      C212          -15.1995153461       11.9869134661        4.0425278593  MEMB      14              0.0000000000
      1515        14  SLPC      H12R          -14.5867637077       12.3858602571        4.8643411561  MEMB      14              0.0000000000
      1516        14  SLPC      C213          -14.8359161532       12.0512745635        2.7768003838  MEMB      14              0.0000000000
      1517        14  SLPC      H13R          -13.7696641720       12.2670921834        2.6139220881  MEMB      14              0.0000000000
      1518        14  SLPC      C214          -15.7375876254       11.7310606089        1.5653095512  MEMB      14              0.0000000000
      1519        14  SLPC      H14R          -15.7961572692       12.6199804819        0.9014469791  MEMB      14              0.0000000000
      1520        14  SLPC      H14S          -16.7683121832       11.3919079930        1.8038538047  MEMB      14              0.0000000000
      1521        14  SLPC      C215          -15.0834705987       10.5484282648        0.7538155558  MEMB      14              0.0000000000
      1522        14  SLPC      H15R          -15.8427002744       10.4689459566       -0.0533861474  MEMB      14              0.0000000000
      1523        14  SLPC      H15S          -15.0893830206        9.6058878697        1.3419510887  MEMB      14              0.0000000000
      1524        14  SLPC      C216          -13.6114777477       10.7114946636        0.1749478404  MEMB      14              0.0000000000
      1525        14  SLPC      H16R          -12.8990256089       10.3946914510        0.9663825429  MEMB      14              0.0000000000
      1526        14  SLPC      H16S          -13.3457742258       11.7849546481        0.0681463037  MEMB      14              0.0000000000
      1527        14  SLPC      C217          -13.1873093296        9.8778930348       -1.0356228987  MEMB      14              0.0000000000
      1528        14  SLPC      H17R          -12.2477562438       10.3121299955       -1.4393554940  MEMB      14              0.0000000000
      1529        14  SLPC      H17S          -14.0047936767       10.1211784650       -1.7475591248  MEMB      14              0.0000000000
      1530        14  SLPC      C218          -13.0162462151        8.3758586483       -0.7352107695  MEMB      14              0.0000000000
      1531        14  SLPC      H18R          -12.6515197067        7.8036139410       -1.6148890137  MEMB      14              0.0000000000
      1532        14  SLPC      H18S          -13.9784343982        7.8408119931       -0.5860805884  MEMB      14              0.0000000000
      1533        14  SLPC      H18T          -12.4732041295        8.1092432011        0.1966381291  MEMB      14              0.0000000000
      1534        14  SLPC      C33           -11.9866423970        9.2050111163       11.5358557061  MEMB      14              0.0000000000
      1535        14  SLPC      H3X           -11.1529398496        8.4912835898       11.7086387211  MEMB      14              0.0000000000
      1536        14  SLPC      H3Y           -11.5892393215       10.2275653744       11.3604292580  MEMB      14              0.0000000000
      1537        14  SLPC      C34           -12.5795037424        8.6311338673       10.2561152827  MEMB      14              0.0000000000
      1538        14  SLPC      H4X           -13.3173666167        9.3601221619        9.8580501680  MEMB      14              0.0000000000
      1539        14  SLPC      H4Y           -13.1787393516        7.7369974531       10.5313568180  MEMB      14              0.0000000000
      1540        14  SLPC      C35           -11.5941184219        8.1418377889        9.0890406758  MEMB      14              0.0000000000
      1541        14  SLPC      H5X           -11.0799495316        7.2367676989        9.4773693320  MEMB      14              0.0000000000
      1542        14  SLPC      H5Y           -10.8275281202        8.9304359851        8.9316456125  MEMB      14              0.0000000000
      1543        14  SLPC      C36           -12.2719161675        7.7411720337        7.7545065718  MEMB      14              0.0000000000
      1544        14  SLPC      H6X           -12.6232249231        8.6724216932        7.2608692936  MEMB      14              0.0000000000
      1545        14  SLPC      H6Y           -13.2059817610        7.1448674470        7.8336496662  MEMB      14              0.0000000000
      1546        14  SLPC      C37           -11.2681283308        7.0295080211        6.9318134031  MEMB      14              0.0000000000
      1547        14  SLPC      H7X           -10.7541014778        6.2996145755        7.5931404301  MEMB      14              0.0000000000
      1548        14  SLPC      H7Y           -10.4679469832        7.7416424060        6.6370341175  MEMB      14              0.0000000000
      1549        14  SLPC      C38           -11.8410591625        6.2794459259        5.7048877939  MEMB      14              0.0000000000
      1550        14  SLPC      H8X           -10.9760827183        5.8366786289        5.1662837445  MEMB      14              0.0000000000
      1551        14  SLPC      H8Y           -12.3203699366        6.9451235159        4.9555844623  MEMB      14              0.0000000000
      1552        14  SLPC      C39           -12.8727108865        5.2203729955        5.9980750259  MEMB      14              0.0000000000
      1553        14  SLPC      H9X           -13.7593210666        5.7262209942        6.4366649657  MEMB      14              0.0000000000
      1554        14  SLPC      H9Y           -12.5036585842        4.5017417722        6.7607614904  MEMB      14              0.0000000000
      1555        14  SLPC      C310          -13.2458518366        4.4162467023        4.7777505093  MEMB      14              0.0000000000
      1556        14  SLPC      H10X          -12.3819770912        4.0697268291        4.1711492109  MEMB      14              0.0000000000
      1557        14  SLPC      H10Y          -13.8532977104        5.0708403795        4.1168135528  MEMB      14              0.0000000000
      1558        14  SLPC      C311          -14.1864282721        3.2049791709        5.2112088145  MEMB      14              0.0000000000
      1559        14  SLPC      H11X          -13.6673733082        2.6654018775        6.0320372169  MEMB      14              0.0000000000
      1560        14  SLPC      H11Y          -14.2526349087        2.5165802085        4.3417006220  MEMB      14              0.0000000000
      1561        14  SLPC      C312          -15.5903295655        3.6872271524        5.6675854653  MEMB      14              0.0000000000
      1562        14  SLPC      H12X          -15.5791906834        4.4518547521        6.4735272109  MEMB      14              0.0000000000
      1563        14  SLPC      H12Y          -15.9938839854        2.7296679574        6.0607069428  MEMB      14              0.0000000000
      1564        14  SLPC      C313          -16.4685175404        4.0844643557        4.4804456035  MEMB      14              0.0000000000
      1565        14  SLPC      H13X          -16.6618866855        3.2966943432        3.7212705367  MEMB      14              0.0000000000
      1566        14  SLPC      H13Y          -15.9956501960        4.9440240185        3.9590300069  MEMB      14              0.0000000000
      1567        14  SLPC      C314          -17.8638450879        4.5227094584        5.0436167134  MEMB      14              0.0000000000
      1568        14  SLPC      H14X          -17.6508012083        5.2714749060        5.8362596272  MEMB      14              0.0000000000
      1569        14  SLPC      H14Y          -18.2648187394        3.5317776932        5.3462633760  MEMB      14              0.0000000000
      1570        14  SLPC      C315          -18.8883902046        5.0147589191        3.9394017272  MEMB      14              0.0000000000
      1571        14  SLPC      H15X          -19.8961234578        4.8515963201        4.3777764582  MEMB      14              0.0000000000
      1572        14  SLPC      H15Y          -18.8982142871        4.2957968551        3.0924550214  MEMB      14              0.0000000000
      1573        14  SLPC      C316          -18.6777805988        6.4376070798        3.3991823528  MEMB      14              0.0000000000
      1574        14  SLPC      H16X          -17.6678046249        6.5320183971        2.9460198586  MEMB      14              0.0000000000
      1575        14  SLPC      H16Y          -18.8163365342        7.1463492041        4.2434612759  MEMB      14              0.0000000000
      1576        14  SLPC      C317          -19.9021144539        6.7218393502        2.5262417156  MEMB      14              0.0000000000
      1577        14  SLPC      H17X          -20.7426004757        6.7039930707        3.2525921973  MEMB      14              0.0000000000
      1578        14  SLPC      H17Y          -20.0397227373        5.9053103735        1.7855217938  MEMB      14              0.0000000000
      1579        14  SLPC      C318          -20.0192972641        8.0575896932        1.6903080268  MEMB      14              0.0000000000
      1580        14  SLPC      H18X          -19.1700723350        8.2649152851        1.0046310343  MEMB      14              0.0000000000
      1581        14  SLPC      H18Y          -20.2531674321        8.9239002031        2.3453898924  MEMB      14              0.0000000000
      1582        14  SLPC      H18Z          -20.9139686215        7.9228375368        1.0455393443  MEMB      14              0.0000000000
      1583        15  POPC      N              14.7064060943        2.5758082848       20.9442625961  MEMB      15              0.0000000000
      1584        15  POPC      C12            14.7746826936        4.0839980439       20.7716190895  MEMB      15              0.0000000000
      1585        15  POPC      H12A           15.3260032388        4.4953423694       21.6042304558  MEMB      15              0.0000000000
      1586        15  POPC      H12B           13.7429822855        4.3937059803       20.8495632031  MEMB      15              0.0000000000
      1587        15  POPC      C13            14.1354989786        2.2179731100       22.2757347441  MEMB      15              0.0000000000
      1588        15  POPC      H13A           13.2494605908        2.7734974143       22.5454173069  MEMB      15              0.0000000000
      1589        15  POPC      H13B           14.0158990758        1.1446236857       22.2798207323  MEMB      15              0.0000000000
      1590        15  POPC      H13C           14.8670795297        2.5748031875       22.9855674370  MEMB      15              0.0000000000
      1591        15  POPC      C14            13.7272237786        2.0090647653       19.9348623432  MEMB      15              0.0000000000
      1592        15  POPC      H14A           12.7695660279        2.5045012775       19.9967837018  MEMB      15              0.0000000000
      1593        15  POPC      H14B           14.0791884391        2.3615411711       18.9765923491  MEMB      15              0.0000000000
      1594        15  POPC      H14C           13.4942909682        0.9566106655       20.0018129675  MEMB      15              0.0000000000
      1595        15  POPC      C15            15.9738759424        1.9327265609       20.6118557376  MEMB      15              0.0000000000
      1596        15  POPC      H15A           16.6896553983        2.2540828624       21.3540078330  MEMB      15              0.0000000000
      1597        15  POPC      H15B           16.2670915846        2.2430425621       19.6198231667  MEMB      15              0.0000000000
      1598        15  POPC      H15C           15.7195855445        0.8852305485       20.6788503307  MEMB      15              0.0000000000
      1599        15  POPC      C11            15.4651502589        4.6992206854       19.5355011312  MEMB      15              0.0000000000
      1600        15  POPC      H11A           16.5476505047        4.5197267272       19.7095587811  MEMB      15              0.0000000000
      1601        15  POPC      H11B           15.0866763348        5.7390760199       19.6343919015  MEMB      15              0.0000000000
      1602        15  POPC      P              15.4313317116        4.9261393048       16.9939624479  MEMB      15              0.0000000000
      1603        15  POPC      O13            16.4367803718        5.9982972010       17.2245676732  MEMB      15              0.0000000000
      1604        15  POPC      O14            14.1533593584        5.3902101627       16.4521184009  MEMB      15              0.0000000000
      1605        15  POPC      O12            15.0949670439        4.1540674034       18.2823724222  MEMB      15              0.0000000000
      1606        15  POPC      O11            15.9783279725        3.9186707704       15.9731434153  MEMB      15              0.0000000000
      1607        15  POPC      C1             16.6297373645        2.7017748552       16.3951825826  MEMB      15              0.0000000000
      1608        15  POPC      HA             15.8918849328        2.0280239085       16.8809341910  MEMB      15              0.0000000000
      1609        15  POPC      HB             17.4551600442        2.8685125561       17.1198873718  MEMB      15              0.0000000000
      1610        15  POPC      C2             17.0198583081        1.8310037590       15.1611080235  MEMB      15              0.0000000000
      1611        15  POPC      HS             17.5336633199        0.9828301620       15.6620342048  MEMB      15              0.0000000000
      1612        15  POPC      O21            17.9718970711        2.5609184521       14.3500112482  MEMB      15              0.0000000000
      1613        15  POPC      C21            19.1949289033        2.9057823406       14.7524416726  MEMB      15              0.0000000000
      1614        15  POPC      O22            19.6525253932        2.7761984406       15.8818809584  MEMB      15              0.0000000000
      1615        15  POPC      C22            19.9172714152        3.7672582551       13.6503346659  MEMB      15              0.0000000000
      1616        15  POPC      H2R            20.9633628308        3.3931207873       13.6562568356  MEMB      15              0.0000000000
      1617        15  POPC      H2S            19.9299475629        4.8345418108       13.9586620617  MEMB      15              0.0000000000
      1618        15  POPC      C3             15.9054844677        1.3425076276       14.2207114890  MEMB      15              0.0000000000
      1619        15  POPC      HX             15.0039951622        0.9631397575       14.7477011660  MEMB      15              0.0000000000
      1620        15  POPC      HY             16.3633373862        0.6008972299       13.5317229464  MEMB      15              0.0000000000
      1621        15  POPC      O31            15.5079635101        2.4830999428       13.4592373766  MEMB      15              0.0000000000
      1622        15  POPC      C31            14.4234882802        2.4397032997       12.6706520301  MEMB      15              0.0000000000
      1623        15  POPC      O32            13.7127084010        1.4505370156       12.5909604932  MEMB      15              0.0000000000
      1624        15  POPC      C32            14.3148156504        3.5974286216       11.6914301126  MEMB      15              0.0000000000
      1625        15  POPC      H2X            15.2992286301        4.1120372948       11.7121671568  MEMB      15              0.0000000000
      1626        15  POPC      H2Y            13.6746386343        4.4647202621       11.9603157571  MEMB      15              0.0000000000
      1627        15  POPC      C23            19.2216934085        3.6490724890       12.2408526066  MEMB      15              0.0000000000
      1628        15  POPC      H3R            18.3545037959        4.3332631587       12.3599578906  MEMB      15              0.0000000000
      1629        15  POPC      H3S            18.9802937594        2.5907145583       12.0043665077  MEMB      15              0.0000000000
      1630        15  POPC      C24            20.0446293983        4.5331626334       11.1992784751  MEMB      15              0.0000000000
      1631        15  POPC      H4R            20.9731573543        4.0080761680       10.8887288891  MEMB      15              0.0000000000
      1632        15  POPC      H4S            20.3018987195        5.4938796717       11.6944115625  MEMB      15              0.0000000000
      1633        15  POPC      C25            19.2492067199        5.0120900609        9.8922893637  MEMB      15              0.0000000000
      1634        15  POPC      H5R            19.8966831289        5.5823223104        9.1923390986  MEMB      15              0.0000000000
      1635        15  POPC      H5S            18.3640399011        5.6327259912       10.1484371187  MEMB      15              0.0000000000
      1636        15  POPC      C26            18.8495677927        3.6955618183        9.1247493852  MEMB      15              0.0000000000
      1637        15  POPC      H6R            18.1999499140        3.2069499560        9.8820974108  MEMB      15              0.0000000000
      1638        15  POPC      H6S            19.7084168564        2.9921583125        9.0809000298  MEMB      15              0.0000000000
      1639        15  POPC      C27            17.9722116668        4.0162066980        7.8992933336  MEMB      15              0.0000000000
      1640        15  POPC      H7R            18.4598443881        4.6544457642        7.1317088571  MEMB      15              0.0000000000
      1641        15  POPC      H7S            17.0964069984        4.5937355312        8.2650089782  MEMB      15              0.0000000000
      1642        15  POPC      C28            17.4512336507        2.6538635492        7.2518406436  MEMB      15              0.0000000000
      1643        15  POPC      H8R            16.6075921901        2.9954530524        6.6147321871  MEMB      15              0.0000000000
      1644        15  POPC      H8S            16.9695521470        2.0600129348        8.0578459659  MEMB      15              0.0000000000
      1645        15  POPC      C29            18.3492954769        1.6930656913        6.5080260051  MEMB      15              0.0000000000
      1646        15  POPC      H91            18.9771525263        1.1265787712        7.2115086331  MEMB      15              0.0000000000
      1647        15  POPC      C210           18.6130870876        1.4765550383        5.2344990979  MEMB      15              0.0000000000
      1648        15  POPC      H101           19.4200434265        0.7705814522        4.9886887938  MEMB      15              0.0000000000
      1649        15  POPC      C211           18.0084729543        2.2095928223        4.1055698993  MEMB      15              0.0000000000
      1650        15  POPC      H11R           18.8852634989        2.3060997343        3.4301098988  MEMB      15              0.0000000000
      1651        15  POPC      H11S           17.4781173436        3.1607341584        4.3255109225  MEMB      15              0.0000000000
      1652        15  POPC      C212           17.0089312937        1.2665757303        3.4877039215  MEMB      15              0.0000000000
      1653        15  POPC      H12R           17.5205489828        0.2916788791        3.3388943288  MEMB      15              0.0000000000
      1654        15  POPC      H12S           16.7644328302        1.6917927643        2.4908428888  MEMB      15              0.0000000000
      1655        15  POPC      C213           15.7213133791        0.9728844401        4.3036366271  MEMB      15              0.0000000000
      1656        15  POPC      H13R           15.2303125710        1.9555162200        4.4699908149  MEMB      15              0.0000000000
      1657        15  POPC      H13S           16.0526853534        0.5629187637        5.2816149633  MEMB      15              0.0000000000
      1658        15  POPC      C214           14.7434535885       -0.0242740483        3.6327698351  MEMB      15              0.0000000000
      1659        15  POPC      H14R           13.7939802025       -0.1499470361        4.1958213161  MEMB      15              0.0000000000
      1660        15  POPC      H14S           15.2405838749       -1.0099723126        3.7575970137  MEMB      15              0.0000000000
      1661        15  POPC      C215           14.5115820612        0.1536904996        2.1380720450  MEMB      15              0.0000000000
      1662        15  POPC      H15R           15.4686447451        0.0183795411        1.5903107576  MEMB      15              0.0000000000
      1663        15  POPC      H15S           14.0672675410        1.1519981506        1.9373552468  MEMB      15              0.0000000000
      1664        15  POPC      C216           13.4559803367       -0.8122327738        1.6707271031  MEMB      15              0.0000000000
      1665        15  POPC      H16R           12.5104136311       -0.9263308324        2.2427460302  MEMB      15              0.0000000000
      1666        15  POPC      H16S           13.9039657013       -1.8269863173        1.7332184759  MEMB      15              0.0000000000
      1667        15  POPC      C217           13.0265276947       -0.4399530856        0.2045998425  MEMB      15              0.0000000000
      1668        15  POPC      H17R           12.7451158176       -1.2662171033       -0.4827252977  MEMB      15              0.0000000000
      1669        15  POPC      H17S           13.8178346241        0.2074243743       -0.2302081661  MEMB      15              0.0000000000
      1670        15  POPC      C218           11.7995580962        0.5498017825        0.2783901392  MEMB      15              0.0000000000
      1671        15  POPC      H18R           11.4563787794        0.9388574955       -0.7040478456  MEMB      15              0.0000000000
      1672        15  POPC      H18S           12.1222378708        1.4358106554        0.8659170051  MEMB      15              0.0000000000
      1673        15  POPC      H18T           10.8853215574        0.1268450720        0.7470064541  MEMB      15              0.0000000000
      1674        15  POPC      C33            14.0601234229        3.0774517179       10.2906732835  MEMB      15              0.0000000000
      1675        15  POPC      H3X            13.1191648134        2.4867783687       10.2859241031  MEMB      15              0.0000000000
      1676        15  POPC      H3Y            14.8699544006        2.3857796184        9.9743124593  MEMB      15              0.0000000000
      1677        15  POPC      C34            14.0629313434        4.0499198055        9.1326667069  MEMB      15              0.0000000000
      1678        15  POPC      H4X            14.0057441939        3.4579514157        8.1942515382  MEMB      15              0.0000000000
      1679        15  POPC      H4Y            15.0234005344        4.5958915801        9.0154713316  MEMB      15              0.0000000000
      1680        15  POPC      C35            12.8585252525        5.0148413034        9.0929655681  MEMB      15              0.0000000000
      1681        15  POPC      H5X            12.7034706218        5.4712811634       10.0939360735  MEMB      15              0.0000000000
      1682        15  POPC      H5Y            11.9106061995        4.4940657698        8.8388725433  MEMB      15              0.0000000000
      1683        15  POPC      C36            12.9057803617        6.1629719020        8.0960298330  MEMB      15              0.0000000000
      1684        15  POPC      H6X            13.7598755951        6.8402785833        8.3107339266  MEMB      15              0.0000000000
      1685        15  POPC      H6Y            11.9764699018        6.7655333001        8.0087211641  MEMB      15              0.0000000000
      1686        15  POPC      C37            13.0109992546        5.6667293647        6.6430027360  MEMB      15              0.0000000000
      1687        15  POPC      H7X            12.0008846881        5.2505875537        6.4409744322  MEMB      15              0.0000000000
      1688        15  POPC      H7Y            13.6075555479        4.7397430190        6.5046621451  MEMB      15              0.0000000000
      1689        15  POPC      C38            13.4883879025        6.7076804577        5.6681009602  MEMB      15              0.0000000000
      1690        15  POPC      H8X            14.5174099494        7.0241704156        5.9424520380  MEMB      15              0.0000000000
      1691        15  POPC      H8Y            12.7674606074        7.5518677925        5.7120533309  MEMB      15              0.0000000000
      1692        15  POPC      C39            13.5382244476        6.1962400612        4.1959304302  MEMB      15              0.0000000000
      1693        15  POPC      H9X            13.7420908028        6.9677468034        3.4229253059  MEMB      15              0.0000000000
      1694        15  POPC      H9Y            12.5638070547        5.7556362145        3.8947652218  MEMB      15              0.0000000000
      1695        15  POPC      C310           14.7078994014        5.3200309662        3.8692590684  MEMB      15              0.0000000000
      1696        15  POPC      H10X           14.7055333031        4.3992720677        4.4909657232  MEMB      15              0.0000000000
      1697        15  POPC      H10Y           15.6697146158        5.8424244613        4.0598835914  MEMB      15              0.0000000000
      1698        15  POPC      C311           14.7471945493        4.9634240387        2.4188628726  MEMB      15              0.0000000000
      1699        15  POPC      H11X           14.3032769441        5.8798306197        1.9745016433  MEMB      15              0.0000000000
      1700        15  POPC      H11Y           14.0892002463        4.1293215874        2.0938430240  MEMB      15              0.0000000000
      1701        15  POPC      C312           16.2236372897        4.7820003477        1.8274941703  MEMB      15              0.0000000000
      1702        15  POPC      H12X           16.6310953162        3.9679151132        2.4643334272  MEMB      15              0.0000000000
      1703        15  POPC      H12Y           16.8239250436        5.7014169268        1.9967538872  MEMB      15              0.0000000000
      1704        15  POPC      C313           16.2226135669        4.4761945852        0.3174213671  MEMB      15              0.0000000000
      1705        15  POPC      H13X           16.0030231328        5.3325261403       -0.3554810879  MEMB      15              0.0000000000
      1706        15  POPC      H13Y           15.4260814970        3.7562167950        0.0319566689  MEMB      15              0.0000000000
      1707        15  POPC      C314           17.5246581709        3.7650535136       -0.1792676892  MEMB      15              0.0000000000
      1708        15  POPC      H14X           17.9481025549        3.0621802761        0.5697221998  MEMB      15              0.0000000000
      1709        15  POPC      H14Y           18.2648476781        4.5731689579       -0.3619971251  MEMB      15              0.0000000000
      1710        15  POPC      C315           17.4390949620        2.8457174482       -1.3805101994  MEMB      15              0.0000000000
      1711        15  POPC      H15X           16.9763812993        1.8936288058       -1.0432491860  MEMB      15              0.0000000000
      1712        15  POPC      H15Y           18.4672045369        2.6562129055       -1.7565421716  MEMB      15              0.0000000000
      1713        15  POPC      C316           16.6466876995        3.4807898493       -2.6171756554  MEMB      15              0.0000000000
      1714        15  POPC      H16X           15.6024427324        3.7124877303       -2.3168592598  MEMB      15              0.0000000000
      1715        15  POPC      H16Y           16.8656286949        2.7076154981       -3.3843703121  MEMB      15              0.0000000000
      1716        15  POPC      H16Z           17.0792684846        4.4528117472       -2.9371268216  MEMB      15              0.0000000000
      1717        16  SOPE      N              -6.4093894251       15.0207880419       19.9444597388  MEMB      16              0.0000000000
      1718        16  SOPE      HN1            -6.3698820726       15.9988047017       20.2959174471  MEMB      16              0.0000000000
      1719        16  SOPE      HN2            -5.6495922999       14.9261561358       19.2406463763  MEMB      16              0.0000000000
      1720        16  SOPE      HN3            -7.2371815192       14.6119628531       19.4656880729  MEMB      16              0.0000000000
      1721        16  SOPE      C12            -6.1815408489       14.2030194639       21.2091126343  MEMB      16              0.0000000000
      1722        16  SOPE      H12A           -6.4378618007       13.1544956374       20.9460184569  MEMB      16              0.0000000000
      1723        16  SOPE      H12B           -6.9155468592       14.5760380451       21.9550438252  MEMB      16              0.0000000000
      1724        16  SOPE      C11            -4.6934919428       14.2315808420       21.5537826060  MEMB      16              0.0000000000
      1725        16  SOPE      H11A           -4.1933934579       13.7092798092       20.7103229524  MEMB      16              0.0000000000
      1726        16  SOPE      H11B           -4.6116222885       13.6492355861       22.4963812726  MEMB      16              0.0000000000
      1727        16  SOPE      P              -2.6751649147       15.8681929084       21.1098111319  MEMB      16              0.0000000000
      1728        16  SOPE      O13            -1.6663107153       15.1721374648       21.9106719931  MEMB      16              0.0000000000
      1729        16  SOPE      O14            -2.5953474457       17.3320723743       20.9482063729  MEMB      16              0.0000000000
      1730        16  SOPE      O12            -4.1480742755       15.5978737323       21.6782747839  MEMB      16              0.0000000000
      1731        16  SOPE      O11            -2.7921345561       15.2040839791       19.6456807375  MEMB      16              0.0000000000
      1732        16  SOPE      C1             -2.7165915246       16.0305368143       18.4571500273  MEMB      16              0.0000000000
      1733        16  SOPE      HA             -1.8796877773       16.7572666099       18.5331563390  MEMB      16              0.0000000000
      1734        16  SOPE      HB             -3.7050740575       16.5014246521       18.2687676985  MEMB      16              0.0000000000
      1735        16  SOPE      C2             -2.5206358978       15.0978960512       17.1576829751  MEMB      16              0.0000000000
      1736        16  SOPE      HS             -2.9075479707       15.6177497864       16.2552572524  MEMB      16              0.0000000000
      1737        16  SOPE      O21            -3.1981260263       13.8441085224       17.3774934229  MEMB      16              0.0000000000
      1738        16  SOPE      C21            -4.4386559568       13.7037655489       17.0368941845  MEMB      16              0.0000000000
      1739        16  SOPE      O22            -5.1563167139       14.6176526721       16.6357343882  MEMB      16              0.0000000000
      1740        16  SOPE      C22            -4.9740176605       12.3141403991       17.2746338340  MEMB      16              0.0000000000
      1741        16  SOPE      H2R            -6.0613228078       12.2482148581       17.0561332159  MEMB      16              0.0000000000
      1742        16  SOPE      H2S            -4.8139193170       12.0467870973       18.3410351538  MEMB      16              0.0000000000
      1743        16  SOPE      C3             -0.9747791553       14.7566617363       16.9200657206  MEMB      16              0.0000000000
      1744        16  SOPE      HX             -0.6590560509       14.2272813111       17.8444013791  MEMB      16              0.0000000000
      1745        16  SOPE      HY             -0.4228759735       15.7072535942       16.7585142439  MEMB      16              0.0000000000
      1746        16  SOPE      O31            -0.6421921215       13.9255107012       15.8144956712  MEMB      16              0.0000000000
      1747        16  SOPE      C31            -0.9677604761       14.4071830626       14.5952293227  MEMB      16              0.0000000000
      1748        16  SOPE      O32            -1.3797430653       15.5607026490       14.4193262749  MEMB      16              0.0000000000
      1749        16  SOPE      C32            -0.7704427258       13.4018733038       13.4433408790  MEMB      16              0.0000000000
      1750        16  SOPE      H2X            -1.7730748326       12.9748417953       13.2272529645  MEMB      16              0.0000000000
      1751        16  SOPE      H2Y            -0.0869108311       12.5931494372       13.7796009959  MEMB      16              0.0000000000
      1752        16  SOPE      C23            -4.1037083836       11.4233467862       16.3312523508  MEMB      16              0.0000000000
      1753        16  SOPE      H3R            -4.2435998443       10.3373003541       16.5190144563  MEMB      16              0.0000000000
      1754        16  SOPE      H3S            -3.0660679157       11.4326586529       16.7281607906  MEMB      16              0.0000000000
      1755        16  SOPE      C24            -4.2243190239       11.7176796620       14.8811141741  MEMB      16              0.0000000000
      1756        16  SOPE      H4R            -4.0612903879       12.8053552531       14.7239377488  MEMB      16              0.0000000000
      1757        16  SOPE      H4S            -3.3762270357       11.2263292172       14.3580120159  MEMB      16              0.0000000000
      1758        16  SOPE      C25            -5.5593374163       11.5606877992       14.2394030522  MEMB      16              0.0000000000
      1759        16  SOPE      H5R            -6.0637761905       10.6153925359       14.5331361311  MEMB      16              0.0000000000
      1760        16  SOPE      H5S            -6.1814489469       12.4483462227       14.4830441287  MEMB      16              0.0000000000
      1761        16  SOPE      C26            -5.3447104392       11.4596393275       12.6883268443  MEMB      16              0.0000000000
      1762        16  SOPE      H6R            -6.2933334659       11.7003367847       12.1624942608  MEMB      16              0.0000000000
      1763        16  SOPE      H6S            -4.5716625591       12.1912158637       12.3697147525  MEMB      16              0.0000000000
      1764        16  SOPE      C27            -4.8612728849       10.1050952030       12.1786669981  MEMB      16              0.0000000000
      1765        16  SOPE      H7R            -3.9997694623        9.8727468971       12.8405941310  MEMB      16              0.0000000000
      1766        16  SOPE      H7S            -5.5480113154        9.2755819246       12.4518311865  MEMB      16              0.0000000000
      1767        16  SOPE      C28            -4.2261547656        9.9976437732       10.7839727654  MEMB      16              0.0000000000
      1768        16  SOPE      H8R            -3.4975612175       10.8209647700       10.6239261445  MEMB      16              0.0000000000
      1769        16  SOPE      H8S            -3.6175417174        9.0683601803       10.8025011774  MEMB      16              0.0000000000
      1770        16  SOPE      C29            -5.2269759440        9.9266539134        9.7350086011  MEMB      16              0.0000000000
      1771        16  SOPE      H91            -5.7040146305        8.9385219870        9.6573584553  MEMB      16              0.0000000000
      1772        16  SOPE      C210           -5.5897235339       11.0078314933        8.9570992683  MEMB      16              0.0000000000
      1773        16  SOPE      H101           -6.3058872110       10.7726920699        8.1559634029  MEMB      16              0.0000000000
      1774        16  SOPE      C211           -5.0160730068       12.4226717114        8.9384871129  MEMB      16              0.0000000000
      1775        16  SOPE      H11R           -3.9970986520       12.3452698336        9.3744019385  MEMB      16              0.0000000000
      1776        16  SOPE      H11S           -5.5887150061       13.1497959972        9.5530548003  MEMB      16              0.0000000000
      1777        16  SOPE      C212           -4.7318178106       13.0137101063        7.5598094724  MEMB      16              0.0000000000
      1778        16  SOPE      H12R           -5.5798698527       12.9215602762        6.8480244696  MEMB      16              0.0000000000
      1779        16  SOPE      H12S           -3.8401811833       12.4780482292        7.1694606888  MEMB      16              0.0000000000
      1780        16  SOPE      C213           -4.4140754756       14.5495171818        7.6981617720  MEMB      16              0.0000000000
      1781        16  SOPE      H13R           -3.6188913923       14.8299850479        8.4215849398  MEMB      16              0.0000000000
      1782        16  SOPE      H13S           -5.3555503788       15.0537232159        8.0043033004  MEMB      16              0.0000000000
      1783        16  SOPE      C214           -4.0877762063       15.1960456570        6.3390227666  MEMB      16              0.0000000000
      1784        16  SOPE      H14R           -4.1200065270       16.2978725553        6.4778020755  MEMB      16              0.0000000000
      1785        16  SOPE      H14S           -4.8685717003       14.9757320078        5.5799827861  MEMB      16              0.0000000000
      1786        16  SOPE      C215           -2.8068977493       14.6881270131        5.7511472206  MEMB      16              0.0000000000
      1787        16  SOPE      H15R           -2.8726193040       13.6047318599        5.5139632083  MEMB      16              0.0000000000
      1788        16  SOPE      H15S           -2.1608900929       14.8061764313        6.6472831350  MEMB      16              0.0000000000
      1789        16  SOPE      C216           -2.0214299673       15.4550757459        4.6571861411  MEMB      16              0.0000000000
      1790        16  SOPE      H16R           -0.9333783258       15.2326934481        4.6253997514  MEMB      16              0.0000000000
      1791        16  SOPE      H16S           -2.0762116449       16.5252143221        4.9506550427  MEMB      16              0.0000000000
      1792        16  SOPE      C217           -2.5184024522       15.1901289987        3.1969641855  MEMB      16              0.0000000000
      1793        16  SOPE      H17R           -3.5933705163       15.4654247764        3.1424048858  MEMB      16              0.0000000000
      1794        16  SOPE      H17S           -2.6069466221       14.0832696291        3.1603265005  MEMB      16              0.0000000000
      1795        16  SOPE      C218           -1.6085476578       15.6363806860        1.9926765901  MEMB      16              0.0000000000
      1796        16  SOPE      H18R           -1.2794522773       16.6935992662        2.0838135445  MEMB      16              0.0000000000
      1797        16  SOPE      H18S           -2.1201298450       15.5294288688        1.0122847685  MEMB      16              0.0000000000
      1798        16  SOPE      H18T           -0.6938718829       15.0114613099        1.9080288844  MEMB      16              0.0000000000
      1799        16  SOPE      C33            -0.3376166698       13.9164424537       12.0951690304  MEMB      16              0.0000000000
      1800        16  SOPE      H3X             0.6612176138       14.3971060912       12.1700924656  MEMB      16              0.0000000000
      1801        16  SOPE      H3Y            -1.1795749297       14.5439032947       11.7322362881  MEMB      16              0.0000000000
      1802        16  SOPE      C34            -0.1121938402       12.8348078227       11.0158048075  MEMB      16              0.0000000000
      1803        16  SOPE      H4X            -1.0122012488       12.1847085900       11.0567745773  MEMB      16              0.0000000000
      1804        16  SOPE      H4Y             0.6314439014       12.0834822779       11.3576140937  MEMB      16              0.0000000000
      1805        16  SOPE      C35             0.1661839089       13.4498810369        9.6237414946  MEMB      16              0.0000000000
      1806        16  SOPE      H5X             1.1103622580       14.0339291085        9.6654026081  MEMB      16              0.0000000000
      1807        16  SOPE      H5Y            -0.6231757367       14.1910460092        9.3749300168  MEMB      16              0.0000000000
      1808        16  SOPE      C36             0.2873047387       12.3182811117        8.6112658539  MEMB      16              0.0000000000
      1809        16  SOPE      H6X            -0.6768783949       11.7663128164        8.6129270644  MEMB      16              0.0000000000
      1810        16  SOPE      H6Y             1.0384191981       11.6288256001        9.0526264151  MEMB      16              0.0000000000
      1811        16  SOPE      C37             0.5487955460       12.8574399828        7.1550775050  MEMB      16              0.0000000000
      1812        16  SOPE      H7X             1.4181444802       13.5279561378        7.3252581989  MEMB      16              0.0000000000
      1813        16  SOPE      H7Y            -0.1993913215       13.6508568870        6.9428816610  MEMB      16              0.0000000000
      1814        16  SOPE      C38             0.7898921317       11.7969161527        6.0956992923  MEMB      16              0.0000000000
      1815        16  SOPE      H8X             1.6358027990       11.2719364174        6.5888038474  MEMB      16              0.0000000000
      1816        16  SOPE      H8Y             1.2574192453       12.4257818419        5.3081292028  MEMB      16              0.0000000000
      1817        16  SOPE      C39            -0.5257674916       10.9683804074        5.8437628576  MEMB      16              0.0000000000
      1818        16  SOPE      H9X            -1.2415480574       11.7854824608        5.6106890258  MEMB      16              0.0000000000
      1819        16  SOPE      H9Y            -0.5870633244       10.3684108578        6.7768226618  MEMB      16              0.0000000000
      1820        16  SOPE      C310           -0.5615090268        9.9864138753        4.7188844034  MEMB      16              0.0000000000
      1821        16  SOPE      H10X           -1.6126089009        9.7337613305        4.4626095535  MEMB      16              0.0000000000
      1822        16  SOPE      H10Y            0.0769512535        9.1027713760        4.9330469098  MEMB      16              0.0000000000
      1823        16  SOPE      C311            0.0237292719       10.5091015692        3.3956204095  MEMB      16              0.0000000000
      1824        16  SOPE      H11X            1.0468736235       10.8829167740        3.6141578180  MEMB      16              0.0000000000
      1825        16  SOPE      H11Y           -0.5503299016       11.3556894516        2.9619538812  MEMB      16              0.0000000000
      1826        16  SOPE      C312            0.2054707698        9.3894480904        2.3740924355  MEMB      16              0.0000000000
      1827        16  SOPE      H12X            0.5906497977        8.4700451680        2.8646595488  MEMB      16              0.0000000000
      1828        16  SOPE      H12Y            0.8846479398        9.6168608665        1.5247847339  MEMB      16              0.0000000000
      1829        16  SOPE      C313           -1.1352624745        8.9052390915        1.7217587089  MEMB      16              0.0000000000
      1830        16  SOPE      H13X           -1.5801284374        8.2810340397        2.5259869727  MEMB      16              0.0000000000
      1831        16  SOPE      H13Y           -0.8264754176        8.1353128982        0.9827153878  MEMB      16              0.0000000000
      1832        16  SOPE      C314           -1.9588417631        9.9919226853        1.1224630731  MEMB      16              0.0000000000
      1833        16  SOPE      H14X           -1.4817732929       10.6181901686        0.3385524481  MEMB      16              0.0000000000
      1834        16  SOPE      H14Y           -2.2463524293       10.6376442551        1.9796107791  MEMB      16              0.0000000000
      1835        16  SOPE      C315           -3.1709517222        9.4360302502        0.3670004531  MEMB      16              0.0000000000
      1836        16  SOPE      H15X           -3.8337187099       10.2872542978        0.1015221435  MEMB      16              0.0000000000
      1837        16  SOPE      H15Y           -3.7515097778        8.8606721794        1.1194866147  MEMB      16              0.0000000000
      1838        16  SOPE      C316           -2.8054325629        8.6787357183       -0.9285851939  MEMB      16              0.0000000000
      1839        16  SOPE      H16X           -2.2984311062        7.7294730316       -0.6525947385  MEMB      16              0.0000000000
      1840        16  SOPE      H16Y           -2.0623665775        9.2708588086       -1.5044023755  MEMB      16              0.0000000000
      1841        16  SOPE      C317           -4.0362751570        8.1339482049       -1.7499135103  MEMB      16              0.0000000000
      1842        16  SOPE      H17X           -3.5818187123        7.7797355102       -2.6998201606  MEMB      16              0.0000000000
      1843        16  SOPE      H17Y           -4.7720849166        8.8862811399       -2.1061438435  MEMB      16              0.0000000000
      1844        16  SOPE      C318           -4.7638827064        6.8916511703       -1.1540616082  MEMB      16              0.0000000000
      1845        16  SOPE      H18X           -4.8946881261        7.1432828825       -0.0798666420  MEMB      16              0.0000000000
      1846        16  SOPE      H18Y           -4.0873115776        6.0114704814       -1.1109983464  MEMB      16              0.0000000000
      1847        16  SOPE      H18Z           -5.7362731890        6.6556382460       -1.6368395573  MEMB      16              0.0000000000
      1848        17  SAPE      N             -17.0155482543        1.5102301490       20.2883082395  MEMB      17              0.0000000000
      1849        17  SAPE      HN1           -16.0423766754        1.8625014675       20.3904942864  MEMB      17              0.0000000000
      1850        17  SAPE      HN2           -17.6194366265        2.3520195561       20.1971534064  MEMB      17              0.0000000000
      1851        17  SAPE      HN3           -17.2715190781        0.8072556837       21.0107387922  MEMB      17              0.0000000000
      1852        17  SAPE      C12           -17.0341292513        0.7041945828       18.9926647171  MEMB      17              0.0000000000
      1853        17  SAPE      H12A          -16.8456810937        1.4422650900       18.1839249228  MEMB      17              0.0000000000
      1854        17  SAPE      H12B          -18.1027709546        0.4695879064       18.7995690729  MEMB      17              0.0000000000
      1855        17  SAPE      C11           -16.1773161341       -0.5260963722       19.1179099760  MEMB      17              0.0000000000
      1856        17  SAPE      H11A          -15.1838865851       -0.1002026892       19.3748790847  MEMB      17              0.0000000000
      1857        17  SAPE      H11B          -15.9602509067       -1.0493656899       18.1621940709  MEMB      17              0.0000000000
      1858        17  SAPE      P             -15.9993249294       -2.7390827129       20.3480437775  MEMB      17              0.0000000000
      1859        17  SAPE      O13           -14.5245489001       -2.6992922147       20.0324207698  MEMB      17              0.0000000000
      1860        17  SAPE      O14           -16.3737295168       -3.1725509654       21.7383536102  MEMB      17              0.0000000000
      1861        17  SAPE      O12           -16.6751296093       -1.3774709202       20.1573140940  MEMB      17              0.0000000000
      1862        17  SAPE      O11           -16.7449470174       -3.5463718959       19.3249847980  MEMB      17              0.0000000000
      1863        17  SAPE      C1            -18.1940119887       -3.4901257163       19.1383528982  MEMB      17              0.0000000000
      1864        17  SAPE      HA            -18.6987279935       -3.7190910522       20.1012431113  MEMB      17              0.0000000000
      1865        17  SAPE      HB            -18.6179809931       -2.4953094986       18.8835750391  MEMB      17              0.0000000000
      1866        17  SAPE      C2            -18.7328591930       -4.5689373013       18.0810118742  MEMB      17              0.0000000000
      1867        17  SAPE      HS            -18.5445147992       -5.6395589415       18.3103953471  MEMB      17              0.0000000000
      1868        17  SAPE      O21           -18.2636559158       -4.4309709099       16.7118761841  MEMB      17              0.0000000000
      1869        17  SAPE      C21           -16.9924793692       -4.7745731543       16.4621926130  MEMB      17              0.0000000000
      1870        17  SAPE      O22           -16.2373003707       -5.3559977633       17.2123230899  MEMB      17              0.0000000000
      1871        17  SAPE      C22           -16.5069178734       -4.2028169464       15.0702206078  MEMB      17              0.0000000000
      1872        17  SAPE      H2R           -16.8122161513       -3.1455325661       14.9176959371  MEMB      17              0.0000000000
      1873        17  SAPE      H2S           -15.3992892304       -4.2577752613       15.1369978072  MEMB      17              0.0000000000
      1874        17  SAPE      C3            -20.2746425923       -4.4127762191       17.9254947425  MEMB      17              0.0000000000
      1875        17  SAPE      HX            -20.6971079888       -4.5422485956       18.9448479265  MEMB      17              0.0000000000
      1876        17  SAPE      HY            -20.5685715263       -5.2443267600       17.2498835048  MEMB      17              0.0000000000
      1877        17  SAPE      O31           -20.6003057479       -3.0694170283       17.4552024303  MEMB      17              0.0000000000
      1878        17  SAPE      C31           -20.9169911422       -2.9202187708       16.1662461638  MEMB      17              0.0000000000
      1879        17  SAPE      O32           -20.8661902679       -3.7999084328       15.3040816535  MEMB      17              0.0000000000
      1880        17  SAPE      C32           -21.4360080763       -1.5328091016       16.0075115292  MEMB      17              0.0000000000
      1881        17  SAPE      H2X           -20.7205757424       -0.7449822426       16.3265829523  MEMB      17              0.0000000000
      1882        17  SAPE      H2Y           -22.3593953585       -1.4268979186       16.6161655264  MEMB      17              0.0000000000
      1883        17  SAPE      C23           -17.2169617214       -5.0154379675       13.9689726106  MEMB      17              0.0000000000
      1884        17  SAPE      H3R           -18.2914164850       -5.0534373794       14.2490157497  MEMB      17              0.0000000000
      1885        17  SAPE      H3S           -16.9505995336       -6.0939793491       13.9579904985  MEMB      17              0.0000000000
      1886        17  SAPE      C24           -16.9063787105       -4.4990484762       12.5358636798  MEMB      17              0.0000000000
      1887        17  SAPE      H4R           -17.0022077971       -3.3922580524       12.5482257020  MEMB      17              0.0000000000
      1888        17  SAPE      H4S           -17.7580470586       -4.8014227533       11.8896819469  MEMB      17              0.0000000000
      1889        17  SAPE      C25           -15.5857731509       -5.0097740664       12.0240006586  MEMB      17              0.0000000000
      1890        17  SAPE      H5R           -14.7024575315       -4.9542517054       12.6772010440  MEMB      17              0.0000000000
      1891        17  SAPE      C26           -15.4037566681       -5.5424432258       10.8487827477  MEMB      17              0.0000000000
      1892        17  SAPE      H6R           -14.3828050728       -5.9303993609       10.7178323615  MEMB      17              0.0000000000
      1893        17  SAPE      C27           -16.3863799979       -5.7270239218        9.8083227090  MEMB      17              0.0000000000
      1894        17  SAPE      H7R           -15.9488675519       -5.7733385473        8.7881465996  MEMB      17              0.0000000000
      1895        17  SAPE      H7S           -17.0132363054       -4.8100427788        9.7855651085  MEMB      17              0.0000000000
      1896        17  SAPE      C28           -17.2210436438       -6.9944573856        9.9563445623  MEMB      17              0.0000000000
      1897        17  SAPE      H8R           -17.2572093509       -7.4477252545       10.9579633596  MEMB      17              0.0000000000
      1898        17  SAPE      C29           -17.9973665701       -7.6300411076        9.0134957352  MEMB      17              0.0000000000
      1899        17  SAPE      H9R           -18.6134005586       -8.4420931453        9.4271059487  MEMB      17              0.0000000000
      1900        17  SAPE      C210          -18.2885906506       -7.2518126448        7.6242617245  MEMB      17              0.0000000000
      1901        17  SAPE      H10R          -17.8217596276       -8.0265983821        6.9792065412  MEMB      17              0.0000000000
      1902        17  SAPE      H10S          -17.7738013840       -6.2887373546        7.4198137244  MEMB      17              0.0000000000
      1903        17  SAPE      C211          -19.7393146661       -7.3073038274        7.4177057828  MEMB      17              0.0000000000
      1904        17  SAPE      H11R          -20.1991960247       -8.0052074722        8.1328567109  MEMB      17              0.0000000000
      1905        17  SAPE      C212          -20.5128317179       -6.6818046841        6.4154887938  MEMB      17              0.0000000000
      1906        17  SAPE      H12R          -21.5984097979       -6.8276526622        6.5167243024  MEMB      17              0.0000000000
      1907        17  SAPE      C213          -19.9622833800       -5.6994904016        5.3434220284  MEMB      17              0.0000000000
      1908        17  SAPE      H13R          -19.7449094606       -6.3025337613        4.4360045019  MEMB      17              0.0000000000
      1909        17  SAPE      H13S          -19.0487125412       -5.1608005134        5.6743638000  MEMB      17              0.0000000000
      1910        17  SAPE      C214          -20.9144488201       -4.6021697178        4.9760682956  MEMB      17              0.0000000000
      1911        17  SAPE      H14R          -21.9733014619       -4.8829326095        5.0760857375  MEMB      17              0.0000000000
      1912        17  SAPE      C215          -20.6077351503       -3.2696402647        4.5349936134  MEMB      17              0.0000000000
      1913        17  SAPE      H15R          -21.3312944139       -2.5156359528        4.1915704690  MEMB      17              0.0000000000
      1914        17  SAPE      C216          -19.2815069725       -2.6581521093        4.3137448807  MEMB      17              0.0000000000
      1915        17  SAPE      H16R          -18.6065913361       -3.3863156728        3.8151587471  MEMB      17              0.0000000000
      1916        17  SAPE      H16S          -18.6948605337       -2.3600831404        5.2089106370  MEMB      17              0.0000000000
      1917        17  SAPE      C217          -19.2921582626       -1.3392700089        3.4737351103  MEMB      17              0.0000000000
      1918        17  SAPE      H17R          -18.2036815129       -1.1319705109        3.3927018804  MEMB      17              0.0000000000
      1919        17  SAPE      H17S          -19.6708476294       -0.4125003664        3.9554130216  MEMB      17              0.0000000000
      1920        17  SAPE      C218          -19.9109506107       -1.3841008551        2.0988157021  MEMB      17              0.0000000000
      1921        17  SAPE      H18R          -20.8960216480       -1.8921980513        2.1749300445  MEMB      17              0.0000000000
      1922        17  SAPE      H18S          -19.1205969808       -1.9434761512        1.5540575880  MEMB      17              0.0000000000
      1923        17  SAPE      C219          -20.1268799265        0.0140174563        1.4571523667  MEMB      17              0.0000000000
      1924        17  SAPE      H19R          -20.6230769162        0.5894048339        2.2677315116  MEMB      17              0.0000000000
      1925        17  SAPE      H19S          -20.7144814932       -0.1855750925        0.5356286701  MEMB      17              0.0000000000
      1926        17  SAPE      C220          -18.8626766297        0.7908059096        1.1239671793  MEMB      17              0.0000000000
      1927        17  SAPE      H20R          -18.3448737091        1.1864052048        2.0238017658  MEMB      17              0.0000000000
      1928        17  SAPE      H20S          -19.1999487638        1.5212568153        0.3578008327  MEMB      17              0.0000000000
      1929        17  SAPE      H20T          -18.1024763382        0.0923090347        0.7134576427  MEMB      17              0.0000000000
      1930        17  SAPE      C33           -21.8306209962       -1.1169938717       14.5711858847  MEMB      17              0.0000000000
      1931        17  SAPE      H3X           -22.6698739160       -0.3890914365       14.5827413622  MEMB      17              0.0000000000
      1932        17  SAPE      H3Y           -22.1721951177       -2.0037030493       13.9955167615  MEMB      17              0.0000000000
      1933        17  SAPE      C34           -20.6047629646       -0.5871572295       13.6765445442  MEMB      17              0.0000000000
      1934        17  SAPE      H4X           -19.7655606843       -1.2568370785       13.9621829163  MEMB      17              0.0000000000
      1935        17  SAPE      H4Y           -20.2445133750        0.3672629794       14.1165709474  MEMB      17              0.0000000000
      1936        17  SAPE      C35           -20.9781988646       -0.3618524751       12.2155513179  MEMB      17              0.0000000000
      1937        17  SAPE      H5X           -20.3083088744        0.2914389691       11.6165699964  MEMB      17              0.0000000000
      1938        17  SAPE      H5Y           -21.8783529567        0.2893154305       12.2106548357  MEMB      17              0.0000000000
      1939        17  SAPE      C36           -21.0012395125       -1.6724443189       11.3097576187  MEMB      17              0.0000000000
      1940        17  SAPE      H6X           -21.5174793628       -1.3558330365       10.3783210306  MEMB      17              0.0000000000
      1941        17  SAPE      H6Y           -21.8065630924       -2.2160175927       11.8485552980  MEMB      17              0.0000000000
      1942        17  SAPE      C37           -19.7720374075       -2.5368760217       11.2057844958  MEMB      17              0.0000000000
      1943        17  SAPE      H7X           -20.0753350995       -3.3669568475       10.5325114079  MEMB      17              0.0000000000
      1944        17  SAPE      H7Y           -19.4744677389       -2.9496105265       12.1934199989  MEMB      17              0.0000000000
      1945        17  SAPE      C38           -18.4860060505       -1.8006663167       10.6863687241  MEMB      17              0.0000000000
      1946        17  SAPE      H8X           -17.6984504810       -2.5555466702       10.4760529842  MEMB      17              0.0000000000
      1947        17  SAPE      H8Y           -18.0040720833       -1.1027614731       11.4039961212  MEMB      17              0.0000000000
      1948        17  SAPE      C39           -18.7421708493       -1.0608569293        9.3806587868  MEMB      17              0.0000000000
      1949        17  SAPE      H9X           -19.0459097279       -0.0001185332        9.5106500163  MEMB      17              0.0000000000
      1950        17  SAPE      H9Y           -19.6766179458       -1.4755010447        8.9456875365  MEMB      17              0.0000000000
      1951        17  SAPE      C310          -17.5990108462       -1.0277448512        8.3754373069  MEMB      17              0.0000000000
      1952        17  SAPE      H10X          -16.6774769067       -0.5683882300        8.7926751915  MEMB      17              0.0000000000
      1953        17  SAPE      H10Y          -17.8009607362       -0.4305848053        7.4605952908  MEMB      17              0.0000000000
      1954        17  SAPE      C311          -17.0607619020       -2.3799716006        7.7369964979  MEMB      17              0.0000000000
      1955        17  SAPE      H11X          -17.9619932415       -2.8456880748        7.2839935359  MEMB      17              0.0000000000
      1956        17  SAPE      H11Y          -16.6246834873       -2.8993122929        8.6170202068  MEMB      17              0.0000000000
      1957        17  SAPE      C312          -15.8259561840       -2.1829244719        6.8579008757  MEMB      17              0.0000000000
      1958        17  SAPE      H12X          -15.1666375197       -1.5752091495        7.5138749371  MEMB      17              0.0000000000
      1959        17  SAPE      H12Y          -15.9754547597       -1.7366239772        5.8515279060  MEMB      17              0.0000000000
      1960        17  SAPE      C313          -15.0883964382       -3.5010846119        6.4776373090  MEMB      17              0.0000000000
      1961        17  SAPE      H13X          -15.9291430045       -4.1775066226        6.2132147661  MEMB      17              0.0000000000
      1962        17  SAPE      H13Y          -14.6263644641       -4.0343477561        7.3358201326  MEMB      17              0.0000000000
      1963        17  SAPE      C314          -14.1323845247       -3.3075399938        5.3007398896  MEMB      17              0.0000000000
      1964        17  SAPE      H14X          -13.4989350386       -4.2061731374        5.1409852441  MEMB      17              0.0000000000
      1965        17  SAPE      H14Y          -13.4458709097       -2.4870325130        5.6003853824  MEMB      17              0.0000000000
      1966        17  SAPE      C315          -14.7750318498       -2.9102824005        4.0217944130  MEMB      17              0.0000000000
      1967        17  SAPE      H15X          -13.9106273005       -2.7514291188        3.3421682313  MEMB      17              0.0000000000
      1968        17  SAPE      H15Y          -15.3485659985       -1.9609851632        4.0867111995  MEMB      17              0.0000000000
      1969        17  SAPE      C316          -15.5704790116       -3.9626346866        3.2481570721  MEMB      17              0.0000000000
      1970        17  SAPE      H16X          -15.8173899871       -3.5593255215        2.2428227291  MEMB      17              0.0000000000
      1971        17  SAPE      H16Y          -16.5041959959       -4.1662009887        3.8147735246  MEMB      17              0.0000000000
      1972        17  SAPE      C317          -14.7485423414       -5.2826048753        3.0272390708  MEMB      17              0.0000000000
      1973        17  SAPE      H17X          -14.8434675474       -5.8796879428        3.9593341515  MEMB      17              0.0000000000
      1974        17  SAPE      H17Y          -13.6981511346       -5.0111088869        2.7878879403  MEMB      17              0.0000000000
      1975        17  SAPE      C318          -15.2541652805       -6.0787856337        1.8598746646  MEMB      17              0.0000000000
      1976        17  SAPE      H18X          -14.7438564777       -7.0655618632        1.8732413561  MEMB      17              0.0000000000
      1977        17  SAPE      H18Y          -14.9123524541       -5.5777959566        0.9290183297  MEMB      17              0.0000000000
      1978        17  SAPE      H18Z          -16.3539430112       -6.1629627436        1.9930051987  MEMB      17              0.0000000000
      1979        18  CHL1      C3              4.0678553773       16.0875448427       17.3169100000  MEMB      18              0.0000000000
      1980        18  CHL1      H3              4.5408219301       15.0879649087       17.2098300000  MEMB      18              0.0000000000
      1981        18  CHL1      O3              3.8408247227       16.4641303573       18.6830900000  MEMB      18              0.0000000000
      1982        18  CHL1      H3'             3.0907456077       15.9060488479       18.9010900000  MEMB      18              0.0000000000
      1983        18  CHL1      C4              4.8717235388       17.1487732812       16.5528700000  MEMB      18              0.0000000000
      1984        18  CHL1      H4A             4.4081713162       18.1584389667       16.5503100000  MEMB      18              0.0000000000
      1985        18  CHL1      H4B             5.8023607383       17.2738285962       17.1466700000  MEMB      18              0.0000000000
      1986        18  CHL1      C5              5.0126938628       16.7235153379       15.1045600000  MEMB      18              0.0000000000
      1987        18  CHL1      C6              6.2175658118       16.5216533316       14.5265300000  MEMB      18              0.0000000000
      1988        18  CHL1      H6              7.1093291391       16.5094614308       15.1704200000  MEMB      18              0.0000000000
      1989        18  CHL1      C7              6.3689296804       16.3356720065       13.0698400000  MEMB      18              0.0000000000
      1990        18  CHL1      H7A             7.3561494789       16.7062498786       12.7199900000  MEMB      18              0.0000000000
      1991        18  CHL1      H7B             6.5496050904       15.2666793531       12.8271000000  MEMB      18              0.0000000000
      1992        18  CHL1      C8              5.1972002085       16.7052674093       12.3220600000  MEMB      18              0.0000000000
      1993        18  CHL1      H8              5.1020464987       17.8121781956       12.3185800000  MEMB      18              0.0000000000
      1994        18  CHL1      C14             5.3591219585       16.4062465582       10.8365500000  MEMB      18              0.0000000000
      1995        18  CHL1      H14             5.4115243336       15.3003940158       10.7434600000  MEMB      18              0.0000000000
      1996        18  CHL1      C15             6.4611949159       17.2094415913       10.0665100000  MEMB      18              0.0000000000
      1997        18  CHL1      H15A            6.6251923070       18.2487553477       10.4232300000  MEMB      18              0.0000000000
      1998        18  CHL1      H15B            7.3598471445       16.5616122650       10.1505400000  MEMB      18              0.0000000000
      1999        18  CHL1      C16             6.0335949475       17.1679058197        8.5988400000  MEMB      18              0.0000000000
      2000        18  CHL1      H16A            6.0155476337       18.2223806252        8.2494500000  MEMB      18              0.0000000000
      2001        18  CHL1      H16B            6.7620427801       16.5580992022        8.0227900000  MEMB      18              0.0000000000
      2002        18  CHL1      C17             4.6291820176       16.4910085582        8.4944300000  MEMB      18              0.0000000000
      2003        18  CHL1      H17             4.7820532008       15.3919767924        8.5500000000  MEMB      18              0.0000000000
      2004        18  CHL1      C13             4.1475286359       16.6833318756        9.9724600000  MEMB      18              0.0000000000
      2005        18  CHL1      C18             3.6475328500       18.1495521064       10.0875500000  MEMB      18              0.0000000000
      2006        18  CHL1      H18A            3.4765554832       18.3598436821       11.1649900000  MEMB      18              0.0000000000
      2007        18  CHL1      H18B            4.4395879846       18.8027014626        9.6628500000  MEMB      18              0.0000000000
      2008        18  CHL1      H18C            2.6545073025       18.3142050277        9.6173300000  MEMB      18              0.0000000000
      2009        18  CHL1      C12             3.0532894562       15.7530117438       10.4349600000  MEMB      18              0.0000000000
      2010        18  CHL1      H12A            2.0659510468       15.9269136143        9.9561800000  MEMB      18              0.0000000000
      2011        18  CHL1      H12B            3.3784600221       14.6998634306       10.2954600000  MEMB      18              0.0000000000
      2012        18  CHL1      C11             2.7478080335       15.9456251530       11.9423500000  MEMB      18              0.0000000000
      2013        18  CHL1      H11A            2.0734090733       16.8235712378       12.0357500000  MEMB      18              0.0000000000
      2014        18  CHL1      H11B            2.0660345904       15.1198741771       12.2383800000  MEMB      18              0.0000000000
      2015        18  CHL1      C9              3.9429666820       16.0225385445       12.8461200000  MEMB      18              0.0000000000
      2016        18  CHL1      H9              4.1993013335       14.9572565232       13.0298800000  MEMB      18              0.0000000000
      2017        18  CHL1      C10             3.7360453187       16.6631096691       14.2510600000  MEMB      18              0.0000000000
      2018        18  CHL1      C19             2.9139007179       17.9781668016       14.2105600000  MEMB      18              0.0000000000
      2019        18  CHL1      H19A            3.1784544458       18.6143214956       15.0821400000  MEMB      18              0.0000000000
      2020        18  CHL1      H19B            3.1017003368       18.5813207753       13.2966400000  MEMB      18              0.0000000000
      2021        18  CHL1      H19C            1.8178440745       17.8080129812       14.2739500000  MEMB      18              0.0000000000
      2022        18  CHL1      C1              2.9594306118       15.6197528761       15.1082900000  MEMB      18              0.0000000000
      2023        18  CHL1      H1A             1.9640925491       15.5075135513       14.6276500000  MEMB      18              0.0000000000
      2024        18  CHL1      H1B             3.4575745200       14.6316630587       15.0089700000  MEMB      18              0.0000000000
      2025        18  CHL1      C2              2.7127789881       15.8691099436       16.6184700000  MEMB      18              0.0000000000
      2026        18  CHL1      H2A             2.2637870607       15.0362358426       17.2007500000  MEMB      18              0.0000000000
      2027        18  CHL1      H2B             2.0876663869       16.7722300311       16.7855600000  MEMB      18              0.0000000000
      2028        18  CHL1      C20             3.8669061501       16.8554155465        7.1715000000  MEMB      18              0.0000000000
      2029        18  CHL1      H20             3.7061891702       17.9517415270        7.2525500000  MEMB      18              0.0000000000
      2030        18  CHL1      C21             2.4936998731       16.2951349447        7.1175400000  MEMB      18              0.0000000000
      2031        18  CHL1      H21A            1.7604344771       17.0724746324        7.4215000000  MEMB      18              0.0000000000
      2032        18  CHL1      H21B            2.2191329689       15.3526071444        7.6377000000  MEMB      18              0.0000000000
      2033        18  CHL1      H21C            2.3473179403       16.1194021875        6.0303400000  MEMB      18              0.0000000000
      2034        18  CHL1      C22             4.6909432350       16.5546371629        5.9054900000  MEMB      18              0.0000000000
      2035        18  CHL1      H22A            4.0817641299       16.9395782000        5.0598900000  MEMB      18              0.0000000000
      2036        18  CHL1      H22B            5.5325318170       17.2710089928        6.0189600000  MEMB      18              0.0000000000
      2037        18  CHL1      C23             5.0675327214       15.1034050526        5.6154000000  MEMB      18              0.0000000000
      2038        18  CHL1      H23A            5.8253302304       14.9121608005        6.4050200000  MEMB      18              0.0000000000
      2039        18  CHL1      H23B            4.1003625235       14.5711807685        5.7403900000  MEMB      18              0.0000000000
      2040        18  CHL1      C24             5.6037415860       14.7568078453        4.1678400000  MEMB      18              0.0000000000
      2041        18  CHL1      H24A            6.5438432991       15.3331440284        4.0323300000  MEMB      18              0.0000000000
      2042        18  CHL1      H24B            5.6420114965       13.6744615817        3.9200700000  MEMB      18              0.0000000000
      2043        18  CHL1      C25             4.7043691677       15.4243251941        3.0135900000  MEMB      18              0.0000000000
      2044        18  CHL1      H25             4.5592387018       16.5053166912        3.2250600000  MEMB      18              0.0000000000
      2045        18  CHL1      C26             5.4377801850       15.4268337689        1.6315400000  MEMB      18              0.0000000000
      2046        18  CHL1      H26A            5.8137229257       14.3894466984        1.5018900000  MEMB      18              0.0000000000
      2047        18  CHL1      H26B            4.7562789661       15.7274282776        0.8072100000  MEMB      18              0.0000000000
      2048        18  CHL1      H26C            6.2679489184       16.1638614541        1.6754200000  MEMB      18              0.0000000000
      2049        18  CHL1      C27             3.4043175637       14.7490924601        2.7243400000  MEMB      18              0.0000000000
      2050        18  CHL1      H27A            3.1331021244       14.9359487095        1.6632800000  MEMB      18              0.0000000000
      2051        18  CHL1      H27B            3.4320422595       13.6410999307        2.8011500000  MEMB      18              0.0000000000
      2052        18  CHL1      H27C            2.6334807254       15.1623457243        3.4094300000  MEMB      18              0.0000000000
      2053        19  OSM       N             -13.4766597391       12.7915321930       21.2281967254  MEMB      19              0.0000000000
      2054        19  OSM       C15           -14.7140181041       12.6219870620       20.3286814058  MEMB      19              0.0000000000
      2055        19  OSM       H15A          -14.4329427715       13.0336567199       19.3705975484  MEMB      19              0.0000000000
      2056        19  OSM       H15B          -15.4946134926       13.2028131543       20.7974155887  MEMB      19              0.0000000000
      2057        19  OSM       H15C          -15.0277294249       11.5935195493       20.2274904980  MEMB      19              0.0000000000
      2058        19  OSM       C14           -13.8278813549       12.2790254117       22.6084747188  MEMB      19              0.0000000000
      2059        19  OSM       H14A          -14.3717556953       11.3464957710       22.5770241265  MEMB      19              0.0000000000
      2060        19  OSM       H14B          -14.5641606233       12.9943124378       22.9441191537  MEMB      19              0.0000000000
      2061        19  OSM       H14C          -13.0543685684       12.1637727057       23.3533201673  MEMB      19              0.0000000000
      2062        19  OSM       C13           -12.2995900708       12.1132067119       20.6300089449  MEMB      19              0.0000000000
      2063        19  OSM       H13A          -12.4563265598       11.0641960084       20.4265136787  MEMB      19              0.0000000000
      2064        19  OSM       H13B          -11.4567938244       12.2305556514       21.2950832280  MEMB      19              0.0000000000
      2065        19  OSM       H13C          -11.9301046350       12.5743055940       19.7259800160  MEMB      19              0.0000000000
      2066        19  OSM       C12           -13.1157494015       14.2776577121       21.1749005140  MEMB      19              0.0000000000
      2067        19  OSM       H12A          -13.9251581619       14.8669963089       21.5797925460  MEMB      19              0.0000000000
      2068        19  OSM       H12B          -13.0715863749       14.5442158501       20.1292445314  MEMB      19              0.0000000000
      2069        19  OSM       C11           -11.9877025491       14.8137385177       21.9999370963  MEMB      19              0.0000000000
      2070        19  OSM       H11A          -12.2433819567       14.6462606457       23.0680664180  MEMB      19              0.0000000000
      2071        19  OSM       H11B          -11.9027186884       15.9063046112       21.8171856219  MEMB      19              0.0000000000
      2072        19  OSM       P              -9.7367826788       14.8250760443       20.6423788609  MEMB      19              0.0000000000
      2073        19  OSM       O13            -9.4621283166       16.3167051143       20.8334551332  MEMB      19              0.0000000000
      2074        19  OSM       O14            -8.5076610245       14.0004758705       20.4463660719  MEMB      19              0.0000000000
      2075        19  OSM       O11           -10.7184941930       14.6930754373       19.3296876131  MEMB      19              0.0000000000
      2076        19  OSM       O12           -10.7222719678       14.1904450209       21.7779129151  MEMB      19              0.0000000000
      2077        19  OSM       C1S           -10.4182892714       15.6293647120       18.2019109862  MEMB      19              0.0000000000
      2078        19  OSM       H1S            -9.3289329183       15.6721663551       17.9879211242  MEMB      19              0.0000000000
      2079        19  OSM       H1T           -10.8345691781       16.6368071923       18.4166002135  MEMB      19              0.0000000000
      2080        19  OSM       NF            -10.3521477261       15.4315717522       15.7554813014  MEMB      19              0.0000000000
      2081        19  OSM       HNF           -10.6438018505       16.1126206012       15.0883086779  MEMB      19              0.0000000000
      2082        19  OSM       C2S           -11.0929835381       15.0383226171       16.9244243187  MEMB      19              0.0000000000
      2083        19  OSM       H2S           -11.0981678603       13.9363831720       17.0659293008  MEMB      19              0.0000000000
      2084        19  OSM       C3S           -12.5561842340       15.4853880076       16.8527357784  MEMB      19              0.0000000000
      2085        19  OSM       H3S           -12.6082151569       16.5951638421       16.8561232439  MEMB      19              0.0000000000
      2086        19  OSM       O3            -13.2747367572       15.0484214105       18.0388619308  MEMB      19              0.0000000000
      2087        19  OSM       HO3           -12.5722543849       14.7538559272       18.6231134151  MEMB      19              0.0000000000
      2088        19  OSM       C4S           -13.2032264705       14.9129740025       15.6281703311  MEMB      19              0.0000000000
      2089        19  OSM       H4S           -13.4042045382       13.8323766918       15.5843835961  MEMB      19              0.0000000000
      2090        19  OSM       C5S           -13.3891682238       15.6509839558       14.5393825136  MEMB      19              0.0000000000
      2091        19  OSM       H5S           -13.0456657455       16.6940564550       14.4760906702  MEMB      19              0.0000000000
      2092        19  OSM       C6S           -13.9575375210       15.1812755787       13.2085356931  MEMB      19              0.0000000000
      2093        19  OSM       H6S           -13.2262214524       15.4517340508       12.4171131681  MEMB      19              0.0000000000
      2094        19  OSM       H6T           -14.7648286008       15.9139709362       12.9946200137  MEMB      19              0.0000000000
      2095        19  OSM       C7S           -14.5313287061       13.8224451825       12.9422880488  MEMB      19              0.0000000000
      2096        19  OSM       H7S           -15.4342218285       13.7901994851       13.5888673790  MEMB      19              0.0000000000
      2097        19  OSM       H7T           -13.8630279906       13.0370027405       13.3555372160  MEMB      19              0.0000000000
      2098        19  OSM       C8S           -15.1640516425       13.7048384508       11.5539365100  MEMB      19              0.0000000000
      2099        19  OSM       H8S           -15.7657451403       14.6273271894       11.4079899850  MEMB      19              0.0000000000
      2100        19  OSM       H8T           -15.8446893940       12.8330833326       11.4485978203  MEMB      19              0.0000000000
      2101        19  OSM       C9S           -14.1750185269       13.4009807899       10.4736923240  MEMB      19              0.0000000000
      2102        19  OSM       H9S           -13.6506235584       12.4656243669       10.7642775705  MEMB      19              0.0000000000
      2103        19  OSM       H9T           -13.3467840567       14.1404787242       10.5123127451  MEMB      19              0.0000000000
      2104        19  OSM       C10S          -14.6133185664       13.3722622821        9.0097499690  MEMB      19              0.0000000000
      2105        19  OSM       H10S          -14.9687438403       14.3516245031        8.6239479683  MEMB      19              0.0000000000
      2106        19  OSM       H10T          -15.5404626442       12.7685119435        8.9087034322  MEMB      19              0.0000000000
      2107        19  OSM       C11S          -13.5572043585       12.8943159661        8.0583828535  MEMB      19              0.0000000000
      2108        19  OSM       H11S          -13.4639210370       11.8021899571        8.2397106457  MEMB      19              0.0000000000
      2109        19  OSM       H11T          -12.6069893853       13.3407969859        8.4217930983  MEMB      19              0.0000000000
      2110        19  OSM       C12S          -14.0546910465       13.2711957666        6.7032518084  MEMB      19              0.0000000000
      2111        19  OSM       H12S          -13.9659667285       14.3661382271        6.5372692811  MEMB      19              0.0000000000
      2112        19  OSM       H12T          -15.1295273865       13.0129417988        6.5921112642  MEMB      19              0.0000000000
      2113        19  OSM       C13S          -13.3813076307       12.5268616498        5.5539689508  MEMB      19              0.0000000000
      2114        19  OSM       H13S          -13.7222195797       11.4722107249        5.6302045486  MEMB      19              0.0000000000
      2115        19  OSM       H13T          -12.2716804563       12.5618394288        5.5966895847  MEMB      19              0.0000000000
      2116        19  OSM       C14S          -13.7231554724       13.0659312602        4.1653223237  MEMB      19              0.0000000000
      2117        19  OSM       H14S          -13.4412999834       14.1405840727        4.1654207511  MEMB      19              0.0000000000
      2118        19  OSM       H14T          -14.7953678373       13.0411980706        3.8753731108  MEMB      19              0.0000000000
      2119        19  OSM       C15S          -12.8833116443       12.4735479031        3.0186080865  MEMB      19              0.0000000000
      2120        19  OSM       H15S          -12.9930066247       11.3704696719        2.9444005984  MEMB      19              0.0000000000
      2121        19  OSM       H15T          -11.8591925937       12.7180208866        3.3731989293  MEMB      19              0.0000000000
      2122        19  OSM       C16S          -13.0519566366       13.0902049532        1.6308969385  MEMB      19              0.0000000000
      2123        19  OSM       H16S          -12.9921005578       14.1930484229        1.7512070573  MEMB      19              0.0000000000
      2124        19  OSM       H16T          -14.0206087000       12.7121249977        1.2396294183  MEMB      19              0.0000000000
      2125        19  OSM       C17S          -11.9632880000       12.6429394204        0.5739578713  MEMB      19              0.0000000000
      2126        19  OSM       H17S          -12.2230095167       11.6305602444        0.1971893229  MEMB      19              0.0000000000
      2127        19  OSM       H17T          -10.9585337622       12.6583803342        1.0478251066  MEMB      19              0.0000000000
      2128        19  OSM       C18S          -11.8983000101       13.5237291224       -0.6336474282  MEMB      19              0.0000000000
      2129        19  OSM       H18S          -11.0507015367       13.0872315856       -1.2040583558  MEMB      19              0.0000000000
      2130        19  OSM       H18T          -11.6168974614       14.5477467243       -0.3072715250  MEMB      19              0.0000000000
      2131        19  OSM       H18U          -12.8700886559       13.6302562835       -1.1614741874  MEMB      19              0.0000000000
      2132        19  OSM       C1F            -9.1748308563       14.8056115935       15.4472430942  MEMB      19              0.0000000000
      2133        19  OSM       OF             -8.7854153655       13.8515777518       16.0150572116  MEMB      19              0.0000000000
      2134        19  OSM       C2F            -8.3793080497       15.3412895367       14.2616099677  MEMB      19              0.0000000000
      2135        19  OSM       H2F            -8.9007582549       15.1845125786       13.2931928874  MEMB      19              0.0000000000
      2136        19  OSM       H2G            -7.3896467063       14.8371370793       14.2884763131  MEMB      19              0.0000000000
      2137        19  OSM       C3F            -7.9910570774       16.8832498585       14.4008199785  MEMB      19              0.0000000000
      2138        19  OSM       H3F            -7.3620671031       17.0368350058       15.3036512750  MEMB      19              0.0000000000
      2139        19  OSM       H3G            -8.8688751136       17.5641947950       14.3924312980  MEMB      19              0.0000000000
      2140        19  OSM       C4F            -7.0755924935       17.2397597693       13.1561226474  MEMB      19              0.0000000000
      2141        19  OSM       H4F            -6.0740518284       16.7601929063       13.1915084702  MEMB      19              0.0000000000
      2142        19  OSM       H4G            -7.0478158540       18.3502998380       13.1403099702  MEMB      19              0.0000000000
      2143        19  OSM       C5F            -7.6365965411       16.8168258918       11.7423248775  MEMB      19              0.0000000000
      2144        19  OSM       H5F            -7.5987980118       15.7211348642       11.5624540497  MEMB      19              0.0000000000
      2145        19  OSM       H5G            -6.9152556337       17.1781207565       10.9784832601  MEMB      19              0.0000000000
      2146        19  OSM       C6F            -9.0906989630       17.2486240646       11.3734143708  MEMB      19              0.0000000000
      2147        19  OSM       H6F            -9.8584100587       16.6603196868       11.9200754353  MEMB      19              0.0000000000
      2148        19  OSM       H6G            -9.3383819290       16.9786613433       10.3245605317  MEMB      19              0.0000000000
      2149        19  OSM       C7F            -9.2856348546       18.7533660596       11.6573678534  MEMB      19              0.0000000000
      2150        19  OSM       H7F            -8.4029699814       19.3350433165       11.3154976232  MEMB      19              0.0000000000
      2151        19  OSM       H7G            -9.1805530745       18.9586220727       12.7441743792  MEMB      19              0.0000000000
      2152        19  OSM       C8F           -10.6774400565       19.3475885491       11.1743939579  MEMB      19              0.0000000000
      2153        19  OSM       H8F           -11.1008264121       20.1016918902       11.8718131003  MEMB      19              0.0000000000
      2154        19  OSM       H8G           -11.2999778897       18.4282284911       11.2136935935  MEMB      19              0.0000000000
      2155        19  OSM       C9F           -10.6096794870       19.8989020564        9.7902354569  MEMB      19              0.0000000000
      2156        19  OSM       H9F            -9.9316929977       20.7519643262        9.6398399239  MEMB      19              0.0000000000
      2157        19  OSM       C10F          -11.3737248756       19.5389804807        8.7251161693  MEMB      19              0.0000000000
      2158        19  OSM       H10F          -11.3321269803       20.1654901646        7.8219238127  MEMB      19              0.0000000000
      2159        19  OSM       C11F          -12.4073911435       18.4677131494        8.6332513421  MEMB      19              0.0000000000
      2160        19  OSM       H11F          -13.3638766382       18.9497226717        8.3380851809  MEMB      19              0.0000000000
      2161        19  OSM       H11G          -12.6915855155       18.0982684753        9.6417474467  MEMB      19              0.0000000000
      2162        19  OSM       C12F          -12.1628741085       17.3382826880        7.6035775137  MEMB      19              0.0000000000
      2163        19  OSM       H12F          -12.1966610933       17.7476661214        6.5713056654  MEMB      19              0.0000000000
      2164        19  OSM       H12G          -12.9336666107       16.5398531714        7.5515183356  MEMB      19              0.0000000000
      2165        19  OSM       C13F          -10.7603325421       16.7668346169        7.6462952550  MEMB      19              0.0000000000
      2166        19  OSM       H13F          -10.4722759341       16.5804758977        8.7029948882  MEMB      19              0.0000000000
      2167        19  OSM       H13G          -10.0610598331       17.5111793688        7.2089290340  MEMB      19              0.0000000000
      2168        19  OSM       C14F          -10.5373519657       15.3818440846        6.9333271459  MEMB      19              0.0000000000
      2169        19  OSM       H14F          -11.3894050862       14.7189400689        7.1957859995  MEMB      19              0.0000000000
      2170        19  OSM       H14G           -9.5864416662       14.9121111463        7.2641468506  MEMB      19              0.0000000000
      2171        19  OSM       C15F          -10.5078884724       15.3768261948        5.4097613603  MEMB      19              0.0000000000
      2172        19  OSM       H15F          -11.3390303883       15.9628392939        4.9624216491  MEMB      19              0.0000000000
      2173        19  OSM       H15G          -10.5001981604       14.3186563291        5.0713259325  MEMB      19              0.0000000000
      2174        19  OSM       C16F           -9.2327134507       15.9458378982        4.8889437737  MEMB      19              0.0000000000
      2175        19  OSM       H16F           -8.3851755682       15.2634261022        5.1132528709  MEMB      19              0.0000000000
      2176        19  OSM       H16G           -9.0383631283       16.9150173781        5.3961313489  MEMB      19              0.0000000000
      2177        19  OSM       C17F           -9.2029091228       16.2403031404        3.4306762052  MEMB      19              0.0000000000
      2178        19  OSM       H17F           -8.2330506539       16.6318024673        3.0559451695  MEMB      19              0.0000000000
      2179        19  OSM       H17G           -9.8808096341       17.0972297814        3.2295587468  MEMB      19              0.0000000000
      2180        19  OSM       C18F           -9.6052883559       15.1115646964        2.4717613981  MEMB      19              0.0000000000
      2181        19  OSM       H18F           -9.3382895246       15.3237708994        1.4144053689  MEMB      19              0.0000000000
      2182        19  OSM       H18G          -10.6917220206       14.8959891229        2.5584207414  MEMB      19              0.0000000000
      2183        19  OSM       H18H           -9.2423191688       14.1136764288        2.7985526619  MEMB      19              0.0000000000
      2184        20  CHL1      C3             -0.7562876648      -19.4732328929       17.2822850000  MEMB      20              0.0000000000
      2185        20  CHL1      H3              0.2733104987      -19.2800607889       16.9122450000  MEMB      20              0.0000000000
      2186        20  CHL1      O3             -0.7988053812      -19.3750881071       18.7177150000  MEMB      20              0.0000000000
      2187        20  CHL1      H3'            -0.7271289983      -18.4509663522       18.9676550000  MEMB      20              0.0000000000
      2188        20  CHL1      C4             -1.6621344290      -18.4147347319       16.6810250000  MEMB      20              0.0000000000
      2189        20  CHL1      H4A            -2.6602527142      -18.5858998946       17.1379350000  MEMB      20              0.0000000000
      2190        20  CHL1      H4B            -1.4288674758      -17.3636768352       16.9552350000  MEMB      20              0.0000000000
      2191        20  CHL1      C5             -2.0008939228      -18.5738123352       15.2407950000  MEMB      20              0.0000000000
      2192        20  CHL1      C6             -1.9793929825      -17.4822078493       14.3857050000  MEMB      20              0.0000000000
      2193        20  CHL1      H6             -1.7032638184      -16.4736774882       14.7271850000  MEMB      20              0.0000000000
      2194        20  CHL1      C7             -2.3892028885      -17.5779850188       12.9783950000  MEMB      20              0.0000000000
      2195        20  CHL1      H7A            -3.0827248377      -16.7554252086       12.7013750000  MEMB      20              0.0000000000
      2196        20  CHL1      H7B            -1.4447733396      -17.4217962407       12.4144950000  MEMB      20              0.0000000000
      2197        20  CHL1      C8             -3.0035109264      -18.9484332094       12.5267950000  MEMB      20              0.0000000000
      2198        20  CHL1      H8             -4.0968140858      -18.9941338189       12.7189650000  MEMB      20              0.0000000000
      2199        20  CHL1      C14            -2.7572592550      -19.1991478393       10.9893350000  MEMB      20              0.0000000000
      2200        20  CHL1      H14            -1.6474269865      -19.1787422916       10.9426750000  MEMB      20              0.0000000000
      2201        20  CHL1      C15            -3.3658003768      -18.0891245548       10.0605550000  MEMB      20              0.0000000000
      2202        20  CHL1      H15A           -4.4351791602      -17.8741282560       10.2715950000  MEMB      20              0.0000000000
      2203        20  CHL1      H15B           -2.8011837110      -17.1401522859        9.9381350000  MEMB      20              0.0000000000
      2204        20  CHL1      C16            -3.3832144382      -18.8570425474        8.7252850000  MEMB      20              0.0000000000
      2205        20  CHL1      H16A           -4.4339085410      -18.8084462006        8.3674950000  MEMB      20              0.0000000000
      2206        20  CHL1      H16B           -2.7760138474      -18.3768918583        7.9283550000  MEMB      20              0.0000000000
      2207        20  CHL1      C17            -3.0232388074      -20.3631852787        9.0173350000  MEMB      20              0.0000000000
      2208        20  CHL1      H17            -1.9496055681      -20.4286919186        8.7392550000  MEMB      20              0.0000000000
      2209        20  CHL1      C13            -3.2400203964      -20.5678448819       10.5269450000  MEMB      20              0.0000000000
      2210        20  CHL1      C18            -4.7503749014      -20.8784457716       10.9341250000  MEMB      20              0.0000000000
      2211        20  CHL1      H18A           -5.4531609147      -20.1202346764       10.5272850000  MEMB      20              0.0000000000
      2212        20  CHL1      H18B           -5.0485218808      -21.9262277098       10.7159450000  MEMB      20              0.0000000000
      2213        20  CHL1      H18C           -4.8855150326      -20.7866274060       12.0330450000  MEMB      20              0.0000000000
      2214        20  CHL1      C12            -2.2146761549      -21.4593060831       11.1957250000  MEMB      20              0.0000000000
      2215        20  CHL1      H12A           -2.3807913902      -22.5029017300       10.8527450000  MEMB      20              0.0000000000
      2216        20  CHL1      H12B           -1.1771211181      -21.1218430321       10.9861450000  MEMB      20              0.0000000000
      2217        20  CHL1      C11            -2.3542168210      -21.5066663502       12.6655950000  MEMB      20              0.0000000000
      2218        20  CHL1      H11A           -3.2037786199      -22.1560429089       12.9670650000  MEMB      20              0.0000000000
      2219        20  CHL1      H11B           -1.4403668778      -22.0207143376       13.0329450000  MEMB      20              0.0000000000
      2220        20  CHL1      C9             -2.1912046202      -20.0750690979       13.2333150000  MEMB      20              0.0000000000
      2221        20  CHL1      H9             -1.1259368871      -19.8671211927       12.9960750000  MEMB      20              0.0000000000
      2222        20  CHL1      C10            -2.3004906935      -20.0250621446       14.7241050000  MEMB      20              0.0000000000
      2223        20  CHL1      C19            -3.7721419275      -20.4594812890       15.1818350000  MEMB      20              0.0000000000
      2224        20  CHL1      H19A           -4.4108061699      -19.7356383113       14.6318550000  MEMB      20              0.0000000000
      2225        20  CHL1      H19B           -4.0165709582      -21.4659545782       14.7798650000  MEMB      20              0.0000000000
      2226        20  CHL1      H19C           -3.8615464226      -20.4664200761       16.2892150000  MEMB      20              0.0000000000
      2227        20  CHL1      C1             -1.1919090259      -20.9670287809       15.3048250000  MEMB      20              0.0000000000
      2228        20  CHL1      H1A            -1.3528127027      -22.0454953994       15.0919350000  MEMB      20              0.0000000000
      2229        20  CHL1      H1B            -0.2158679686      -20.6109802081       14.9112450000  MEMB      20              0.0000000000
      2230        20  CHL1      C2             -1.1082322127      -20.8610820398       16.8463450000  MEMB      20              0.0000000000
      2231        20  CHL1      H2A            -0.1989065890      -21.4190146706       17.1564450000  MEMB      20              0.0000000000
      2232        20  CHL1      H2B            -2.0143739284      -21.2802289663       17.3337250000  MEMB      20              0.0000000000
      2233        20  CHL1      C20            -3.6295281999      -21.4049383622        8.0209450000  MEMB      20              0.0000000000
      2234        20  CHL1      H20            -4.7137256752      -21.4599096252        8.2571650000  MEMB      20              0.0000000000
      2235        20  CHL1      C21            -2.9914721726      -22.8405319084        8.1272150000  MEMB      20              0.0000000000
      2236        20  CHL1      H21A           -3.1078964715      -23.2676482363        9.1462050000  MEMB      20              0.0000000000
      2237        20  CHL1      H21B           -1.8867907126      -22.7256615463        8.0987650000  MEMB      20              0.0000000000
      2238        20  CHL1      H21C           -3.3500136368      -23.5279072808        7.3314150000  MEMB      20              0.0000000000
      2239        20  CHL1      C22            -3.5047247751      -20.7848338410        6.5530450000  MEMB      20              0.0000000000
      2240        20  CHL1      H22A           -4.1883798569      -19.9105645179        6.5021650000  MEMB      20              0.0000000000
      2241        20  CHL1      H22B           -2.4177065400      -20.6151823189        6.3983450000  MEMB      20              0.0000000000
      2242        20  CHL1      C23            -4.0988440882      -21.6549291127        5.4438550000  MEMB      20              0.0000000000
      2243        20  CHL1      H23A           -3.5426652134      -22.6126758488        5.5316750000  MEMB      20              0.0000000000
      2244        20  CHL1      H23B           -5.2031598694      -21.5951735272        5.5498350000  MEMB      20              0.0000000000
      2245        20  CHL1      C24            -3.8295614283      -21.1700471969        4.0565950000  MEMB      20              0.0000000000
      2246        20  CHL1      H24A           -4.4721030442      -20.2648440747        4.0112150000  MEMB      20              0.0000000000
      2247        20  CHL1      H24B           -2.7679609504      -20.9000618494        3.8710350000  MEMB      20              0.0000000000
      2248        20  CHL1      C25            -4.2247886496      -22.1526649499        2.9056950000  MEMB      20              0.0000000000
      2249        20  CHL1      H25            -5.1206784736      -22.6994348008        3.2700250000  MEMB      20              0.0000000000
      2250        20  CHL1      C26            -4.4936415155      -21.2633572426        1.6850950000  MEMB      20              0.0000000000
      2251        20  CHL1      H26A           -4.6967485228      -21.8551702834        0.7670450000  MEMB      20              0.0000000000
      2252        20  CHL1      H26B           -5.3855748011      -20.6016933986        1.7165350000  MEMB      20              0.0000000000
      2253        20  CHL1      H26C           -3.6076597532      -20.6332633825        1.4563250000  MEMB      20              0.0000000000
      2254        20  CHL1      C27            -3.1008479373      -23.1802038805        2.6605050000  MEMB      20              0.0000000000
      2255        20  CHL1      H27A           -3.3354809624      -23.7985033236        1.7677750000  MEMB      20              0.0000000000
      2256        20  CHL1      H27B           -2.1168010684      -22.6852368281        2.5156050000  MEMB      20              0.0000000000
      2257        20  CHL1      H27C           -2.9280850941      -23.8940069156        3.4941450000  MEMB      20              0.0000000000
      2258        21  CHL1      C3              8.5561965796      -18.8435138942       17.3048000000  MEMB      21              0.0000000000
      2259        21  CHL1      H3              7.9524746470      -17.9248952751       17.1436200000  MEMB      21              0.0000000000
      2260        21  CHL1      O3              8.5378004780      -19.1320835108       18.6952000000  MEMB      21              0.0000000000
      2261        21  CHL1      H3'             8.9765279076      -18.3810657835       19.1015300000  MEMB      21              0.0000000000
      2262        21  CHL1      C4              7.7652448445      -20.0330187391       16.6316900000  MEMB      21              0.0000000000
      2263        21  CHL1      H4A             8.1949491902      -20.9808460144       17.0206700000  MEMB      21              0.0000000000
      2264        21  CHL1      H4B             6.7557802452      -20.0303846983       17.0956900000  MEMB      21              0.0000000000
      2265        21  CHL1      C5              7.7448855884      -19.8692698289       15.1078000000  MEMB      21              0.0000000000
      2266        21  CHL1      C6              6.6367979392      -19.7672348801       14.4294200000  MEMB      21              0.0000000000
      2267        21  CHL1      H6              5.6557042958      -19.9135966763       14.9048700000  MEMB      21              0.0000000000
      2268        21  CHL1      C7              6.6357970239      -19.6672174247       12.9155400000  MEMB      21              0.0000000000
      2269        21  CHL1      H7A             5.7843602695      -20.2074148521       12.4491000000  MEMB      21              0.0000000000
      2270        21  CHL1      H7B             6.5087823135      -18.5940541465       12.6576400000  MEMB      21              0.0000000000
      2271        21  CHL1      C8              8.0103454076      -20.0989666007       12.3171100000  MEMB      21              0.0000000000
      2272        21  CHL1      H8              8.1396069267      -21.1709688230       12.5787000000  MEMB      21              0.0000000000
      2273        21  CHL1      C14             8.0328624026      -19.9908419082       10.7796500000  MEMB      21              0.0000000000
      2274        21  CHL1      H14             7.8719796577      -18.8966042868       10.6743100000  MEMB      21              0.0000000000
      2275        21  CHL1      C15             7.0755818802      -20.7176761660        9.9263100000  MEMB      21              0.0000000000
      2276        21  CHL1      H15A            6.9195480425      -21.8088366649       10.0653500000  MEMB      21              0.0000000000
      2277        21  CHL1      H15B            6.0986446306      -20.2064861400       10.0627000000  MEMB      21              0.0000000000
      2278        21  CHL1      C16             7.6663979063      -20.6757852003        8.4936500000  MEMB      21              0.0000000000
      2279        21  CHL1      H16A            7.5568857166      -21.7148752040        8.1160100000  MEMB      21              0.0000000000
      2280        21  CHL1      H16B            7.0123446638      -20.0190751220        7.8810600000  MEMB      21              0.0000000000
      2281        21  CHL1      C17             9.0836778424      -20.0768718631        8.5930100000  MEMB      21              0.0000000000
      2282        21  CHL1      H17             8.9162617947      -18.9953588814        8.4016800000  MEMB      21              0.0000000000
      2283        21  CHL1      C13             9.4075303745      -20.2141917380       10.1797800000  MEMB      21              0.0000000000
      2284        21  CHL1      C18             9.8548306514      -21.7040419630       10.4755300000  MEMB      21              0.0000000000
      2285        21  CHL1      H18A           10.9278308209      -21.9199678438       10.2848400000  MEMB      21              0.0000000000
      2286        21  CHL1      H18B            9.7010693212      -21.9756012341       11.5418000000  MEMB      21              0.0000000000
      2287        21  CHL1      H18C            9.4035602790      -22.5472794533        9.9101700000  MEMB      21              0.0000000000
      2288        21  CHL1      C12            10.4198313269      -19.2570536645       10.7627500000  MEMB      21              0.0000000000
      2289        21  CHL1      H12A           11.4232625194      -19.4660192628       10.3340400000  MEMB      21              0.0000000000
      2290        21  CHL1      H12B           10.1447866537      -18.2633560658       10.3489200000  MEMB      21              0.0000000000
      2291        21  CHL1      C11            10.4677956879      -19.4199161298       12.2794300000  MEMB      21              0.0000000000
      2292        21  CHL1      H11A           10.8863567562      -20.4305534581       12.4737100000  MEMB      21              0.0000000000
      2293        21  CHL1      H11B           11.2004407925      -18.6954458456       12.6950000000  MEMB      21              0.0000000000
      2294        21  CHL1      C9              9.1029443921      -19.2773435354       12.9450900000  MEMB      21              0.0000000000
      2295        21  CHL1      H9              8.6943972002      -18.2515435134       12.8220300000  MEMB      21              0.0000000000
      2296        21  CHL1      C10             9.1354935286      -19.6140341737       14.4713500000  MEMB      21              0.0000000000
      2297        21  CHL1      C19             9.8496010774      -20.9095708401       14.7904800000  MEMB      21              0.0000000000
      2298        21  CHL1      H19A            9.7921333628      -21.2688650073       15.8402100000  MEMB      21              0.0000000000
      2299        21  CHL1      H19B            9.4766642206      -21.7252482630       14.1348000000  MEMB      21              0.0000000000
      2300        21  CHL1      H19C           10.8865956327      -20.6733204854       14.4693300000  MEMB      21              0.0000000000
      2301        21  CHL1      C1              9.8792891235      -18.4948414226       15.3102900000  MEMB      21              0.0000000000
      2302        21  CHL1      H1A            10.9612082859      -18.3987810301       15.0767000000  MEMB      21              0.0000000000
      2303        21  CHL1      H1B             9.4092838001      -17.5070377080       15.1162300000  MEMB      21              0.0000000000
      2304        21  CHL1      C2              9.9817843804      -18.6869721469       16.8177900000  MEMB      21              0.0000000000
      2305        21  CHL1      H2A            10.4525667086      -17.7973626728       17.2882100000  MEMB      21              0.0000000000
      2306        21  CHL1      H2B            10.6342245582      -19.5049240214       17.1914100000  MEMB      21              0.0000000000
      2307        21  CHL1      C20            10.0726160312      -20.6116437095        7.5135600000  MEMB      21              0.0000000000
      2308        21  CHL1      H20            10.1920610345      -21.7058894481        7.6641600000  MEMB      21              0.0000000000
      2309        21  CHL1      C21            11.4587474153      -20.0965821123        7.6040900000  MEMB      21              0.0000000000
      2310        21  CHL1      H21A           11.8680354427      -20.4249613422        8.5833600000  MEMB      21              0.0000000000
      2311        21  CHL1      H21B           11.5287458097      -18.9889294060        7.5538300000  MEMB      21              0.0000000000
      2312        21  CHL1      H21C           12.0554308688      -20.4129937537        6.7219500000  MEMB      21              0.0000000000
      2313        21  CHL1      C22             9.3868587007      -20.5210338796        6.1872900000  MEMB      21              0.0000000000
      2314        21  CHL1      H22A            8.4813482358      -21.1628116119        6.1374300000  MEMB      21              0.0000000000
      2315        21  CHL1      H22B            9.0742445732      -19.4642064448        6.0468900000  MEMB      21              0.0000000000
      2316        21  CHL1      C23            10.2350214693      -20.7601774076        4.9239400000  MEMB      21              0.0000000000
      2317        21  CHL1      H23A           11.1835332652      -20.1922725657        4.8138200000  MEMB      21              0.0000000000
      2318        21  CHL1      H23B           10.5303798342      -21.8055684462        5.1568500000  MEMB      21              0.0000000000
      2319        21  CHL1      C24             9.4214748652      -20.7292052342        3.6060100000  MEMB      21              0.0000000000
      2320        21  CHL1      H24A            8.5892622546      -21.4610561864        3.5275700000  MEMB      21              0.0000000000
      2321        21  CHL1      H24B            8.8685555014      -19.7658572040        3.5822700000  MEMB      21              0.0000000000
      2322        21  CHL1      C25            10.3057805628      -20.8101001868        2.3663900000  MEMB      21              0.0000000000
      2323        21  CHL1      H25            11.0926488521      -20.0260427836        2.3870400000  MEMB      21              0.0000000000
      2324        21  CHL1      C26            10.7456550272      -22.2314668240        2.1856100000  MEMB      21              0.0000000000
      2325        21  CHL1      H26A            9.9182438881      -22.9702212226        2.1227100000  MEMB      21              0.0000000000
      2326        21  CHL1      H26B           11.4348363175      -22.2835494700        1.3157700000  MEMB      21              0.0000000000
      2327        21  CHL1      H26C           11.4425060999      -22.4739409205        3.0162300000  MEMB      21              0.0000000000
      2328        21  CHL1      C27             9.4468767455      -20.4749022203        1.0820300000  MEMB      21              0.0000000000
      2329        21  CHL1      H27A            8.5775068469      -21.1665421785        1.0944000000  MEMB      21              0.0000000000
      2330        21  CHL1      H27B            9.1131961571      -19.4165761445        1.1360800000  MEMB      21              0.0000000000
      2331        21  CHL1      H27C           10.1420986494      -20.5384517572        0.2177700000  MEMB      21              0.0000000000
      2332        22  CHL1      C3             18.1263528272       -9.4818263685       17.2901150000  MEMB      22              0.0000000000
      2333        22  CHL1      H3             19.1826868899       -9.4222776161       16.9510950000  MEMB      22              0.0000000000
      2334        22  CHL1      O3             17.9647751728       -9.2954069715       18.7098850000  MEMB      22              0.0000000000
      2335        22  CHL1      H3'            18.3861683120      -10.0148947829       19.1856550000  MEMB      22              0.0000000000
      2336        22  CHL1      C4             17.5150714302       -8.1967810198       16.6798050000  MEMB      22              0.0000000000
      2337        22  CHL1      H4A            16.5204888723       -8.0057267414       17.1365550000  MEMB      22              0.0000000000
      2338        22  CHL1      H4B            18.1878600791       -7.3530993371       16.9441850000  MEMB      22              0.0000000000
      2339        22  CHL1      C5             17.3559231910       -8.2375990909       15.2124950000  MEMB      22              0.0000000000
      2340        22  CHL1      C6             17.8646002099       -7.2389798436       14.4287150000  MEMB      22              0.0000000000
      2341        22  CHL1      H6             18.3744031908       -6.3789697760       14.8874950000  MEMB      22              0.0000000000
      2342        22  CHL1      C7             17.6794649033       -7.1929637254       12.8973650000  MEMB      22              0.0000000000
      2343        22  CHL1      H7A            17.2615300575       -6.2452856140       12.4954050000  MEMB      22              0.0000000000
      2344        22  CHL1      H7B            18.6714550823       -7.2339768635       12.3987850000  MEMB      22              0.0000000000
      2345        22  CHL1      C8             16.7273158807       -8.2866925269       12.4368650000  MEMB      22              0.0000000000
      2346        22  CHL1      H8             15.6893207943       -8.0180945384       12.7279650000  MEMB      22              0.0000000000
      2347        22  CHL1      C14            16.9488289483       -8.5018188192       10.9717050000  MEMB      22              0.0000000000
      2348        22  CHL1      H14            17.9368695677       -9.0085078922       10.9347950000  MEMB      22              0.0000000000
      2349        22  CHL1      C15            17.0681755635       -7.2964868747       10.0633250000  MEMB      22              0.0000000000
      2350        22  CHL1      H15A           16.2162075907       -6.6345875967       10.3285850000  MEMB      22              0.0000000000
      2351        22  CHL1      H15B           17.9742415907       -6.6537688931       10.0801150000  MEMB      22              0.0000000000
      2352        22  CHL1      C16            16.9736824782       -7.9175660109        8.6514550000  MEMB      22              0.0000000000
      2353        22  CHL1      H16A           16.3559253637       -7.2865642787        7.9772650000  MEMB      22              0.0000000000
      2354        22  CHL1      H16B           18.0090539803       -7.9787785008        8.2532250000  MEMB      22              0.0000000000
      2355        22  CHL1      C17            16.4754521845       -9.3768211952        8.7866150000  MEMB      22              0.0000000000
      2356        22  CHL1      H17            17.3715093773      -10.0216474454        8.6616850000  MEMB      22              0.0000000000
      2357        22  CHL1      C13            15.9663054083       -9.3979601738       10.2100950000  MEMB      22              0.0000000000
      2358        22  CHL1      C18            14.5956383697       -8.8434821561       10.3190550000  MEMB      22              0.0000000000
      2359        22  CHL1      H18A           14.3905956643       -8.4985951796       11.3550750000  MEMB      22              0.0000000000
      2360        22  CHL1      H18B           14.3489935177       -7.8852217521        9.8138550000  MEMB      22              0.0000000000
      2361        22  CHL1      H18C           13.8260581641       -9.5811596396       10.0061850000  MEMB      22              0.0000000000
      2362        22  CHL1      C12            16.2278199493      -10.7686988249       10.8306350000  MEMB      22              0.0000000000
      2363        22  CHL1      H12A           15.5102236000      -11.5324126905       10.4616750000  MEMB      22              0.0000000000
      2364        22  CHL1      H12B           17.2388911042      -11.0912047944       10.5019350000  MEMB      22              0.0000000000
      2365        22  CHL1      C11            16.0845958555      -10.7329566127       12.3531350000  MEMB      22              0.0000000000
      2366        22  CHL1      H11A           15.0700979076      -10.3539462763       12.6010450000  MEMB      22              0.0000000000
      2367        22  CHL1      H11B           16.1771688071      -11.7719511608       12.7355450000  MEMB      22              0.0000000000
      2368        22  CHL1      C9             16.9913632163       -9.6709443254       13.0903150000  MEMB      22              0.0000000000
      2369        22  CHL1      H9             18.0584727323       -9.9547281787       12.9675850000  MEMB      22              0.0000000000
      2370        22  CHL1      C10            16.7463489046       -9.5331391559       14.6758650000  MEMB      22              0.0000000000
      2371        22  CHL1      C19            15.2234181732       -9.4880415505       14.9546650000  MEMB      22              0.0000000000
      2372        22  CHL1      H19A           15.0733898534       -9.3425501691       16.0458350000  MEMB      22              0.0000000000
      2373        22  CHL1      H19B           14.7123859200       -8.6532191400       14.4290750000  MEMB      22              0.0000000000
      2374        22  CHL1      H19C           14.6697663105      -10.4416764991       14.8191050000  MEMB      22              0.0000000000
      2375        22  CHL1      C1             17.4573868111      -10.7521071038       15.2816550000  MEMB      22              0.0000000000
      2376        22  CHL1      H1A            17.0112022676      -11.6842733639       14.8738350000  MEMB      22              0.0000000000
      2377        22  CHL1      H1B            18.5365153860      -10.6731538180       15.0295450000  MEMB      22              0.0000000000
      2378        22  CHL1      C2             17.4403662871      -10.7393456868       16.8152250000  MEMB      22              0.0000000000
      2379        22  CHL1      H2A            18.0641448848      -11.4928802070       17.3419250000  MEMB      22              0.0000000000
      2380        22  CHL1      H2B            16.4348407774      -10.7326581429       17.2876650000  MEMB      22              0.0000000000
      2381        22  CHL1      C20            15.5388016831       -9.8471063640        7.5984850000  MEMB      22              0.0000000000
      2382        22  CHL1      H20            14.6887087100       -9.1428829867        7.4730750000  MEMB      22              0.0000000000
      2383        22  CHL1      C21            14.9876589402      -11.2987204541        7.8221550000  MEMB      22              0.0000000000
      2384        22  CHL1      H21A           14.3970977777      -11.2389461229        8.7612950000  MEMB      22              0.0000000000
      2385        22  CHL1      H21B           15.8345095784      -12.0052250075        7.9563850000  MEMB      22              0.0000000000
      2386        22  CHL1      H21C           14.4010810313      -11.7279348734        6.9818950000  MEMB      22              0.0000000000
      2387        22  CHL1      C22            16.2629527472       -9.8386099908        6.2125050000  MEMB      22              0.0000000000
      2388        22  CHL1      H22A           16.9985734130       -9.0157354448        6.0857950000  MEMB      22              0.0000000000
      2389        22  CHL1      H22B           16.8668318466      -10.7671343177        6.1259250000  MEMB      22              0.0000000000
      2390        22  CHL1      C23            15.2382577558       -9.8597310063        5.0147450000  MEMB      22              0.0000000000
      2391        22  CHL1      H23A           14.6421595748      -10.7961995994        5.0597250000  MEMB      22              0.0000000000
      2392        22  CHL1      H23B           14.6143875812       -8.9423207881        5.0734750000  MEMB      22              0.0000000000
      2393        22  CHL1      C24            15.8958765175       -9.9538772984        3.5760350000  MEMB      22              0.0000000000
      2394        22  CHL1      H24A           16.3967762954       -8.9679642512        3.4692150000  MEMB      22              0.0000000000
      2395        22  CHL1      H24B           16.6501330434      -10.7549823426        3.7298050000  MEMB      22              0.0000000000
      2396        22  CHL1      C25            15.0271793223      -10.2999771292        2.3756150000  MEMB      22              0.0000000000
      2397        22  CHL1      H25            14.6563755774      -11.3390196173        2.5068150000  MEMB      22              0.0000000000
      2398        22  CHL1      C26            13.9388082383       -9.2947370775        2.3242050000  MEMB      22              0.0000000000
      2399        22  CHL1      H26A           14.3738297674       -8.2872026629        2.1511450000  MEMB      22              0.0000000000
      2400        22  CHL1      H26B           13.4464846287       -9.5190164203        1.3538150000  MEMB      22              0.0000000000
      2401        22  CHL1      H26C           13.2506021580       -9.3410740088        3.1951450000  MEMB      22              0.0000000000
      2402        22  CHL1      C27            15.8562382894      -10.2709321696        1.0217850000  MEMB      22              0.0000000000
      2403        22  CHL1      H27A           16.2844080453      -11.2820656221        0.8526450000  MEMB      22              0.0000000000
      2404        22  CHL1      H27B           15.2196096873       -9.9431226470        0.1723350000  MEMB      22              0.0000000000
      2405        22  CHL1      H27C           16.6171668024       -9.4623965940        1.0615450000  MEMB      22              0.0000000000
      2406        23  SAPS      N             -16.7142846337      -14.5851861966       19.8528742724  MEMB      23              0.0000000000
      2407        23  SAPS      HN1           -17.6298728578      -14.9935087677       20.1295886875  MEMB      23              0.0000000000
      2408        23  SAPS      HN2           -16.4196958596      -13.7105006565       20.3321889721  MEMB      23              0.0000000000
      2409        23  SAPS      HN3           -16.5509575098      -14.4590990352       18.8335479095  MEMB      23              0.0000000000
      2410        23  SAPS      C12           -15.6862477979      -15.5099525204       20.2837581161  MEMB      23              0.0000000000
      2411        23  SAPS      H12A          -15.6294589914      -15.2556959779       21.3318652266  MEMB      23              0.0000000000
      2412        23  SAPS      C13           -16.0222428836      -16.9850420059       20.1388333742  MEMB      23              0.0000000000
      2413        23  SAPS      O13A          -17.1530787369      -17.3453214826       19.6044019072  MEMB      23              0.0000000000
      2414        23  SAPS      O13B          -15.2995296529      -17.7766218558       20.7338510491  MEMB      23              0.0000000000
      2415        23  SAPS      C11           -14.2955536780      -15.1862239717       19.6148866952  MEMB      23              0.0000000000
      2416        23  SAPS      H11A          -14.1041999836      -14.0993122231       19.4871075969  MEMB      23              0.0000000000
      2417        23  SAPS      H11B          -14.1649780212      -15.6855784043       18.6310594150  MEMB      23              0.0000000000
      2418        23  SAPS      P             -11.7119262257      -15.6373459221       19.9645601612  MEMB      23              0.0000000000
      2419        23  SAPS      O13           -11.3516710065      -14.5290124569       19.0702816624  MEMB      23              0.0000000000
      2420        23  SAPS      O14           -10.8699085645      -15.8193667764       21.1861872300  MEMB      23              0.0000000000
      2421        23  SAPS      O12           -13.2139873528      -15.5612648553       20.4524915517  MEMB      23              0.0000000000
      2422        23  SAPS      O11           -11.6061343915      -17.0160598686       19.0978739742  MEMB      23              0.0000000000
      2423        23  SAPS      C1            -11.8055793144      -18.1415039520       19.8105595205  MEMB      23              0.0000000000
      2424        23  SAPS      HA            -10.9278959471      -18.4959093478       20.3922722034  MEMB      23              0.0000000000
      2425        23  SAPS      HB            -12.6499464175      -18.1255424902       20.5324393494  MEMB      23              0.0000000000
      2426        23  SAPS      C2            -11.8612904734      -19.3709396030       18.8672036005  MEMB      23              0.0000000000
      2427        23  SAPS      HS            -11.7716345143      -20.2853269086       19.4918466313  MEMB      23              0.0000000000
      2428        23  SAPS      O21           -10.7670166504      -19.3136789492       17.8866329142  MEMB      23              0.0000000000
      2429        23  SAPS      C21           -10.4397787338      -20.3161708069       17.2045611942  MEMB      23              0.0000000000
      2430        23  SAPS      O22           -10.8882447080      -21.4612574500       17.3997061670  MEMB      23              0.0000000000
      2431        23  SAPS      C22            -9.3369727928      -19.8957307007       16.2105302294  MEMB      23              0.0000000000
      2432        23  SAPS      H2R            -9.5817529755      -18.8497407311       15.9271431295  MEMB      23              0.0000000000
      2433        23  SAPS      H2S            -8.3563076436      -19.9301319502       16.7315227955  MEMB      23              0.0000000000
      2434        23  SAPS      C3            -13.2231370048      -19.3906200328       18.0212059951  MEMB      23              0.0000000000
      2435        23  SAPS      HX            -14.0669495511      -19.2667601051       18.7332171155  MEMB      23              0.0000000000
      2436        23  SAPS      HY            -13.2607387860      -20.4129156814       17.5878254608  MEMB      23              0.0000000000
      2437        23  SAPS      O31           -13.2984832222      -18.3013785336       17.0622126580  MEMB      23              0.0000000000
      2438        23  SAPS      C31           -14.1599419473      -18.5102451675       16.0718521605  MEMB      23              0.0000000000
      2439        23  SAPS      O32           -14.9941089799      -19.4180649372       16.0228569954  MEMB      23              0.0000000000
      2440        23  SAPS      C32           -13.7775862435      -17.4468348004       14.9358291335  MEMB      23              0.0000000000
      2441        23  SAPS      H2X           -12.7469103591      -17.7472935192       14.6499046375  MEMB      23              0.0000000000
      2442        23  SAPS      H2Y           -14.0264303214      -16.4105702197       15.2497609709  MEMB      23              0.0000000000
      2443        23  SAPS      C23            -9.6306093998      -20.7808860977       14.9352275147  MEMB      23              0.0000000000
      2444        23  SAPS      H3R           -10.7151186150      -20.9058566526       14.7289670179  MEMB      23              0.0000000000
      2445        23  SAPS      H3S            -9.1213589984      -21.7614395758       15.0514155199  MEMB      23              0.0000000000
      2446        23  SAPS      C24            -9.0153357817      -20.3232469806       13.6826372637  MEMB      23              0.0000000000
      2447        23  SAPS      H4R            -7.9924179560      -19.9312377202       13.8678084546  MEMB      23              0.0000000000
      2448        23  SAPS      H4S            -9.4671945202      -19.3655394456       13.3465693959  MEMB      23              0.0000000000
      2449        23  SAPS      C25            -9.1186979386      -21.2645374066       12.5943674722  MEMB      23              0.0000000000
      2450        23  SAPS      H5R            -8.4661051124      -22.1453555158       12.6853724323  MEMB      23              0.0000000000
      2451        23  SAPS      C26            -9.9408606555      -21.3611486718       11.5094713609  MEMB      23              0.0000000000
      2452        23  SAPS      H6R            -9.8105934794      -22.1594069694       10.7639423804  MEMB      23              0.0000000000
      2453        23  SAPS      C27           -11.0745728086      -20.4207083680       11.1881506789  MEMB      23              0.0000000000
      2454        23  SAPS      H7R           -10.8656122643      -19.4683435458       11.7207459432  MEMB      23              0.0000000000
      2455        23  SAPS      H7S           -11.9201144367      -20.9049213438       11.7219272971  MEMB      23              0.0000000000
      2456        23  SAPS      C28           -11.4934752147      -19.9243315747        9.8382156703  MEMB      23              0.0000000000
      2457        23  SAPS      H8R           -11.3358359706      -18.8564728259        9.6264904578  MEMB      23              0.0000000000
      2458        23  SAPS      C29           -12.1185550921      -20.5770249673        8.7987638712  MEMB      23              0.0000000000
      2459        23  SAPS      H9R           -12.1656693482      -20.0626429219        7.8275834055  MEMB      23              0.0000000000
      2460        23  SAPS      C210          -12.5742306919      -21.9574087906        8.8312073059  MEMB      23              0.0000000000
      2461        23  SAPS      H10R          -11.7692316471      -22.6008963759        9.2462024408  MEMB      23              0.0000000000
      2462        23  SAPS      H10S          -12.8077602054      -22.3182105127        7.8067033716  MEMB      23              0.0000000000
      2463        23  SAPS      C211          -13.8271215656      -22.2146957669        9.7400015932  MEMB      23              0.0000000000
      2464        23  SAPS      H11R          -13.4657726443      -22.7102492493       10.6531574022  MEMB      23              0.0000000000
      2465        23  SAPS      C212          -15.0933898339      -21.8807640501        9.5017483099  MEMB      23              0.0000000000
      2466        23  SAPS      H12R          -15.9332789218      -21.8795273595       10.2120890064  MEMB      23              0.0000000000
      2467        23  SAPS      C213          -15.5737034487      -21.2913253499        8.2932221090  MEMB      23              0.0000000000
      2468        23  SAPS      H13R          -15.1307002922      -20.3143605811        8.0040696393  MEMB      23              0.0000000000
      2469        23  SAPS      H13S          -16.6173960637      -20.9551649006        8.4721700538  MEMB      23              0.0000000000
      2470        23  SAPS      C214          -15.4893829331      -22.2086262017        7.0506869177  MEMB      23              0.0000000000
      2471        23  SAPS      H14R          -15.7965214134      -23.2592903742        7.1591795242  MEMB      23              0.0000000000
      2472        23  SAPS      C215          -15.0733315313      -21.8901355147        5.8321182170  MEMB      23              0.0000000000
      2473        23  SAPS      H15R          -14.8885028846      -22.7583248247        5.1824365987  MEMB      23              0.0000000000
      2474        23  SAPS      C216          -14.4792920754      -20.5789234345        5.3771815354  MEMB      23              0.0000000000
      2475        23  SAPS      H16R          -14.2103787874      -19.8387550040        6.1608637498  MEMB      23              0.0000000000
      2476        23  SAPS      H16S          -15.1716707321      -19.8955024277        4.8406478110  MEMB      23              0.0000000000
      2477        23  SAPS      C217          -13.1891778759      -20.6567450189        4.5756677424  MEMB      23              0.0000000000
      2478        23  SAPS      H17R          -13.3332715385      -21.3696591093        3.7358394038  MEMB      23              0.0000000000
      2479        23  SAPS      H17S          -12.3702613534      -21.0279680552        5.2282708202  MEMB      23              0.0000000000
      2480        23  SAPS      C218          -12.8311601951      -19.1898965755        4.1110802071  MEMB      23              0.0000000000
      2481        23  SAPS      H18R          -12.6244955485      -18.7262709057        5.0993425034  MEMB      23              0.0000000000
      2482        23  SAPS      H18S          -13.7812977514      -18.7889098862        3.6978380875  MEMB      23              0.0000000000
      2483        23  SAPS      C219          -11.5830825714      -19.0233049731        3.1612115745  MEMB      23              0.0000000000
      2484        23  SAPS      H19R          -10.6797125262      -19.1955667867        3.7845646172  MEMB      23              0.0000000000
      2485        23  SAPS      H19S          -11.5428219457      -17.9539338850        2.8626387170  MEMB      23              0.0000000000
      2486        23  SAPS      C220          -11.5957729485      -19.8300302927        1.8961208771  MEMB      23              0.0000000000
      2487        23  SAPS      H20R          -10.5901382087      -19.6271061630        1.4696913509  MEMB      23              0.0000000000
      2488        23  SAPS      H20S          -12.3885236554      -19.5873920402        1.1565296425  MEMB      23              0.0000000000
      2489        23  SAPS      H20T          -11.6433463612      -20.9000473049        2.1912840844  MEMB      23              0.0000000000
      2490        23  SAPS      C33           -14.3566476621      -17.7590376805       13.5153840622  MEMB      23              0.0000000000
      2491        23  SAPS      H3X           -14.3588409087      -18.8475627583       13.2930569237  MEMB      23              0.0000000000
      2492        23  SAPS      H3Y           -13.7536749608      -17.2316954754       12.7455432836  MEMB      23              0.0000000000
      2493        23  SAPS      C34           -15.7725369203      -17.3011415256       13.4470466539  MEMB      23              0.0000000000
      2494        23  SAPS      H4X           -15.8601403533      -16.2598652620       13.8243931022  MEMB      23              0.0000000000
      2495        23  SAPS      H4Y           -16.3535768858      -17.9225251210       14.1616067730  MEMB      23              0.0000000000
      2496        23  SAPS      C35           -16.3830512785      -17.3375632634       12.0289895830  MEMB      23              0.0000000000
      2497        23  SAPS      H5X           -17.4902519580      -17.2464834803       12.0404987626  MEMB      23              0.0000000000
      2498        23  SAPS      H5Y           -16.1285330218      -18.3668977844       11.6973096847  MEMB      23              0.0000000000
      2499        23  SAPS      C36           -15.7934941978      -16.3485159333       11.0762011703  MEMB      23              0.0000000000
      2500        23  SAPS      H6X           -14.6914178858      -16.4885918748       11.0649268236  MEMB      23              0.0000000000
      2501        23  SAPS      H6Y           -15.8969629904      -15.3467523087       11.5453334339  MEMB      23              0.0000000000
      2502        23  SAPS      C37           -16.4479249255      -16.3702527255        9.6693845900  MEMB      23              0.0000000000
      2503        23  SAPS      H7X           -16.2865527282      -15.4220664109        9.1133063636  MEMB      23              0.0000000000
      2504        23  SAPS      H7Y           -17.5398155078      -16.5235580231        9.8057417724  MEMB      23              0.0000000000
      2505        23  SAPS      C38           -15.7247444301      -17.4181351370        8.8446004565  MEMB      23              0.0000000000
      2506        23  SAPS      H8X           -16.3498908270      -17.4854929002        7.9286440690  MEMB      23              0.0000000000
      2507        23  SAPS      H8Y           -15.8124244660      -18.3356893421        9.4648645106  MEMB      23              0.0000000000
      2508        23  SAPS      C39           -14.3059990209      -17.0549151201        8.3337182872  MEMB      23              0.0000000000
      2509        23  SAPS      H9X           -13.7616592313      -17.9794149417        8.0450750049  MEMB      23              0.0000000000
      2510        23  SAPS      H9Y           -13.6387364933      -16.7939174621        9.1828128829  MEMB      23              0.0000000000
      2511        23  SAPS      C310          -14.1834848193      -15.8876453618        7.3803851573  MEMB      23              0.0000000000
      2512        23  SAPS      H10X          -14.3873939431      -14.9433479385        7.9290600095  MEMB      23              0.0000000000
      2513        23  SAPS      H10Y          -14.9800550307      -15.9022897403        6.6060575860  MEMB      23              0.0000000000
      2514        23  SAPS      C311          -12.8079202234      -15.7423896030        6.7033168587  MEMB      23              0.0000000000
      2515        23  SAPS      H11X          -12.2389490229      -16.6480331241        6.4026453903  MEMB      23              0.0000000000
      2516        23  SAPS      H11Y          -12.2269042213      -15.2536431401        7.5144071214  MEMB      23              0.0000000000
      2517        23  SAPS      C312          -12.9022050219      -14.7525821361        5.6184209514  MEMB      23              0.0000000000
      2518        23  SAPS      H12X          -13.1623659508      -13.8086492309        6.1434244149  MEMB      23              0.0000000000
      2519        23  SAPS      H12Y          -13.7339328702      -15.0675712448        4.9525893256  MEMB      23              0.0000000000
      2520        23  SAPS      C313          -11.6656439154      -14.5699539206        4.7378881608  MEMB      23              0.0000000000
      2521        23  SAPS      H13X          -11.6626297503      -13.5966459879        4.2021797123  MEMB      23              0.0000000000
      2522        23  SAPS      H13Y          -11.6096192596      -15.3304231629        3.9298851464  MEMB      23              0.0000000000
      2523        23  SAPS      C314          -10.2961863697      -14.6184934565        5.4446925384  MEMB      23              0.0000000000
      2524        23  SAPS      H14X          -10.1112129279      -15.6321302707        5.8602001975  MEMB      23              0.0000000000
      2525        23  SAPS      H14Y          -10.4164627940      -13.9184998056        6.2990134878  MEMB      23              0.0000000000
      2526        23  SAPS      C315           -9.1523223050      -14.0596169055        4.5877540555  MEMB      23              0.0000000000
      2527        23  SAPS      H15X           -8.1531704995      -14.1566285509        5.0637851316  MEMB      23              0.0000000000
      2528        23  SAPS      H15Y           -9.3542027242      -12.9687532173        4.6476043917  MEMB      23              0.0000000000
      2529        23  SAPS      C316           -8.9244647784      -14.6699714773        3.2200634029  MEMB      23              0.0000000000
      2530        23  SAPS      H16X           -8.2326568556      -14.0254750174        2.6366710211  MEMB      23              0.0000000000
      2531        23  SAPS      H16Y           -9.8517508047      -14.7456440893        2.6128269900  MEMB      23              0.0000000000
      2532        23  SAPS      C317           -8.3856212325      -16.0889299319        3.1655836887  MEMB      23              0.0000000000
      2533        23  SAPS      H17X           -9.0870224576      -16.8182840151        3.6242784984  MEMB      23              0.0000000000
      2534        23  SAPS      H17Y           -7.4227600159      -16.0329717985        3.7170253131  MEMB      23              0.0000000000
      2535        23  SAPS      C318           -8.1154595424      -16.5821652031        1.7826971195  MEMB      23              0.0000000000
      2536        23  SAPS      H18X           -8.9877331657      -16.5954915854        1.0947421490  MEMB      23              0.0000000000
      2537        23  SAPS      H18Y           -7.7628077736      -17.6357106567        1.7826548334  MEMB      23              0.0000000000
      2538        23  SAPS      H18Z           -7.2432189336      -16.0681650807        1.3251816027  MEMB      23              0.0000000000
      2539        24  CHL1      C3             20.5103275888       -2.0547551015       17.2872950000  MEMB      24              0.0000000000
      2540        24  CHL1      H3             20.5077132223       -3.1245350952       16.9874850000  MEMB      24              0.0000000000
      2541        24  CHL1      O3             20.4866802112       -2.0031184785       18.7127050000  MEMB      24              0.0000000000
      2542        24  CHL1      H3'            21.2412799281       -2.4828534193       19.0620350000  MEMB      24              0.0000000000
      2543        24  CHL1      C4             21.9229317992       -1.4953654731       16.8019950000  MEMB      24              0.0000000000
      2544        24  CHL1      H4A            21.9404540211       -0.4447628918       17.1629050000  MEMB      24              0.0000000000
      2545        24  CHL1      H4B            22.7335262311       -2.1798622557       17.1317150000  MEMB      24              0.0000000000
      2546        24  CHL1      C5             22.1181111700       -1.3360724732       15.3003150000  MEMB      24              0.0000000000
      2547        24  CHL1      C6             23.0661718807       -2.0110065469       14.6084250000  MEMB      24              0.0000000000
      2548        24  CHL1      H6             23.7014596760       -2.7891623364       15.0566350000  MEMB      24              0.0000000000
      2549        24  CHL1      C7             23.1402355339       -1.8340789005       13.0870550000  MEMB      24              0.0000000000
      2550        24  CHL1      H7A            24.1576201059       -1.4656567066       12.8350550000  MEMB      24              0.0000000000
      2551        24  CHL1      H7B            23.0115713925       -2.7410189389       12.4583950000  MEMB      24              0.0000000000
      2552        24  CHL1      C8             22.1817703403       -0.8455595916       12.3617350000  MEMB      24              0.0000000000
      2553        24  CHL1      H8             22.6005979225        0.1816049113       12.2997650000  MEMB      24              0.0000000000
      2554        24  CHL1      C14            22.0604405999       -1.1898827204       10.8927150000  MEMB      24              0.0000000000
      2555        24  CHL1      H14            21.5371693332       -2.1693891540       10.9255650000  MEMB      24              0.0000000000
      2556        24  CHL1      C15            23.2894161830       -1.4019473445        9.9873950000  MEMB      24              0.0000000000
      2557        24  CHL1      H15A           23.9907059754       -0.5591013371       10.1666450000  MEMB      24              0.0000000000
      2558        24  CHL1      H15B           23.8417044906       -2.3330270273       10.2371450000  MEMB      24              0.0000000000
      2559        24  CHL1      C16            22.7260452620       -1.3796526505        8.5262550000  MEMB      24              0.0000000000
      2560        24  CHL1      H16A           23.2073635896       -0.5380855800        7.9836450000  MEMB      24              0.0000000000
      2561        24  CHL1      H16B           22.8398400185       -2.3606155271        8.0172650000  MEMB      24              0.0000000000
      2562        24  CHL1      C17            21.2294564130       -1.0247054591        8.7430950000  MEMB      24              0.0000000000
      2563        24  CHL1      H17            20.5439808390       -1.8901442861        8.8674250000  MEMB      24              0.0000000000
      2564        24  CHL1      C13            21.1624561122       -0.2914100478       10.1123050000  MEMB      24              0.0000000000
      2565        24  CHL1      C18            21.6592477321        1.1360147014       10.0871650000  MEMB      24              0.0000000000
      2566        24  CHL1      H18A           22.6337319021        1.1942529313        9.5567850000  MEMB      24              0.0000000000
      2567        24  CHL1      H18B           20.9956003015        1.7490081854        9.4405350000  MEMB      24              0.0000000000
      2568        24  CHL1      H18C           21.6940472411        1.6943122306       11.0470750000  MEMB      24              0.0000000000
      2569        24  CHL1      C12            19.7329997233       -0.3488141963       10.8340050000  MEMB      24              0.0000000000
      2570        24  CHL1      H12A           18.9312402359        0.1187583089       10.2233550000  MEMB      24              0.0000000000
      2571        24  CHL1      H12B           19.4642858529       -1.4267936039       10.8254850000  MEMB      24              0.0000000000
      2572        24  CHL1      C11            19.8256657790       -0.0235126363       12.3427150000  MEMB      24              0.0000000000
      2573        24  CHL1      H11A           20.1754317009        1.0252086721       12.4530450000  MEMB      24              0.0000000000
      2574        24  CHL1      H11B           18.7942692598       -0.0470533476       12.7549950000  MEMB      24              0.0000000000
      2575        24  CHL1      C9             20.8016509648       -0.9093004832       13.0735250000  MEMB      24              0.0000000000
      2576        24  CHL1      H9             20.4945355930       -1.9637432239       12.9057550000  MEMB      24              0.0000000000
      2577        24  CHL1      C10            20.9164588862       -0.7121569467       14.6326650000  MEMB      24              0.0000000000
      2578        24  CHL1      C19            21.0869791833        0.8018741834       14.9362050000  MEMB      24              0.0000000000
      2579        24  CHL1      H19A           20.0933364776        1.2922410003       14.8554150000  MEMB      24              0.0000000000
      2580        24  CHL1      H19B           21.5896877827        1.1756041942       15.8537750000  MEMB      24              0.0000000000
      2581        24  CHL1      H19C           21.6717924343        1.1953915028       14.0774550000  MEMB      24              0.0000000000
      2582        24  CHL1      C1             19.5564491206       -1.1757533239       15.1758250000  MEMB      24              0.0000000000
      2583        24  CHL1      H1A            18.6194648556       -0.7164027173       14.7945350000  MEMB      24              0.0000000000
      2584        24  CHL1      H1B            19.4756946684       -2.2385794704       14.8624650000  MEMB      24              0.0000000000
      2585        24  CHL1      C2             19.3829566506       -1.1503998756       16.6982150000  MEMB      24              0.0000000000
      2586        24  CHL1      H2A            18.3760806504       -1.5288760448       16.9761950000  MEMB      24              0.0000000000
      2587        24  CHL1      H2B            19.4915855831       -0.0746464573       16.9536750000  MEMB      24              0.0000000000
      2588        24  CHL1      C20            20.7655861074       -0.2558022808        7.4359950000  MEMB      24              0.0000000000
      2589        24  CHL1      H20            21.3222305697        0.6997919318        7.3296350000  MEMB      24              0.0000000000
      2590        24  CHL1      C21            19.2842216257        0.0240711099        7.4076050000  MEMB      24              0.0000000000
      2591        24  CHL1      H21A           18.7328167355       -0.9392364277        7.4559050000  MEMB      24              0.0000000000
      2592        24  CHL1      H21B           18.8535741866        0.5530399313        6.5306550000  MEMB      24              0.0000000000
      2593        24  CHL1      H21C           18.9357248009        0.6061411768        8.2874150000  MEMB      24              0.0000000000
      2594        24  CHL1      C22            21.0293515988       -1.0552376882        6.1354450000  MEMB      24              0.0000000000
      2595        24  CHL1      H22A           22.0809346856       -1.4115653723        6.1746250000  MEMB      24              0.0000000000
      2596        24  CHL1      H22B           20.4211602629       -1.9811923827        6.0516750000  MEMB      24              0.0000000000
      2597        24  CHL1      C23            20.8458917300       -0.2843202150        4.8506650000  MEMB      24              0.0000000000
      2598        24  CHL1      H23A           19.7754987488        0.0108418507        4.8890650000  MEMB      24              0.0000000000
      2599        24  CHL1      H23B           21.6017446079        0.5297672770        4.8346750000  MEMB      24              0.0000000000
      2600        24  CHL1      C24            21.0540270184       -1.0585779673        3.5773050000  MEMB      24              0.0000000000
      2601        24  CHL1      H24A           20.2643245983       -1.8355769302        3.4938750000  MEMB      24              0.0000000000
      2602        24  CHL1      H24B           20.9498842176       -0.3125417872        2.7606550000  MEMB      24              0.0000000000
      2603        24  CHL1      C25            22.4202938659       -1.7791071736        3.2900850000  MEMB      24              0.0000000000
      2604        24  CHL1      H25            22.7428816354       -2.4102786799        4.1455950000  MEMB      24              0.0000000000
      2605        24  CHL1      C26            22.2760557292       -2.5226318477        1.9610850000  MEMB      24              0.0000000000
      2606        24  CHL1      H26A           21.9769367035       -1.8923361666        1.0964550000  MEMB      24              0.0000000000
      2607        24  CHL1      H26B           23.2304368011       -2.9583519420        1.5955350000  MEMB      24              0.0000000000
      2608        24  CHL1      H26C           21.4672757500       -3.2820730192        2.0197050000  MEMB      24              0.0000000000
      2609        24  CHL1      C27            23.5576824662       -0.7581157561        3.1623450000  MEMB      24              0.0000000000
      2610        24  CHL1      H27A           24.5187772978       -1.2802740938        2.9674950000  MEMB      24              0.0000000000
      2611        24  CHL1      H27B           23.4584510998       -0.2329846158        2.1883250000  MEMB      24              0.0000000000
      2612        24  CHL1      H27C           23.6185658899       -0.0550792927        4.0204650000  MEMB      24              0.0000000000
      2613        25  SAPC      N              15.8602777332        9.7884264512       20.5191492092  MEMB      25              0.0000000000
      2614        25  SAPC      C12            17.3335568990        9.7992382238       20.3155807597  MEMB      25              0.0000000000
      2615        25  SAPC      H12A           17.6982489153        8.8275748327       20.0167998352  MEMB      25              0.0000000000
      2616        25  SAPC      H12B           17.8230479883       10.1161458335       21.2246286205  MEMB      25              0.0000000000
      2617        25  SAPC      C13            15.4362751944        8.8969411778       21.5988980342  MEMB      25              0.0000000000
      2618        25  SAPC      H13A           15.6953741167        9.3506524410       22.5441037380  MEMB      25              0.0000000000
      2619        25  SAPC      H13B           14.3647280448        8.8123118549       21.7038965950  MEMB      25              0.0000000000
      2620        25  SAPC      H13C           15.9319079354        7.9428104013       21.4970029777  MEMB      25              0.0000000000
      2621        25  SAPC      C14            15.3044448552       11.1849061494       20.8326832812  MEMB      25              0.0000000000
      2622        25  SAPC      H14A           15.4422814410       11.8712731201       20.0103077273  MEMB      25              0.0000000000
      2623        25  SAPC      H14B           14.2245377344       11.1786006616       20.8200069566  MEMB      25              0.0000000000
      2624        25  SAPC      H14C           15.7665364345       11.6371107529       21.6977742416  MEMB      25              0.0000000000
      2625        25  SAPC      C15            15.2053394429        9.2012067464       19.2708559055  MEMB      25              0.0000000000
      2626        25  SAPC      H15A           15.4322744586        9.9016595824       18.4807507079  MEMB      25              0.0000000000
      2627        25  SAPC      H15B           15.6702996219        8.2674747758       18.9909329766  MEMB      25              0.0000000000
      2628        25  SAPC      H15C           14.1292763337        9.1356816712       19.3356244816  MEMB      25              0.0000000000
      2629        25  SAPC      C11            18.0275022692       10.5881465074       19.1258217874  MEMB      25              0.0000000000
      2630        25  SAPC      H11A           17.5399764018       10.1044313737       18.2525181359  MEMB      25              0.0000000000
      2631        25  SAPC      H11B           19.0949598764       10.3145033523       18.9844901986  MEMB      25              0.0000000000
      2632        25  SAPC      P              18.7430410430       12.9236463182       19.7675924105  MEMB      25              0.0000000000
      2633        25  SAPC      O13            18.3454746217       14.2487675782       19.3458127074  MEMB      25              0.0000000000
      2634        25  SAPC      O14            19.0258636944       12.6492339502       21.1678827393  MEMB      25              0.0000000000
      2635        25  SAPC      O12            17.6921249702       11.9379314814       19.1420113705  MEMB      25              0.0000000000
      2636        25  SAPC      O11            20.0258313103       12.5014660390       18.9137117582  MEMB      25              0.0000000000
      2637        25  SAPC      C1             21.1774602613       13.3092862260       19.1857318387  MEMB      25              0.0000000000
      2638        25  SAPC      HA             20.9076924385       14.3759145771       19.3401665251  MEMB      25              0.0000000000
      2639        25  SAPC      HB             21.7210702961       12.8736573578       20.0512008915  MEMB      25              0.0000000000
      2640        25  SAPC      C2             22.1887543802       13.2328814682       17.9974496308  MEMB      25              0.0000000000
      2641        25  SAPC      HS             22.9745645876       14.0179698269       18.0188929767  MEMB      25              0.0000000000
      2642        25  SAPC      O21            21.4819626261       13.3834835798       16.6954353515  MEMB      25              0.0000000000
      2643        25  SAPC      C21            20.8582956089       14.6023300479       16.5374916955  MEMB      25              0.0000000000
      2644        25  SAPC      O22            20.9216326402       15.5980367013       17.2935324220  MEMB      25              0.0000000000
      2645        25  SAPC      C22            20.0745060354       14.6281788119       15.2238886875  MEMB      25              0.0000000000
      2646        25  SAPC      H2R            20.2892689390       15.5609791868       14.6599017536  MEMB      25              0.0000000000
      2647        25  SAPC      H2S            20.4710076610       13.8648358979       14.5207423237  MEMB      25              0.0000000000
      2648        25  SAPC      C3             22.9177940420       11.8607231811       18.0580010824  MEMB      25              0.0000000000
      2649        25  SAPC      HX             23.1614859264       11.6810865002       19.1269566375  MEMB      25              0.0000000000
      2650        25  SAPC      HY             23.7916511465       11.8826074741       17.3722779496  MEMB      25              0.0000000000
      2651        25  SAPC      O31            22.0471302352       10.8089622626       17.6416313353  MEMB      25              0.0000000000
      2652        25  SAPC      C31            21.9901300999       10.5530169083       16.3879917512  MEMB      25              0.0000000000
      2653        25  SAPC      O32            22.6563943301       10.9858852605       15.4580446215  MEMB      25              0.0000000000
      2654        25  SAPC      C32            20.9350940863        9.4751795394       16.2271086860  MEMB      25              0.0000000000
      2655        25  SAPC      H2X            20.0327476371        9.9432833785       16.6754063983  MEMB      25              0.0000000000
      2656        25  SAPC      H2Y            21.3338646522        8.6533764001       16.8595189544  MEMB      25              0.0000000000
      2657        25  SAPC      C23            18.5865431811       14.6090531184       15.5140699253  MEMB      25              0.0000000000
      2658        25  SAPC      H3R            18.2764540692       15.3211708398       16.3084588754  MEMB      25              0.0000000000
      2659        25  SAPC      H3S            18.2995722261       13.5804627278       15.8206149455  MEMB      25              0.0000000000
      2660        25  SAPC      C24            17.7683303082       14.9298238382       14.1921577189  MEMB      25              0.0000000000
      2661        25  SAPC      H4R            17.8956837510       15.9632074959       13.8045751725  MEMB      25              0.0000000000
      2662        25  SAPC      H4S            16.6814440989       14.8475559159       14.4071727937  MEMB      25              0.0000000000
      2663        25  SAPC      C25            17.9431612728       13.8938034338       13.1192103504  MEMB      25              0.0000000000
      2664        25  SAPC      H5R            17.6370258098       12.8966408506       13.4684208373  MEMB      25              0.0000000000
      2665        25  SAPC      C26            18.4842000006       13.9866824511       11.9152146694  MEMB      25              0.0000000000
      2666        25  SAPC      H6R            18.2297323830       13.2151996504       11.1735538242  MEMB      25              0.0000000000
      2667        25  SAPC      C27            19.0386647603       15.2920908432       11.3175328210  MEMB      25              0.0000000000
      2668        25  SAPC      H7R            20.0718701094       15.2686442186       11.7252799432  MEMB      25              0.0000000000
      2669        25  SAPC      H7S            18.5660105090       16.2083418183       11.7315410560  MEMB      25              0.0000000000
      2670        25  SAPC      C28            18.8354634367       15.4403540779        9.8055279627  MEMB      25              0.0000000000
      2671        25  SAPC      H8R            17.7429541502       15.4767721655        9.6826567791  MEMB      25              0.0000000000
      2672        25  SAPC      C29            19.6334326315       15.3735344479        8.7145409929  MEMB      25              0.0000000000
      2673        25  SAPC      H9R            19.1669973980       15.6000077338        7.7444127885  MEMB      25              0.0000000000
      2674        25  SAPC      C210           21.0814661979       15.0691751560        8.8888732331  MEMB      25              0.0000000000
      2675        25  SAPC      H10R           21.6932861616       15.9897634969        8.7770036589  MEMB      25              0.0000000000
      2676        25  SAPC      H10S           21.1958967611       14.6101276037        7.8836357966  MEMB      25              0.0000000000
      2677        25  SAPC      C211           21.6755557425       14.0975252787        9.8300110429  MEMB      25              0.0000000000
      2678        25  SAPC      H11R           22.2560540033       14.4684784846       10.6875748976  MEMB      25              0.0000000000
      2679        25  SAPC      C212           21.7153991727       12.7640403183        9.7670750422  MEMB      25              0.0000000000
      2680        25  SAPC      H12R           22.0433039634       12.2373673716       10.6754221385  MEMB      25              0.0000000000
      2681        25  SAPC      C213           21.1066558554       11.9459875697        8.6420578920  MEMB      25              0.0000000000
      2682        25  SAPC      H13R           21.0086189150       12.5891315815        7.7414601726  MEMB      25              0.0000000000
      2683        25  SAPC      H13S           20.1449282890       11.5706073183        9.0525347328  MEMB      25              0.0000000000
      2684        25  SAPC      C214           22.0042890832       10.6992308660        8.2101152643  MEMB      25              0.0000000000
      2685        25  SAPC      H14R           22.9263778662       10.5738662344        8.7966608544  MEMB      25              0.0000000000
      2686        25  SAPC      C215           21.6846018784        9.9387872472        7.2090122547  MEMB      25              0.0000000000
      2687        25  SAPC      H15R           22.3683835789        9.1842227443        6.7929889227  MEMB      25              0.0000000000
      2688        25  SAPC      C216           20.5014510178       10.0052471688        6.3308834331  MEMB      25              0.0000000000
      2689        25  SAPC      H16R           19.6741746468       10.6586188775        6.6816545183  MEMB      25              0.0000000000
      2690        25  SAPC      H16S           20.1004888336        8.9693404735        6.3097177920  MEMB      25              0.0000000000
      2691        25  SAPC      C217           20.7917208400       10.2966841403        4.8795347038  MEMB      25              0.0000000000
      2692        25  SAPC      H17R           19.8535804571       10.3927005596        4.2921726169  MEMB      25              0.0000000000
      2693        25  SAPC      H17S           21.2739454967        9.4475550287        4.3496671354  MEMB      25              0.0000000000
      2694        25  SAPC      C218           21.6537121912       11.5651773131        4.4860677525  MEMB      25              0.0000000000
      2695        25  SAPC      H18R           22.5695134341       11.6085520249        5.1135604868  MEMB      25              0.0000000000
      2696        25  SAPC      H18S           21.0097618405       12.4604350081        4.6208367866  MEMB      25              0.0000000000
      2697        25  SAPC      C219           22.0303002237       11.3360679549        3.0140332968  MEMB      25              0.0000000000
      2698        25  SAPC      H19R           21.1396662377       11.3469627349        2.3499753312  MEMB      25              0.0000000000
      2699        25  SAPC      H19S           22.5104884811       10.3356936920        2.9593394189  MEMB      25              0.0000000000
      2700        25  SAPC      C220           23.0263646546       12.3104528409        2.4949591265  MEMB      25              0.0000000000
      2701        25  SAPC      H20R           23.2515528457       12.2182700529        1.4109313334  MEMB      25              0.0000000000
      2702        25  SAPC      H20S           23.9709133295       12.1682487194        3.0623450719  MEMB      25              0.0000000000
      2703        25  SAPC      H20T           22.7217492929       13.3416477402        2.7745441752  MEMB      25              0.0000000000
      2704        25  SAPC      C33            20.7853357946        9.0033001200       14.7648850109  MEMB      25              0.0000000000
      2705        25  SAPC      H3X            20.2287764814        8.0434281084       14.8215254177  MEMB      25              0.0000000000
      2706        25  SAPC      H3Y            21.7648838084        8.6898480609       14.3447014595  MEMB      25              0.0000000000
      2707        25  SAPC      C34            19.9274661876        9.8514458917       13.8539834682  MEMB      25              0.0000000000
      2708        25  SAPC      H4X            20.1542611283       10.9385453389       13.8208182572  MEMB      25              0.0000000000
      2709        25  SAPC      H4Y            18.9012617249        9.7723183224       14.2722708691  MEMB      25              0.0000000000
      2710        25  SAPC      C35            19.7341907157        9.3642210809       12.4267242293  MEMB      25              0.0000000000
      2711        25  SAPC      H5X            19.9386316293        8.2745165482       12.3555301065  MEMB      25              0.0000000000
      2712        25  SAPC      H5Y            20.4162517065        9.9136815841       11.7431982305  MEMB      25              0.0000000000
      2713        25  SAPC      C36            18.2728078349        9.5174334507       11.8776340998  MEMB      25              0.0000000000
      2714        25  SAPC      H6X            17.9958017335       10.5790207766       11.7026446209  MEMB      25              0.0000000000
      2715        25  SAPC      H6Y            17.5396805166        9.1505752475       12.6274744835  MEMB      25              0.0000000000
      2716        25  SAPC      C37            18.0150050391        8.6893531450       10.6073813320  MEMB      25              0.0000000000
      2717        25  SAPC      H7X            18.2056581172        7.6148868349       10.8159335402  MEMB      25              0.0000000000
      2718        25  SAPC      H7Y            18.7764081652        8.9135704253        9.8300052519  MEMB      25              0.0000000000
      2719        25  SAPC      C38            16.5398091804        8.9375894222       10.0183924872  MEMB      25              0.0000000000
      2720        25  SAPC      H8X            15.8252295342        8.6446793346       10.8170800307  MEMB      25              0.0000000000
      2721        25  SAPC      H8Y            16.4485421375        8.2204216291        9.1747924148  MEMB      25              0.0000000000
      2722        25  SAPC      C39            16.0159142101       10.3779357347        9.6418806229  MEMB      25              0.0000000000
      2723        25  SAPC      H9X            15.9385514637       11.0496158409       10.5234601756  MEMB      25              0.0000000000
      2724        25  SAPC      H9Y            14.9790524464       10.3139381763        9.2479986978  MEMB      25              0.0000000000
      2725        25  SAPC      C310           16.9383191056       11.0232533154        8.6007696965  MEMB      25              0.0000000000
      2726        25  SAPC      H10X           17.0370356927       10.3137498286        7.7515460168  MEMB      25              0.0000000000
      2727        25  SAPC      H10Y           17.9205713301       11.1652291105        9.1001140406  MEMB      25              0.0000000000
      2728        25  SAPC      C311           16.4087853047       12.3907784493        8.1049610113  MEMB      25              0.0000000000
      2729        25  SAPC      H11X           16.2638965843       13.1138097782        8.9359566187  MEMB      25              0.0000000000
      2730        25  SAPC      H11Y           15.4227205838       12.2401932456        7.6157564782  MEMB      25              0.0000000000
      2731        25  SAPC      C312           17.3094736981       12.9897263204        7.0786067291  MEMB      25              0.0000000000
      2732        25  SAPC      H12X           18.3742673136       12.7329076594        7.2645631660  MEMB      25              0.0000000000
      2733        25  SAPC      H12Y           17.2498502707       14.0940367742        7.1847407631  MEMB      25              0.0000000000
      2734        25  SAPC      C313           16.9868505569       12.5054360376        5.6343393414  MEMB      25              0.0000000000
      2735        25  SAPC      H13X           15.9269780675       12.6882762967        5.3558425442  MEMB      25              0.0000000000
      2736        25  SAPC      H13Y           17.2474821414       11.4375675011        5.4729423275  MEMB      25              0.0000000000
      2737        25  SAPC      C314           17.8586610856       13.3154498787        4.6418427789  MEMB      25              0.0000000000
      2738        25  SAPC      H14X           18.9212503111       13.1896472792        4.9408391319  MEMB      25              0.0000000000
      2739        25  SAPC      H14Y           17.5264076991       14.3754992483        4.6268809826  MEMB      25              0.0000000000
      2740        25  SAPC      C315           17.7967156206       12.8074160055        3.1980670283  MEMB      25              0.0000000000
      2741        25  SAPC      H15X           16.7375077966       12.8389386406        2.8642909726  MEMB      25              0.0000000000
      2742        25  SAPC      H15Y           18.1405729379       11.7704847706        2.9959364217  MEMB      25              0.0000000000
      2743        25  SAPC      C316           18.5844093649       13.7177632616        2.2012563144  MEMB      25              0.0000000000
      2744        25  SAPC      H16X           19.6697642383       13.4858411493        2.2516333496  MEMB      25              0.0000000000
      2745        25  SAPC      H16Y           18.3820873790       14.7339771970        2.6021250603  MEMB      25              0.0000000000
      2746        25  SAPC      C317           18.0560212446       13.5873826606        0.8261074981  MEMB      25              0.0000000000
      2747        25  SAPC      H17X           18.3919465832       14.3772865576        0.1207522036  MEMB      25              0.0000000000
      2748        25  SAPC      H17Y           16.9720492948       13.3770817166        0.9489847357  MEMB      25              0.0000000000
      2749        25  SAPC      C318           18.6194905451       12.2559876443        0.1955422052  MEMB      25              0.0000000000
      2750        25  SAPC      H18X           19.6962340422       12.3402446216       -0.0649287604  MEMB      25              0.0000000000
      2751        25  SAPC      H18Y           17.9986730417       11.9884019535       -0.6861064321  MEMB      25              0.0000000000
      2752        25  SAPC      H18Z           18.4374969535       11.3926155681        0.8706634071  MEMB      25              0.0000000000
      2753        26  CHL1      C3             11.9492102561       17.0616520052       17.2744350000  MEMB      26              0.0000000000
      2754        26  CHL1      H3             12.6796096649       16.2538338009       17.0547450000  MEMB      26              0.0000000000
      2755        26  CHL1      O3             12.0113777439       17.3368147948       18.7255650000  MEMB      26              0.0000000000
      2756        26  CHL1      H3'            12.9023142588       17.5499854766       19.0125950000  MEMB      26              0.0000000000
      2757        26  CHL1      C4             12.3587722760       18.2796537508       16.4074950000  MEMB      26              0.0000000000
      2758        26  CHL1      H4A            11.8772923577       19.2500846492       16.6539750000  MEMB      26              0.0000000000
      2759        26  CHL1      H4B            13.3836059430       18.5553019931       16.7362050000  MEMB      26              0.0000000000
      2760        26  CHL1      C5             12.3537603292       18.0758790851       14.8998150000  MEMB      26              0.0000000000
      2761        26  CHL1      C6             13.4134713162       18.3212064970       14.0692350000  MEMB      26              0.0000000000
      2762        26  CHL1      H6             14.3140313336       18.8480799126       14.4176750000  MEMB      26              0.0000000000
      2763        26  CHL1      C7             13.4371063314       18.1352289679       12.5680850000  MEMB      26              0.0000000000
      2764        26  CHL1      H7A            14.0285427969       18.9455440497       12.0906850000  MEMB      26              0.0000000000
      2765        26  CHL1      H7B            13.9390840008       17.1619166287       12.3809650000  MEMB      26              0.0000000000
      2766        26  CHL1      C8             11.9700436925       17.9557357525       12.0302050000  MEMB      26              0.0000000000
      2767        26  CHL1      H8             11.4991087452       18.9562923406       12.1370950000  MEMB      26              0.0000000000
      2768        26  CHL1      C14            11.8558896307       17.4155153746       10.6432150000  MEMB      26              0.0000000000
      2769        26  CHL1      H14            12.5018646861       16.5122236905       10.6099550000  MEMB      26              0.0000000000
      2770        26  CHL1      C15            12.6221445903       18.2502570121        9.5305250000  MEMB      26              0.0000000000
      2771        26  CHL1      H15A           12.3089492401       19.3160500588        9.5131550000  MEMB      26              0.0000000000
      2772        26  CHL1      H15B           13.7197889698       18.1040512505        9.6206650000  MEMB      26              0.0000000000
      2773        26  CHL1      C16            12.1576024104       17.5324084414        8.2826350000  MEMB      26              0.0000000000
      2774        26  CHL1      H16A           12.0096102612       18.2995033127        7.4927050000  MEMB      26              0.0000000000
      2775        26  CHL1      H16B           12.9688677360       16.8342891177        7.9846650000  MEMB      26              0.0000000000
      2776        26  CHL1      C17            10.8978669211       16.6730613161        8.6569350000  MEMB      26              0.0000000000
      2777        26  CHL1      H17            11.1215049170       15.5851041996        8.6825450000  MEMB      26              0.0000000000
      2778        26  CHL1      C13            10.5179497592       17.0317833090       10.0612450000  MEMB      26              0.0000000000
      2779        26  CHL1      C18             9.6176014443       18.2414776257       10.0383950000  MEMB      26              0.0000000000
      2780        26  CHL1      H18A            9.6395819656       18.7318945205       11.0350550000  MEMB      26              0.0000000000
      2781        26  CHL1      H18B           10.0465412258       19.0290641203        9.3826150000  MEMB      26              0.0000000000
      2782        26  CHL1      H18C            8.5529407137       18.0885538774        9.7601550000  MEMB      26              0.0000000000
      2783        26  CHL1      C12             9.8831199117       15.8891297177       10.9372850000  MEMB      26              0.0000000000
      2784        26  CHL1      H12A            8.9348482793       15.4869445806       10.5209350000  MEMB      26              0.0000000000
      2785        26  CHL1      H12B           10.6097882955       15.0543186559       11.0340950000  MEMB      26              0.0000000000
      2786        26  CHL1      C11             9.8384070138       16.4130102172       12.4096350000  MEMB      26              0.0000000000
      2787        26  CHL1      H11A            9.0366078784       17.1819858669       12.4200650000  MEMB      26              0.0000000000
      2788        26  CHL1      H11B            9.4229699086       15.5971291960       13.0389850000  MEMB      26              0.0000000000
      2789        26  CHL1      C9             11.1909516609       16.9690153527       12.9704050000  MEMB      26              0.0000000000
      2790        26  CHL1      H9             11.8291225185       16.0596975506       12.9843750000  MEMB      26              0.0000000000
      2791        26  CHL1      C10            11.0213195335       17.5138279957       14.4304550000  MEMB      26              0.0000000000
      2792        26  CHL1      C19             9.9793352677       18.6709167320       14.5305950000  MEMB      26              0.0000000000
      2793        26  CHL1      H19A            9.6083606155       18.8116301299       15.5683250000  MEMB      26              0.0000000000
      2794        26  CHL1      H19B           10.4673740544       19.6198239443       14.2211950000  MEMB      26              0.0000000000
      2795        26  CHL1      H19C            9.1060331738       18.5716449971       13.8510250000  MEMB      26              0.0000000000
      2796        26  CHL1      C1             10.5110179962       16.3447777498       15.2768150000  MEMB      26              0.0000000000
      2797        26  CHL1      H1A             9.4494847945       16.1490040182       15.0139050000  MEMB      26              0.0000000000
      2798        26  CHL1      H1B            11.1069644437       15.4511832452       14.9927850000  MEMB      26              0.0000000000
      2799        26  CHL1      C2             10.5572305706       16.5295737886       16.7808850000  MEMB      26              0.0000000000
      2800        26  CHL1      H2A            10.1342696019       15.6549329685       17.3198150000  MEMB      26              0.0000000000
      2801        26  CHL1      H2B             9.8726638360       17.3631394059       17.0470850000  MEMB      26              0.0000000000
      2802        26  CHL1      C20             9.8542231994       16.8172510517        7.5608750000  MEMB      26              0.0000000000
      2803        26  CHL1      H20             9.7769614676       17.8773178236        7.2374150000  MEMB      26              0.0000000000
      2804        26  CHL1      C21             8.5356119011       16.2370758677        7.9711950000  MEMB      26              0.0000000000
      2805        26  CHL1      H21A            7.8893183783       16.3211764513        7.0714450000  MEMB      26              0.0000000000
      2806        26  CHL1      H21B            7.8736239142       16.7150944447        8.7245850000  MEMB      26              0.0000000000
      2807        26  CHL1      H21C            8.6172142008       15.1580527045        8.2229250000  MEMB      26              0.0000000000
      2808        26  CHL1      C22            10.4164088743       15.9767068434        6.3828750000  MEMB      26              0.0000000000
      2809        26  CHL1      H22A           11.4750347476       16.2599348810        6.2000950000  MEMB      26              0.0000000000
      2810        26  CHL1      H22B           10.2925669450       14.8869234502        6.5599950000  MEMB      26              0.0000000000
      2811        26  CHL1      C23             9.6659266031       16.3468486562        5.0822650000  MEMB      26              0.0000000000
      2812        26  CHL1      H23A            8.7354191040       15.7501023751        4.9710350000  MEMB      26              0.0000000000
      2813        26  CHL1      H23B            9.4323128141       17.4315528430        5.0261250000  MEMB      26              0.0000000000
      2814        26  CHL1      C24            10.5425206854       16.0294103072        3.8484350000  MEMB      26              0.0000000000
      2815        26  CHL1      H24A           11.2893201636       16.8282407035        3.6522650000  MEMB      26              0.0000000000
      2816        26  CHL1      H24B           10.9980666339       15.0681998105        4.1691450000  MEMB      26              0.0000000000
      2817        26  CHL1      C25             9.6835356124       15.8429290514        2.6274350000  MEMB      26              0.0000000000
      2818        26  CHL1      H25             8.9538484518       15.0068227985        2.5744950000  MEMB      26              0.0000000000
      2819        26  CHL1      C26             8.7380022134       16.9747167505        2.3200650000  MEMB      26              0.0000000000
      2820        26  CHL1      H26A            8.0767171642       16.9334258025        1.4282650000  MEMB      26              0.0000000000
      2821        26  CHL1      H26B            8.0510639270       16.9328205597        3.1922350000  MEMB      26              0.0000000000
      2822        26  CHL1      H26C            9.2769479333       17.9460879485        2.3024850000  MEMB      26              0.0000000000
      2823        26  CHL1      C27            10.6014752976       15.6400363754        1.4052950000  MEMB      26              0.0000000000
      2824        26  CHL1      H27A           11.1716456939       14.6893584215        1.4789750000  MEMB      26              0.0000000000
      2825        26  CHL1      H27B           10.0212709179       15.5272844342        0.4645650000  MEMB      26              0.0000000000
      2826        26  CHL1      H27C           11.2642556465       16.5230279678        1.2813050000  MEMB      26              0.0000000000
      2827        27  SAPI      C12           -20.2833319462       -9.0871454143       24.3522313108  MEMB      27              0.0000000000
      2828        27  SAPI      H2            -19.4096054379       -9.7733236407       24.3431545510  MEMB      27              0.0000000000
      2829        27  SAPI      O2            -21.4229441943       -9.9279260093       24.1342774185  MEMB      27              0.0000000000
      2830        27  SAPI      HO2           -22.2267034650       -9.4034564433       24.1567014241  MEMB      27              0.0000000000
      2831        27  SAPI      C13           -20.4353583174       -8.2872693660       25.6516775931  MEMB      27              0.0000000000
      2832        27  SAPI      H3            -19.4786606162       -7.7224674043       25.6586900958  MEMB      27              0.0000000000
      2833        27  SAPI      O3            -20.4654538292       -9.1958757682       26.7174906154  MEMB      27              0.0000000000
      2834        27  SAPI      HO3           -20.3502753707       -8.7937962785       27.5815892718  MEMB      27              0.0000000000
      2835        27  SAPI      C14           -21.6240056225       -7.3560364458       25.6791814619  MEMB      27              0.0000000000
      2836        27  SAPI      H4            -22.5973009932       -7.8538331328       25.4811523060  MEMB      27              0.0000000000
      2837        27  SAPI      O4            -21.6852773959       -6.6573275968       26.9197005706  MEMB      27              0.0000000000
      2838        27  SAPI      HO4           -22.1133821145       -7.1943215662       27.5904941109  MEMB      27              0.0000000000
      2839        27  SAPI      C15           -21.4135191508       -6.4096170665       24.4552062257  MEMB      27              0.0000000000
      2840        27  SAPI      H5            -20.5244228385       -5.7824542035       24.6799179270  MEMB      27              0.0000000000
      2841        27  SAPI      O5            -22.4986209088       -5.5057574608       24.4289923468  MEMB      27              0.0000000000
      2842        27  SAPI      HO5           -23.2641343574       -5.8447011520       24.8987867508  MEMB      27              0.0000000000
      2843        27  SAPI      C16           -21.3051756141       -7.1495540643       23.1438942020  MEMB      27              0.0000000000
      2844        27  SAPI      H6            -22.2903880646       -7.6383122447       22.9864372741  MEMB      27              0.0000000000
      2845        27  SAPI      O6            -21.2601057063       -6.3000419363       21.9872881704  MEMB      27              0.0000000000
      2846        27  SAPI      HO6           -22.1413398352       -6.2546511328       21.6091790062  MEMB      27              0.0000000000
      2847        27  SAPI      C11           -20.0479969870       -8.1608899020       23.1688197062  MEMB      27              0.0000000000
      2848        27  SAPI      H1            -19.1189826695       -7.5570912341       23.2505550807  MEMB      27              0.0000000000
      2849        27  SAPI      P             -18.6482730297       -9.3900239754       21.2924366363  MEMB      27              0.0000000000
      2850        27  SAPI      O13           -18.3126760929      -10.5968844697       22.1229291347  MEMB      27              0.0000000000
      2851        27  SAPI      O14           -17.6162511647       -8.3526292969       21.2106128095  MEMB      27              0.0000000000
      2852        27  SAPI      O12           -20.1287841830       -8.7586221748       21.8741174456  MEMB      27              0.0000000000
      2853        27  SAPI      O11           -19.1711236446       -9.8955727488       19.8167451435  MEMB      27              0.0000000000
      2854        27  SAPI      C1            -19.7623110829       -8.9936395396       18.9388055206  MEMB      27              0.0000000000
      2855        27  SAPI      HA            -20.8576709095       -9.0725678814       19.1069663816  MEMB      27              0.0000000000
      2856        27  SAPI      HB            -19.3543910215       -7.9704210200       19.0835331369  MEMB      27              0.0000000000
      2857        27  SAPI      C2            -19.4577142291       -9.3318569856       17.4580327503  MEMB      27              0.0000000000
      2858        27  SAPI      HS            -19.9021222236       -8.6311904732       16.7191897492  MEMB      27              0.0000000000
      2859        27  SAPI      O21           -19.9187905941      -10.6466462274       17.1409868171  MEMB      27              0.0000000000
      2860        27  SAPI      C21           -21.2066134992      -10.8236320090       16.9436293163  MEMB      27              0.0000000000
      2861        27  SAPI      O22           -22.0090552861       -9.8941823737       16.8224648397  MEMB      27              0.0000000000
      2862        27  SAPI      C22           -21.4445403716      -12.3244357067       16.5681809194  MEMB      27              0.0000000000
      2863        27  SAPI      H2R           -20.4888378326      -12.7927602873       16.8869687355  MEMB      27              0.0000000000
      2864        27  SAPI      H2S           -22.1839337692      -12.7751255300       17.2642392117  MEMB      27              0.0000000000
      2865        27  SAPI      C3            -17.9263897751       -9.2343658462       17.2863205623  MEMB      27              0.0000000000
      2866        27  SAPI      HX            -17.3589600680      -10.0082329384       17.8462082739  MEMB      27              0.0000000000
      2867        27  SAPI      HY            -17.6647431357       -8.2160245372       17.6452677958  MEMB      27              0.0000000000
      2868        27  SAPI      O31           -17.5111059657       -9.5016756748       15.9178060655  MEMB      27              0.0000000000
      2869        27  SAPI      C31           -17.0405397461       -8.5824949838       15.1471899946  MEMB      27              0.0000000000
      2870        27  SAPI      O32           -16.8734216875       -7.4040572597       15.4539399938  MEMB      27              0.0000000000
      2871        27  SAPI      C32           -16.6586682243       -9.1383469465       13.7794972641  MEMB      27              0.0000000000
      2872        27  SAPI      H2X           -17.1156805705      -10.1359422800       13.6055311890  MEMB      27              0.0000000000
      2873        27  SAPI      H2Y           -15.5511613632       -9.1567995721       13.6934219370  MEMB      27              0.0000000000
      2874        27  SAPI      C23           -21.7985920357      -12.4437163125       15.0118176282  MEMB      27              0.0000000000
      2875        27  SAPI      H3R           -22.6340638483      -11.8054340687       14.6527859758  MEMB      27              0.0000000000
      2876        27  SAPI      H3S           -22.1844093448      -13.4675030347       14.8186159908  MEMB      27              0.0000000000
      2877        27  SAPI      C24           -20.6200885500      -12.0857652467       14.0600361767  MEMB      27              0.0000000000
      2878        27  SAPI      H4R           -19.8864441599      -12.8503762779       14.3938879880  MEMB      27              0.0000000000
      2879        27  SAPI      H4S           -20.1743716508      -11.1099059548       14.3487508941  MEMB      27              0.0000000000
      2880        27  SAPI      C25           -20.8980154374      -12.0932195917       12.5808559387  MEMB      27              0.0000000000
      2881        27  SAPI      H5R           -20.8112884274      -13.0287551042       12.0087966046  MEMB      27              0.0000000000
      2882        27  SAPI      C26           -21.1359734687      -10.9990680589       11.8624452710  MEMB      27              0.0000000000
      2883        27  SAPI      H6R           -21.5222843501      -11.2390788012       10.8608678536  MEMB      27              0.0000000000
      2884        27  SAPI      C27           -21.2026768219       -9.5827051242       12.2726848943  MEMB      27              0.0000000000
      2885        27  SAPI      H7R           -20.2265463526       -9.2418136336       11.8661337603  MEMB      27              0.0000000000
      2886        27  SAPI      H7S           -21.0476187541       -9.4400729518       13.3635257615  MEMB      27              0.0000000000
      2887        27  SAPI      C28           -22.3403778808       -8.8415278770       11.6335009735  MEMB      27              0.0000000000
      2888        27  SAPI      H8R           -23.3063692148       -8.7099061924       12.1429481377  MEMB      27              0.0000000000
      2889        27  SAPI      C29           -22.3427522987       -8.2414483246       10.3920630088  MEMB      27              0.0000000000
      2890        27  SAPI      H9R           -23.2154288557       -7.6049671950       10.1839113794  MEMB      27              0.0000000000
      2891        27  SAPI      C210          -21.1976685693       -8.1737419279        9.4225038143  MEMB      27              0.0000000000
      2892        27  SAPI      H10R          -20.3018316279       -8.5091467898        9.9875699871  MEMB      27              0.0000000000
      2893        27  SAPI      H10S          -20.9426674395       -7.1060880907        9.2510084701  MEMB      27              0.0000000000
      2894        27  SAPI      C211          -21.3449697858       -8.9270446127        8.1416750687  MEMB      27              0.0000000000
      2895        27  SAPI      H11R          -21.7939329240       -9.9262714334        8.2415635848  MEMB      27              0.0000000000
      2896        27  SAPI      C212          -20.9038868027       -8.5258755024        6.9494535170  MEMB      27              0.0000000000
      2897        27  SAPI      H12R          -21.2363899434       -9.1373142071        6.0976413439  MEMB      27              0.0000000000
      2898        27  SAPI      C213          -20.2228353834       -7.2686716354        6.4926523639  MEMB      27              0.0000000000
      2899        27  SAPI      H13R          -20.7894851658       -6.4097570504        6.9115736553  MEMB      27              0.0000000000
      2900        27  SAPI      H13S          -20.1927933240       -7.3137747892        5.3829753794  MEMB      27              0.0000000000
      2901        27  SAPI      C214          -18.7587303266       -7.1395221737        6.8870534842  MEMB      27              0.0000000000
      2902        27  SAPI      H14R          -18.5205586936       -7.5703365625        7.8707576432  MEMB      27              0.0000000000
      2903        27  SAPI      C215          -17.7274376678       -6.6362852030        6.2225100656  MEMB      27              0.0000000000
      2904        27  SAPI      H15R          -16.6720648285       -6.7221451536        6.5205309689  MEMB      27              0.0000000000
      2905        27  SAPI      C216          -17.8352490750       -6.0648917929        4.8605552472  MEMB      27              0.0000000000
      2906        27  SAPI      H16R          -17.3316056701       -5.0841200583        4.9974899113  MEMB      27              0.0000000000
      2907        27  SAPI      H16S          -18.8468196594       -6.0086816870        4.4046101270  MEMB      27              0.0000000000
      2908        27  SAPI      C217          -17.0172012420       -6.9895936520        3.9113697782  MEMB      27              0.0000000000
      2909        27  SAPI      H17R          -17.5170529330       -7.9817977931        3.9107585291  MEMB      27              0.0000000000
      2910        27  SAPI      H17S          -15.9620719864       -7.1459335852        4.2221456923  MEMB      27              0.0000000000
      2911        27  SAPI      C218          -16.9644301203       -6.5266497298        2.4529935537  MEMB      27              0.0000000000
      2912        27  SAPI      H18R          -16.6257432417       -5.4688081903        2.4771393540  MEMB      27              0.0000000000
      2913        27  SAPI      H18S          -17.9853594291       -6.4724541776        2.0181520509  MEMB      27              0.0000000000
      2914        27  SAPI      C219          -15.9665488536       -7.2311838885        1.4242630059  MEMB      27              0.0000000000
      2915        27  SAPI      H19R          -14.9596831134       -7.0867243472        1.8711126635  MEMB      27              0.0000000000
      2916        27  SAPI      H19S          -15.9939114158       -6.7443353764        0.4259897207  MEMB      27              0.0000000000
      2917        27  SAPI      C220          -16.2194752847       -8.7093796182        1.1579210273  MEMB      27              0.0000000000
      2918        27  SAPI      H20R          -17.2543676774       -8.7792244459        0.7598751414  MEMB      27              0.0000000000
      2919        27  SAPI      H20S          -16.2616010034       -9.2618648749        2.1208889203  MEMB      27              0.0000000000
      2920        27  SAPI      H20T          -15.4641189329       -9.0584119274        0.4217592440  MEMB      27              0.0000000000
      2921        27  SAPI      C33           -17.1676175541       -8.3560132151       12.5514351537  MEMB      27              0.0000000000
      2922        27  SAPI      H3X           -16.8297662714       -7.2981737542       12.5853927961  MEMB      27              0.0000000000
      2923        27  SAPI      H3Y           -18.2700935474       -8.4862350886       12.5951381907  MEMB      27              0.0000000000
      2924        27  SAPI      C34           -16.7749300387       -9.0144090791       11.2367591344  MEMB      27              0.0000000000
      2925        27  SAPI      H4X           -15.7166688294       -8.8577902345       10.9369677103  MEMB      27              0.0000000000
      2926        27  SAPI      H4Y           -17.2122530452       -8.4239107863       10.4034630406  MEMB      27              0.0000000000
      2927        27  SAPI      C35           -17.2722810753      -10.3990706157       11.0946996158  MEMB      27              0.0000000000
      2928        27  SAPI      H5X           -18.3530974348      -10.4198187283       11.3510712932  MEMB      27              0.0000000000
      2929        27  SAPI      H5Y           -16.7057212102      -11.0534067719       11.7912442920  MEMB      27              0.0000000000
      2930        27  SAPI      C36           -17.1063091599      -10.9396885761        9.6858272645  MEMB      27              0.0000000000
      2931        27  SAPI      H6X           -17.5850407285      -10.2212830881        8.9865198865  MEMB      27              0.0000000000
      2932        27  SAPI      H6Y           -17.5405602307      -11.9623016782        9.6889276485  MEMB      27              0.0000000000
      2933        27  SAPI      C37           -15.5969832936      -11.0933029714        9.2858702328  MEMB      27              0.0000000000
      2934        27  SAPI      H7X           -15.1952902542      -11.8003538569       10.0428659710  MEMB      27              0.0000000000
      2935        27  SAPI      H7Y           -15.0739391892      -10.1150181448        9.3467359467  MEMB      27              0.0000000000
      2936        27  SAPI      C38           -15.2136615723      -11.8346914890        7.9864567732  MEMB      27              0.0000000000
      2937        27  SAPI      H8X           -16.1372698600      -12.3538440803        7.6521677760  MEMB      27              0.0000000000
      2938        27  SAPI      H8Y           -14.3161201392      -12.4433487094        8.2278617208  MEMB      27              0.0000000000
      2939        27  SAPI      C39           -14.9811412709      -10.7124051688        6.9417157282  MEMB      27              0.0000000000
      2940        27  SAPI      H9X           -13.8996018880      -10.4622961547        6.8965590030  MEMB      27              0.0000000000
      2941        27  SAPI      H9Y           -15.5790423952       -9.7911459556        7.1093949043  MEMB      27              0.0000000000
      2942        27  SAPI      C310          -15.3658787285      -10.8985244800        5.4651317264  MEMB      27              0.0000000000
      2943        27  SAPI      H10X          -14.5450137651      -11.5221428084        5.0508831802  MEMB      27              0.0000000000
      2944        27  SAPI      H10Y          -15.3081679028       -9.9324476612        4.9195253787  MEMB      27              0.0000000000
      2945        27  SAPI      C311          -16.7209437188      -11.6175469225        5.3094685149  MEMB      27              0.0000000000
      2946        27  SAPI      H11X          -17.4033274919      -11.2496720886        6.1052957898  MEMB      27              0.0000000000
      2947        27  SAPI      H11Y          -16.4825093377      -12.6688202391        5.5783437392  MEMB      27              0.0000000000
      2948        27  SAPI      C312          -17.2648702727      -11.4661378303        3.9128002758  MEMB      27              0.0000000000
      2949        27  SAPI      H12X          -16.4758081502      -11.5278476951        3.1331244295  MEMB      27              0.0000000000
      2950        27  SAPI      H12Y          -17.6711258184      -10.4479428518        3.7323674351  MEMB      27              0.0000000000
      2951        27  SAPI      C313          -18.3912559021      -12.4965155162        3.6089451759  MEMB      27              0.0000000000
      2952        27  SAPI      H13X          -19.1703917208      -12.4024396154        4.3953416591  MEMB      27              0.0000000000
      2953        27  SAPI      H13Y          -17.8817848712      -13.4517844421        3.8583892928  MEMB      27              0.0000000000
      2954        27  SAPI      C314          -18.9615306792      -12.2135752848        2.2360407975  MEMB      27              0.0000000000
      2955        27  SAPI      H14X          -19.7640817715      -12.9518180681        2.0233659082  MEMB      27              0.0000000000
      2956        27  SAPI      H14Y          -18.1766223440      -12.3839429160        1.4684365984  MEMB      27              0.0000000000
      2957        27  SAPI      C315          -19.6563646727      -10.8886883701        1.9083551023  MEMB      27              0.0000000000
      2958        27  SAPI      H15X          -19.6579408390      -10.8558637323        0.7978410595  MEMB      27              0.0000000000
      2959        27  SAPI      H15Y          -18.8990995829      -10.1306395926        2.2020092437  MEMB      27              0.0000000000
      2960        27  SAPI      C316          -21.1146063151      -10.6533389504        2.4686151904  MEMB      27              0.0000000000
      2961        27  SAPI      H16X          -20.9699699921      -10.7946067103        3.5610642440  MEMB      27              0.0000000000
      2962        27  SAPI      H16Y          -21.8362833975      -11.3765200624        2.0321385707  MEMB      27              0.0000000000
      2963        27  SAPI      C317          -21.6623210647       -9.2100582918        2.1753148295  MEMB      27              0.0000000000
      2964        27  SAPI      H17X          -21.9769581157       -9.0588751421        1.1205780800  MEMB      27              0.0000000000
      2965        27  SAPI      H17Y          -20.7514350227       -8.5859130266        2.2979949733  MEMB      27              0.0000000000
      2966        27  SAPI      C318          -22.8459185514       -8.7990261812        3.0524442665  MEMB      27              0.0000000000
      2967        27  SAPI      H18X          -22.8649573034       -7.6902407460        3.1199258715  MEMB      27              0.0000000000
      2968        27  SAPI      H18Y          -22.6217474011       -9.2475188445        4.0438690003  MEMB      27              0.0000000000
      2969        27  SAPI      H18Z          -23.7823674410       -9.1538486882        2.5713149571  MEMB      27              0.0000000000
      2970        28  CHL1      C3            -21.8463888009        4.8575518261       17.2911650000  MEMB      28              0.0000000000
      2971        28  CHL1      H3            -21.7507902940        5.9312079386       17.0220050000  MEMB      28              0.0000000000
      2972        28  CHL1      O3            -21.8196165991        4.6834363339       18.7088350000  MEMB      28              0.0000000000
      2973        28  CHL1      H3'           -20.9113146853        4.9698632182       18.8294150000  MEMB      28              0.0000000000
      2974        28  CHL1      C4            -23.2810200671        4.3437032380       16.9201250000  MEMB      28              0.0000000000
      2975        28  CHL1      H4A           -23.4256584218        3.3645341243       17.4247450000  MEMB      28              0.0000000000
      2976        28  CHL1      H4B           -24.0596464061        5.0388408209       17.3007150000  MEMB      28              0.0000000000
      2977        28  CHL1      C5            -23.4746198304        4.2519165541       15.4845150000  MEMB      28              0.0000000000
      2978        28  CHL1      C6            -24.4677991608        4.9022891824       14.8920550000  MEMB      28              0.0000000000
      2979        28  CHL1      H6            -25.1384900636        5.5792437594       15.4415050000  MEMB      28              0.0000000000
      2980        28  CHL1      C7            -24.5402163353        4.8826277239       13.4203350000  MEMB      28              0.0000000000
      2981        28  CHL1      H7A           -25.5776694962        4.6486642111       13.0989650000  MEMB      28              0.0000000000
      2982        28  CHL1      H7B           -24.1764509451        5.8561470660       13.0275850000  MEMB      28              0.0000000000
      2983        28  CHL1      C8            -23.7457746058        3.7173959606       12.7138250000  MEMB      28              0.0000000000
      2984        28  CHL1      H8            -24.2297778277        2.7510509204       12.9711950000  MEMB      28              0.0000000000
      2985        28  CHL1      C14           -23.9032339571        3.8324927077       11.2660050000  MEMB      28              0.0000000000
      2986        28  CHL1      H14           -23.6278445649        4.8599278497       10.9452950000  MEMB      28              0.0000000000
      2987        28  CHL1      C15           -25.3153906911        3.9173507983       10.6321850000  MEMB      28              0.0000000000
      2988        28  CHL1      H15A          -25.8651404172        3.0332361003       11.0200650000  MEMB      28              0.0000000000
      2989        28  CHL1      H15B          -25.7312863747        4.9170834180       10.8809250000  MEMB      28              0.0000000000
      2990        28  CHL1      C16           -25.0473505120        3.7829730912        9.0946250000  MEMB      28              0.0000000000
      2991        28  CHL1      H16A          -25.6449504467        2.9956251418        8.5874050000  MEMB      28              0.0000000000
      2992        28  CHL1      H16B          -25.2092139007        4.7711648727        8.6133850000  MEMB      28              0.0000000000
      2993        28  CHL1      C17           -23.5267655101        3.4960279123        8.9534050000  MEMB      28              0.0000000000
      2994        28  CHL1      H17           -23.0294136008        4.4841351572        9.0563750000  MEMB      28              0.0000000000
      2995        28  CHL1      C13           -23.0587663566        2.9075010259       10.3492250000  MEMB      28              0.0000000000
      2996        28  CHL1      C18           -23.4501298690        1.4668334002       10.4284750000  MEMB      28              0.0000000000
      2997        28  CHL1      H18A          -23.5346454383        1.1899348176       11.5010950000  MEMB      28              0.0000000000
      2998        28  CHL1      H18B          -24.4902420938        1.2845956632       10.0831350000  MEMB      28              0.0000000000
      2999        28  CHL1      H18C          -22.6808533984        0.8125717804        9.9653450000  MEMB      28              0.0000000000
      3000        28  CHL1      C12           -21.5691837544        3.0668053308       10.8385450000  MEMB      28              0.0000000000
      3001        28  CHL1      H12A          -20.9212455815        2.3447118240       10.2971750000  MEMB      28              0.0000000000
      3002        28  CHL1      H12B          -21.2517259320        4.1044158242       10.5999650000  MEMB      28              0.0000000000
      3003        28  CHL1      C11           -21.4503434053        2.7865243026       12.3457250000  MEMB      28              0.0000000000
      3004        28  CHL1      H11A          -21.9442105243        1.7930019274       12.4033450000  MEMB      28              0.0000000000
      3005        28  CHL1      H11B          -20.4248374375        2.8246732761       12.7714050000  MEMB      28              0.0000000000
      3006        28  CHL1      C9            -22.3814104426        3.7497346817       13.1449850000  MEMB      28              0.0000000000
      3007        28  CHL1      H9            -22.0240527171        4.7942735755       13.0202450000  MEMB      28              0.0000000000
      3008        28  CHL1      C10           -22.2767412971        3.5595164392       14.6993050000  MEMB      28              0.0000000000
      3009        28  CHL1      C19           -22.3444361130        1.9804376141       14.9396250000  MEMB      28              0.0000000000
      3010        28  CHL1      H19A          -23.3597673025        1.5788560745       14.7343650000  MEMB      28              0.0000000000
      3011        28  CHL1      H19B          -21.4865391825        1.4682493253       14.4538250000  MEMB      28              0.0000000000
      3012        28  CHL1      H19C          -22.2294536579        1.8736293521       16.0394850000  MEMB      28              0.0000000000
      3013        28  CHL1      C1            -20.8457509453        4.0747302533       15.1456150000  MEMB      28              0.0000000000
      3014        28  CHL1      H1A           -20.0724040964        3.3536701708       14.8045250000  MEMB      28              0.0000000000
      3015        28  CHL1      H1B           -20.7094196694        5.0900745760       14.7157150000  MEMB      28              0.0000000000
      3016        28  CHL1      C2            -20.7141845970        4.0679499223       16.6691650000  MEMB      28              0.0000000000
      3017        28  CHL1      H2A           -19.7137439667        4.5035983101       16.8780450000  MEMB      28              0.0000000000
      3018        28  CHL1      H2B           -20.5891023033        3.0575974740       17.1139850000  MEMB      28              0.0000000000
      3019        28  CHL1      C20           -23.1301276169        2.7292975382        7.6782350000  MEMB      28              0.0000000000
      3020        28  CHL1      H20           -23.4993533160        1.6835918952        7.6112650000  MEMB      28              0.0000000000
      3021        28  CHL1      C21           -21.6515244479        2.8588034246        7.5408950000  MEMB      28              0.0000000000
      3022        28  CHL1      H21A          -21.3282801433        3.9174209055        7.6366150000  MEMB      28              0.0000000000
      3023        28  CHL1      H21B          -21.2610347754        2.4469526383        6.5857950000  MEMB      28              0.0000000000
      3024        28  CHL1      H21C          -21.1072543549        2.2658576832        8.3067450000  MEMB      28              0.0000000000
      3025        28  CHL1      C22           -23.8781277711        3.2342245080        6.4072850000  MEMB      28              0.0000000000
      3026        28  CHL1      H22A          -24.9572265621        3.0674279126        6.6123750000  MEMB      28              0.0000000000
      3027        28  CHL1      H22B          -23.7483133111        4.3348504085        6.4852750000  MEMB      28              0.0000000000
      3028        28  CHL1      C23           -23.3541843925        2.7086607017        5.0159150000  MEMB      28              0.0000000000
      3029        28  CHL1      H23A          -22.4202452674        3.2861094248        4.8466850000  MEMB      28              0.0000000000
      3030        28  CHL1      H23B          -23.1540523813        1.6176851203        4.9524050000  MEMB      28              0.0000000000
      3031        28  CHL1      C24           -24.4962021344        2.9991036883        4.0001750000  MEMB      28              0.0000000000
      3032        28  CHL1      H24A          -25.1594559885        2.1130753753        4.0969550000  MEMB      28              0.0000000000
      3033        28  CHL1      H24B          -25.0242760598        3.9682494471        4.1275650000  MEMB      28              0.0000000000
      3034        28  CHL1      C25           -23.9589440815        2.8567268226        2.5847650000  MEMB      28              0.0000000000
      3035        28  CHL1      H25           -23.2064515334        2.0502109098        2.7174950000  MEMB      28              0.0000000000
      3036        28  CHL1      C26           -25.0515100552        2.5400008723        1.6808050000  MEMB      28              0.0000000000
      3037        28  CHL1      H26A          -25.4827421488        1.5590522153        1.9741950000  MEMB      28              0.0000000000
      3038        28  CHL1      H26B          -25.8040819123        3.3414734022        1.8408350000  MEMB      28              0.0000000000
      3039        28  CHL1      H26C          -24.7491766296        2.5680859142        0.6120950000  MEMB      28              0.0000000000
      3040        28  CHL1      C27           -23.3384045637        4.1588368248        2.1182650000  MEMB      28              0.0000000000
      3041        28  CHL1      H27A          -22.4821429406        4.3656245563        2.7952950000  MEMB      28              0.0000000000
      3042        28  CHL1      H27B          -22.8899084995        4.0799698776        1.1048750000  MEMB      28              0.0000000000
      3043        28  CHL1      H27C          -24.1040086965        4.9592507751        2.2049850000  MEMB      28              0.0000000000
      3044        29  SAPE      N              -8.8252909673      -24.7437606442       20.0928030706  MEMB      29              0.0000000000
      3045        29  SAPE      HN1            -8.1918995818      -24.5055227834       19.3030828437  MEMB      29              0.0000000000
      3046        29  SAPE      HN2            -8.6073361970      -25.6795863286       20.4907050216  MEMB      29              0.0000000000
      3047        29  SAPE      HN3            -9.6972440267      -24.9723415176       19.5741041634  MEMB      29              0.0000000000
      3048        29  SAPE      C12            -9.2262944035      -23.5967096747       20.9806063231  MEMB      29              0.0000000000
      3049        29  SAPE      H12A           -8.3330340459      -23.3239647202       21.5822850460  MEMB      29              0.0000000000
      3050        29  SAPE      H12B           -9.9868687460      -24.1216638967       21.5972672591  MEMB      29              0.0000000000
      3051        29  SAPE      C11            -9.7202554364      -22.3271845016       20.2632748048  MEMB      29              0.0000000000
      3052        29  SAPE      H11A          -10.1752696992      -21.5521547658       20.9164301980  MEMB      29              0.0000000000
      3053        29  SAPE      H11B          -10.5913113789      -22.6857776877       19.6742132094  MEMB      29              0.0000000000
      3054        29  SAPE      P              -7.6456831543      -20.6412478747       19.7918885594  MEMB      29              0.0000000000
      3055        29  SAPE      O13            -8.1938094335      -19.3298106215       19.3246298890  MEMB      29              0.0000000000
      3056        29  SAPE      O14            -7.3796889134      -20.7452949637       21.2495673933  MEMB      29              0.0000000000
      3057        29  SAPE      O12            -8.7205676961      -21.7573313262       19.3449834145  MEMB      29              0.0000000000
      3058        29  SAPE      O11            -6.3785194287      -21.0818758841       18.9522465116  MEMB      29              0.0000000000
      3059        29  SAPE      C1             -6.0327483005      -22.3714604536       18.5979605654  MEMB      29              0.0000000000
      3060        29  SAPE      HA             -5.4690782295      -22.8313904602       19.4376399519  MEMB      29              0.0000000000
      3061        29  SAPE      HB             -6.9246362795      -23.0005540587       18.3903600441  MEMB      29              0.0000000000
      3062        29  SAPE      C2             -5.2621877416      -22.3298806027       17.3184465398  MEMB      29              0.0000000000
      3063        29  SAPE      HS             -4.4956864737      -21.5653411778       17.5679991452  MEMB      29              0.0000000000
      3064        29  SAPE      O21            -6.1292553151      -21.8620415565       16.2942543534  MEMB      29              0.0000000000
      3065        29  SAPE      C21            -5.4593358296      -21.2586745968       15.2710594915  MEMB      29              0.0000000000
      3066        29  SAPE      O22            -4.2589278845      -20.8916608652       15.2722422842  MEMB      29              0.0000000000
      3067        29  SAPE      C22            -6.2776249874      -21.0695210059       14.0055716599  MEMB      29              0.0000000000
      3068        29  SAPE      H2R            -5.5901537615      -20.7726505166       13.1848574677  MEMB      29              0.0000000000
      3069        29  SAPE      H2S            -6.6788020357      -22.0940438672       13.8515231282  MEMB      29              0.0000000000
      3070        29  SAPE      C3             -4.7088433912      -23.7525729715       16.9588364513  MEMB      29              0.0000000000
      3071        29  SAPE      HX             -4.1616744100      -24.2158142574       17.8075616306  MEMB      29              0.0000000000
      3072        29  SAPE      HY             -4.0758207715      -23.6346942437       16.0534592368  MEMB      29              0.0000000000
      3073        29  SAPE      O31            -5.7701204672      -24.6840189869       16.6373510038  MEMB      29              0.0000000000
      3074        29  SAPE      C31            -6.2649872117      -25.4657829509       17.5378396189  MEMB      29              0.0000000000
      3075        29  SAPE      O32            -5.8594572744      -25.5750372210       18.6553692991  MEMB      29              0.0000000000
      3076        29  SAPE      C32            -7.4544140645      -26.2891283418       16.9524655204  MEMB      29              0.0000000000
      3077        29  SAPE      H2X            -7.7952072621      -26.9343157581       17.7902687327  MEMB      29              0.0000000000
      3078        29  SAPE      H2Y            -7.1290756667      -27.0360285208       16.1970738928  MEMB      29              0.0000000000
      3079        29  SAPE      C23            -7.3593953579      -20.0120185496       14.0887832445  MEMB      29              0.0000000000
      3080        29  SAPE      H3R            -6.7683502657      -19.0852208774       14.2501298893  MEMB      29              0.0000000000
      3081        29  SAPE      H3S            -8.0806897889      -20.1742917878       14.9180736887  MEMB      29              0.0000000000
      3082        29  SAPE      C24            -8.2215865156      -19.8580984697       12.7991435955  MEMB      29              0.0000000000
      3083        29  SAPE      H4R            -9.1233578965      -19.3327406570       13.1801012099  MEMB      29              0.0000000000
      3084        29  SAPE      H4S            -8.5643870383      -20.8951238343       12.5957051986  MEMB      29              0.0000000000
      3085        29  SAPE      C25            -7.5010892986      -19.2346580924       11.6378275188  MEMB      29              0.0000000000
      3086        29  SAPE      H5R            -6.4227038387      -19.4174397381       11.7547698978  MEMB      29              0.0000000000
      3087        29  SAPE      C26            -7.9283837642      -18.6420528951       10.4853259745  MEMB      29              0.0000000000
      3088        29  SAPE      H6R            -7.2037162248      -18.1827718261        9.7969091904  MEMB      29              0.0000000000
      3089        29  SAPE      C27            -9.3939961060      -18.4087942237       10.1024456030  MEMB      29              0.0000000000
      3090        29  SAPE      H7R            -9.8854346616      -17.8033967680       10.8938391918  MEMB      29              0.0000000000
      3091        29  SAPE      H7S            -9.9530919128      -19.3635732389       10.2030936118  MEMB      29              0.0000000000
      3092        29  SAPE      C28            -9.7410585792      -17.9265822069        8.6745737262  MEMB      29              0.0000000000
      3093        29  SAPE      H8R            -9.6948756079      -16.8500671387        8.4532545184  MEMB      29              0.0000000000
      3094        29  SAPE      C29           -10.1219310268      -18.7376750394        7.6363363760  MEMB      29              0.0000000000
      3095        29  SAPE      H9R           -10.2943851286      -18.2930594869        6.6450857677  MEMB      29              0.0000000000
      3096        29  SAPE      C210          -10.2751881396      -20.2245384132        7.5908916746  MEMB      29              0.0000000000
      3097        29  SAPE      H10R          -11.2889586098      -20.3762278344        7.1624292172  MEMB      29              0.0000000000
      3098        29  SAPE      H10S          -10.1458211829      -20.6785632245        8.5965989809  MEMB      29              0.0000000000
      3099        29  SAPE      C211           -9.2873305207      -20.8618084349        6.5801948434  MEMB      29              0.0000000000
      3100        29  SAPE      H11R           -8.2456600555      -20.5129536472        6.6369658606  MEMB      29              0.0000000000
      3101        29  SAPE      C212           -9.5620983830      -21.6365972428        5.5003122193  MEMB      29              0.0000000000
      3102        29  SAPE      H12R           -8.7847323780      -22.1366860816        4.9039783126  MEMB      29              0.0000000000
      3103        29  SAPE      C213          -10.9138529700      -22.1121531932        5.0173249487  MEMB      29              0.0000000000
      3104        29  SAPE      H13R          -11.7090807512      -21.3427506829        5.1170918810  MEMB      29              0.0000000000
      3105        29  SAPE      H13S          -11.1599894060      -22.8567300870        5.8043087269  MEMB      29              0.0000000000
      3106        29  SAPE      C214          -11.1151669035      -22.7867209706        3.6671067262  MEMB      29              0.0000000000
      3107        29  SAPE      H14R          -11.3959302230      -23.8499531964        3.6937385336  MEMB      29              0.0000000000
      3108        29  SAPE      C215          -10.9071101480      -22.2196508343        2.4049610801  MEMB      29              0.0000000000
      3109        29  SAPE      H15R          -11.1369471899      -22.7050693379        1.4449904775  MEMB      29              0.0000000000
      3110        29  SAPE      C216          -10.4160252587      -20.8180814498        2.1164883932  MEMB      29              0.0000000000
      3111        29  SAPE      H16R          -10.3058866873      -20.7019410408        1.0170787019  MEMB      29              0.0000000000
      3112        29  SAPE      H16S           -9.4452415967      -20.6589697103        2.6328050575  MEMB      29              0.0000000000
      3113        29  SAPE      C217          -11.2984214487      -19.6543015984        2.6050966914  MEMB      29              0.0000000000
      3114        29  SAPE      H17R          -11.3443623599      -19.6867827746        3.7146715342  MEMB      29              0.0000000000
      3115        29  SAPE      H17S          -12.3556512055      -19.8729211667        2.3428158169  MEMB      29              0.0000000000
      3116        29  SAPE      C218          -10.7984218080      -18.2684853700        2.0667006233  MEMB      29              0.0000000000
      3117        29  SAPE      H18R           -9.7151328910      -18.1833641492        1.8352705062  MEMB      29              0.0000000000
      3118        29  SAPE      H18S          -10.9188157540      -17.6005906682        2.9463275745  MEMB      29              0.0000000000
      3119        29  SAPE      C219          -11.6835843868      -17.7609743533        0.9249785353  MEMB      29              0.0000000000
      3120        29  SAPE      H19R          -11.2432908165      -16.7603143378        0.7271351185  MEMB      29              0.0000000000
      3121        29  SAPE      H19S          -12.6968195384      -17.5840662112        1.3449545356  MEMB      29              0.0000000000
      3122        29  SAPE      C220          -11.7013440670      -18.6213640852       -0.3619818247  MEMB      29              0.0000000000
      3123        29  SAPE      H20R          -12.1855406221      -19.6026221799       -0.1696081349  MEMB      29              0.0000000000
      3124        29  SAPE      H20S          -10.6493519119      -18.8534410225       -0.6335945478  MEMB      29              0.0000000000
      3125        29  SAPE      H20T          -12.1278078335      -17.9969718186       -1.1759737100  MEMB      29              0.0000000000
      3126        29  SAPE      C33            -8.6071798106      -25.3855198497       16.4281048799  MEMB      29              0.0000000000
      3127        29  SAPE      H3X            -8.2907091649      -24.3205978199       16.4176985374  MEMB      29              0.0000000000
      3128        29  SAPE      H3Y            -9.4737536849      -25.6233998140       17.0813917578  MEMB      29              0.0000000000
      3129        29  SAPE      C34            -9.0343077076      -25.8402633284       15.0551307996  MEMB      29              0.0000000000
      3130        29  SAPE      H4X           -10.1408161330      -25.7419044400       15.0382354068  MEMB      29              0.0000000000
      3131        29  SAPE      H4Y            -9.0083915822      -26.9422710993       14.9164631334  MEMB      29              0.0000000000
      3132        29  SAPE      C35            -8.3025622437      -25.1821012798       13.9030467162  MEMB      29              0.0000000000
      3133        29  SAPE      H5X            -7.2377306404      -25.4752684843       14.0234935972  MEMB      29              0.0000000000
      3134        29  SAPE      H5Y            -8.5374659949      -24.0966158909       13.8736744760  MEMB      29              0.0000000000
      3135        29  SAPE      C36            -8.6238027282      -25.7321601342       12.4748139460  MEMB      29              0.0000000000
      3136        29  SAPE      H6X            -9.5995486264      -25.4708839585       12.0122386873  MEMB      29              0.0000000000
      3137        29  SAPE      H6Y            -8.4136316835      -26.8170719043       12.3602897550  MEMB      29              0.0000000000
      3138        29  SAPE      C37            -7.6727566747      -25.0822531417       11.3133267275  MEMB      29              0.0000000000
      3139        29  SAPE      H7X            -8.0880066594      -25.6529275303       10.4552946995  MEMB      29              0.0000000000
      3140        29  SAPE      H7Y            -6.6561341730      -25.4810557121       11.5176712722  MEMB      29              0.0000000000
      3141        29  SAPE      C38            -7.8938850215      -23.6027044581       11.0912355384  MEMB      29              0.0000000000
      3142        29  SAPE      H8X            -7.3444008318      -22.9281764740       11.7821773767  MEMB      29              0.0000000000
      3143        29  SAPE      H8Y            -8.9785308463      -23.4596020733       11.2845899413  MEMB      29              0.0000000000
      3144        29  SAPE      C39            -7.5981067421      -23.1256472305        9.5941512912  MEMB      29              0.0000000000
      3145        29  SAPE      H9X            -7.9426124288      -22.0739657247        9.6921457331  MEMB      29              0.0000000000
      3146        29  SAPE      H9Y            -8.1624214358      -23.6284616308        8.7798741808  MEMB      29              0.0000000000
      3147        29  SAPE      C310           -6.0572383255      -23.1284362869        9.4320526320  MEMB      29              0.0000000000
      3148        29  SAPE      H10X           -5.7567632245      -24.1913711945        9.3128698032  MEMB      29              0.0000000000
      3149        29  SAPE      H10Y           -5.7627535741      -22.6065456650       10.3675899318  MEMB      29              0.0000000000
      3150        29  SAPE      C311           -5.5735623609      -22.3179177341        8.1847995444  MEMB      29              0.0000000000
      3151        29  SAPE      H11X           -4.4702105213      -22.2442602002        8.2920866668  MEMB      29              0.0000000000
      3152        29  SAPE      H11Y           -5.9925262895      -21.2943684882        8.2903317201  MEMB      29              0.0000000000
      3153        29  SAPE      C312           -5.9373616271      -22.9709694547        6.8423996959  MEMB      29              0.0000000000
      3154        29  SAPE      H12X           -6.9931393508      -23.2259178523        6.6086143325  MEMB      29              0.0000000000
      3155        29  SAPE      H12Y           -5.3671911816      -23.9229599498        6.7881725470  MEMB      29              0.0000000000
      3156        29  SAPE      C313           -5.2025189813      -22.1466228808        5.7539023378  MEMB      29              0.0000000000
      3157        29  SAPE      H13X           -4.1146791820      -22.3695941682        5.7886807889  MEMB      29              0.0000000000
      3158        29  SAPE      H13Y           -5.2605927270      -21.0692713801        6.0189726857  MEMB      29              0.0000000000
      3159        29  SAPE      C314           -5.5364328096      -22.3809840554        4.1610247496  MEMB      29              0.0000000000
      3160        29  SAPE      H14X           -4.6788305717      -21.8587648595        3.6854973051  MEMB      29              0.0000000000
      3161        29  SAPE      H14Y           -6.4249089774      -21.7608800285        3.9152562266  MEMB      29              0.0000000000
      3162        29  SAPE      C315           -5.9045190539      -23.8547521959        3.8698571843  MEMB      29              0.0000000000
      3163        29  SAPE      H15X           -6.7311045775      -24.1537004783        4.5493478741  MEMB      29              0.0000000000
      3164        29  SAPE      H15Y           -5.0471223391      -24.4688255313        4.2192937558  MEMB      29              0.0000000000
      3165        29  SAPE      C316           -6.2249772925      -23.9780963824        2.3310884007  MEMB      29              0.0000000000
      3166        29  SAPE      H16X           -7.2437053572      -23.6289458064        2.0579419639  MEMB      29              0.0000000000
      3167        29  SAPE      H16Y           -6.2357035103      -25.0836687192        2.2219315429  MEMB      29              0.0000000000
      3168        29  SAPE      C317           -5.2389893719      -23.2372760830        1.3979572708  MEMB      29              0.0000000000
      3169        29  SAPE      H17X           -4.2480454832      -23.4558547080        1.8502564707  MEMB      29              0.0000000000
      3170        29  SAPE      H17Y           -5.4903857823      -22.1568994960        1.4604669167  MEMB      29              0.0000000000
      3171        29  SAPE      C318           -5.1981850627      -23.6589740324       -0.0477046759  MEMB      29              0.0000000000
      3172        29  SAPE      H18X           -4.6132218557      -22.9083305654       -0.6210052943  MEMB      29              0.0000000000
      3173        29  SAPE      H18Y           -6.2181803576      -23.7238185097       -0.4832786243  MEMB      29              0.0000000000
      3174        29  SAPE      H18Z           -4.7268073724      -24.6358372242       -0.2882496238  MEMB      29              0.0000000000
      3175        30  OSM       N              -0.0080910906       24.2475473801       21.8795834396  MEMB      30              0.0000000000
      3176        30  OSM       C15             1.1071867081       24.6812719806       22.7590363463  MEMB      30              0.0000000000
      3177        30  OSM       H15A            1.9694326464       24.2243028192       22.2963148424  MEMB      30              0.0000000000
      3178        30  OSM       H15B            0.8920507762       24.1736473357       23.6877095115  MEMB      30              0.0000000000
      3179        30  OSM       H15C            1.1264945586       25.7428282498       22.9568377114  MEMB      30              0.0000000000
      3180        30  OSM       C14            -1.2758336947       24.7629615545       22.4788375452  MEMB      30              0.0000000000
      3181        30  OSM       H14A           -1.1784209121       25.8360846673       22.5517583094  MEMB      30              0.0000000000
      3182        30  OSM       H14B           -1.4262643060       24.2895580449       23.4378265487  MEMB      30              0.0000000000
      3183        30  OSM       H14C           -2.1491202671       24.6946168457       21.8470942976  MEMB      30              0.0000000000
      3184        30  OSM       C13            -0.0026518787       24.8148372509       20.5227325043  MEMB      30              0.0000000000
      3185        30  OSM       H13A            0.7228237859       24.2617088049       19.9446892623  MEMB      30              0.0000000000
      3186        30  OSM       H13B            0.1270380622       25.8830050045       20.4300065654  MEMB      30              0.0000000000
      3187        30  OSM       H13C           -0.8831328098       24.5291237498       19.9663862448  MEMB      30              0.0000000000
      3188        30  OSM       C12             0.0801584203       22.7330696183       21.7247901825  MEMB      30              0.0000000000
      3189        30  OSM       H12A            0.0851671222       22.1898382391       22.6582110535  MEMB      30              0.0000000000
      3190        30  OSM       H12B            1.0859845118       22.6717621064       21.3362603556  MEMB      30              0.0000000000
      3191        30  OSM       C11            -0.7811592916       21.8883806287       20.7798697394  MEMB      30              0.0000000000
      3192        30  OSM       H11A           -0.6506189235       20.9007138411       21.2715959544  MEMB      30              0.0000000000
      3193        30  OSM       H11B           -0.4561981234       21.9102220825       19.7176813857  MEMB      30              0.0000000000
      3194        30  OSM       P              -3.3375125721       21.5643618054       20.2159283739  MEMB      30              0.0000000000
      3195        30  OSM       O13            -3.4827001447       20.2450637091       20.8499287103  MEMB      30              0.0000000000
      3196        30  OSM       O14            -4.5559579704       22.4366599556       20.1972757373  MEMB      30              0.0000000000
      3197        30  OSM       O11            -2.8218166731       21.4024874062       18.7412172099  MEMB      30              0.0000000000
      3198        30  OSM       O12            -2.1552906860       22.3731125060       20.8508002116  MEMB      30              0.0000000000
      3199        30  OSM       C1S            -2.5241483132       22.4893897866       17.8475440330  MEMB      30              0.0000000000
      3200        30  OSM       H1S            -1.9580444840       23.2899022345       18.3700642044  MEMB      30              0.0000000000
      3201        30  OSM       H1T            -3.4370587201       23.0601741139       17.5734620657  MEMB      30              0.0000000000
      3202        30  OSM       NF             -1.3197441197       23.3323277710       15.8839447520  MEMB      30              0.0000000000
      3203        30  OSM       HNF            -1.7239090473       23.5079309733       14.9896163248  MEMB      30              0.0000000000
      3204        30  OSM       C2S            -1.7437842767       22.1247583913       16.5617078785  MEMB      30              0.0000000000
      3205        30  OSM       H2S            -0.8405218796       21.5571154944       16.8719005978  MEMB      30              0.0000000000
      3206        30  OSM       C3S            -2.6264366875       21.2759259842       15.6575802899  MEMB      30              0.0000000000
      3207        30  OSM       H3S            -3.4927152667       21.8926021193       15.3357215090  MEMB      30              0.0000000000
      3208        30  OSM       O3             -3.1268743849       20.1537081292       16.3823692366  MEMB      30              0.0000000000
      3209        30  OSM       HO3            -2.9048145225       20.4007688467       17.2830635180  MEMB      30              0.0000000000
      3210        30  OSM       C4S            -1.8208418523       20.8729477523       14.4553773404  MEMB      30              0.0000000000
      3211        30  OSM       H4S            -1.9016489602       21.5887508327       13.6240556635  MEMB      30              0.0000000000
      3212        30  OSM       C5S            -0.8822998906       19.9081777243       14.4246694651  MEMB      30              0.0000000000
      3213        30  OSM       H5S            -0.6045939671       19.4438994453       15.3824407624  MEMB      30              0.0000000000
      3214        30  OSM       C6S            -0.1276916850       19.4258602430       13.2010778887  MEMB      30              0.0000000000
      3215        30  OSM       H6S            -0.3988270617       18.3678708269       12.9974492630  MEMB      30              0.0000000000
      3216        30  OSM       H6T             0.9147655644       19.4022692869       13.5845460254  MEMB      30              0.0000000000
      3217        30  OSM       C7S            -0.2494071155       20.2866837595       11.8825564405  MEMB      30              0.0000000000
      3218        30  OSM       H7S            -0.1868386039       21.3570168829       12.1737489268  MEMB      30              0.0000000000
      3219        30  OSM       H7T            -1.2870606360       20.0257703581       11.5833564534  MEMB      30              0.0000000000
      3220        30  OSM       C8S             0.7229609951       20.0339465476       10.7642401638  MEMB      30              0.0000000000
      3221        30  OSM       H8S             0.7892802425       18.9292737333       10.6661545010  MEMB      30              0.0000000000
      3222        30  OSM       H8T             1.6920814305       20.4219013483       11.1445259756  MEMB      30              0.0000000000
      3223        30  OSM       C9S             0.3458605558       20.8148830177        9.4809210613  MEMB      30              0.0000000000
      3224        30  OSM       H9S             0.5909588052       21.8739900197        9.7101379484  MEMB      30              0.0000000000
      3225        30  OSM       H9T            -0.7354698489       20.7109702678        9.2480104030  MEMB      30              0.0000000000
      3226        30  OSM       C10S            1.0984230623       20.3352532192        8.2752804347  MEMB      30              0.0000000000
      3227        30  OSM       H10S            0.9499459790       19.2667238080        8.0097226632  MEMB      30              0.0000000000
      3228        30  OSM       H10T            2.1936489420       20.4112662671        8.4456421268  MEMB      30              0.0000000000
      3229        30  OSM       C11S            0.9357882589       21.2367100835        7.0594866499  MEMB      30              0.0000000000
      3230        30  OSM       H11S            1.9259228671       21.6371738553        6.7535732617  MEMB      30              0.0000000000
      3231        30  OSM       H11T            0.3975735049       22.1915634376        7.2408723414  MEMB      30              0.0000000000
      3232        30  OSM       C12S            0.3467141923       20.5216444284        5.8117063290  MEMB      30              0.0000000000
      3233        30  OSM       H12S           -0.4836156269       19.8172785484        6.0324815031  MEMB      30              0.0000000000
      3234        30  OSM       H12T            1.2776345845       20.0201799612        5.4707640245  MEMB      30              0.0000000000
      3235        30  OSM       C13S           -0.1728999771       21.4020663784        4.7339510625  MEMB      30              0.0000000000
      3236        30  OSM       H13S           -0.9944736281       22.1164936588        4.9551548059  MEMB      30              0.0000000000
      3237        30  OSM       H13T           -0.5861112787       20.7240270269        3.9568785893  MEMB      30              0.0000000000
      3238        30  OSM       C14S            0.9243640788       22.2494937643        4.0232585163  MEMB      30              0.0000000000
      3239        30  OSM       H14S            1.6856886785       21.5192096682        3.6748459628  MEMB      30              0.0000000000
      3240        30  OSM       H14T            1.4687842824       22.9575977449        4.6839515509  MEMB      30              0.0000000000
      3241        30  OSM       C15S            0.3383929859       23.1374635207        2.9189842850  MEMB      30              0.0000000000
      3242        30  OSM       H15S            1.0766687790       23.9243383203        2.6542244082  MEMB      30              0.0000000000
      3243        30  OSM       H15T           -0.5144551608       23.6043579310        3.4565540451  MEMB      30              0.0000000000
      3244        30  OSM       C16S           -0.1522540409       22.4589210065        1.6877249622  MEMB      30              0.0000000000
      3245        30  OSM       H16S           -1.0885907630       22.9857642264        1.4048280280  MEMB      30              0.0000000000
      3246        30  OSM       H16T           -0.5551297762       21.4430593941        1.8878180532  MEMB      30              0.0000000000
      3247        30  OSM       C17S            0.8539255412       22.4612150638        0.6209696992  MEMB      30              0.0000000000
      3248        30  OSM       H17S            1.6952409652       21.7769177067        0.8623138629  MEMB      30              0.0000000000
      3249        30  OSM       H17T            1.4109620244       23.4189138908        0.5382407061  MEMB      30              0.0000000000
      3250        30  OSM       C18S            0.3194795197       22.2916565444       -0.8121374688  MEMB      30              0.0000000000
      3251        30  OSM       H18S            1.1769918096       22.1935951018       -1.5116919066  MEMB      30              0.0000000000
      3252        30  OSM       H18T           -0.2308704343       23.2460371211       -0.9556402626  MEMB      30              0.0000000000
      3253        30  OSM       H18U           -0.3182694312       21.3857596215       -0.8954915905  MEMB      30              0.0000000000
      3254        30  OSM       C1F            -0.2174759918       23.9758309372       16.3832839112  MEMB      30              0.0000000000
      3255        30  OSM       OF              0.3980315383       23.5200427484       17.3455408614  MEMB      30              0.0000000000
      3256        30  OSM       C2F             0.2731628880       25.2120437073       15.6396080991  MEMB      30              0.0000000000
      3257        30  OSM       H2F             1.3146915271       25.4181434468       15.9668115475  MEMB      30              0.0000000000
      3258        30  OSM       H2G            -0.2608429726       26.1274432842       15.9730777257  MEMB      30              0.0000000000
      3259        30  OSM       C3F             0.2614090516       25.0620377045       14.1140621223  MEMB      30              0.0000000000
      3260        30  OSM       H3F            -0.4846605930       24.4647186976       13.5475716803  MEMB      30              0.0000000000
      3261        30  OSM       H3G             1.1760701315       24.4927679126       13.8426806958  MEMB      30              0.0000000000
      3262        30  OSM       C4F             0.5069250400       26.4777318808       13.3958065127  MEMB      30              0.0000000000
      3263        30  OSM       H4F             0.9924415566       26.1594164189       12.4485630415  MEMB      30              0.0000000000
      3264        30  OSM       H4G             1.1935565532       27.0339782571       14.0691921917  MEMB      30              0.0000000000
      3265        30  OSM       C5F            -0.8044742599       27.1774493821       12.9222455159  MEMB      30              0.0000000000
      3266        30  OSM       H5F            -0.6050340410       28.1761232634       12.4781787032  MEMB      30              0.0000000000
      3267        30  OSM       H5G            -1.2029037967       27.4655028954       13.9185385747  MEMB      30              0.0000000000
      3268        30  OSM       C6F            -1.8790970602       26.4734715312       12.0194873386  MEMB      30              0.0000000000
      3269        30  OSM       H6F            -2.6751571371       27.1850886561       11.7125502243  MEMB      30              0.0000000000
      3270        30  OSM       H6G            -2.4440986040       25.7529158319       12.6486879821  MEMB      30              0.0000000000
      3271        30  OSM       C7F            -1.3915790698       25.8322383751       10.5846533110  MEMB      30              0.0000000000
      3272        30  OSM       H7F            -0.6334096422       26.5251421548       10.1611156452  MEMB      30              0.0000000000
      3273        30  OSM       H7G            -2.3481951274       25.8748947248       10.0212821625  MEMB      30              0.0000000000
      3274        30  OSM       C8F            -0.8593723097       24.4159401365       10.6406330984  MEMB      30              0.0000000000
      3275        30  OSM       H8F             0.0943416631       24.3877848326       11.2098057758  MEMB      30              0.0000000000
      3276        30  OSM       H8G            -0.5653310638       24.2176846990        9.5877536982  MEMB      30              0.0000000000
      3277        30  OSM       C9F            -2.0174420226       23.4332458888       10.9439517840  MEMB      30              0.0000000000
      3278        30  OSM       H9F            -2.0257897441       23.0831049681       11.9867030879  MEMB      30              0.0000000000
      3279        30  OSM       C10F           -2.7655707832       22.7765529767       10.0567371165  MEMB      30              0.0000000000
      3280        30  OSM       H10F           -3.5452396148       22.1002533691       10.4371771776  MEMB      30              0.0000000000
      3281        30  OSM       C11F           -2.6421613666       22.9999520876        8.5323997360  MEMB      30              0.0000000000
      3282        30  OSM       H11F           -2.2124514465       22.1548973332        7.9531298536  MEMB      30              0.0000000000
      3283        30  OSM       H11G           -1.9725015197       23.8574332168        8.3074485504  MEMB      30              0.0000000000
      3284        30  OSM       C12F           -3.9510445724       23.5059636956        7.8457880701  MEMB      30              0.0000000000
      3285        30  OSM       H12F           -3.9450057169       24.5922391802        8.0787907780  MEMB      30              0.0000000000
      3286        30  OSM       H12G           -4.8666516651       23.1697806552        8.3777337823  MEMB      30              0.0000000000
      3287        30  OSM       C13F           -3.9020549946       23.3250821158        6.3601699789  MEMB      30              0.0000000000
      3288        30  OSM       H13F           -4.9275110502       23.4079440856        5.9407719317  MEMB      30              0.0000000000
      3289        30  OSM       H13G           -3.5906775155       22.2780111993        6.1576666983  MEMB      30              0.0000000000
      3290        30  OSM       C14F           -3.0204965294       24.3337458457        5.6066943175  MEMB      30              0.0000000000
      3291        30  OSM       H14F           -2.0001709821       24.0486184647        5.9412973233  MEMB      30              0.0000000000
      3292        30  OSM       H14G           -3.2003090709       25.4091979314        5.8197466342  MEMB      30              0.0000000000
      3293        30  OSM       C15F           -3.0842268144       24.2639523212        4.0640506773  MEMB      30              0.0000000000
      3294        30  OSM       H15F           -2.9907686736       23.2131607526        3.7155920211  MEMB      30              0.0000000000
      3295        30  OSM       H15G           -2.1931604682       24.8099493146        3.6869460871  MEMB      30              0.0000000000
      3296        30  OSM       C16F           -4.2836369115       24.9282269946        3.3941364741  MEMB      30              0.0000000000
      3297        30  OSM       H16F           -4.3869213948       25.9897552470        3.7052814007  MEMB      30              0.0000000000
      3298        30  OSM       H16G           -5.1939483502       24.4825478337        3.8491347913  MEMB      30              0.0000000000
      3299        30  OSM       C17F           -4.5552556555       24.6139734651        1.8814229057  MEMB      30              0.0000000000
      3300        30  OSM       H17F           -3.6933702639       24.9831251040        1.2854344278  MEMB      30              0.0000000000
      3301        30  OSM       H17G           -5.5406669159       25.0151909931        1.5615637547  MEMB      30              0.0000000000
      3302        30  OSM       C18F           -4.6084839722       23.1186578171        1.4906721770  MEMB      30              0.0000000000
      3303        30  OSM       H18F           -4.7063489828       22.8884786234        0.4081918881  MEMB      30              0.0000000000
      3304        30  OSM       H18G           -5.3379860336       22.6467122888        2.1830698811  MEMB      30              0.0000000000
      3305        30  OSM       H18H           -3.6662027183       22.6453196354        1.8404956287  MEMB      30              0.0000000000
      3306        31  CHL1      C3             15.8389872880      -16.7191302613       17.3415400000  MEMB      31              0.0000000000
      3307        31  CHL1      H3             16.8758182259      -17.1119204738       17.2705900000  MEMB      31              0.0000000000
      3308        31  CHL1      O3             15.2959173120      -16.8545097387       18.6584600000  MEMB      31              0.0000000000
      3309        31  CHL1      H3'            14.9573934260      -17.7461412069       18.7680100000  MEMB      31              0.0000000000
      3310        31  CHL1      C4             16.0002404685      -15.1867728924       17.2178800000  MEMB      31              0.0000000000
      3311        31  CHL1      H4A            15.0659808037      -14.6465143920       17.4816900000  MEMB      31              0.0000000000
      3312        31  CHL1      H4B            16.7690707446      -14.9211716237       17.9746300000  MEMB      31              0.0000000000
      3313        31  CHL1      C5             16.3766558747      -14.8214827956       15.8301700000  MEMB      31              0.0000000000
      3314        31  CHL1      C6             17.4096024579      -14.0203763829       15.5523500000  MEMB      31              0.0000000000
      3315        31  CHL1      H6             18.1299368525      -13.7670016703       16.3441300000  MEMB      31              0.0000000000
      3316        31  CHL1      C7             17.8426544676      -13.6421884279       14.1616600000  MEMB      31              0.0000000000
      3317        31  CHL1      H7A            18.1002997463      -12.5627064684       14.1101900000  MEMB      31              0.0000000000
      3318        31  CHL1      H7B            18.6751402325      -14.3571646326       13.9881400000  MEMB      31              0.0000000000
      3319        31  CHL1      C8             16.6609074222      -13.7216580399       13.0573000000  MEMB      31              0.0000000000
      3320        31  CHL1      H8             15.9923713908      -12.8566209398       13.2550100000  MEMB      31              0.0000000000
      3321        31  CHL1      C14            17.1050378060      -13.7541756582       11.6034900000  MEMB      31              0.0000000000
      3322        31  CHL1      H14            17.7050171081      -14.6880898297       11.5571400000  MEMB      31              0.0000000000
      3323        31  CHL1      C15            18.1437395955      -12.7369551588       11.0940700000  MEMB      31              0.0000000000
      3324        31  CHL1      H15A           17.8128395049      -11.7176204954       11.3869600000  MEMB      31              0.0000000000
      3325        31  CHL1      H15B           19.1673781384      -12.8851574421       11.4996700000  MEMB      31              0.0000000000
      3326        31  CHL1      C16            18.1854436258      -12.9165775567        9.6004700000  MEMB      31              0.0000000000
      3327        31  CHL1      H16A           17.8570458680      -11.9756472148        9.1094100000  MEMB      31              0.0000000000
      3328        31  CHL1      H16B           19.1059971505      -13.2021506547        9.0479000000  MEMB      31              0.0000000000
      3329        31  CHL1      C17            17.0724028054      -13.9711997215        9.3216500000  MEMB      31              0.0000000000
      3330        31  CHL1      H17            17.5912668854      -14.9425309220        9.4686900000  MEMB      31              0.0000000000
      3331        31  CHL1      C13            16.0931277096      -13.9345580502       10.5043100000  MEMB      31              0.0000000000
      3332        31  CHL1      C18            15.2680409003      -12.6469766168       10.4263900000  MEMB      31              0.0000000000
      3333        31  CHL1      H18A           14.4739182446      -12.7344056319        9.6543500000  MEMB      31              0.0000000000
      3334        31  CHL1      H18B           14.7454210670      -12.5362164709       11.4005200000  MEMB      31              0.0000000000
      3335        31  CHL1      H18C           15.8501784834      -11.7031334382       10.3586100000  MEMB      31              0.0000000000
      3336        31  CHL1      C12            15.2144964218      -15.1220160951       10.7639300000  MEMB      31              0.0000000000
      3337        31  CHL1      H12A           14.3266146815      -15.0721438574       10.0979700000  MEMB      31              0.0000000000
      3338        31  CHL1      H12B           15.7392431418      -16.0838373246       10.5798800000  MEMB      31              0.0000000000
      3339        31  CHL1      C11            14.7270974194      -15.1693668381       12.2310100000  MEMB      31              0.0000000000
      3340        31  CHL1      H11A           13.9798680766      -14.3500734200       12.2997800000  MEMB      31              0.0000000000
      3341        31  CHL1      H11B           14.1425674847      -16.0971506782       12.4095700000  MEMB      31              0.0000000000
      3342        31  CHL1      C9             15.8681694507      -14.9734111230       13.2724400000  MEMB      31              0.0000000000
      3343        31  CHL1      H9             16.6126200462      -15.7758256914       13.0820600000  MEMB      31              0.0000000000
      3344        31  CHL1      C10            15.4290458425      -15.2700623385       14.7263500000  MEMB      31              0.0000000000
      3345        31  CHL1      C19            14.0693538074      -14.4721204621       15.0039500000  MEMB      31              0.0000000000
      3346        31  CHL1      H19A           13.6078436229      -14.7735741459       15.9685400000  MEMB      31              0.0000000000
      3347        31  CHL1      H19B           14.1889136819      -13.3680372493       14.9717900000  MEMB      31              0.0000000000
      3348        31  CHL1      H19C           13.3357654111      -14.6687416873       14.1930800000  MEMB      31              0.0000000000
      3349        31  CHL1      C1             15.3531087045      -16.8843330018       14.8101400000  MEMB      31              0.0000000000
      3350        31  CHL1      H1A            14.5451930703      -17.2680401949       14.1510800000  MEMB      31              0.0000000000
      3351        31  CHL1      H1B            16.3801561283      -17.2650063645       14.6241800000  MEMB      31              0.0000000000
      3352        31  CHL1      C2             14.9690783978      -17.3626085941       16.2546700000  MEMB      31              0.0000000000
      3353        31  CHL1      H2A            15.0380562476      -18.4695051210       16.3204700000  MEMB      31              0.0000000000
      3354        31  CHL1      H2B            13.9350970349      -17.0134577390       16.4627600000  MEMB      31              0.0000000000
      3355        31  CHL1      C20            16.5270525518      -14.0270285828        7.8362300000  MEMB      31              0.0000000000
      3356        31  CHL1      H20            15.5052620131      -14.4336862095        7.9940500000  MEMB      31              0.0000000000
      3357        31  CHL1      C21            17.3288921090      -15.1002210117        7.0385700000  MEMB      31              0.0000000000
      3358        31  CHL1      H21A           18.4071775932      -14.8326465559        7.0425700000  MEMB      31              0.0000000000
      3359        31  CHL1      H21B           17.1099811395      -15.2168049742        5.9556100000  MEMB      31              0.0000000000
      3360        31  CHL1      H21C           17.2010678419      -16.0794908105        7.5475000000  MEMB      31              0.0000000000
      3361        31  CHL1      C22            16.4030920245      -12.6433817591        7.1812200000  MEMB      31              0.0000000000
      3362        31  CHL1      H22A           15.9895221800      -11.9645538244        7.9574200000  MEMB      31              0.0000000000
      3363        31  CHL1      H22B           17.3828274944      -12.1430375347        7.0259900000  MEMB      31              0.0000000000
      3364        31  CHL1      C23            15.6828708021      -12.6697920831        5.8511600000  MEMB      31              0.0000000000
      3365        31  CHL1      H23A           15.2443443369      -11.6798534397        5.6020900000  MEMB      31              0.0000000000
      3366        31  CHL1      H23B           16.3327336100      -13.0141731939        5.0184600000  MEMB      31              0.0000000000
      3367        31  CHL1      C24            14.3456795760      -13.5511132864        5.6950800000  MEMB      31              0.0000000000
      3368        31  CHL1      H24A           14.5099191881      -14.5885601947        6.0570900000  MEMB      31              0.0000000000
      3369        31  CHL1      H24B           13.6118393559      -13.0706793553        6.3769800000  MEMB      31              0.0000000000
      3370        31  CHL1      C25            13.8443101963      -13.6017806327        4.1722900000  MEMB      31              0.0000000000
      3371        31  CHL1      H25            14.0441295412      -12.6486044588        3.6376400000  MEMB      31              0.0000000000
      3372        31  CHL1      C26            14.6238595222      -14.5655425065        3.3059900000  MEMB      31              0.0000000000
      3373        31  CHL1      H26A           15.7334176687      -14.5091034278        3.3020700000  MEMB      31              0.0000000000
      3374        31  CHL1      H26B           14.4569197193      -15.6574970223        3.4246600000  MEMB      31              0.0000000000
      3375        31  CHL1      H26C           14.3076249740      -14.4354644056        2.2489200000  MEMB      31              0.0000000000
      3376        31  CHL1      C27            12.3354048225      -14.0267122737        4.0617400000  MEMB      31              0.0000000000
      3377        31  CHL1      H27A           11.8286467135      -13.7345102821        3.1172100000  MEMB      31              0.0000000000
      3378        31  CHL1      H27B           12.1772743543      -15.1260109385        4.0325800000  MEMB      31              0.0000000000
      3379        31  CHL1      H27C           11.6909545768      -13.6486580480        4.8839800000  MEMB      31              0.0000000000
      3380        32  OSM       N             -18.5487340552       10.9216131824       22.1215903862  MEMB      32              0.0000000000
      3381        32  OSM       C15           -17.5448156437       10.9965523918       21.0103775392  MEMB      32              0.0000000000
      3382        32  OSM       H15A          -16.5856168354       11.1826469286       21.4704930967  MEMB      32              0.0000000000
      3383        32  OSM       H15B          -17.7299267891       11.8461943102       20.3698758386  MEMB      32              0.0000000000
      3384        32  OSM       H15C          -17.5506327630       10.0759335151       20.4457298878  MEMB      32              0.0000000000
      3385        32  OSM       C14           -18.3202118468        9.7282827710       22.9766695449  MEMB      32              0.0000000000
      3386        32  OSM       H14A          -18.2987557364        8.8568600790       22.3390471659  MEMB      32              0.0000000000
      3387        32  OSM       H14B          -19.1271638055        9.4847734053       23.6518967512  MEMB      32              0.0000000000
      3388        32  OSM       H14C          -17.3608300031        9.7808064538       23.4698506527  MEMB      32              0.0000000000
      3389        32  OSM       C13           -18.3309472927       12.1599708506       22.9847826983  MEMB      32              0.0000000000
      3390        32  OSM       H13A          -18.8353853582       12.9722270905       22.4826056481  MEMB      32              0.0000000000
      3391        32  OSM       H13B          -17.2882443457       12.4013043423       23.1294508947  MEMB      32              0.0000000000
      3392        32  OSM       H13C          -18.7249986270       12.0516035898       23.9844726719  MEMB      32              0.0000000000
      3393        32  OSM       C12           -19.9314459837       10.8467688270       21.5303252374  MEMB      32              0.0000000000
      3394        32  OSM       H12A          -20.6291299812       10.9498513542       22.3482561682  MEMB      32              0.0000000000
      3395        32  OSM       H12B          -20.1067773915        9.9091420798       21.0238518552  MEMB      32              0.0000000000
      3396        32  OSM       C11           -20.3894552448       11.9022001029       20.5084424124  MEMB      32              0.0000000000
      3397        32  OSM       H11A          -21.4857613912       11.7516124567       20.4096645641  MEMB      32              0.0000000000
      3398        32  OSM       H11B          -19.8367846666       11.7301894613       19.5601341524  MEMB      32              0.0000000000
      3399        32  OSM       P             -20.1713553522       14.4012481536       19.9827501305  MEMB      32              0.0000000000
      3400        32  OSM       O13           -21.5436476578       14.9331065385       19.8382920645  MEMB      32              0.0000000000
      3401        32  OSM       O14           -19.2590086675       15.4534508657       20.4425215112  MEMB      32              0.0000000000
      3402        32  OSM       O11           -19.6231099232       13.7876028430       18.6936535640  MEMB      32              0.0000000000
      3403        32  OSM       O12           -20.1353550293       13.2163739785       20.9105949113  MEMB      32              0.0000000000
      3404        32  OSM       C1S           -18.2313943336       13.8206659391       18.3346695861  MEMB      32              0.0000000000
      3405        32  OSM       H1S           -17.8580707689       12.7783109104       18.4265739392  MEMB      32              0.0000000000
      3406        32  OSM       H1T           -17.6253837115       14.5393054636       18.9268091013  MEMB      32              0.0000000000
      3407        32  OSM       NF            -18.9251505390       15.4931864221       16.5610740284  MEMB      32              0.0000000000
      3408        32  OSM       HNF           -19.5683631870       15.2812095607       15.8293961855  MEMB      32              0.0000000000
      3409        32  OSM       C2S           -18.1944957170       14.3193073720       16.8590465874  MEMB      32              0.0000000000
      3410        32  OSM       H2S           -17.1289620919       14.4248962440       16.5627189528  MEMB      32              0.0000000000
      3411        32  OSM       C3S           -18.7531232565       13.1189119428       15.9918782005  MEMB      32              0.0000000000
      3412        32  OSM       H3S           -19.7929736293       12.8932572272       16.3114278335  MEMB      32              0.0000000000
      3413        32  OSM       O3            -18.0468499134       11.9490316187       16.1862255439  MEMB      32              0.0000000000
      3414        32  OSM       HO3           -17.2880993645       12.1825804309       16.7259961764  MEMB      32              0.0000000000
      3415        32  OSM       C4S           -18.7680065774       13.4994573398       14.5211767437  MEMB      32              0.0000000000
      3416        32  OSM       H4S           -17.7695315719       13.7994468622       14.1703863988  MEMB      32              0.0000000000
      3417        32  OSM       C5S           -19.7529284269       13.4644814348       13.6744229250  MEMB      32              0.0000000000
      3418        32  OSM       H5S           -20.7535675048       13.1749350699       14.0278127461  MEMB      32              0.0000000000
      3419        32  OSM       C6S           -19.4842157183       13.9089976968       12.2561723201  MEMB      32              0.0000000000
      3420        32  OSM       H6S           -18.7923703550       14.7721274882       12.1528380705  MEMB      32              0.0000000000
      3421        32  OSM       H6T           -20.4545113544       14.2754346164       11.8579620039  MEMB      32              0.0000000000
      3422        32  OSM       C7S           -19.0888688470       12.7109231209       11.2381679848  MEMB      32              0.0000000000
      3423        32  OSM       H7S           -19.4618925227       11.7314412536       11.6066638188  MEMB      32              0.0000000000
      3424        32  OSM       H7T           -17.9851232073       12.6032926775       11.3051170073  MEMB      32              0.0000000000
      3425        32  OSM       C8S           -19.3403231259       13.0832254606        9.7587922648  MEMB      32              0.0000000000
      3426        32  OSM       H8S           -18.5943903074       12.4905477555        9.1872698376  MEMB      32              0.0000000000
      3427        32  OSM       H8T           -19.0977097666       14.1568546203        9.6078617169  MEMB      32              0.0000000000
      3428        32  OSM       C9S           -20.7316574497       12.6866683393        9.1741643750  MEMB      32              0.0000000000
      3429        32  OSM       H9S           -20.6846536844       13.2951689950        8.2458122485  MEMB      32              0.0000000000
      3430        32  OSM       H9T           -21.5541026783       13.0506684622        9.8263988547  MEMB      32              0.0000000000
      3431        32  OSM       C10S          -20.7835345270       11.1780574599        9.0046279605  MEMB      32              0.0000000000
      3432        32  OSM       H10S          -20.8924261003       10.7667615948       10.0309315746  MEMB      32              0.0000000000
      3433        32  OSM       H10T          -19.8151603376       10.9278281548        8.5209363069  MEMB      32              0.0000000000
      3434        32  OSM       C11S          -21.8972225406       10.4884511747        8.2198549277  MEMB      32              0.0000000000
      3435        32  OSM       H11S          -22.8693831035       10.6090712541        8.7439492840  MEMB      32              0.0000000000
      3436        32  OSM       H11T          -21.6402141819        9.4177464232        8.0720058522  MEMB      32              0.0000000000
      3437        32  OSM       C12S          -22.0625428075       11.0341419073        6.8136462683  MEMB      32              0.0000000000
      3438        32  OSM       H12S          -22.1543267046       12.1388333138        6.8881685309  MEMB      32              0.0000000000
      3439        32  OSM       H12T          -23.0633544073       10.7356070290        6.4347348266  MEMB      32              0.0000000000
      3440        32  OSM       C13S          -20.8804426296       10.7207421544        5.8606129798  MEMB      32              0.0000000000
      3441        32  OSM       H13S          -20.4596658758        9.7628370517        6.2343590314  MEMB      32              0.0000000000
      3442        32  OSM       H13T          -20.1414645362       11.5380249047        6.0030250364  MEMB      32              0.0000000000
      3443        32  OSM       C14S          -21.2874853865       10.6882554036        4.3973910241  MEMB      32              0.0000000000
      3444        32  OSM       H14S          -21.7868769424       11.6518664773        4.1599405741  MEMB      32              0.0000000000
      3445        32  OSM       H14T          -22.0162488641        9.8554909853        4.2987560749  MEMB      32              0.0000000000
      3446        32  OSM       C15S          -20.1502559496       10.3958206564        3.4703459227  MEMB      32              0.0000000000
      3447        32  OSM       H15S          -19.5407532993        9.5303152386        3.8075817521  MEMB      32              0.0000000000
      3448        32  OSM       H15T          -19.5466457023       11.3194367076        3.3403103413  MEMB      32              0.0000000000
      3449        32  OSM       C16S          -20.6121127805       10.0372844057        2.0678400602  MEMB      32              0.0000000000
      3450        32  OSM       H16S          -21.2575013296        9.1386046392        2.1686840483  MEMB      32              0.0000000000
      3451        32  OSM       H16T          -19.7203256089        9.6982419024        1.4985537848  MEMB      32              0.0000000000
      3452        32  OSM       C17S          -21.3325369670       11.1596084270        1.3342066132  MEMB      32              0.0000000000
      3453        32  OSM       H17S          -20.8356179046       12.1528907015        1.3062316428  MEMB      32              0.0000000000
      3454        32  OSM       H17T          -22.2284322561       11.4976506799        1.8976086735  MEMB      32              0.0000000000
      3455        32  OSM       C18S          -21.8513812083       10.7622675965       -0.0776056135  MEMB      32              0.0000000000
      3456        32  OSM       H18S          -21.0852492751       10.5141028803       -0.8429656326  MEMB      32              0.0000000000
      3457        32  OSM       H18T          -22.4127842318       11.6596239216       -0.4150947745  MEMB      32              0.0000000000
      3458        32  OSM       H18U          -22.4702792783        9.8427552598       -0.0015544025  MEMB      32              0.0000000000
      3459        32  OSM       C1F           -18.6360799621       16.6464703440       17.2025439946  MEMB      32              0.0000000000
      3460        32  OSM       OF            -17.6830875897       16.7231595164       18.0152952055  MEMB      32              0.0000000000
      3461        32  OSM       C2F           -19.4972441833       17.8676602295       16.7562957736  MEMB      32              0.0000000000
      3462        32  OSM       H2F           -18.8892653022       18.7974810542       16.7455416803  MEMB      32              0.0000000000
      3463        32  OSM       H2G           -20.2706206041       17.9660522699       17.5478315036  MEMB      32              0.0000000000
      3464        32  OSM       C3F           -20.1182807476       17.7125173291       15.3942997553  MEMB      32              0.0000000000
      3465        32  OSM       H3F           -20.8441230846       18.5520964246       15.3434940999  MEMB      32              0.0000000000
      3466        32  OSM       H3G           -20.6787138052       16.7610732052       15.2718679567  MEMB      32              0.0000000000
      3467        32  OSM       C4F           -19.1399961264       17.8628959868       14.2109910988  MEMB      32              0.0000000000
      3468        32  OSM       H4F           -18.5367266300       16.9381937665       14.3347352132  MEMB      32              0.0000000000
      3469        32  OSM       H4G           -18.5113989398       18.7714667858       14.3279778457  MEMB      32              0.0000000000
      3470        32  OSM       C5F           -19.9222078374       17.8497963123       12.8917377724  MEMB      32              0.0000000000
      3471        32  OSM       H5F           -20.4502850541       18.8272565270       12.8969712263  MEMB      32              0.0000000000
      3472        32  OSM       H5G           -20.6338683919       16.9966708055       12.8978617206  MEMB      32              0.0000000000
      3473        32  OSM       C6F           -19.0634673525       17.9154499101       11.5503849789  MEMB      32              0.0000000000
      3474        32  OSM       H6F           -18.4777354528       16.9760141869       11.4571130248  MEMB      32              0.0000000000
      3475        32  OSM       H6G           -18.1826631740       18.5916649560       11.5855645256  MEMB      32              0.0000000000
      3476        32  OSM       C7F           -19.9552725431       18.2998357704       10.4341586615  MEMB      32              0.0000000000
      3477        32  OSM       H7F           -19.2909462791       18.1959593572        9.5497380038  MEMB      32              0.0000000000
      3478        32  OSM       H7G           -20.2431436969       19.3674815000       10.5417884549  MEMB      32              0.0000000000
      3479        32  OSM       C8F           -21.0266616107       17.2665952918       10.1049204899  MEMB      32              0.0000000000
      3480        32  OSM       H8F           -21.8495870500       17.4118719494       10.8370479268  MEMB      32              0.0000000000
      3481        32  OSM       H8G           -20.6526051356       16.2257127300       10.2096394874  MEMB      32              0.0000000000
      3482        32  OSM       C9F           -21.6008504432       17.4643855958        8.6516317023  MEMB      32              0.0000000000
      3483        32  OSM       H9F           -22.4964740892       18.0665367099        8.8644068404  MEMB      32              0.0000000000
      3484        32  OSM       C10F          -21.2050880000       17.1325257932        7.4572470018  MEMB      32              0.0000000000
      3485        32  OSM       H10F          -21.9216994775       17.2309023326        6.6285193078  MEMB      32              0.0000000000
      3486        32  OSM       C11F          -19.8996554320       16.3936157136        7.1790751955  MEMB      32              0.0000000000
      3487        32  OSM       H11F          -19.5142773302       15.7611259556        8.0071816296  MEMB      32              0.0000000000
      3488        32  OSM       H11G          -19.1350433099       17.1246540841        6.8395573251  MEMB      32              0.0000000000
      3489        32  OSM       C12F          -19.9833591446       15.4591364370        6.0190728495  MEMB      32              0.0000000000
      3490        32  OSM       H12F          -20.3226291125       16.0321210674        5.1297438202  MEMB      32              0.0000000000
      3491        32  OSM       H12G          -20.7858771314       14.7125431012        6.2004128838  MEMB      32              0.0000000000
      3492        32  OSM       C13F          -18.7097589231       14.5275833814        5.7409477577  MEMB      32              0.0000000000
      3493        32  OSM       H13F          -19.0962419632       13.7711615126        5.0248629150  MEMB      32              0.0000000000
      3494        32  OSM       H13G          -18.5400490659       14.0219875586        6.7155721339  MEMB      32              0.0000000000
      3495        32  OSM       C14F          -17.6142069949       15.3007222330        5.0980219398  MEMB      32              0.0000000000
      3496        32  OSM       H14F          -16.8426249121       14.5028341911        5.1465689952  MEMB      32              0.0000000000
      3497        32  OSM       H14G          -17.1312690015       16.1181694605        5.6749721607  MEMB      32              0.0000000000
      3498        32  OSM       C15F          -17.7420099412       15.6586263597        3.6332383464  MEMB      32              0.0000000000
      3499        32  OSM       H15F          -18.6107649991       16.3440873483        3.5346034426  MEMB      32              0.0000000000
      3500        32  OSM       H15G          -17.9260159732       14.7891449304        2.9665576736  MEMB      32              0.0000000000
      3501        32  OSM       C16F          -16.4375194540       16.2841128862        3.0307157044  MEMB      32              0.0000000000
      3502        32  OSM       H16F          -15.6893301097       15.4634492148        2.9983895755  MEMB      32              0.0000000000
      3503        32  OSM       H16G          -16.0265374245       17.0606639249        3.7107043998  MEMB      32              0.0000000000
      3504        32  OSM       C17F          -16.5987859646       17.0265372687        1.6816717273  MEMB      32              0.0000000000
      3505        32  OSM       H17F          -15.6438891655       17.5052778837        1.3762212060  MEMB      32              0.0000000000
      3506        32  OSM       H17G          -17.4448139746       17.7449076234        1.6316524685  MEMB      32              0.0000000000
      3507        32  OSM       C18F          -16.7677621226       16.0698396669        0.4421793905  MEMB      32              0.0000000000
      3508        32  OSM       H18F          -17.6582757903       15.4216217987        0.5875068356  MEMB      32              0.0000000000
      3509        32  OSM       H18G          -15.8261327032       15.4861282535        0.3588966599  MEMB      32              0.0000000000
      3510        32  OSM       H18H          -16.7651588512       16.6952128507       -0.4760916478  MEMB      32              0.0000000000
      3511        33  SLPC      N              24.8069415902        5.4369140924       17.8627605182  MEMB      33              0.0000000000
      3512        33  SLPC      C13            26.0632821055        5.9019630658       18.5620179800  MEMB      33              0.0000000000
      3513        33  SLPC      H13A           25.8720272454        6.8589841635       19.0245459742  MEMB      33              0.0000000000
      3514        33  SLPC      H13B           26.4590473964        5.1385848513       19.2154885791  MEMB      33              0.0000000000
      3515        33  SLPC      H13C           26.9023773522        6.0071752889       17.8902668069  MEMB      33              0.0000000000
      3516        33  SLPC      C14            23.6712745888        5.3539351055       18.8381674575  MEMB      33              0.0000000000
      3517        33  SLPC      H14A           22.7375496854        5.0808312339       18.3691556894  MEMB      33              0.0000000000
      3518        33  SLPC      H14B           23.8175836258        4.5795233219       19.5765983259  MEMB      33              0.0000000000
      3519        33  SLPC      H14C           23.5672175894        6.3245582516       19.3001878687  MEMB      33              0.0000000000
      3520        33  SLPC      C15            25.0830187574        4.0880341427       17.3381210062  MEMB      33              0.0000000000
      3521        33  SLPC      H15A           24.3240646974        3.6426552842       16.7120008567  MEMB      33              0.0000000000
      3522        33  SLPC      H15B           25.9935436212        4.0571544761       16.7581290011  MEMB      33              0.0000000000
      3523        33  SLPC      H15C           25.3404628809        3.4417512632       18.1642207572  MEMB      33              0.0000000000
      3524        33  SLPC      C12            24.5596537532        6.4127678553       16.7264965718  MEMB      33              0.0000000000
      3525        33  SLPC      H12A           25.4516515663        6.3953853359       16.1178606452  MEMB      33              0.0000000000
      3526        33  SLPC      H12B           24.4220627300        7.4010617920       17.1397079527  MEMB      33              0.0000000000
      3527        33  SLPC      C11            23.3326645697        6.1287141431       15.9067706157  MEMB      33              0.0000000000
      3528        33  SLPC      H11A           23.5295606576        5.1690424501       15.3827638124  MEMB      33              0.0000000000
      3529        33  SLPC      H11B           23.3452152138        6.8304742023       15.0455526255  MEMB      33              0.0000000000
      3530        33  SLPC      P              20.9533259342        5.2127896572       16.3741271492  MEMB      33              0.0000000000
      3531        33  SLPC      O13            20.0108926790        5.0964673994       17.4946305462  MEMB      33              0.0000000000
      3532        33  SLPC      O14            20.2989919266        5.4762389828       15.0356495737  MEMB      33              0.0000000000
      3533        33  SLPC      O12            22.0858576429        6.2650166386       16.6093250762  MEMB      33              0.0000000000
      3534        33  SLPC      O11            21.7459878313        3.8293316929       16.2519335052  MEMB      33              0.0000000000
      3535        33  SLPC      C1             21.3046414330        2.6045364282       15.6031690532  MEMB      33              0.0000000000
      3536        33  SLPC      HA             21.2783030016        1.8478177593       16.4161905945  MEMB      33              0.0000000000
      3537        33  SLPC      HB             20.2694294190        2.7702317068       15.2354707234  MEMB      33              0.0000000000
      3538        33  SLPC      C2             22.3038954858        2.0998483954       14.5616438414  MEMB      33              0.0000000000
      3539        33  SLPC      HS             23.0801180227        1.5525162686       15.1380355936  MEMB      33              0.0000000000
      3540        33  SLPC      O21            22.8717440202        3.2515162315       13.8178363843  MEMB      33              0.0000000000
      3541        33  SLPC      C21            23.9060550779        3.0582851429       12.9909336748  MEMB      33              0.0000000000
      3542        33  SLPC      O22            24.6456122334        2.1052644519       12.8190475413  MEMB      33              0.0000000000
      3543        33  SLPC      C22            24.0791463006        4.4467831531       12.2805208263  MEMB      33              0.0000000000
      3544        33  SLPC      H2R            23.1256422193        4.8537914900       11.8811522753  MEMB      33              0.0000000000
      3545        33  SLPC      H2S            24.3767037450        5.1633004032       13.0757464267  MEMB      33              0.0000000000
      3546        33  SLPC      C3             21.6804601392        1.0418127779       13.5303150144  MEMB      33              0.0000000000
      3547        33  SLPC      HX             21.1678703678        0.2117963063       14.0619587017  MEMB      33              0.0000000000
      3548        33  SLPC      HY             22.5241172340        0.8631819038       12.8298475752  MEMB      33              0.0000000000
      3549        33  SLPC      O31            20.6384583283        1.7052584704       12.8993568886  MEMB      33              0.0000000000
      3550        33  SLPC      C31            20.1522182106        1.1562675655       11.7234047102  MEMB      33              0.0000000000
      3551        33  SLPC      O32            20.6103238768        0.2286290729       11.1554339123  MEMB      33              0.0000000000
      3552        33  SLPC      C32            19.0494700513        2.0267031835       11.1201818008  MEMB      33              0.0000000000
      3553        33  SLPC      H2X            18.2395909044        2.2335087861       11.8520617628  MEMB      33              0.0000000000
      3554        33  SLPC      H2Y            18.5672643817        1.4701671415       10.2882762002  MEMB      33              0.0000000000
      3555        33  SLPC      C23            24.9852202457        4.3536859847       11.0900548929  MEMB      33              0.0000000000
      3556        33  SLPC      H3R            24.8451882047        3.4212346038       10.5024782492  MEMB      33              0.0000000000
      3557        33  SLPC      H3S            26.0606292639        4.4861777709       11.3355390751  MEMB      33              0.0000000000
      3558        33  SLPC      C24            24.8320692462        5.3774246204        9.9518576868  MEMB      33              0.0000000000
      3559        33  SLPC      H4R            24.8027907241        6.4277733338       10.3127343156  MEMB      33              0.0000000000
      3560        33  SLPC      H4S            23.8061195121        5.2469269457        9.5460026455  MEMB      33              0.0000000000
      3561        33  SLPC      C25            25.8059819002        5.2251413122        8.8122395698  MEMB      33              0.0000000000
      3562        33  SLPC      H5R            25.8636381189        4.2189244031        8.3447728425  MEMB      33              0.0000000000
      3563        33  SLPC      H5S            26.8169035143        5.4866793815        9.1916547675  MEMB      33              0.0000000000
      3564        33  SLPC      C26            25.5348488928        6.2724870092        7.6622310388  MEMB      33              0.0000000000
      3565        33  SLPC      H6R            26.2850473449        6.1929067667        6.8466381653  MEMB      33              0.0000000000
      3566        33  SLPC      H6S            25.6313677332        7.2610319040        8.1600103322  MEMB      33              0.0000000000
      3567        33  SLPC      C27            24.1479118865        6.3586359197        7.0210283930  MEMB      33              0.0000000000
      3568        33  SLPC      H7R            24.2672610813        7.1172536355        6.2181731933  MEMB      33              0.0000000000
      3569        33  SLPC      H7S            23.4999530196        6.6241303808        7.8835732871  MEMB      33              0.0000000000
      3570        33  SLPC      C28            23.5979722009        5.0743271551        6.5529781185  MEMB      33              0.0000000000
      3571        33  SLPC      H8R            22.5798294781        5.2450678393        6.1424244235  MEMB      33              0.0000000000
      3572        33  SLPC      H8S            23.5381532112        4.3564229576        7.3987652426  MEMB      33              0.0000000000
      3573        33  SLPC      C29            24.5628134307        4.5978184504        5.5559785694  MEMB      33              0.0000000000
      3574        33  SLPC      H9R            24.8460794433        5.3688614344        4.8243687328  MEMB      33              0.0000000000
      3575        33  SLPC      C210           25.0016453624        3.2895254063        5.4814127030  MEMB      33              0.0000000000
      3576        33  SLPC      H10R           25.8000363322        3.0438874018        4.7657066678  MEMB      33              0.0000000000
      3577        33  SLPC      C211           24.5726463670        2.0754137954        6.3570073587  MEMB      33              0.0000000000
      3578        33  SLPC      H11R           23.6202304340        2.2446839483        6.9034256490  MEMB      33              0.0000000000
      3579        33  SLPC      H11S           25.4383060520        1.8251034506        7.0068533455  MEMB      33              0.0000000000
      3580        33  SLPC      C212           24.3123729244        0.9041969904        5.4339807600  MEMB      33              0.0000000000
      3581        33  SLPC      H12R           25.1608625448        0.2041508261        5.4335517240  MEMB      33              0.0000000000
      3582        33  SLPC      C213           23.2329736536        0.6449897555        4.6519629757  MEMB      33              0.0000000000
      3583        33  SLPC      H13R           23.1489281899       -0.2427130802        4.0078197636  MEMB      33              0.0000000000
      3584        33  SLPC      C214           22.0289226781        1.5356371515        4.6038462069  MEMB      33              0.0000000000
      3585        33  SLPC      H14R           22.0259126762        2.3178994336        5.3927555629  MEMB      33              0.0000000000
      3586        33  SLPC      H14S           21.0969035839        0.9330569872        4.6544277998  MEMB      33              0.0000000000
      3587        33  SLPC      C215           22.0354977618        2.2091959061        3.2011100775  MEMB      33              0.0000000000
      3588        33  SLPC      H15R           22.9195671223        2.8729218105        3.0906095535  MEMB      33              0.0000000000
      3589        33  SLPC      H15S           21.1225968011        2.8362847961        3.2888148367  MEMB      33              0.0000000000
      3590        33  SLPC      C216           21.9517893557        1.2356043915        1.9794381854  MEMB      33              0.0000000000
      3591        33  SLPC      H16R           21.1115806917        1.5542108416        1.3260915382  MEMB      33              0.0000000000
      3592        33  SLPC      H16S           21.6212379902        0.2509790924        2.3738616708  MEMB      33              0.0000000000
      3593        33  SLPC      C217           23.2241090226        1.1726984139        1.0598994317  MEMB      33              0.0000000000
      3594        33  SLPC      H17R           24.0360117041        0.7492217072        1.6890270791  MEMB      33              0.0000000000
      3595        33  SLPC      H17S           23.4304186458        2.1844444197        0.6498660022  MEMB      33              0.0000000000
      3596        33  SLPC      C218           23.2425809251        0.2736733460       -0.1929354682  MEMB      33              0.0000000000
      3597        33  SLPC      H18R           24.1763518348        0.5350163649       -0.7352386643  MEMB      33              0.0000000000
      3598        33  SLPC      H18S           22.3696741203        0.5112322601       -0.8378559806  MEMB      33              0.0000000000
      3599        33  SLPC      H18T           23.1558962894       -0.8101994358        0.0351578723  MEMB      33              0.0000000000
      3600        33  SLPC      C33            19.6838615796        3.4214401954       10.7777964069  MEMB      33              0.0000000000
      3601        33  SLPC      H3X            20.2670654439        3.9181868645       11.5824311855  MEMB      33              0.0000000000
      3602        33  SLPC      H3Y            18.8286061986        4.1108153053       10.6115997882  MEMB      33              0.0000000000
      3603        33  SLPC      C34            20.5828144008        3.3972207785        9.5847259903  MEMB      33              0.0000000000
      3604        33  SLPC      H4X            20.1319014259        2.8428627051        8.7340289318  MEMB      33              0.0000000000
      3605        33  SLPC      H4Y            21.5591142057        2.9316751450        9.8385505340  MEMB      33              0.0000000000
      3606        33  SLPC      C35            20.8779012058        4.7877914903        9.0648040290  MEMB      33              0.0000000000
      3607        33  SLPC      H5X            21.3971225034        4.7199132730        8.0849455769  MEMB      33              0.0000000000
      3608        33  SLPC      H5Y            21.6558727283        5.2077971793        9.7376167964  MEMB      33              0.0000000000
      3609        33  SLPC      C36            19.6832438799        5.7681656388        8.8212042199  MEMB      33              0.0000000000
      3610        33  SLPC      H6X            20.0715026969        6.7449034395        8.4612608393  MEMB      33              0.0000000000
      3611        33  SLPC      H6Y            19.1081342843        5.9453632083        9.7551049508  MEMB      33              0.0000000000
      3612        33  SLPC      C37            18.7803972639        5.2352661688        7.7648247235  MEMB      33              0.0000000000
      3613        33  SLPC      H7X            17.8193966905        5.7761212963        7.9000068618  MEMB      33              0.0000000000
      3614        33  SLPC      H7Y            18.6002855959        4.1661275251        8.0073600512  MEMB      33              0.0000000000
      3615        33  SLPC      C38            19.3000986849        5.1920181609        6.3148884845  MEMB      33              0.0000000000
      3616        33  SLPC      H8X            18.5310236399        4.6838275441        5.6947381953  MEMB      33              0.0000000000
      3617        33  SLPC      H8Y            20.1885144201        4.5256898539        6.2825657623  MEMB      33              0.0000000000
      3618        33  SLPC      C39            19.6945249778        6.5408318887        5.6444798024  MEMB      33              0.0000000000
      3619        33  SLPC      H9X            20.4942477047        7.0259871379        6.2439710200  MEMB      33              0.0000000000
      3620        33  SLPC      H9Y            18.7446922129        7.1099684486        5.7351544103  MEMB      33              0.0000000000
      3621        33  SLPC      C310           20.1126087563        6.4502900918        4.1134180092  MEMB      33              0.0000000000
      3622        33  SLPC      H10X           19.4158521368        5.8873994983        3.4561473889  MEMB      33              0.0000000000
      3623        33  SLPC      H10Y           21.0278822172        5.8288498672        4.0114005196  MEMB      33              0.0000000000
      3624        33  SLPC      C311           20.4599299622        7.8747571365        3.4638822370  MEMB      33              0.0000000000
      3625        33  SLPC      H11X           21.2569527149        8.3476502058        4.0766209957  MEMB      33              0.0000000000
      3626        33  SLPC      H11Y           19.5886145415        8.5225987233        3.6993221191  MEMB      33              0.0000000000
      3627        33  SLPC      C312           20.9802447552        8.0737408632        2.0322834159  MEMB      33              0.0000000000
      3628        33  SLPC      H12X           21.1404980599        9.1591594973        1.8576241792  MEMB      33              0.0000000000
      3629        33  SLPC      H12Y           20.2241227497        7.5918722692        1.3762323176  MEMB      33              0.0000000000
      3630        33  SLPC      C313           22.3449119020        7.3582480957        1.7169120234  MEMB      33              0.0000000000
      3631        33  SLPC      H13X           22.9982006958        7.4820290925        2.6069756040  MEMB      33              0.0000000000
      3632        33  SLPC      H13Y           22.7312727047        8.0937052461        0.9792477345  MEMB      33              0.0000000000
      3633        33  SLPC      C314           22.2648055522        6.0390487091        1.0576669305  MEMB      33              0.0000000000
      3634        33  SLPC      H14X           21.5019997400        6.0866658551        0.2513301832  MEMB      33              0.0000000000
      3635        33  SLPC      H14Y           21.9910480039        5.2852591660        1.8265486550  MEMB      33              0.0000000000
      3636        33  SLPC      C315           23.6274518206        5.7260730454        0.4428700769  MEMB      33              0.0000000000
      3637        33  SLPC      H15X           23.8199026426        6.4332095219       -0.3921404544  MEMB      33              0.0000000000
      3638        33  SLPC      H15Y           23.7365126696        4.7429819197       -0.0630526218  MEMB      33              0.0000000000
      3639        33  SLPC      C316           24.7749295734        5.7272589165        1.4954768357  MEMB      33              0.0000000000
      3640        33  SLPC      H16X           24.6893637585        4.9338495553        2.2684582226  MEMB      33              0.0000000000
      3641        33  SLPC      H16Y           24.6537262329        6.5590023302        2.2219978398  MEMB      33              0.0000000000
      3642        33  SLPC      C317           26.2023569200        5.8443715761        0.9289338382  MEMB      33              0.0000000000
      3643        33  SLPC      H17X           26.8374950203        6.0781356788        1.8099976201  MEMB      33              0.0000000000
      3644        33  SLPC      H17Y           26.3248063433        6.6371600844        0.1602892978  MEMB      33              0.0000000000
      3645        33  SLPC      C318           26.6750976240        4.6628782305        0.0447343576  MEMB      33              0.0000000000
      3646        33  SLPC      H18X           26.7905341430        3.7811485919        0.7107281376  MEMB      33              0.0000000000
      3647        33  SLPC      H18Y           27.6754881934        4.7930572560       -0.4206604397  MEMB      33              0.0000000000
      3648        33  SLPC      H18Z           25.9977393865        4.4099665401       -0.7987955290  MEMB      33              0.0000000000
      3649        34  CHL1      C3             -9.8353377836       22.4560208987       17.3644300000  MEMB      34              0.0000000000
      3650        34  CHL1      H3             -9.9228568407       23.5622213639       17.4192400000  MEMB      34              0.0000000000
      3651        34  CHL1      O3             -9.9335153456       21.7944491070       18.6355700000  MEMB      34              0.0000000000
      3652        34  CHL1      H3'           -10.7417613064       22.2021091705       18.9551800000  MEMB      34              0.0000000000
      3653        34  CHL1      C4            -11.0852808173       22.0816973717       16.4719200000  MEMB      34              0.0000000000
      3654        34  CHL1      H4A           -11.1735140101       20.9871053338       16.6404800000  MEMB      34              0.0000000000
      3655        34  CHL1      H4B           -12.0292350048       22.5017318975       16.8803600000  MEMB      34              0.0000000000
      3656        34  CHL1      C5            -10.8698997100       22.4302058047       15.0374900000  MEMB      34              0.0000000000
      3657        34  CHL1      C6            -11.8072704868       23.1809636789       14.3988000000  MEMB      34              0.0000000000
      3658        34  CHL1      H6            -12.7587334358       23.3731813532       14.9162800000  MEMB      34              0.0000000000
      3659        34  CHL1      C7            -11.7447782709       23.6075530218       12.9392200000  MEMB      34              0.0000000000
      3660        34  CHL1      H7A           -12.7051646808       23.4188398834       12.4135100000  MEMB      34              0.0000000000
      3661        34  CHL1      H7B           -11.5503476996       24.6987082898       12.8625000000  MEMB      34              0.0000000000
      3662        34  CHL1      C8            -10.5943358411       22.8760536631       12.1836900000  MEMB      34              0.0000000000
      3663        34  CHL1      H8            -10.8710117622       21.8049952465       12.0806600000  MEMB      34              0.0000000000
      3664        34  CHL1      C14           -10.4626781722       23.4840341995       10.7724800000  MEMB      34              0.0000000000
      3665        34  CHL1      H14           -10.1566304487       24.5406197303       10.9283200000  MEMB      34              0.0000000000
      3666        34  CHL1      C15           -11.7365740321       23.5107319494        9.8749000000  MEMB      34              0.0000000000
      3667        34  CHL1      H15A          -12.1914270024       22.4995852689        9.9457100000  MEMB      34              0.0000000000
      3668        34  CHL1      H15B          -12.5842346386       24.1832137133       10.1270100000  MEMB      34              0.0000000000
      3669        34  CHL1      C16           -11.1652662331       23.6130909416        8.5154400000  MEMB      34              0.0000000000
      3670        34  CHL1      H16A          -11.6865703565       22.9098158590        7.8313600000  MEMB      34              0.0000000000
      3671        34  CHL1      H16B          -11.3323484430       24.6153835317        8.0661900000  MEMB      34              0.0000000000
      3672        34  CHL1      C17            -9.6365739373       23.4463389096        8.5549700000  MEMB      34              0.0000000000
      3673        34  CHL1      H17            -9.2271737518       24.4706700640        8.6871400000  MEMB      34              0.0000000000
      3674        34  CHL1      C13            -9.3839844708       22.7825516690        9.9102600000  MEMB      34              0.0000000000
      3675        34  CHL1      C18            -9.6559875844       21.3257753438        9.7962100000  MEMB      34              0.0000000000
      3676        34  CHL1      H18A           -9.0479183086       20.7519211789        9.0645800000  MEMB      34              0.0000000000
      3677        34  CHL1      H18B           -9.5256262493       20.8216676526       10.7776400000  MEMB      34              0.0000000000
      3678        34  CHL1      H18C          -10.6927502195       21.1348932810        9.4454800000  MEMB      34              0.0000000000
      3679        34  CHL1      C12            -8.0474393290       23.0573814104       10.6277000000  MEMB      34              0.0000000000
      3680        34  CHL1      H12A           -7.1999263073       22.4752166566       10.2068300000  MEMB      34              0.0000000000
      3681        34  CHL1      H12B           -7.7095912428       24.1151101528       10.5904100000  MEMB      34              0.0000000000
      3682        34  CHL1      C11            -8.0566109878       22.5646497552       12.1019400000  MEMB      34              0.0000000000
      3683        34  CHL1      H11A           -7.9749445983       21.4616565290       11.9967900000  MEMB      34              0.0000000000
      3684        34  CHL1      H11B           -7.1232477136       22.9630804337       12.5540400000  MEMB      34              0.0000000000
      3685        34  CHL1      C9             -9.2805557914       22.9281487651       13.0056800000  MEMB      34              0.0000000000
      3686        34  CHL1      H9             -9.1206724792       24.0078749740       13.2128300000  MEMB      34              0.0000000000
      3687        34  CHL1      C10            -9.3973575760       22.2397090085       14.4095200000  MEMB      34              0.0000000000
      3688        34  CHL1      C19            -9.3046030886       20.6764552721       14.2232800000  MEMB      34              0.0000000000
      3689        34  CHL1      H19A           -9.4375159932       20.1439048250       15.1892200000  MEMB      34              0.0000000000
      3690        34  CHL1      H19B           -9.9246272321       20.2344086922       13.4142800000  MEMB      34              0.0000000000
      3691        34  CHL1      H19C           -8.2405399944       20.4907562023       13.9632700000  MEMB      34              0.0000000000
      3692        34  CHL1      C1             -8.4021259580       22.8349300591       15.3582100000  MEMB      34              0.0000000000
      3693        34  CHL1      H1A            -7.3633599051       22.7041495116       14.9864900000  MEMB      34              0.0000000000
      3694        34  CHL1      H1B            -8.6624857903       23.9135005887       15.4150300000  MEMB      34              0.0000000000
      3695        34  CHL1      C2             -8.4286618570       22.1599185268       16.7415600000  MEMB      34              0.0000000000
      3696        34  CHL1      H2A            -7.6879072190       22.5974510543       17.4445300000  MEMB      34              0.0000000000
      3697        34  CHL1      H2B            -8.3061283134       21.0593518642       16.6516100000  MEMB      34              0.0000000000
      3698        34  CHL1      C20            -8.9387963174       22.8674542869        7.2820200000  MEMB      34              0.0000000000
      3699        34  CHL1      H20            -9.3944666598       21.8862897478        7.0290200000  MEMB      34              0.0000000000
      3700        34  CHL1      C21            -7.4536857864       22.6321463771        7.3980900000  MEMB      34              0.0000000000
      3701        34  CHL1      H21A           -7.2137143280       21.8506509428        8.1504200000  MEMB      34              0.0000000000
      3702        34  CHL1      H21B           -6.9473862482       23.5520547243        7.7610800000  MEMB      34              0.0000000000
      3703        34  CHL1      H21C           -6.9072329512       22.3575872632        6.4705600000  MEMB      34              0.0000000000
      3704        34  CHL1      C22            -9.2549890385       23.8199616378        6.0382300000  MEMB      34              0.0000000000
      3705        34  CHL1      H22A          -10.3557542407       23.9702035311        6.0312500000  MEMB      34              0.0000000000
      3706        34  CHL1      H22B           -8.6716835593       24.7611211226        6.1292700000  MEMB      34              0.0000000000
      3707        34  CHL1      C23            -9.1095232633       23.1658435057        4.6809300000  MEMB      34              0.0000000000
      3708        34  CHL1      H23A           -8.0392833012       23.4010425243        4.4976000000  MEMB      34              0.0000000000
      3709        34  CHL1      H23B           -9.3151179935       22.0764949908        4.7543200000  MEMB      34              0.0000000000
      3710        34  CHL1      C24           -10.0534444609       23.8872725598        3.6570800000  MEMB      34              0.0000000000
      3711        34  CHL1      H24A          -11.1026482222       23.9242908588        4.0205900000  MEMB      34              0.0000000000
      3712        34  CHL1      H24B           -9.6528877502       24.9233671598        3.6373700000  MEMB      34              0.0000000000
      3713        34  CHL1      C25           -10.0684266638       23.1948433180        2.2717400000  MEMB      34              0.0000000000
      3714        34  CHL1      H25           -10.4779299396       22.1658667496        2.3601900000  MEMB      34              0.0000000000
      3715        34  CHL1      C26           -10.9190781812       24.0235005949        1.3524500000  MEMB      34              0.0000000000
      3716        34  CHL1      H26A          -10.9527334528       23.5070002564        0.3693800000  MEMB      34              0.0000000000
      3717        34  CHL1      H26B          -11.9738592885       24.1756947977        1.6664300000  MEMB      34              0.0000000000
      3718        34  CHL1      H26C          -10.5206910630       25.0569736555        1.2656200000  MEMB      34              0.0000000000
      3719        34  CHL1      C27            -8.5850416814       23.2264869338        1.7975100000  MEMB      34              0.0000000000
      3720        34  CHL1      H27A           -8.5626560924       23.0787158162        0.6966100000  MEMB      34              0.0000000000
      3721        34  CHL1      H27B           -8.0225583476       24.1470733036        2.0629200000  MEMB      34              0.0000000000
      3722        34  CHL1      H27C           -7.9927012717       22.3393550142        2.1080600000  MEMB      34              0.0000000000
      3723        35  CHL1      C3            -24.8690666842       -3.5543868202       17.3874550000  MEMB      35              0.0000000000
      3724        35  CHL1      H3            -25.2831542983       -2.5251413796       17.4468150000  MEMB      35              0.0000000000
      3725        35  CHL1      O3            -24.4368827891       -4.0314123198       18.6125450000  MEMB      35              0.0000000000
      3726        35  CHL1      H3'           -23.6399738464       -3.5433388249       18.8323450000  MEMB      35              0.0000000000
      3727        35  CHL1      C4            -25.9467970776       -4.4386724413       16.8212450000  MEMB      35              0.0000000000
      3728        35  CHL1      H4A           -25.6228037072       -5.4995242617       16.7584750000  MEMB      35              0.0000000000
      3729        35  CHL1      H4B           -26.8150032821       -4.5445483635       17.5063250000  MEMB      35              0.0000000000
      3730        35  CHL1      C5            -26.3624389611       -3.9157461589       15.4386350000  MEMB      35              0.0000000000
      3731        35  CHL1      C6            -27.6310982575       -3.6791751170       15.1794450000  MEMB      35              0.0000000000
      3732        35  CHL1      H6            -28.4209613643       -3.8115703350       15.9334850000  MEMB      35              0.0000000000
      3733        35  CHL1      C7            -28.1032768262       -3.2447522731       13.8418350000  MEMB      35              0.0000000000
      3734        35  CHL1      H7A           -29.0140026528       -3.8213222152       13.5726450000  MEMB      35              0.0000000000
      3735        35  CHL1      H7B           -28.4024374735       -2.1773622982       13.7676550000  MEMB      35              0.0000000000
      3736        35  CHL1      C8            -27.0919675846       -3.6198717937       12.6823950000  MEMB      35              0.0000000000
      3737        35  CHL1      H8            -27.1625808507       -4.7243924914       12.5855550000  MEMB      35              0.0000000000
      3738        35  CHL1      C14           -27.4840441520       -2.8714982475       11.4197850000  MEMB      35              0.0000000000
      3739        35  CHL1      H14           -27.3428259661       -1.8022744250       11.6864950000  MEMB      35              0.0000000000
      3740        35  CHL1      C15           -28.9457647675       -3.1599037485       10.9409650000  MEMB      35              0.0000000000
      3741        35  CHL1      H15A          -29.2860601706       -4.2153582712       11.0082450000  MEMB      35              0.0000000000
      3742        35  CHL1      H15B          -29.6537561178       -2.5422203659       11.5338850000  MEMB      35              0.0000000000
      3743        35  CHL1      C16           -28.9136311943       -2.7271043562        9.4958750000  MEMB      35              0.0000000000
      3744        35  CHL1      H16A          -29.5453138575       -3.4189863198        8.8987250000  MEMB      35              0.0000000000
      3745        35  CHL1      H16B          -29.3249538904       -1.7086367647        9.3289750000  MEMB      35              0.0000000000
      3746        35  CHL1      C17           -27.4262961443       -2.6165334669        9.1141550000  MEMB      35              0.0000000000
      3747        35  CHL1      H17           -27.1313450970       -1.5578041927        9.2766450000  MEMB      35              0.0000000000
      3748        35  CHL1      C13           -26.6014886331       -3.2643260766       10.2881750000  MEMB      35              0.0000000000
      3749        35  CHL1      C18           -26.6891771170       -4.7482098903        9.9476750000  MEMB      35              0.0000000000
      3750        35  CHL1      H18A          -26.1878793867       -4.8835560543        8.9654850000  MEMB      35              0.0000000000
      3751        35  CHL1      H18B          -26.0736005705       -5.4218931991       10.5813450000  MEMB      35              0.0000000000
      3752        35  CHL1      H18C          -27.7051373436       -5.1926642755        9.8799150000  MEMB      35              0.0000000000
      3753        35  CHL1      C12           -25.1995289827       -2.7924307681       10.5282150000  MEMB      35              0.0000000000
      3754        35  CHL1      H12A          -24.4132255703       -2.9966228104        9.7703550000  MEMB      35              0.0000000000
      3755        35  CHL1      H12B          -25.0923127713       -1.6914037787       10.6310450000  MEMB      35              0.0000000000
      3756        35  CHL1      C11           -24.6572551171       -3.4402134076       11.8697850000  MEMB      35              0.0000000000
      3757        35  CHL1      H11A          -24.6207612472       -4.5433573332       11.7429950000  MEMB      35              0.0000000000
      3758        35  CHL1      H11B          -23.6836484340       -2.9279012774       12.0245750000  MEMB      35              0.0000000000
      3759        35  CHL1      C9            -25.6159792384       -3.2374010941       13.1097050000  MEMB      35              0.0000000000
      3760        35  CHL1      H9            -25.6310060004       -2.1442399775       13.3074150000  MEMB      35              0.0000000000
      3761        35  CHL1      C10           -25.2234154959       -3.8356632405       14.4379650000  MEMB      35              0.0000000000
      3762        35  CHL1      C19           -24.7327960428       -5.3106671576       14.1790750000  MEMB      35              0.0000000000
      3763        35  CHL1      H19A          -24.3968668857       -5.9214726028       15.0441650000  MEMB      35              0.0000000000
      3764        35  CHL1      H19B          -25.4846364019       -5.8378428579       13.5536450000  MEMB      35              0.0000000000
      3765        35  CHL1      H19C          -23.8292848130       -5.2961522948       13.5327250000  MEMB      35              0.0000000000
      3766        35  CHL1      C1            -24.0452490768       -3.0285149250       15.0827250000  MEMB      35              0.0000000000
      3767        35  CHL1      H1A           -23.1514305335       -3.1262836435       14.4301550000  MEMB      35              0.0000000000
      3768        35  CHL1      H1B           -24.3231600901       -1.9562256892       14.9974250000  MEMB      35              0.0000000000
      3769        35  CHL1      C2            -23.6651800920       -3.3685735261       16.4940550000  MEMB      35              0.0000000000
      3770        35  CHL1      H2A           -23.0274398919       -2.5702866024       16.9303350000  MEMB      35              0.0000000000
      3771        35  CHL1      H2B           -23.1339266245       -4.3399537683       16.4018850000  MEMB      35              0.0000000000
      3772        35  CHL1      C20           -27.2227462324       -2.8082875174        7.5495850000  MEMB      35              0.0000000000
      3773        35  CHL1      H20           -27.4262901236       -3.8485299225        7.2167350000  MEMB      35              0.0000000000
      3774        35  CHL1      C21           -25.7632768122       -2.4569064606        7.2390550000  MEMB      35              0.0000000000
      3775        35  CHL1      H21A          -25.5192068327       -2.5268361969        6.1574550000  MEMB      35              0.0000000000
      3776        35  CHL1      H21B          -25.0095663031       -3.1017816770        7.7394350000  MEMB      35              0.0000000000
      3777        35  CHL1      H21C          -25.5892837573       -1.4103386410        7.5688350000  MEMB      35              0.0000000000
      3778        35  CHL1      C22           -28.1275620497       -1.8638525255        6.7175350000  MEMB      35              0.0000000000
      3779        35  CHL1      H22A          -29.1790142881       -2.0314922046        7.0348050000  MEMB      35              0.0000000000
      3780        35  CHL1      H22B          -27.9267426580       -0.8296287998        7.0702050000  MEMB      35              0.0000000000
      3781        35  CHL1      C23           -28.0044120914       -1.8336056434        5.1748750000  MEMB      35              0.0000000000
      3782        35  CHL1      H23A          -28.7287000886       -1.0940247550        4.7714550000  MEMB      35              0.0000000000
      3783        35  CHL1      H23B          -26.9661695814       -1.6705807640        4.8146050000  MEMB      35              0.0000000000
      3784        35  CHL1      C24           -28.5165340800       -3.1065203671        4.4684350000  MEMB      35              0.0000000000
      3785        35  CHL1      H24A          -27.8380461533       -3.9041916440        4.8395150000  MEMB      35              0.0000000000
      3786        35  CHL1      H24B          -29.5091448498       -3.4151035656        4.8606450000  MEMB      35              0.0000000000
      3787        35  CHL1      C25           -28.4743836184       -3.1879048839        2.9254150000  MEMB      35              0.0000000000
      3788        35  CHL1      H25           -29.1940695139       -2.4040552520        2.6061350000  MEMB      35              0.0000000000
      3789        35  CHL1      C26           -27.1084068837       -2.8590075159        2.2767750000  MEMB      35              0.0000000000
      3790        35  CHL1      H26A          -26.4095534295       -3.6917708217        2.5057550000  MEMB      35              0.0000000000
      3791        35  CHL1      H26B          -27.2227634327       -2.8148438124        1.1725650000  MEMB      35              0.0000000000
      3792        35  CHL1      H26C          -26.6900865245       -1.9174096079        2.6923750000  MEMB      35              0.0000000000
      3793        35  CHL1      C27           -29.0424751301       -4.5391730842        2.4468050000  MEMB      35              0.0000000000
      3794        35  CHL1      H27A          -28.4091092476       -5.3289569013        2.9044250000  MEMB      35              0.0000000000
      3795        35  CHL1      H27B          -30.0359650686       -4.6856074743        2.9220450000  MEMB      35              0.0000000000
      3796        35  CHL1      H27C          -29.0458268378       -4.6082988251        1.3379550000  MEMB      35              0.0000000000
      3797        36  SAPS      N               7.8388210751       26.0157964903       20.5196864481  MEMB      36              0.0000000000
      3798        36  SAPS      HN1             6.9650569747       26.5682580718       20.6333637768  MEMB      36              0.0000000000
      3799        36  SAPS      HN2             8.6103043809       26.2432486308       21.1789884338  MEMB      36              0.0000000000
      3800        36  SAPS      HN3             8.2723431967       26.0454738826       19.5748172277  MEMB      36              0.0000000000
      3801        36  SAPS      C12             7.5095569599       24.6304427036       20.7656434843  MEMB      36              0.0000000000
      3802        36  SAPS      H12A            8.3917049462       24.0156458216       20.6644517374  MEMB      36              0.0000000000
      3803        36  SAPS      C13             6.9219317313       24.4527956226       22.1956649477  MEMB      36              0.0000000000
      3804        36  SAPS      O13A            6.7885440655       25.3493845889       23.0362952454  MEMB      36              0.0000000000
      3805        36  SAPS      O13B            6.4461449037       23.3226429107       22.3894679577  MEMB      36              0.0000000000
      3806        36  SAPS      C11             6.4060176153       24.2054027317       19.6722174274  MEMB      36              0.0000000000
      3807        36  SAPS      H11A            6.7250942989       24.7082837014       18.7343358775  MEMB      36              0.0000000000
      3808        36  SAPS      H11B            5.4265117472       24.6300980958       19.9796636346  MEMB      36              0.0000000000
      3809        36  SAPS      P               5.7182851267       22.0919642302       18.3008271449  MEMB      36              0.0000000000
      3810        36  SAPS      O13             6.3772532369       20.8108708956       18.0981873651  MEMB      36              0.0000000000
      3811        36  SAPS      O14             4.2498077120       22.0556196235       18.2740099056  MEMB      36              0.0000000000
      3812        36  SAPS      O12             6.1233662134       22.8111578100       19.5925307320  MEMB      36              0.0000000000
      3813        36  SAPS      O11             6.2264386560       23.1341770097       17.1554693390  MEMB      36              0.0000000000
      3814        36  SAPS      C1              7.6285496141       23.0109827858       16.7743556251  MEMB      36              0.0000000000
      3815        36  SAPS      HA              8.2955610543       22.9425649952       17.6602089431  MEMB      36              0.0000000000
      3816        36  SAPS      HB              7.7653920036       22.1040622184       16.1473863967  MEMB      36              0.0000000000
      3817        36  SAPS      C2              8.0836708930       24.1910202710       15.9287022645  MEMB      36              0.0000000000
      3818        36  SAPS      HS              8.2132067468       25.0968119387       16.5588475453  MEMB      36              0.0000000000
      3819        36  SAPS      O21             7.0255311008       24.3937176193       14.9690527765  MEMB      36              0.0000000000
      3820        36  SAPS      C21             6.9615701900       25.6939050808       14.5674390036  MEMB      36              0.0000000000
      3821        36  SAPS      O22             7.8884288118       26.5265549014       14.6324840408  MEMB      36              0.0000000000
      3822        36  SAPS      C22             5.5255864349       25.9640276622       14.0084911595  MEMB      36              0.0000000000
      3823        36  SAPS      H2R             5.0925473289       25.1143198595       13.4385837036  MEMB      36              0.0000000000
      3824        36  SAPS      H2S             4.9623006211       26.0358449387       14.9634113035  MEMB      36              0.0000000000
      3825        36  SAPS      C3              9.4792418660       24.0508370130       15.2306463093  MEMB      36              0.0000000000
      3826        36  SAPS      HX             10.2436448788       23.7156128289       15.9638813069  MEMB      36              0.0000000000
      3827        36  SAPS      HY              9.7969307957       25.0492101721       14.8609896128  MEMB      36              0.0000000000
      3828        36  SAPS      O31             9.3298933372       23.0955691270       14.1339736081  MEMB      36              0.0000000000
      3829        36  SAPS      C31            10.3538316772       23.1791930561       13.2875015660  MEMB      36              0.0000000000
      3830        36  SAPS      O32            11.3099834259       23.8948736005       13.3744314225  MEMB      36              0.0000000000
      3831        36  SAPS      C32            10.0795336338       22.2871259768       12.1110231530  MEMB      36              0.0000000000
      3832        36  SAPS      H2X             9.0712548997       21.8206144107       12.1031724626  MEMB      36              0.0000000000
      3833        36  SAPS      H2Y            10.9080733890       21.5496691282       12.0477682622  MEMB      36              0.0000000000
      3834        36  SAPS      C23             5.4357680153       27.2495193181       13.1265443178  MEMB      36              0.0000000000
      3835        36  SAPS      H3R             5.9107794624       28.1810561352       13.5019440519  MEMB      36              0.0000000000
      3836        36  SAPS      H3S             4.3568288699       27.4945748130       13.0257526668  MEMB      36              0.0000000000
      3837        36  SAPS      C24             5.8716003420       26.9162215363       11.6918386635  MEMB      36              0.0000000000
      3838        36  SAPS      H4R             5.1313156888       26.1554709239       11.3638780878  MEMB      36              0.0000000000
      3839        36  SAPS      H4S             6.9293709037       26.5765097287       11.6980227877  MEMB      36              0.0000000000
      3840        36  SAPS      C25             5.6473700536       28.1253327021       10.8433066122  MEMB      36              0.0000000000
      3841        36  SAPS      H5R             4.8121348783       28.7895424762       11.1101545371  MEMB      36              0.0000000000
      3842        36  SAPS      C26             6.3181017360       28.4754278521        9.6849449061  MEMB      36              0.0000000000
      3843        36  SAPS      H6R             6.2169845161       29.4302887162        9.1482740268  MEMB      36              0.0000000000
      3844        36  SAPS      C27             7.5424030943       27.7527507340        9.0263928440  MEMB      36              0.0000000000
      3845        36  SAPS      H7R             8.0984857613       27.3028724415        9.8765113637  MEMB      36              0.0000000000
      3846        36  SAPS      H7S             8.2867588184       28.4947076015        8.6661764150  MEMB      36              0.0000000000
      3847        36  SAPS      C28             7.3921080925       26.5261859791        8.0671607732  MEMB      36              0.0000000000
      3848        36  SAPS      H8R             7.2101276185       25.5543704310        8.5492998767  MEMB      36              0.0000000000
      3849        36  SAPS      C29             7.1648218334       26.5901181401        6.7517552629  MEMB      36              0.0000000000
      3850        36  SAPS      H9R             6.8979757851       25.6183946108        6.3106809183  MEMB      36              0.0000000000
      3851        36  SAPS      C210            7.0853321780       27.8450027658        5.9232349716  MEMB      36              0.0000000000
      3852        36  SAPS      H10R            6.6790518902       28.6813313292        6.5313566939  MEMB      36              0.0000000000
      3853        36  SAPS      H10S            6.3327786278       27.6932074903        5.1201524774  MEMB      36              0.0000000000
      3854        36  SAPS      C211            8.3459255925       28.3134865667        5.2585074082  MEMB      36              0.0000000000
      3855        36  SAPS      H11R            8.8937897027       29.1648149759        5.6887229032  MEMB      36              0.0000000000
      3856        36  SAPS      C212            9.0027250557       27.6976759358        4.2599454328  MEMB      36              0.0000000000
      3857        36  SAPS      H12R            9.8412412822       28.2273407877        3.7841873347  MEMB      36              0.0000000000
      3858        36  SAPS      C213            8.5514402982       26.4533642842        3.6216726804  MEMB      36              0.0000000000
      3859        36  SAPS      H13R            7.6142153684       26.0383767023        4.0502939043  MEMB      36              0.0000000000
      3860        36  SAPS      H13S            9.2677903603       25.6554002241        3.9122204802  MEMB      36              0.0000000000
      3861        36  SAPS      C214            8.5139438651       26.5745085714        2.1012070579  MEMB      36              0.0000000000
      3862        36  SAPS      H14R            9.5076598199       26.8420364041        1.7126749166  MEMB      36              0.0000000000
      3863        36  SAPS      C215            7.4072576771       26.4117303400        1.2972771216  MEMB      36              0.0000000000
      3864        36  SAPS      H15R            7.4871986206       26.6607598249        0.2288226542  MEMB      36              0.0000000000
      3865        36  SAPS      C216            6.0021898913       26.0636652747        1.6778212276  MEMB      36              0.0000000000
      3866        36  SAPS      H16R            5.9283709499       25.9960372344        2.7843021608  MEMB      36              0.0000000000
      3867        36  SAPS      H16S            5.8155430441       25.0172879921        1.3544355319  MEMB      36              0.0000000000
      3868        36  SAPS      C217            4.9303950243       27.0215244772        1.2409370636  MEMB      36              0.0000000000
      3869        36  SAPS      H17R            4.9452298338       27.4225933269        0.2049627117  MEMB      36              0.0000000000
      3870        36  SAPS      H17S            4.8743810572       27.8440092195        1.9857211474  MEMB      36              0.0000000000
      3871        36  SAPS      C218            3.5394750228       26.3356128707        1.3876827941  MEMB      36              0.0000000000
      3872        36  SAPS      H18R            3.3849631205       25.8641121823        2.3817326362  MEMB      36              0.0000000000
      3873        36  SAPS      H18S            3.5360065956       25.6314659560        0.5283299968  MEMB      36              0.0000000000
      3874        36  SAPS      C219            2.1970856627       27.1913790715        1.1311912849  MEMB      36              0.0000000000
      3875        36  SAPS      H19R            2.0704453937       27.9397101019        1.9425387608  MEMB      36              0.0000000000
      3876        36  SAPS      H19S            1.3827447458       26.4376454966        1.1864691480  MEMB      36              0.0000000000
      3877        36  SAPS      C220            2.1519257803       27.8795268997       -0.1940287245  MEMB      36              0.0000000000
      3878        36  SAPS      H20R            1.0981006550       28.0919070115       -0.4745075000  MEMB      36              0.0000000000
      3879        36  SAPS      H20S            2.5853311291       27.4118481217       -1.1038412695  MEMB      36              0.0000000000
      3880        36  SAPS      H20T            2.7851599382       28.7726582595       -0.0052117539  MEMB      36              0.0000000000
      3881        36  SAPS      C33            10.0581117293       23.1827661511       10.8337508866  MEMB      36              0.0000000000
      3882        36  SAPS      H3X            11.1076432125       23.5470858737       10.8424243105  MEMB      36              0.0000000000
      3883        36  SAPS      H3Y             9.2845199224       23.9732830852       10.9384415120  MEMB      36              0.0000000000
      3884        36  SAPS      C34            10.0485065772       22.5323597325        9.4278502241  MEMB      36              0.0000000000
      3885        36  SAPS      H4X            10.9401294290       21.8697433304        9.4114412936  MEMB      36              0.0000000000
      3886        36  SAPS      H4Y            10.2564021047       23.2981669078        8.6502634782  MEMB      36              0.0000000000
      3887        36  SAPS      C35             8.8020580118       21.7505832241        9.0675007657  MEMB      36              0.0000000000
      3888        36  SAPS      H5X             7.9543936166       22.4510644348        9.2259709140  MEMB      36              0.0000000000
      3889        36  SAPS      H5Y             8.6332838504       21.0354227026        9.9007965512  MEMB      36              0.0000000000
      3890        36  SAPS      C36             8.7368447178       21.0857288536        7.6720070668  MEMB      36              0.0000000000
      3891        36  SAPS      H6X             9.0469862978       20.0193076588        7.7016549467  MEMB      36              0.0000000000
      3892        36  SAPS      H6Y             9.3509454838       21.4886138722        6.8384098009  MEMB      36              0.0000000000
      3893        36  SAPS      C37             7.3615478839       21.0892170159        7.0096789129  MEMB      36              0.0000000000
      3894        36  SAPS      H7X             6.6421266657       20.8075715969        7.8080710581  MEMB      36              0.0000000000
      3895        36  SAPS      H7Y             7.3512395180       20.3163274370        6.2116459824  MEMB      36              0.0000000000
      3896        36  SAPS      C38             6.8648431353       22.4416309084        6.3117154066  MEMB      36              0.0000000000
      3897        36  SAPS      H8X             6.7816838361       23.1670734630        7.1490554432  MEMB      36              0.0000000000
      3898        36  SAPS      H8Y             5.8524414397       22.2721791453        5.8866864215  MEMB      36              0.0000000000
      3899        36  SAPS      C39             7.8414974682       23.0767559696        5.2210825133  MEMB      36              0.0000000000
      3900        36  SAPS      H9X             8.7139629843       23.5585397905        5.7120087863  MEMB      36              0.0000000000
      3901        36  SAPS      H9Y             7.3968342872       23.9431353374        4.6863085061  MEMB      36              0.0000000000
      3902        36  SAPS      C310            8.3739067362       22.0125029049        4.2625100032  MEMB      36              0.0000000000
      3903        36  SAPS      H10X            8.8700781451       21.2137734166        4.8542583260  MEMB      36              0.0000000000
      3904        36  SAPS      H10Y            9.1092684951       22.4774495235        3.5715756945  MEMB      36              0.0000000000
      3905        36  SAPS      C311            7.3004833260       21.4620169008        3.3730524825  MEMB      36              0.0000000000
      3906        36  SAPS      H11X            6.5084017419       20.9444309597        3.9553170140  MEMB      36              0.0000000000
      3907        36  SAPS      H11Y            7.6788675961       20.7826017032        2.5796148071  MEMB      36              0.0000000000
      3908        36  SAPS      C312            6.4081627231       22.4339093785        2.6103823010  MEMB      36              0.0000000000
      3909        36  SAPS      H12X            7.0610302899       23.1754305413        2.1022173101  MEMB      36              0.0000000000
      3910        36  SAPS      H12Y            5.7579412565       23.0409061305        3.2760296687  MEMB      36              0.0000000000
      3911        36  SAPS      C313            5.4953037588       21.5960946224        1.7334466028  MEMB      36              0.0000000000
      3912        36  SAPS      H13X            4.6583190352       21.2695342723        2.3870030549  MEMB      36              0.0000000000
      3913        36  SAPS      H13Y            6.0895723759       20.7674689379        1.2923742663  MEMB      36              0.0000000000
      3914        36  SAPS      C314            4.9747846772       22.3991164783        0.4767292812  MEMB      36              0.0000000000
      3915        36  SAPS      H14X            5.7574203070       22.8655251751       -0.1590894130  MEMB      36              0.0000000000
      3916        36  SAPS      H14Y            4.3911502110       23.2663900847        0.8529322737  MEMB      36              0.0000000000
      3917        36  SAPS      C315            4.0794613442       21.6196558565       -0.4700744124  MEMB      36              0.0000000000
      3918        36  SAPS      H15X            3.1015066950       21.4345402444        0.0235428099  MEMB      36              0.0000000000
      3919        36  SAPS      H15Y            4.4482638296       20.5860685762       -0.6432892814  MEMB      36              0.0000000000
      3920        36  SAPS      C316            3.7925999418       22.4028326145       -1.8154344455  MEMB      36              0.0000000000
      3921        36  SAPS      H16X            3.5199914439       21.5568531646       -2.4820120250  MEMB      36              0.0000000000
      3922        36  SAPS      H16Y            4.6913298969       22.8181773861       -2.3195126022  MEMB      36              0.0000000000
      3923        36  SAPS      C317            2.7013244848       23.5056240287       -1.8095211744  MEMB      36              0.0000000000
      3924        36  SAPS      H17X            2.4069999482       24.0472192380       -2.7338424785  MEMB      36              0.0000000000
      3925        36  SAPS      H17Y            3.0811213476       24.3638902837       -1.2150019949  MEMB      36              0.0000000000
      3926        36  SAPS      C318            1.4477373595       22.9981026637       -1.0835584709  MEMB      36              0.0000000000
      3927        36  SAPS      H18X            0.7675198024       23.8751526601       -1.1326376071  MEMB      36              0.0000000000
      3928        36  SAPS      H18Y            1.7161069085       22.7365240844       -0.0376747717  MEMB      36              0.0000000000
      3929        36  SAPS      H18Z            1.1415221760       22.1768130344       -1.7662278172  MEMB      36              0.0000000000
      3930        37  SAPE      N               3.3177932861      -24.4428345505       18.2316365799  MEMB      37              0.0000000000
      3931        37  SAPE      HN1             3.4997663918      -24.2119634427       17.2340472219  MEMB      37              0.0000000000
      3932        37  SAPE      HN2             2.3434815145      -24.1538191340       18.4525133794  MEMB      37              0.0000000000
      3933        37  SAPE      HN3             4.0870299904      -23.9406253144       18.7191414236  MEMB      37              0.0000000000
      3934        37  SAPE      C12             3.6430495402      -25.9567264487       18.5807943724  MEMB      37              0.0000000000
      3935        37  SAPE      H12A            4.4142734445      -26.2436995195       17.8343487416  MEMB      37              0.0000000000
      3936        37  SAPE      H12B            2.7067027074      -26.4635726891       18.2634893857  MEMB      37              0.0000000000
      3937        37  SAPE      C11             4.1237442405      -26.2295334094       20.1062230793  MEMB      37              0.0000000000
      3938        37  SAPE      H11A            4.8486410170      -27.0714202299       20.1147229853  MEMB      37              0.0000000000
      3939        37  SAPE      H11B            3.2332319234      -26.5955669833       20.6605950450  MEMB      37              0.0000000000
      3940        37  SAPE      P               6.2616887890      -24.6699420779       20.6586972391  MEMB      37              0.0000000000
      3941        37  SAPE      O13             6.2561189844      -23.3370836816       21.2835986766  MEMB      37              0.0000000000
      3942        37  SAPE      O14             7.1798101896      -25.6519582448       21.2502298146  MEMB      37              0.0000000000
      3943        37  SAPE      O12             4.7561377504      -25.2003027049       20.7770769275  MEMB      37              0.0000000000
      3944        37  SAPE      O11             6.4674210561      -24.5086452356       19.1117432854  MEMB      37              0.0000000000
      3945        37  SAPE      C1              7.0825985042      -25.6248669810       18.4970343830  MEMB      37              0.0000000000
      3946        37  SAPE      HA              6.9991270908      -26.5740957078       19.0682771496  MEMB      37              0.0000000000
      3947        37  SAPE      HB              6.5381024252      -25.8919761470       17.5661756275  MEMB      37              0.0000000000
      3948        37  SAPE      C2              8.5336275793      -25.4061218120       18.2093966495  MEMB      37              0.0000000000
      3949        37  SAPE      HS              8.9760758662      -25.3144812399       19.2243658727  MEMB      37              0.0000000000
      3950        37  SAPE      O21             8.6867481995      -24.2398420919       17.4132306772  MEMB      37              0.0000000000
      3951        37  SAPE      C21             9.7657183746      -23.6020035443       17.7937256868  MEMB      37              0.0000000000
      3952        37  SAPE      O22            10.6965689418      -24.0050889614       18.4723818386  MEMB      37              0.0000000000
      3953        37  SAPE      C22             9.6088808704      -22.1431094750       17.4196887048  MEMB      37              0.0000000000
      3954        37  SAPE      H2R             8.6360847394      -21.9166621307       16.9331594241  MEMB      37              0.0000000000
      3955        37  SAPE      H2S             9.6854603790      -21.4659414846       18.2971280866  MEMB      37              0.0000000000
      3956        37  SAPE      C3              9.0928449206      -26.6181643584       17.3374021623  MEMB      37              0.0000000000
      3957        37  SAPE      HX              8.7598858446      -27.5311856505       17.8757807603  MEMB      37              0.0000000000
      3958        37  SAPE      HY             10.1884731599      -26.6031009591       17.1538465749  MEMB      37              0.0000000000
      3959        37  SAPE      O31             8.4433286942      -26.6279688196       16.1087622927  MEMB      37              0.0000000000
      3960        37  SAPE      C31             8.8932424606      -27.4728204028       15.1836787504  MEMB      37              0.0000000000
      3961        37  SAPE      O32             9.7656464593      -28.3167046116       15.3788463433  MEMB      37              0.0000000000
      3962        37  SAPE      C32             8.0137105125      -27.3601326363       13.8955360444  MEMB      37              0.0000000000
      3963        37  SAPE      H2X             8.6470641937      -27.6755270294       13.0389672539  MEMB      37              0.0000000000
      3964        37  SAPE      H2Y             7.9342333884      -26.2813500058       13.6420956321  MEMB      37              0.0000000000
      3965        37  SAPE      C23            10.8091606694      -21.6617853706       16.5836031901  MEMB      37              0.0000000000
      3966        37  SAPE      H3R            11.7722989421      -22.0878010163       16.9374343938  MEMB      37              0.0000000000
      3967        37  SAPE      H3S            10.8842325373      -20.6176407316       16.9556877138  MEMB      37              0.0000000000
      3968        37  SAPE      C24            10.6395655462      -21.7928012773       15.0404929109  MEMB      37              0.0000000000
      3969        37  SAPE      H4R            11.4269440572      -21.1979214600       14.5301266794  MEMB      37              0.0000000000
      3970        37  SAPE      H4S             9.6235329596      -21.3796363773       14.8635935013  MEMB      37              0.0000000000
      3971        37  SAPE      C25            10.6789448479      -23.1505220032       14.5650766514  MEMB      37              0.0000000000
      3972        37  SAPE      H5R            11.6616333205      -23.6388336157       14.6417245880  MEMB      37              0.0000000000
      3973        37  SAPE      C26             9.7787699286      -23.9356705665       13.8914311121  MEMB      37              0.0000000000
      3974        37  SAPE      H6R             9.9231711979      -25.0166577964       13.7478513004  MEMB      37              0.0000000000
      3975        37  SAPE      C27             8.3783426076      -23.4655588965       13.4848489890  MEMB      37              0.0000000000
      3976        37  SAPE      H7R             7.9299038136      -23.0755792027       14.4235394659  MEMB      37              0.0000000000
      3977        37  SAPE      H7S             7.8240115897      -24.3122340695       13.0263957980  MEMB      37              0.0000000000
      3978        37  SAPE      C28             8.3238552104      -22.5877907727       12.3061364024  MEMB      37              0.0000000000
      3979        37  SAPE      H8R             8.0905466940      -21.5225268457       12.4502885250  MEMB      37              0.0000000000
      3980        37  SAPE      C29             8.6793141350      -22.8728150254       11.0129731006  MEMB      37              0.0000000000
      3981        37  SAPE      H9R             8.4932666684      -22.0022744345       10.3667961860  MEMB      37              0.0000000000
      3982        37  SAPE      C210            9.2772223136      -24.1300850309       10.4106722387  MEMB      37              0.0000000000
      3983        37  SAPE      H10R           10.1452016632      -24.4679564551       11.0162923001  MEMB      37              0.0000000000
      3984        37  SAPE      H10S            9.8717298691      -23.7841485368        9.5381994336  MEMB      37              0.0000000000
      3985        37  SAPE      C211            8.3696217590      -25.2722599446       10.0396005501  MEMB      37              0.0000000000
      3986        37  SAPE      H11R            8.2110781586      -25.9742135819       10.8715412777  MEMB      37              0.0000000000
      3987        37  SAPE      C212            7.8421292718      -25.5964219984        8.8592355754  MEMB      37              0.0000000000
      3988        37  SAPE      H12R            7.2558563322      -26.5263646962        8.8206268300  MEMB      37              0.0000000000
      3989        37  SAPE      C213            8.0345326507      -24.8721333961        7.5842624536  MEMB      37              0.0000000000
      3990        37  SAPE      H13R            8.0571634248      -23.7706027148        7.7272276468  MEMB      37              0.0000000000
      3991        37  SAPE      H13S            7.2782242873      -25.1286122800        6.8119040724  MEMB      37              0.0000000000
      3992        37  SAPE      C214            9.3527059519      -25.2700787241        6.9724921961  MEMB      37              0.0000000000
      3993        37  SAPE      H14R            9.9464582558      -24.3881587274        6.6902235149  MEMB      37              0.0000000000
      3994        37  SAPE      C215            9.6707965098      -26.4705471756        6.4928320109  MEMB      37              0.0000000000
      3995        37  SAPE      H15R           10.6146463684      -26.7314873845        5.9917756652  MEMB      37              0.0000000000
      3996        37  SAPE      C216            8.8850293080      -27.7481640563        6.4270049614  MEMB      37              0.0000000000
      3997        37  SAPE      H16R            7.7897775307      -27.5804060223        6.3457535262  MEMB      37              0.0000000000
      3998        37  SAPE      H16S            9.0637555796      -28.3892017918        7.3166390835  MEMB      37              0.0000000000
      3999        37  SAPE      C217            9.2584591543      -28.6767273648        5.3575720557  MEMB      37              0.0000000000
      4000        37  SAPE      H17R            8.7368945835      -29.6497909415        5.4818247039  MEMB      37              0.0000000000
      4001        37  SAPE      H17S           10.3474225432      -28.8720521314        5.4591983789  MEMB      37              0.0000000000
      4002        37  SAPE      C218            8.9807925563      -28.1161179790        3.9356654451  MEMB      37              0.0000000000
      4003        37  SAPE      H18R            9.5009495280      -28.7419910796        3.1793317390  MEMB      37              0.0000000000
      4004        37  SAPE      H18S            9.5728093738      -27.1845228022        3.8093037528  MEMB      37              0.0000000000
      4005        37  SAPE      C219            7.5525421747      -27.8717912977        3.4833574529  MEMB      37              0.0000000000
      4006        37  SAPE      H19R            7.0840148075      -27.1110242505        4.1436878994  MEMB      37              0.0000000000
      4007        37  SAPE      H19S            6.9407666956      -28.7929590695        3.5906037363  MEMB      37              0.0000000000
      4008        37  SAPE      C220            7.4829701968      -27.3244388046        2.1128207987  MEMB      37              0.0000000000
      4009        37  SAPE      H20R            6.4661046507      -26.9353080450        1.8917264695  MEMB      37              0.0000000000
      4010        37  SAPE      H20S            7.7788494257      -28.0686874199        1.3428401295  MEMB      37              0.0000000000
      4011        37  SAPE      H20T            8.2426599160      -26.5171252086        2.1865598317  MEMB      37              0.0000000000
      4012        37  SAPE      C33             6.6512973435      -28.0687558891       14.0347981562  MEMB      37              0.0000000000
      4013        37  SAPE      H3X             6.4587350413      -28.2646558209       15.1113034593  MEMB      37              0.0000000000
      4014        37  SAPE      H3Y             6.7352186959      -28.9979242213       13.4315365460  MEMB      37              0.0000000000
      4015        37  SAPE      C34             5.5190093111      -27.3169644263       13.4455146829  MEMB      37              0.0000000000
      4016        37  SAPE      H4X             4.6149850439      -27.9471152995       13.3041961329  MEMB      37              0.0000000000
      4017        37  SAPE      H4Y             5.7829486326      -26.9137166891       12.4444911291  MEMB      37              0.0000000000
      4018        37  SAPE      C35             5.1018837630      -26.0827298650       14.2976020187  MEMB      37              0.0000000000
      4019        37  SAPE      H5X             5.9767735205      -25.5128515537       14.6772433819  MEMB      37              0.0000000000
      4020        37  SAPE      H5Y             4.5304973286      -26.3233823275       15.2195158857  MEMB      37              0.0000000000
      4021        37  SAPE      C36             4.1758751860      -24.9880425623       13.6666137881  MEMB      37              0.0000000000
      4022        37  SAPE      H6X             4.3279067982      -24.0958573124       14.3109842964  MEMB      37              0.0000000000
      4023        37  SAPE      H6Y             3.1246950898      -25.3402444935       13.7393828002  MEMB      37              0.0000000000
      4024        37  SAPE      C37             4.4569463998      -24.4792067527       12.2400483136  MEMB      37              0.0000000000
      4025        37  SAPE      H7X             4.4678722005      -25.3002857184       11.4916961968  MEMB      37              0.0000000000
      4026        37  SAPE      H7Y             5.4951823477      -24.0931532453       12.1543189638  MEMB      37              0.0000000000
      4027        37  SAPE      C38             3.4158346774      -23.3685560848       11.8456020867  MEMB      37              0.0000000000
      4028        37  SAPE      H8X             3.8077186819      -22.4939202898       12.4075274345  MEMB      37              0.0000000000
      4029        37  SAPE      H8Y             2.4396544126      -23.7426177803       12.2217281493  MEMB      37              0.0000000000
      4030        37  SAPE      C39             3.3101292524      -23.1276572717       10.3039728313  MEMB      37              0.0000000000
      4031        37  SAPE      H9X             2.5768460905      -22.3534976602        9.9920533197  MEMB      37              0.0000000000
      4032        37  SAPE      H9Y             2.9354405752      -24.0748289941        9.8603571680  MEMB      37              0.0000000000
      4033        37  SAPE      C310            4.5806662340      -22.7514358313        9.5382743053  MEMB      37              0.0000000000
      4034        37  SAPE      H10X            5.3370460277      -23.5526895714        9.6804118583  MEMB      37              0.0000000000
      4035        37  SAPE      H10Y            4.9681217567      -21.8550941656       10.0681521202  MEMB      37              0.0000000000
      4036        37  SAPE      C311            4.3358698650      -22.4090379888        8.1392907677  MEMB      37              0.0000000000
      4037        37  SAPE      H11X            5.2859881888      -22.1085380265        7.6480712447  MEMB      37              0.0000000000
      4038        37  SAPE      H11Y            3.5524253404      -21.6275502747        8.0402343441  MEMB      37              0.0000000000
      4039        37  SAPE      C312            3.9642879435      -23.6598720419        7.3398524558  MEMB      37              0.0000000000
      4040        37  SAPE      H12X            2.8610053960      -23.7684925914        7.2671206769  MEMB      37              0.0000000000
      4041        37  SAPE      H12Y            4.3279970058      -24.4915085995        7.9804909082  MEMB      37              0.0000000000
      4042        37  SAPE      C313            4.5785037317      -23.9272770286        5.9631029899  MEMB      37              0.0000000000
      4043        37  SAPE      H13X            4.0701201442      -24.8035930989        5.5071014097  MEMB      37              0.0000000000
      4044        37  SAPE      H13Y            5.6818673637      -24.0091771460        6.0641057292  MEMB      37              0.0000000000
      4045        37  SAPE      C314            4.3775669742      -22.7655854687        4.9857788913  MEMB      37              0.0000000000
      4046        37  SAPE      H14X            4.9031272811      -21.9292364617        5.4943333649  MEMB      37              0.0000000000
      4047        37  SAPE      H14Y            3.2930136362      -22.5414206399        5.0741844333  MEMB      37              0.0000000000
      4048        37  SAPE      C315            4.7187002783      -23.0549939817        3.5293138315  MEMB      37              0.0000000000
      4049        37  SAPE      H15X            4.3363297090      -22.2215488064        2.9020320397  MEMB      37              0.0000000000
      4050        37  SAPE      H15Y            4.3266921686      -24.0578950361        3.2557450557  MEMB      37              0.0000000000
      4051        37  SAPE      C316            6.2783286792      -23.1151082473        3.4505392667  MEMB      37              0.0000000000
      4052        37  SAPE      H16X            6.6239387603      -23.9301921090        4.1217431212  MEMB      37              0.0000000000
      4053        37  SAPE      H16Y            6.6868145456      -22.1744605280        3.8779060345  MEMB      37              0.0000000000
      4054        37  SAPE      C317            6.9282912178      -23.3712803578        2.0621435839  MEMB      37              0.0000000000
      4055        37  SAPE      H17X            6.3865415546      -22.9419668743        1.1923628815  MEMB      37              0.0000000000
      4056        37  SAPE      H17Y            7.2088149128      -24.4324126809        1.8900216919  MEMB      37              0.0000000000
      4057        37  SAPE      C318            8.3352561801      -22.7873880590        2.0446108188  MEMB      37              0.0000000000
      4058        37  SAPE      H18X            8.3386019367      -21.8209665168        2.5926419291  MEMB      37              0.0000000000
      4059        37  SAPE      H18Y            8.5566001916      -22.5915302660        0.9736454589  MEMB      37              0.0000000000
      4060        37  SAPE      H18Z            9.0394723525      -23.5075158253        2.5134572980  MEMB      37              0.0000000000
      4061        38  CHL1      C3            -17.1914666671       19.9411678511       17.3299500000  MEMB      38              0.0000000000
      4062        38  CHL1      H3            -18.2872221435       19.8809724656       17.1566700000  MEMB      38              0.0000000000
      4063        38  CHL1      O3            -17.0824779329       20.3600395489       18.6700500000  MEMB      38              0.0000000000
      4064        38  CHL1      H3'           -17.3713124811       21.2721173093       18.7492800000  MEMB      38              0.0000000000
      4065        38  CHL1      C4            -16.3755751838       18.5744556138       17.0866100000  MEMB      38              0.0000000000
      4066        38  CHL1      H4A           -15.3333197542       18.7990022764       17.3990200000  MEMB      38              0.0000000000
      4067        38  CHL1      H4B           -16.8313719565       17.7496949375       17.6751100000  MEMB      38              0.0000000000
      4068        38  CHL1      C5            -16.4049713872       18.2736017195       15.6099700000  MEMB      38              0.0000000000
      4069        38  CHL1      C6            -16.8276249346       17.0850823481       15.2068300000  MEMB      38              0.0000000000
      4070        38  CHL1      H6            -17.0549011862       16.3607182325       16.0028300000  MEMB      38              0.0000000000
      4071        38  CHL1      C7            -16.8526832366       16.6260532158       13.8056900000  MEMB      38              0.0000000000
      4072        38  CHL1      H7A           -16.5056237970       15.5790869929       13.6725700000  MEMB      38              0.0000000000
      4073        38  CHL1      H7B           -17.9267471392       16.5905298413       13.5238100000  MEMB      38              0.0000000000
      4074        38  CHL1      C8            -16.0660233658       17.5843298424       12.8631500000  MEMB      38              0.0000000000
      4075        38  CHL1      H8            -15.0010842655       17.2933279456       12.9878100000  MEMB      38              0.0000000000
      4076        38  CHL1      C14           -16.4515649814       17.4038926824       11.4187700000  MEMB      38              0.0000000000
      4077        38  CHL1      H14           -17.4871552927       17.8044569404       11.3811700000  MEMB      38              0.0000000000
      4078        38  CHL1      C15           -16.3788105581       15.9802957342       10.9499700000  MEMB      38              0.0000000000
      4079        38  CHL1      H15A          -15.4789041845       15.4995539604       11.3897100000  MEMB      38              0.0000000000
      4080        38  CHL1      H15B          -17.2767490505       15.3670022238       11.1777700000  MEMB      38              0.0000000000
      4081        38  CHL1      C16           -16.3029548163       16.1193558975        9.4164900000  MEMB      38              0.0000000000
      4082        38  CHL1      H16A          -15.4279222868       15.5648180326        9.0150900000  MEMB      38              0.0000000000
      4083        38  CHL1      H16B          -17.2178997519       15.6747954112        8.9697700000  MEMB      38              0.0000000000
      4084        38  CHL1      C17           -16.2515267384       17.6988278579        9.1514500000  MEMB      38              0.0000000000
      4085        38  CHL1      H17           -17.2858796463       18.0222639470        8.9068500000  MEMB      38              0.0000000000
      4086        38  CHL1      C13           -15.6720191609       18.2829531699       10.4002500000  MEMB      38              0.0000000000
      4087        38  CHL1      C18           -14.1287709622       17.9884911982       10.4869200000  MEMB      38              0.0000000000
      4088        38  CHL1      H18A          -13.6656698863       18.7880347760        9.8700000000  MEMB      38              0.0000000000
      4089        38  CHL1      H18B          -13.7706559987       18.1879050742       11.5195500000  MEMB      38              0.0000000000
      4090        38  CHL1      H18C          -13.8668928960       16.9817698523       10.0967200000  MEMB      38              0.0000000000
      4091        38  CHL1      C12           -16.0737009790       19.8080874580       10.7140300000  MEMB      38              0.0000000000
      4092        38  CHL1      H12A          -15.5031696432       20.5762782648       10.1495100000  MEMB      38              0.0000000000
      4093        38  CHL1      H12B          -17.1578549197       19.8635353467       10.4776800000  MEMB      38              0.0000000000
      4094        38  CHL1      C11           -15.7599850630       20.0802417368       12.1839700000  MEMB      38              0.0000000000
      4095        38  CHL1      H11A          -14.6533163982       20.0323210253       12.2694500000  MEMB      38              0.0000000000
      4096        38  CHL1      H11B          -15.9563308055       21.0887594812       12.6066600000  MEMB      38              0.0000000000
      4097        38  CHL1      C9            -16.2774055374       19.0270049532       13.2044800000  MEMB      38              0.0000000000
      4098        38  CHL1      H9            -17.3866286599       19.0898488830       13.2034800000  MEMB      38              0.0000000000
      4099        38  CHL1      C10           -15.9120897702       19.3800830050       14.6691300000  MEMB      38              0.0000000000
      4100        38  CHL1      C19           -14.3309173647       19.3721424310       14.7833800000  MEMB      38              0.0000000000
      4101        38  CHL1      H19A          -13.8226816516       19.9868488702       14.0099700000  MEMB      38              0.0000000000
      4102        38  CHL1      H19B          -14.0340295843       19.6504583860       15.8171700000  MEMB      38              0.0000000000
      4103        38  CHL1      H19C          -13.8851396438       18.3924108050       14.5082200000  MEMB      38              0.0000000000
      4104        38  CHL1      C1            -16.4879279279       20.8315410611       15.0871900000  MEMB      38              0.0000000000
      4105        38  CHL1      H1A           -15.7897393081       21.6005730155       14.6929200000  MEMB      38              0.0000000000
      4106        38  CHL1      H1B           -17.4862285923       20.8369629151       14.5996300000  MEMB      38              0.0000000000
      4107        38  CHL1      C2            -16.6250675563       21.1053928957       16.5532400000  MEMB      38              0.0000000000
      4108        38  CHL1      H2A           -17.4449549881       21.8518233773       16.6236100000  MEMB      38              0.0000000000
      4109        38  CHL1      H2B           -15.6492379079       21.4644068231       16.9446400000  MEMB      38              0.0000000000
      4110        38  CHL1      C20           -15.6213585843       18.0805413423        7.7094000000  MEMB      38              0.0000000000
      4111        38  CHL1      H20           -14.5472060329       17.8498348891        7.8745900000  MEMB      38              0.0000000000
      4112        38  CHL1      C21           -15.6996526194       19.5434712335        7.3750900000  MEMB      38              0.0000000000
      4113        38  CHL1      H21A          -16.7698636358       19.8294474659        7.2903400000  MEMB      38              0.0000000000
      4114        38  CHL1      H21B          -15.2496741018       19.7853324453        6.3885000000  MEMB      38              0.0000000000
      4115        38  CHL1      H21C          -15.1576243754       20.2456690743        8.0440000000  MEMB      38              0.0000000000
      4116        38  CHL1      C22           -15.9755192088       17.1030133534        6.6605600000  MEMB      38              0.0000000000
      4117        38  CHL1      H22A          -15.6930945090       16.0447602082        6.8467400000  MEMB      38              0.0000000000
      4118        38  CHL1      H22B          -17.0787135068       17.0145693727        6.5632900000  MEMB      38              0.0000000000
      4119        38  CHL1      C23           -15.4311539273       17.4218335674        5.2554400000  MEMB      38              0.0000000000
      4120        38  CHL1      H23A          -15.6239723895       18.4740694075        4.9555200000  MEMB      38              0.0000000000
      4121        38  CHL1      H23B          -14.3275722023       17.3153077256        5.3266500000  MEMB      38              0.0000000000
      4122        38  CHL1      C24           -15.9467197213       16.4350358172        4.1218200000  MEMB      38              0.0000000000
      4123        38  CHL1      H24A          -15.8573606660       15.4450519460        4.6180700000  MEMB      38              0.0000000000
      4124        38  CHL1      H24B          -17.0381176418       16.5974317664        3.9922600000  MEMB      38              0.0000000000
      4125        38  CHL1      C25           -15.1472270595       16.4379884351        2.8479900000  MEMB      38              0.0000000000
      4126        38  CHL1      H25           -14.1591598573       16.1035474628        3.2303600000  MEMB      38              0.0000000000
      4127        38  CHL1      C26           -15.6691069640       15.3094703684        1.9038300000  MEMB      38              0.0000000000
      4128        38  CHL1      H26A          -16.6735689919       15.6064917590        1.5334900000  MEMB      38              0.0000000000
      4129        38  CHL1      H26B          -14.9984612814       15.1415176699        1.0341500000  MEMB      38              0.0000000000
      4130        38  CHL1      H26C          -15.7295590500       14.3253266303        2.4158100000  MEMB      38              0.0000000000
      4131        38  CHL1      C27           -15.2029503815       17.7612292311        2.0812400000  MEMB      38              0.0000000000
      4132        38  CHL1      H27A          -16.2403031753       17.8924100899        1.7057100000  MEMB      38              0.0000000000
      4133        38  CHL1      H27B          -15.0036533225       18.6412244634        2.7294800000  MEMB      38              0.0000000000
      4134        38  CHL1      H27C          -14.5417540301       17.7355064615        1.1887800000  MEMB      38              0.0000000000
      4135        39  SAPS      N              -4.0076337848      -29.0406453106       20.2533185491  MEMB      39              0.0000000000
      4136        39  SAPS      HN1            -4.7397261914      -29.7729920390       20.3498009346  MEMB      39              0.0000000000
      4137        39  SAPS      HN2            -3.8013525299      -28.8824863230       19.2463261331  MEMB      39              0.0000000000
      4138        39  SAPS      HN3            -3.0780158521      -29.3153847859       20.6300529146  MEMB      39              0.0000000000
      4139        39  SAPS      C12            -4.3953693611      -27.7361434725       20.8284866159  MEMB      39              0.0000000000
      4140        39  SAPS      H12A           -5.4075713569      -27.4738461393       20.5582138241  MEMB      39              0.0000000000
      4141        39  SAPS      C13            -4.4524564505      -27.7159383064       22.3841230006  MEMB      39              0.0000000000
      4142        39  SAPS      O13A           -4.6417406496      -28.8037675036       22.9975908335  MEMB      39              0.0000000000
      4143        39  SAPS      O13B           -4.3386891328      -26.6010360391       22.9363605889  MEMB      39              0.0000000000
      4144        39  SAPS      C11            -3.3611210120      -26.6474859121       20.3096633706  MEMB      39              0.0000000000
      4145        39  SAPS      H11A           -2.3732146297      -27.0896108491       20.5604370654  MEMB      39              0.0000000000
      4146        39  SAPS      H11B           -3.6034578305      -25.7144979174       20.8620466156  MEMB      39              0.0000000000
      4147        39  SAPS      P              -2.4138932683      -25.5370811497       18.0614044676  MEMB      39              0.0000000000
      4148        39  SAPS      O13            -3.0352151598      -24.7695489165       16.9648368527  MEMB      39              0.0000000000
      4149        39  SAPS      O14            -1.4827459665      -24.9226663422       19.0387822232  MEMB      39              0.0000000000
      4150        39  SAPS      O12            -3.5414328054      -26.3252060400       18.8817325728  MEMB      39              0.0000000000
      4151        39  SAPS      O11            -1.5680601940      -26.6546076704       17.3437008936  MEMB      39              0.0000000000
      4152        39  SAPS      C1             -0.9553153018      -27.6532638325       18.2162473333  MEMB      39              0.0000000000
      4153        39  SAPS      HA             -0.3719519691      -27.1170039372       18.9949857477  MEMB      39              0.0000000000
      4154        39  SAPS      HB             -1.7125173186      -28.3380604673       18.6544477472  MEMB      39              0.0000000000
      4155        39  SAPS      C2              0.0047123706      -28.5823730063       17.4085768563  MEMB      39              0.0000000000
      4156        39  SAPS      HS              0.8283382517      -28.8250288704       18.1136155993  MEMB      39              0.0000000000
      4157        39  SAPS      O21             0.6393103770      -27.9631372183       16.3005932704  MEMB      39              0.0000000000
      4158        39  SAPS      C21             1.3166112281      -26.8148216533       16.5441237113  MEMB      39              0.0000000000
      4159        39  SAPS      O22             1.5508263293      -26.2774366266       17.5950585074  MEMB      39              0.0000000000
      4160        39  SAPS      C22             1.7078621426      -26.2546543149       15.1924334049  MEMB      39              0.0000000000
      4161        39  SAPS      H2R             2.1535269913      -25.2372481903       15.2166913667  MEMB      39              0.0000000000
      4162        39  SAPS      H2S             2.4848389395      -26.7992503343       14.6144684403  MEMB      39              0.0000000000
      4163        39  SAPS      C3             -0.7151069308      -29.8655300569       16.9059890918  MEMB      39              0.0000000000
      4164        39  SAPS      HX             -1.0860833493      -30.4835496666       17.7514174678  MEMB      39              0.0000000000
      4165        39  SAPS      HY             -0.0071274701      -30.4730704595       16.3026810665  MEMB      39              0.0000000000
      4166        39  SAPS      O31            -1.8323785141      -29.5368909289       16.1378714142  MEMB      39              0.0000000000
      4167        39  SAPS      C31            -1.9633095412      -30.1633480193       14.9520748714  MEMB      39              0.0000000000
      4168        39  SAPS      O32            -1.2781014058      -31.1113755854       14.5482130134  MEMB      39              0.0000000000
      4169        39  SAPS      C32            -3.3079965707      -29.7197879132       14.3580084748  MEMB      39              0.0000000000
      4170        39  SAPS      H2X            -3.8821779895      -30.6620662252       14.2285933919  MEMB      39              0.0000000000
      4171        39  SAPS      H2Y            -3.1300685990      -29.4419761670       13.2971205088  MEMB      39              0.0000000000
      4172        39  SAPS      C23             0.4818092100      -26.1726663374       14.2523274353  MEMB      39              0.0000000000
      4173        39  SAPS      H3R            -0.1691161074      -25.4656439535       14.8097646446  MEMB      39              0.0000000000
      4174        39  SAPS      H3S            -0.0094930980      -27.1654676938       14.1669547589  MEMB      39              0.0000000000
      4175        39  SAPS      C24             0.7419604393      -25.5232044387       12.8666629071  MEMB      39              0.0000000000
      4176        39  SAPS      H4R             1.0863897477      -24.4897607345       13.0850283053  MEMB      39              0.0000000000
      4177        39  SAPS      H4S            -0.2175700513      -25.4823248455       12.3081371874  MEMB      39              0.0000000000
      4178        39  SAPS      C25             1.8579633200      -26.2487934061       12.1292135105  MEMB      39              0.0000000000
      4179        39  SAPS      H5R             2.8173556266      -25.7561983849       12.3458161910  MEMB      39              0.0000000000
      4180        39  SAPS      C26             1.8490994796      -27.3247322332       11.3195288182  MEMB      39              0.0000000000
      4181        39  SAPS      H6R             2.7403334873      -27.4738131785       10.6922509360  MEMB      39              0.0000000000
      4182        39  SAPS      C27             0.6942308667      -28.1641346680       10.8314858470  MEMB      39              0.0000000000
      4183        39  SAPS      H7R             0.2754441567      -27.5604976948        9.9980828021  MEMB      39              0.0000000000
      4184        39  SAPS      H7S            -0.0698267000      -28.0499724639       11.6299240601  MEMB      39              0.0000000000
      4185        39  SAPS      C28             0.9062050531      -29.6349455896       10.4833291638  MEMB      39              0.0000000000
      4186        39  SAPS      H8R             1.9473651388      -29.8546586162       10.2045594114  MEMB      39              0.0000000000
      4187        39  SAPS      C29            -0.0505140479      -30.5891957239       10.4744189002  MEMB      39              0.0000000000
      4188        39  SAPS      H9R             0.3579521851      -31.5581618593       10.1515255200  MEMB      39              0.0000000000
      4189        39  SAPS      C210           -1.4591353993      -30.3855188774       10.8635389443  MEMB      39              0.0000000000
      4190        39  SAPS      H10R           -1.7465129733      -29.3129407588       10.8273294990  MEMB      39              0.0000000000
      4191        39  SAPS      H10S           -1.4391679904      -30.7898183899       11.8981715307  MEMB      39              0.0000000000
      4192        39  SAPS      C211           -2.4495356071      -31.1998441870       10.0401622869  MEMB      39              0.0000000000
      4193        39  SAPS      H11R           -2.9039407519      -32.0810430599       10.5166130244  MEMB      39              0.0000000000
      4194        39  SAPS      C212           -2.8049011101      -31.0439117334        8.7488636280  MEMB      39              0.0000000000
      4195        39  SAPS      H12R           -3.5965618597      -31.6588886085        8.2960089542  MEMB      39              0.0000000000
      4196        39  SAPS      C213           -2.2761588125      -30.0395911438        7.8250802167  MEMB      39              0.0000000000
      4197        39  SAPS      H13R           -1.9129550490      -29.1096647176        8.3125650443  MEMB      39              0.0000000000
      4198        39  SAPS      H13S           -3.0862351090      -29.5764133091        7.2221178108  MEMB      39              0.0000000000
      4199        39  SAPS      C214           -1.1460181479      -30.4978371183        6.9213647637  MEMB      39              0.0000000000
      4200        39  SAPS      H14R           -0.1292346657      -30.5590871241        7.3365755727  MEMB      39              0.0000000000
      4201        39  SAPS      C215           -1.1694177955      -30.8595788414        5.6204986696  MEMB      39              0.0000000000
      4202        39  SAPS      H15R           -0.2327271927      -31.1962036553        5.1522099494  MEMB      39              0.0000000000
      4203        39  SAPS      C216           -2.4917172829      -30.8492315019        4.8345883256  MEMB      39              0.0000000000
      4204        39  SAPS      H16R           -3.4074536774      -30.8970809662        5.4618505941  MEMB      39              0.0000000000
      4205        39  SAPS      H16S           -2.5995556602      -31.8358079230        4.3352304801  MEMB      39              0.0000000000
      4206        39  SAPS      C217           -2.5304316393      -29.7076206147        3.8122853437  MEMB      39              0.0000000000
      4207        39  SAPS      H17R           -2.4014501604      -28.7233669342        4.3112136867  MEMB      39              0.0000000000
      4208        39  SAPS      H17S           -3.6037983479      -29.6619092745        3.5292393152  MEMB      39              0.0000000000
      4209        39  SAPS      C218           -1.6705422103      -29.8730209667        2.5614178564  MEMB      39              0.0000000000
      4210        39  SAPS      H18R           -1.9995461031      -30.8624710780        2.1779249279  MEMB      39              0.0000000000
      4211        39  SAPS      H18S           -0.6043937550      -30.0421164030        2.8242012671  MEMB      39              0.0000000000
      4212        39  SAPS      C219           -1.7636120670      -28.6766445053        1.5215996944  MEMB      39              0.0000000000
      4213        39  SAPS      H19R           -0.7980539909      -28.5067171656        0.9989676724  MEMB      39              0.0000000000
      4214        39  SAPS      H19S           -1.6753295632      -27.6920774987        2.0287029738  MEMB      39              0.0000000000
      4215        39  SAPS      C220           -3.0572830778      -28.5962143933        0.6959304022  MEMB      39              0.0000000000
      4216        39  SAPS      H20R           -3.7475657088      -27.8376833745        1.1230869351  MEMB      39              0.0000000000
      4217        39  SAPS      H20S           -3.4499164984      -29.6340123668        0.6399336047  MEMB      39              0.0000000000
      4218        39  SAPS      H20T           -2.8103606471      -28.3839647952       -0.3662846665  MEMB      39              0.0000000000
      4219        39  SAPS      C33            -4.2020906223      -28.8292970705       15.1804294564  MEMB      39              0.0000000000
      4220        39  SAPS      H3X            -3.6608127072      -27.9802945664       15.6500397226  MEMB      39              0.0000000000
      4221        39  SAPS      H3Y            -4.5910332144      -29.5463298616       15.9346897631  MEMB      39              0.0000000000
      4222        39  SAPS      C34            -5.4266120516      -28.3871807090       14.3411803681  MEMB      39              0.0000000000
      4223        39  SAPS      H4X            -6.0265225458      -27.8184794495       15.0834792001  MEMB      39              0.0000000000
      4224        39  SAPS      H4Y            -6.0206253799      -29.2756499446       14.0377148485  MEMB      39              0.0000000000
      4225        39  SAPS      C35            -5.0366312747      -27.5582021539       13.1359734449  MEMB      39              0.0000000000
      4226        39  SAPS      H5X            -5.9120480701      -27.1632814373       12.5774003792  MEMB      39              0.0000000000
      4227        39  SAPS      H5Y            -4.4665690400      -28.2439204355       12.4732965973  MEMB      39              0.0000000000
      4228        39  SAPS      C36            -4.0616167065      -26.3971357545       13.4244910567  MEMB      39              0.0000000000
      4229        39  SAPS      H6X            -3.0076216954      -26.6129553281       13.7016865365  MEMB      39              0.0000000000
      4230        39  SAPS      H6Y            -4.4673344188      -25.8578626289       14.3070436550  MEMB      39              0.0000000000
      4231        39  SAPS      C37            -3.9520418792      -25.4439898485       12.2547918830  MEMB      39              0.0000000000
      4232        39  SAPS      H7X            -3.2873112749      -24.6186576969       12.5883799301  MEMB      39              0.0000000000
      4233        39  SAPS      H7Y            -5.0213851540      -25.1805244704       12.1084637862  MEMB      39              0.0000000000
      4234        39  SAPS      C38            -3.3832851097      -26.0792157962       10.9350237678  MEMB      39              0.0000000000
      4235        39  SAPS      H8X            -3.9867304275      -26.9663969489       10.6467809012  MEMB      39              0.0000000000
      4236        39  SAPS      H8Y            -2.3211534669      -26.3012730140       11.1735361303  MEMB      39              0.0000000000
      4237        39  SAPS      C39            -3.3246921468      -25.0829467044        9.7058651811  MEMB      39              0.0000000000
      4238        39  SAPS      H9X            -2.6988494435      -24.1672386429        9.7700580278  MEMB      39              0.0000000000
      4239        39  SAPS      H9Y            -4.3720142436      -24.7154116970        9.6573366201  MEMB      39              0.0000000000
      4240        39  SAPS      C310           -2.9998762886      -25.7569786251        8.4170719500  MEMB      39              0.0000000000
      4241        39  SAPS      H10X           -3.1118203187      -25.1567440855        7.4888982913  MEMB      39              0.0000000000
      4242        39  SAPS      H10Y           -3.6291163824      -26.6718099761        8.3788447163  MEMB      39              0.0000000000
      4243        39  SAPS      C311           -1.5856401722      -26.1336790172        8.2840968956  MEMB      39              0.0000000000
      4244        39  SAPS      H11X           -1.5341051145      -26.8655502092        9.1183811308  MEMB      39              0.0000000000
      4245        39  SAPS      H11Y           -0.9308852629      -25.2839724126        8.5732608009  MEMB      39              0.0000000000
      4246        39  SAPS      C312           -0.9807835074      -26.6907288021        6.9764753526  MEMB      39              0.0000000000
      4247        39  SAPS      H12X           -1.1078297115      -25.8856042704        6.2215220040  MEMB      39              0.0000000000
      4248        39  SAPS      H12Y           -1.6125355104      -27.5214681724        6.5955781861  MEMB      39              0.0000000000
      4249        39  SAPS      C313            0.4725291430      -26.9765346506        7.2477716711  MEMB      39              0.0000000000
      4250        39  SAPS      H13X            0.6466440506      -27.7531207195        8.0229611750  MEMB      39              0.0000000000
      4251        39  SAPS      H13Y            0.9900394199      -26.0013930100        7.3726834431  MEMB      39              0.0000000000
      4252        39  SAPS      C314            1.2305699272      -27.5766294161        6.0705826729  MEMB      39              0.0000000000
      4253        39  SAPS      H14X            0.7485219485      -28.5473267646        5.8262522069  MEMB      39              0.0000000000
      4254        39  SAPS      H14Y            2.2482735433      -27.8501737354        6.4223982754  MEMB      39              0.0000000000
      4255        39  SAPS      C315            1.5399194285      -26.7940605430        4.7953247435  MEMB      39              0.0000000000
      4256        39  SAPS      H15X            1.9409472103      -25.7934456491        5.0641510879  MEMB      39              0.0000000000
      4257        39  SAPS      H15Y            0.5472989117      -26.6612284628        4.3143041985  MEMB      39              0.0000000000
      4258        39  SAPS      C316            2.4657166440      -27.5215030125        3.8536738934  MEMB      39              0.0000000000
      4259        39  SAPS      H16X            1.8919983484      -28.4337557439        3.5835569830  MEMB      39              0.0000000000
      4260        39  SAPS      H16Y            3.3867143967      -27.7342734090        4.4374660789  MEMB      39              0.0000000000
      4261        39  SAPS      C317            2.6604061401      -26.5176628803        2.6309177719  MEMB      39              0.0000000000
      4262        39  SAPS      H17X            1.6576677997      -26.0567893058        2.5027298226  MEMB      39              0.0000000000
      4263        39  SAPS      H17Y            2.9479153664      -27.2090464956        1.8101563904  MEMB      39              0.0000000000
      4264        39  SAPS      C318            3.7302287690      -25.4758603188        2.8237867787  MEMB      39              0.0000000000
      4265        39  SAPS      H18X            4.7423871137      -25.9171131285        2.9468817346  MEMB      39              0.0000000000
      4266        39  SAPS      H18Y            3.5438214717      -24.8751310709        3.7395916591  MEMB      39              0.0000000000
      4267        39  SAPS      H18Z            3.8489890147      -24.9237988710        1.8669988840  MEMB      39              0.0000000000
      4268        40  SLPC      N              27.8986013757       -7.2909741926       16.9915127807  MEMB      40              0.0000000000
      4269        40  SLPC      C13            28.0537555286       -8.7127441378       16.9704817042  MEMB      40              0.0000000000
      4270        40  SLPC      H13A           28.0478273846       -8.9460862409       18.0249561492  MEMB      40              0.0000000000
      4271        40  SLPC      H13B           27.1752242901       -9.0492125259       16.4400368616  MEMB      40              0.0000000000
      4272        40  SLPC      H13C           28.9578150798       -9.0329370931       16.4739405058  MEMB      40              0.0000000000
      4273        40  SLPC      C14            27.4030791042       -6.8766773991       15.6676447023  MEMB      40              0.0000000000
      4274        40  SLPC      H14A           28.2778228433       -6.6478711221       15.0769912907  MEMB      40              0.0000000000
      4275        40  SLPC      H14B           26.6980678596       -7.5495584926       15.2022523072  MEMB      40              0.0000000000
      4276        40  SLPC      H14C           26.8423326414       -5.9833367778       15.8998209897  MEMB      40              0.0000000000
      4277        40  SLPC      C15            29.2276147441       -6.5704069157       17.4336065967  MEMB      40              0.0000000000
      4278        40  SLPC      H15A           29.5697125159       -6.8493838216       18.4192744945  MEMB      40              0.0000000000
      4279        40  SLPC      H15B           29.9682019977       -7.0078225810       16.7804617163  MEMB      40              0.0000000000
      4280        40  SLPC      H15C           29.1579009267       -5.4989287761       17.3175273111  MEMB      40              0.0000000000
      4281        40  SLPC      C12            26.8846009786       -6.9630983059       18.0168786289  MEMB      40              0.0000000000
      4282        40  SLPC      H12A           26.6255285698       -5.9367326831       17.8027409393  MEMB      40              0.0000000000
      4283        40  SLPC      H12B           27.3552642286       -7.0929601864       18.9802124727  MEMB      40              0.0000000000
      4284        40  SLPC      C11            25.5316587326       -7.7820292444       18.1524964164  MEMB      40              0.0000000000
      4285        40  SLPC      H11A           24.8287128361       -7.3487336795       18.8957615281  MEMB      40              0.0000000000
      4286        40  SLPC      H11B           25.9240549140       -8.7073668848       18.6258847432  MEMB      40              0.0000000000
      4287        40  SLPC      P              24.0160065819       -9.2412877484       16.8034185231  MEMB      40              0.0000000000
      4288        40  SLPC      O13            24.8916926129      -10.2116573253       16.0783188255  MEMB      40              0.0000000000
      4289        40  SLPC      O14            23.3668442056       -9.6324596014       18.1141286825  MEMB      40              0.0000000000
      4290        40  SLPC      O12            24.7780232056       -7.9060527325       16.9674046183  MEMB      40              0.0000000000
      4291        40  SLPC      O11            22.8658559933       -8.8079358380       15.8041085216  MEMB      40              0.0000000000
      4292        40  SLPC      C1             23.1287620997       -8.0007674858       14.6990257774  MEMB      40              0.0000000000
      4293        40  SLPC      HA             23.1859225371       -6.9708807452       15.1118051327  MEMB      40              0.0000000000
      4294        40  SLPC      HB             24.0761906825       -8.2629420078       14.1813727727  MEMB      40              0.0000000000
      4295        40  SLPC      C2             22.0305618954       -8.1891596706       13.6374560684  MEMB      40              0.0000000000
      4296        40  SLPC      HS             21.1560606875       -8.3671270771       14.2991933205  MEMB      40              0.0000000000
      4297        40  SLPC      O21            22.3021812747       -9.3480739442       12.7730473136  MEMB      40              0.0000000000
      4298        40  SLPC      C21            21.2014460118       -9.9001993771       12.1064594998  MEMB      40              0.0000000000
      4299        40  SLPC      O22            20.0383308989       -9.5594167518       12.3046639929  MEMB      40              0.0000000000
      4300        40  SLPC      C22            21.6735650943      -11.0992919542       11.2444042020  MEMB      40              0.0000000000
      4301        40  SLPC      H2R            22.7727408222      -10.9793823398       11.1359821595  MEMB      40              0.0000000000
      4302        40  SLPC      H2S            21.3739578001      -12.0627254634       11.7095412683  MEMB      40              0.0000000000
      4303        40  SLPC      C3             21.8491450221       -6.8489913841       12.8223180200  MEMB      40              0.0000000000
      4304        40  SLPC      HX             22.0341447839       -6.0012115203       13.5161229273  MEMB      40              0.0000000000
      4305        40  SLPC      HY             20.7891583845       -6.8802879517       12.4910023809  MEMB      40              0.0000000000
      4306        40  SLPC      O31            22.7200564971       -6.8140439219       11.7080170194  MEMB      40              0.0000000000
      4307        40  SLPC      C31            23.7497643278       -5.9815480253       11.7238456096  MEMB      40              0.0000000000
      4308        40  SLPC      O32            24.0681367568       -5.2765757194       12.6607543352  MEMB      40              0.0000000000
      4309        40  SLPC      C32            24.5523508515       -6.0236340508       10.4404031183  MEMB      40              0.0000000000
      4310        40  SLPC      H2X            25.0445654044       -5.0276249087       10.4370051656  MEMB      40              0.0000000000
      4311        40  SLPC      H2Y            23.8404772291       -6.0993068236        9.5907970663  MEMB      40              0.0000000000
      4312        40  SLPC      C23            21.0802797604      -11.0390127834        9.8267312008  MEMB      40              0.0000000000
      4313        40  SLPC      H3R            21.5035643404      -11.8544013649        9.2019974320  MEMB      40              0.0000000000
      4314        40  SLPC      H3S            21.3539033526      -10.0220962684        9.4727089516  MEMB      40              0.0000000000
      4315        40  SLPC      C24            19.6073897648      -11.3435825761        9.6513608877  MEMB      40              0.0000000000
      4316        40  SLPC      H4R            18.8765448563      -10.7041762658       10.1911255272  MEMB      40              0.0000000000
      4317        40  SLPC      H4S            19.3933292385      -12.3726961032       10.0111166997  MEMB      40              0.0000000000
      4318        40  SLPC      C25            19.1557772741      -11.0991112635        8.2111330470  MEMB      40              0.0000000000
      4319        40  SLPC      H5R            18.0951353948      -11.4212176226        8.1362538861  MEMB      40              0.0000000000
      4320        40  SLPC      H5S            19.7856288029      -11.8298731112        7.6601384046  MEMB      40              0.0000000000
      4321        40  SLPC      C26            19.3930009885       -9.6191506224        7.7946481563  MEMB      40              0.0000000000
      4322        40  SLPC      H6R            20.4939658375       -9.4707719649        7.8080882196  MEMB      40              0.0000000000
      4323        40  SLPC      H6S            19.0331672186       -8.8524123183        8.5136431305  MEMB      40              0.0000000000
      4324        40  SLPC      C27            18.8917433286       -9.3247136852        6.3467337286  MEMB      40              0.0000000000
      4325        40  SLPC      H7R            17.8548190794       -9.7233145703        6.3316967672  MEMB      40              0.0000000000
      4326        40  SLPC      H7S            19.5436860494       -9.9346431469        5.6854635001  MEMB      40              0.0000000000
      4327        40  SLPC      C28            18.9243145140       -7.8687788138        6.0642175357  MEMB      40              0.0000000000
      4328        40  SLPC      H8R            19.9995207363       -7.6597483455        6.2501194320  MEMB      40              0.0000000000
      4329        40  SLPC      H8S            18.5189275033       -7.2314574886        6.8789589048  MEMB      40              0.0000000000
      4330        40  SLPC      C29            18.4284614958       -7.4678519021        4.7178247123  MEMB      40              0.0000000000
      4331        40  SLPC      H9R            17.3355924588       -7.4470353446        4.5945220445  MEMB      40              0.0000000000
      4332        40  SLPC      C210           19.1902082190       -7.0253406961        3.6543075217  MEMB      40              0.0000000000
      4333        40  SLPC      H10R           18.6493393399       -7.0515318973        2.6968247596  MEMB      40              0.0000000000
      4334        40  SLPC      C211           20.7111177458       -6.8228402381        3.6095083036  MEMB      40              0.0000000000
      4335        40  SLPC      H11R           21.2373905324       -7.2753392668        2.7419823199  MEMB      40              0.0000000000
      4336        40  SLPC      H11S           21.2669872310       -7.3268401251        4.4288468615  MEMB      40              0.0000000000
      4337        40  SLPC      C212           21.0226236404       -5.3431049654        3.4897736807  MEMB      40              0.0000000000
      4338        40  SLPC      H12R           21.2813891106       -4.7981921931        4.4096160262  MEMB      40              0.0000000000
      4339        40  SLPC      C213           21.1971341045       -4.7050602243        2.2889896318  MEMB      40              0.0000000000
      4340        40  SLPC      H13R           21.3996216472       -3.6273271343        2.2024474935  MEMB      40              0.0000000000
      4341        40  SLPC      C214           21.1052090886       -5.3761829634        0.8957963868  MEMB      40              0.0000000000
      4342        40  SLPC      H14R           20.6677643044       -4.6563414976        0.1713710249  MEMB      40              0.0000000000
      4343        40  SLPC      H14S           20.6027342756       -6.3658892573        0.9439791484  MEMB      40              0.0000000000
      4344        40  SLPC      C215           22.5580040532       -5.6810555194        0.5007177322  MEMB      40              0.0000000000
      4345        40  SLPC      H15R           23.0140829665       -6.5539042852        1.0149620655  MEMB      40              0.0000000000
      4346        40  SLPC      H15S           23.3339678983       -4.9201507866        0.7314210333  MEMB      40              0.0000000000
      4347        40  SLPC      C216           22.7855531956       -6.0753473094       -0.8992168896  MEMB      40              0.0000000000
      4348        40  SLPC      H16R           22.2881362441       -7.0136036779       -1.2256704296  MEMB      40              0.0000000000
      4349        40  SLPC      H16S           23.8834043851       -6.2377941011       -0.9507430398  MEMB      40              0.0000000000
      4350        40  SLPC      C217           22.3384544423       -5.0389511466       -1.9385707756  MEMB      40              0.0000000000
      4351        40  SLPC      H17R           22.7789133547       -4.0852487135       -1.5769487479  MEMB      40              0.0000000000
      4352        40  SLPC      H17S           21.2504610042       -5.1522011809       -2.1329019848  MEMB      40              0.0000000000
      4353        40  SLPC      C218           23.0832453602       -5.4055197767       -3.2094622861  MEMB      40              0.0000000000
      4354        40  SLPC      H18R           24.1708305280       -5.1792563926       -3.2263213205  MEMB      40              0.0000000000
      4355        40  SLPC      H18S           22.8150274912       -4.7452973505       -4.0618045214  MEMB      40              0.0000000000
      4356        40  SLPC      H18T           22.9560573234       -6.4648621403       -3.5192001367  MEMB      40              0.0000000000
      4357        40  SLPC      C33            25.5645948803       -7.1105527519       10.1946206900  MEMB      40              0.0000000000
      4358        40  SLPC      H3X            26.2197770096       -7.0658592034       11.0907562912  MEMB      40              0.0000000000
      4359        40  SLPC      H3Y            26.1414832406       -6.7962964116        9.2986495311  MEMB      40              0.0000000000
      4360        40  SLPC      C34            25.1496830168       -8.6089937454       10.0246305890  MEMB      40              0.0000000000
      4361        40  SLPC      H4X            24.8305454358       -8.7870018087       11.0738138205  MEMB      40              0.0000000000
      4362        40  SLPC      H4Y            26.0789735081       -9.2048985802        9.8995804732  MEMB      40              0.0000000000
      4363        40  SLPC      C35            24.1124731685       -8.9988138140        8.9970939260  MEMB      40              0.0000000000
      4364        40  SLPC      H5X            23.1922831948       -8.3900959814        9.1276085575  MEMB      40              0.0000000000
      4365        40  SLPC      H5Y            23.7841701212      -10.0419807775        9.1929017757  MEMB      40              0.0000000000
      4366        40  SLPC      C36            24.6519062153       -8.7323072327        7.5694356431  MEMB      40              0.0000000000
      4367        40  SLPC      H6X            25.5711507294       -9.3553684254        7.5361903503  MEMB      40              0.0000000000
      4368        40  SLPC      H6Y            24.9278607404       -7.6599217611        7.4791063353  MEMB      40              0.0000000000
      4369        40  SLPC      C37            23.5960241583       -9.2073491101        6.5455538410  MEMB      40              0.0000000000
      4370        40  SLPC      H7X            23.9294027992       -9.0285369209        5.5009457321  MEMB      40              0.0000000000
      4371        40  SLPC      H7Y            22.6300614296       -8.6915636912        6.7331770725  MEMB      40              0.0000000000
      4372        40  SLPC      C38            23.5083664576      -10.7362556841        6.5237530141  MEMB      40              0.0000000000
      4373        40  SLPC      H8X            23.2682266173      -11.2018201706        7.5034991930  MEMB      40              0.0000000000
      4374        40  SLPC      H8Y            24.5147932812      -11.1348219693        6.2736112476  MEMB      40              0.0000000000
      4375        40  SLPC      C39            22.4940525802      -11.2376454066        5.5430430915  MEMB      40              0.0000000000
      4376        40  SLPC      H9X            21.5729144759      -10.6411797453        5.7164051434  MEMB      40              0.0000000000
      4377        40  SLPC      H9Y            22.3544823874      -12.3078439440        5.8067023403  MEMB      40              0.0000000000
      4378        40  SLPC      C310           22.9401786121      -11.1760150579        4.0938940913  MEMB      40              0.0000000000
      4379        40  SLPC      H10X           23.9318368255      -11.6739332098        4.0390069879  MEMB      40              0.0000000000
      4380        40  SLPC      H10Y           23.0557107611      -10.1152016039        3.7846239565  MEMB      40              0.0000000000
      4381        40  SLPC      C311           21.9036341766      -11.7792334450        3.1563339115  MEMB      40              0.0000000000
      4382        40  SLPC      H11X           20.9372556576      -11.2319774749        3.1870645380  MEMB      40              0.0000000000
      4383        40  SLPC      H11Y           21.8024646367      -12.8340467559        3.4901818523  MEMB      40              0.0000000000
      4384        40  SLPC      C312           22.5112363078      -11.9975170505        1.7463452508  MEMB      40              0.0000000000
      4385        40  SLPC      H12X           21.8520323827      -12.5518287759        1.0445550208  MEMB      40              0.0000000000
      4386        40  SLPC      H12Y           23.3546691584      -12.6827912152        1.9773025753  MEMB      40              0.0000000000
      4387        40  SLPC      C313           23.0666854255      -10.7512899348        1.0422906755  MEMB      40              0.0000000000
      4388        40  SLPC      H13X           23.5948135507      -10.1654782532        1.8247404281  MEMB      40              0.0000000000
      4389        40  SLPC      H13Y           22.1857410893      -10.1945988425        0.6571259755  MEMB      40              0.0000000000
      4390        40  SLPC      C314           24.0029556985      -11.1780224570       -0.0753814515  MEMB      40              0.0000000000
      4391        40  SLPC      H14X           23.4629907142      -11.9544031547       -0.6584695214  MEMB      40              0.0000000000
      4392        40  SLPC      H14Y           24.8735970749      -11.7914751001        0.2408169484  MEMB      40              0.0000000000
      4393        40  SLPC      C315           24.4663867280       -9.9411431017       -0.8780615074  MEMB      40              0.0000000000
      4394        40  SLPC      H15X           24.9131805528       -9.2528675924       -0.1290790422  MEMB      40              0.0000000000
      4395        40  SLPC      H15Y           23.5476476739       -9.4625489061       -1.2795426251  MEMB      40              0.0000000000
      4396        40  SLPC      C316           25.5144167075      -10.2936914512       -1.8778470381  MEMB      40              0.0000000000
      4397        40  SLPC      H16X           25.1741910802      -10.9291053658       -2.7233165534  MEMB      40              0.0000000000
      4398        40  SLPC      H16Y           26.3244201610      -10.8441274973       -1.3532197601  MEMB      40              0.0000000000
      4399        40  SLPC      C317           26.1177468171       -9.1090148125       -2.6476862668  MEMB      40              0.0000000000
      4400        40  SLPC      H17X           25.5603940655       -8.8467246481       -3.5722848926  MEMB      40              0.0000000000
      4401        40  SLPC      H17Y           27.1453609953       -9.3825608468       -2.9694043152  MEMB      40              0.0000000000
      4402        40  SLPC      C318           26.3660167711       -7.8400117762       -1.9458730082  MEMB      40              0.0000000000
      4403        40  SLPC      H18X           26.6899807069       -7.0639787735       -2.6719172838  MEMB      40              0.0000000000
      4404        40  SLPC      H18Y           27.0208902205       -7.8866531588       -1.0496108919  MEMB      40              0.0000000000
      4405        40  SLPC      H18Z           25.4248682892       -7.4714816144       -1.4846290901  MEMB      40              0.0000000000
      4406        41  SAPC      N              20.4296863489       16.3571319527       21.5166291232  MEMB      41              0.0000000000
      4407        41  SAPC      C12            20.7725784238       17.8428037323       21.9561910978  MEMB      41              0.0000000000
      4408        41  SAPC      H12A           21.5425229021       17.8184105416       22.7131525013  MEMB      41              0.0000000000
      4409        41  SAPC      H12B           19.8501101553       18.2573106718       22.3351849450  MEMB      41              0.0000000000
      4410        41  SAPC      C13            21.5829364182       15.8797359841       20.6681943069  MEMB      41              0.0000000000
      4411        41  SAPC      H13A           22.3337988264       15.3959462993       21.2752800653  MEMB      41              0.0000000000
      4412        41  SAPC      H13B           21.1787413253       15.2018326507       19.9309877119  MEMB      41              0.0000000000
      4413        41  SAPC      H13C           22.0292226865       16.6616109842       20.0716207511  MEMB      41              0.0000000000
      4414        41  SAPC      C14            20.2116077132       15.5426373004       22.7735090837  MEMB      41              0.0000000000
      4415        41  SAPC      H14A           21.1108302411       15.5460508103       23.3716620988  MEMB      41              0.0000000000
      4416        41  SAPC      H14B           19.3952778578       15.9192621231       23.3719733889  MEMB      41              0.0000000000
      4417        41  SAPC      H14C           19.8479416629       14.6034845099       22.3834590225  MEMB      41              0.0000000000
      4418        41  SAPC      C15            19.1268296634       16.3697294547       20.6630430283  MEMB      41              0.0000000000
      4419        41  SAPC      H15A           18.3262933126       16.6188996472       21.3438189406  MEMB      41              0.0000000000
      4420        41  SAPC      H15B           19.1080485591       17.0420857342       19.8180671099  MEMB      41              0.0000000000
      4421        41  SAPC      H15C           18.9845307495       15.3317027591       20.4010290481  MEMB      41              0.0000000000
      4422        41  SAPC      C11            21.1976061443       18.8852613678       20.7734840927  MEMB      41              0.0000000000
      4423        41  SAPC      H11A           22.2070447532       18.5124815558       20.4970969324  MEMB      41              0.0000000000
      4424        41  SAPC      H11B           21.1795248950       19.9383994876       21.1268878309  MEMB      41              0.0000000000
      4425        41  SAPC      P              20.7971174915       19.4152229927       18.2617779419  MEMB      41              0.0000000000
      4426        41  SAPC      O13            21.8070416105       20.5256756425       18.5236879391  MEMB      41              0.0000000000
      4427        41  SAPC      O14            21.2191798349       18.3940149548       17.2545729098  MEMB      41              0.0000000000
      4428        41  SAPC      O12            20.3339761897       18.7008478567       19.6523942076  MEMB      41              0.0000000000
      4429        41  SAPC      O11            19.4059606570       20.0702066595       17.9565163126  MEMB      41              0.0000000000
      4430        41  SAPC      C1             18.2868258620       19.8041754760       18.6606220469  MEMB      41              0.0000000000
      4431        41  SAPC      HA             18.1372257897       18.7535092598       18.9893181616  MEMB      41              0.0000000000
      4432        41  SAPC      HB             18.3031213768       20.3751608969       19.6135287143  MEMB      41              0.0000000000
      4433        41  SAPC      C2             16.9625494782       20.2252379021       17.8575615309  MEMB      41              0.0000000000
      4434        41  SAPC      HS             16.1352655139       19.9957104611       18.5627136561  MEMB      41              0.0000000000
      4435        41  SAPC      O21            16.9684052403       19.5893506194       16.5755452298  MEMB      41              0.0000000000
      4436        41  SAPC      C21            16.7030742500       18.3584444528       16.6654539264  MEMB      41              0.0000000000
      4437        41  SAPC      O22            16.3589114910       17.7815566903       17.7277224832  MEMB      41              0.0000000000
      4438        41  SAPC      C22            16.8940736436       17.6540775873       15.2545186232  MEMB      41              0.0000000000
      4439        41  SAPC      H2R            15.9861463908       17.1852783431       14.8183806341  MEMB      41              0.0000000000
      4440        41  SAPC      H2S            17.2935850731       18.3504225085       14.4865243507  MEMB      41              0.0000000000
      4441        41  SAPC      C3             16.8848910301       21.7480780147       17.5507631944  MEMB      41              0.0000000000
      4442        41  SAPC      HX             16.9170388798       22.2752743587       18.5281841968  MEMB      41              0.0000000000
      4443        41  SAPC      HY             15.8582083543       21.9174464622       17.1614590005  MEMB      41              0.0000000000
      4444        41  SAPC      O31            18.0208842850       22.2001674089       16.7935605763  MEMB      41              0.0000000000
      4445        41  SAPC      C31            17.9148873455       22.3957488089       15.5132941092  MEMB      41              0.0000000000
      4446        41  SAPC      O32            16.8751778162       22.2531879698       14.8747463351  MEMB      41              0.0000000000
      4447        41  SAPC      C32            19.2792755412       22.8499297784       14.9308084838  MEMB      41              0.0000000000
      4448        41  SAPC      H2X            20.0493520093       22.4259342574       15.6101693039  MEMB      41              0.0000000000
      4449        41  SAPC      H2Y            19.2995675003       23.9474257547       14.7593114813  MEMB      41              0.0000000000
      4450        41  SAPC      C23            17.9099224065       16.5279235541       15.4288396456  MEMB      41              0.0000000000
      4451        41  SAPC      H3R            17.6596815299       15.8401857176       16.2647323440  MEMB      41              0.0000000000
      4452        41  SAPC      H3S            18.8698738284       16.9867828206       15.7486246820  MEMB      41              0.0000000000
      4453        41  SAPC      C24            18.0911788899       15.8212987492       14.0506009385  MEMB      41              0.0000000000
      4454        41  SAPC      H4R            17.0708336699       15.6044108199       13.6682710522  MEMB      41              0.0000000000
      4455        41  SAPC      H4S            18.5220755325       14.7982338992       14.0951824478  MEMB      41              0.0000000000
      4456        41  SAPC      C25            18.9898374694       16.6901061547       13.2092814706  MEMB      41              0.0000000000
      4457        41  SAPC      H5R            19.8055531413       16.9998314460       13.8791163349  MEMB      41              0.0000000000
      4458        41  SAPC      C26            18.8031453382       17.1050413782       11.9342997619  MEMB      41              0.0000000000
      4459        41  SAPC      H6R            19.5514675398       17.8205198460       11.5626755715  MEMB      41              0.0000000000
      4460        41  SAPC      C27            17.6988308881       16.8806998685       10.9277041165  MEMB      41              0.0000000000
      4461        41  SAPC      H7R            16.7551785008       17.4430686906       11.0937836216  MEMB      41              0.0000000000
      4462        41  SAPC      H7S            17.4036633442       15.8111122386       10.9840920428  MEMB      41              0.0000000000
      4463        41  SAPC      C28            18.1255770362       17.1405676843        9.5301642273  MEMB      41              0.0000000000
      4464        41  SAPC      H8R            18.1445393087       16.2964343474        8.8251254361  MEMB      41              0.0000000000
      4465        41  SAPC      C29            18.4789522074       18.3278864940        8.9369117242  MEMB      41              0.0000000000
      4466        41  SAPC      H9R            18.7801507878       18.3489307432        7.8791610478  MEMB      41              0.0000000000
      4467        41  SAPC      C210           18.5629379331       19.6710144433        9.6073947558  MEMB      41              0.0000000000
      4468        41  SAPC      H10R           19.4605958798       20.2403451745        9.2842942090  MEMB      41              0.0000000000
      4469        41  SAPC      H10S           18.8094841697       19.6087712860       10.6889034290  MEMB      41              0.0000000000
      4470        41  SAPC      C211           17.4501721023       20.6899639966        9.3830446069  MEMB      41              0.0000000000
      4471        41  SAPC      H11R           16.7488651557       20.8788010138       10.2091859894  MEMB      41              0.0000000000
      4472        41  SAPC      C212           17.1714165848       21.3939623032        8.2315110527  MEMB      41              0.0000000000
      4473        41  SAPC      H12R           16.3500042392       22.1242244021        8.1867992730  MEMB      41              0.0000000000
      4474        41  SAPC      C213           17.9682777722       21.2315414847        6.9589785518  MEMB      41              0.0000000000
      4475        41  SAPC      H13R           17.9777727722       20.1643753245        6.6501300429  MEMB      41              0.0000000000
      4476        41  SAPC      H13S           19.0224396004       21.4528833995        7.2311392909  MEMB      41              0.0000000000
      4477        41  SAPC      C214           17.4440891906       22.1339576805        5.8685244576  MEMB      41              0.0000000000
      4478        41  SAPC      H14R           17.3927531337       23.1808231377        6.2023476500  MEMB      41              0.0000000000
      4479        41  SAPC      C215           16.9990070920       21.8513124687        4.6648933252  MEMB      41              0.0000000000
      4480        41  SAPC      H15R           16.7246841136       22.6711032376        3.9846791628  MEMB      41              0.0000000000
      4481        41  SAPC      C216           16.8302668070       20.5177033006        3.9708546593  MEMB      41              0.0000000000
      4482        41  SAPC      H16R           16.7317849043       19.7301134562        4.7482378095  MEMB      41              0.0000000000
      4483        41  SAPC      H16S           17.7298393770       20.4613706096        3.3213037441  MEMB      41              0.0000000000
      4484        41  SAPC      C217           15.6086553257       20.4556495884        3.0968189374  MEMB      41              0.0000000000
      4485        41  SAPC      H17R           15.5582181436       19.4673927677        2.5917191810  MEMB      41              0.0000000000
      4486        41  SAPC      H17S           15.8324815742       21.1607378337        2.2679193317  MEMB      41              0.0000000000
      4487        41  SAPC      C218           14.2544341087       20.7532849056        3.7282180742  MEMB      41              0.0000000000
      4488        41  SAPC      H18R           14.2326178845       21.7894310617        4.1285243457  MEMB      41              0.0000000000
      4489        41  SAPC      H18S           14.1720524158       20.1450298501        4.6542621420  MEMB      41              0.0000000000
      4490        41  SAPC      C219           13.0364091456       20.6426211886        2.8162187195  MEMB      41              0.0000000000
      4491        41  SAPC      H19R           13.0397717115       21.3180174553        1.9340909769  MEMB      41              0.0000000000
      4492        41  SAPC      H19S           12.1238069292       20.8593221370        3.4116336461  MEMB      41              0.0000000000
      4493        41  SAPC      C220           12.8636560812       19.2268444862        2.2849111268  MEMB      41              0.0000000000
      4494        41  SAPC      H20R           11.8509099120       19.0955491617        1.8473846064  MEMB      41              0.0000000000
      4495        41  SAPC      H20S           12.8541347457       18.5181774919        3.1404928085  MEMB      41              0.0000000000
      4496        41  SAPC      H20T           13.7058203029       18.8795921053        1.6489108741  MEMB      41              0.0000000000
      4497        41  SAPC      C33            19.3530187029       22.1913358849       13.5458146629  MEMB      41              0.0000000000
      4498        41  SAPC      H3X            20.0967076713       22.7908552066       12.9785188351  MEMB      41              0.0000000000
      4499        41  SAPC      H3Y            18.3622889632       22.2835603387       13.0515774699  MEMB      41              0.0000000000
      4500        41  SAPC      C34            19.7017848913       20.7339301028       13.6491768728  MEMB      41              0.0000000000
      4501        41  SAPC      H4X            19.7177644111       20.3129293808       12.6211574228  MEMB      41              0.0000000000
      4502        41  SAPC      H4Y            19.0407577568       20.2424387574       14.3946970655  MEMB      41              0.0000000000
      4503        41  SAPC      C35            21.0597237313       20.2534152517       14.3083834342  MEMB      41              0.0000000000
      4504        41  SAPC      H5X            21.2954005253       19.1845309159       14.1179533516  MEMB      41              0.0000000000
      4505        41  SAPC      H5Y            20.8874790271       20.3472974243       15.4019277264  MEMB      41              0.0000000000
      4506        41  SAPC      C36            22.2935636151       21.1703730175       14.0100491890  MEMB      41              0.0000000000
      4507        41  SAPC      H6X            23.0778117253       20.7323998120       14.6638498784  MEMB      41              0.0000000000
      4508        41  SAPC      H6Y            22.0479993522       22.1918722701       14.3713777003  MEMB      41              0.0000000000
      4509        41  SAPC      C37            22.6707429485       21.1109583952       12.5145649616  MEMB      41              0.0000000000
      4510        41  SAPC      H7X            23.5832776454       21.7228098818       12.3495230319  MEMB      41              0.0000000000
      4511        41  SAPC      H7Y            21.8768094346       21.6072674662       11.9165116543  MEMB      41              0.0000000000
      4512        41  SAPC      C38            22.6549694788       19.7079690957       11.8436970547  MEMB      41              0.0000000000
      4513        41  SAPC      H8X            21.6443051736       19.2468895353       11.8268362043  MEMB      41              0.0000000000
      4514        41  SAPC      H8Y            23.2851337838       18.9727916078       12.3884249159  MEMB      41              0.0000000000
      4515        41  SAPC      C39            22.8490629029       19.8043778477       10.3306342735  MEMB      41              0.0000000000
      4516        41  SAPC      H9X            23.8632496605       20.2031761561       10.1145195879  MEMB      41              0.0000000000
      4517        41  SAPC      H9Y            22.1569885034       20.5572568905        9.8964370324  MEMB      41              0.0000000000
      4518        41  SAPC      C310           22.5769865044       18.4882616916        9.5941162582  MEMB      41              0.0000000000
      4519        41  SAPC      H10X           21.5269427599       18.1934296167        9.8057837692  MEMB      41              0.0000000000
      4520        41  SAPC      H10Y           23.3444158835       17.7631595895        9.9399496423  MEMB      41              0.0000000000
      4521        41  SAPC      C311           22.6896005300       18.6941256081        8.0361006012  MEMB      41              0.0000000000
      4522        41  SAPC      H11X           23.7601114950       18.7430445840        7.7429542031  MEMB      41              0.0000000000
      4523        41  SAPC      H11Y           22.3158100709       19.6914455630        7.7199444907  MEMB      41              0.0000000000
      4524        41  SAPC      C312           21.8719763807       17.7029225366        7.2324549403  MEMB      41              0.0000000000
      4525        41  SAPC      H12X           20.7945016020       17.9107704711        7.4061458977  MEMB      41              0.0000000000
      4526        41  SAPC      H12Y           22.0495763531       16.6819140585        7.6328559177  MEMB      41              0.0000000000
      4527        41  SAPC      C313           22.0188139344       17.9358521026        5.7283424178  MEMB      41              0.0000000000
      4528        41  SAPC      H13X           23.0337220075       17.7696477504        5.3080350028  MEMB      41              0.0000000000
      4529        41  SAPC      H13Y           21.8472624168       19.0141526325        5.5230144512  MEMB      41              0.0000000000
      4530        41  SAPC      C314           21.0930760753       17.1206308528        4.8829737193  MEMB      41              0.0000000000
      4531        41  SAPC      H14X           20.0955884981       17.1173410215        5.3721862307  MEMB      41              0.0000000000
      4532        41  SAPC      H14Y           21.4701596766       16.0783165560        4.9585400139  MEMB      41              0.0000000000
      4533        41  SAPC      C315           20.9550710110       17.4937175868        3.3874813366  MEMB      41              0.0000000000
      4534        41  SAPC      H15X           20.2013353228       16.8828222479        2.8461786619  MEMB      41              0.0000000000
      4535        41  SAPC      H15Y           21.9436117686       17.4088168675        2.8875819569  MEMB      41              0.0000000000
      4536        41  SAPC      C316           20.6911463984       18.9897259638        3.0512059800  MEMB      41              0.0000000000
      4537        41  SAPC      H16X           21.5027023987       19.6660441639        3.3951418380  MEMB      41              0.0000000000
      4538        41  SAPC      H16Y           19.8124311472       19.2814540101        3.6652708979  MEMB      41              0.0000000000
      4539        41  SAPC      C317           20.3706831598       19.3127767905        1.5838418868  MEMB      41              0.0000000000
      4540        41  SAPC      H17X           21.2145399073       19.0500017084        0.9106587960  MEMB      41              0.0000000000
      4541        41  SAPC      H17Y           20.0690879294       20.3819521106        1.5688339971  MEMB      41              0.0000000000
      4542        41  SAPC      C318           19.1418158945       18.5083325628        1.0292485585  MEMB      41              0.0000000000
      4543        41  SAPC      H18X           18.9492011394       18.8637574379       -0.0055900592  MEMB      41              0.0000000000
      4544        41  SAPC      H18Y           18.3602901842       18.7359639491        1.7853722194  MEMB      41              0.0000000000
      4545        41  SAPC      H18Z           19.0961069829       17.3994475806        0.9782041692  MEMB      41              0.0000000000
      4546        42  SLPC      N             -22.1642832296      -16.4219711879       18.6827345226  MEMB      42              0.0000000000
      4547        42  SLPC      C13           -20.7848056774      -15.8500400643       18.5521961803  MEMB      42              0.0000000000
      4548        42  SLPC      H13A          -20.5468887786      -15.8359207982       17.4988224197  MEMB      42              0.0000000000
      4549        42  SLPC      H13B          -20.8517341141      -14.8127888153       18.8455059126  MEMB      42              0.0000000000
      4550        42  SLPC      H13C          -20.0004390268      -16.2500424056       19.1776295981  MEMB      42              0.0000000000
      4551        42  SLPC      C14           -23.2162419340      -15.6059542840       17.9318628362  MEMB      42              0.0000000000
      4552        42  SLPC      H14A          -24.1782174292      -16.0941643558       17.9833785465  MEMB      42              0.0000000000
      4553        42  SLPC      H14B          -23.4357048896      -14.6489012504       18.3816242826  MEMB      42              0.0000000000
      4554        42  SLPC      H14C          -22.9181085671      -15.4361000882       16.9078188630  MEMB      42              0.0000000000
      4555        42  SLPC      C15           -22.4583404957      -16.4350490179       20.1936826117  MEMB      42              0.0000000000
      4556        42  SLPC      H15A          -23.4709708689      -16.7177037326       20.4408380408  MEMB      42              0.0000000000
      4557        42  SLPC      H15B          -21.7439209100      -17.0556848180       20.7140823923  MEMB      42              0.0000000000
      4558        42  SLPC      H15C          -22.2521685856      -15.4100214807       20.4642591297  MEMB      42              0.0000000000
      4559        42  SLPC      C12           -22.1918334841      -17.8986192775       18.2365656718  MEMB      42              0.0000000000
      4560        42  SLPC      H12A          -23.0310678378      -18.4168889826       18.6764319311  MEMB      42              0.0000000000
      4561        42  SLPC      H12B          -21.2765465935      -18.4012182259       18.5123266632  MEMB      42              0.0000000000
      4562        42  SLPC      C11           -22.3443714977      -18.2402676114       16.6620669462  MEMB      42              0.0000000000
      4563        42  SLPC      H11A          -23.3732181721      -18.0880789447       16.2713825743  MEMB      42              0.0000000000
      4564        42  SLPC      H11B          -22.1761752175      -19.3333758408       16.5564955552  MEMB      42              0.0000000000
      4565        42  SLPC      P             -20.0654861868      -18.0936378483       15.3789981657  MEMB      42              0.0000000000
      4566        42  SLPC      O13           -19.0434339140      -17.0077239347       15.3837004948  MEMB      42              0.0000000000
      4567        42  SLPC      O14           -19.8336997838      -19.3041682031       16.2300082670  MEMB      42              0.0000000000
      4568        42  SLPC      O12           -21.4561120070      -17.4675671297       15.8306278434  MEMB      42              0.0000000000
      4569        42  SLPC      O11           -20.2630920002      -18.5352006229       13.9175564569  MEMB      42              0.0000000000
      4570        42  SLPC      C1            -21.4663809640      -19.1604009801       13.4796786526  MEMB      42              0.0000000000
      4571        42  SLPC      HA            -21.7401313961      -20.0203336017       14.1276738345  MEMB      42              0.0000000000
      4572        42  SLPC      HB            -22.2566906159      -18.3800256429       13.4523676610  MEMB      42              0.0000000000
      4573        42  SLPC      C2            -21.2531779903      -19.6898224024       12.0384526589  MEMB      42              0.0000000000
      4574        42  SLPC      HS            -22.2069730092      -20.1931739965       11.7715567710  MEMB      42              0.0000000000
      4575        42  SLPC      O21           -19.9978380873      -20.4134598286       11.9806408066  MEMB      42              0.0000000000
      4576        42  SLPC      C21           -20.0973628515      -21.5789227898       12.4466734565  MEMB      42              0.0000000000
      4577        42  SLPC      O22           -21.1015598363      -22.0717458194       12.9506587949  MEMB      42              0.0000000000
      4578        42  SLPC      C22           -18.7600754391      -22.3979055480       12.3187959052  MEMB      42              0.0000000000
      4579        42  SLPC      H2R           -17.8902245366      -21.9079799758       12.8062926497  MEMB      42              0.0000000000
      4580        42  SLPC      H2S           -18.7953126809      -23.4096762775       12.7763977979  MEMB      42              0.0000000000
      4581        42  SLPC      C3            -21.1630731785      -18.5667937019       11.0289363329  MEMB      42              0.0000000000
      4582        42  SLPC      HX            -20.6284416274      -17.7053471839       11.4832486971  MEMB      42              0.0000000000
      4583        42  SLPC      HY            -22.1896782476      -18.1667434915       10.8862377703  MEMB      42              0.0000000000
      4584        42  SLPC      O31           -20.6086775719      -18.9674772858        9.8291348625  MEMB      42              0.0000000000
      4585        42  SLPC      C31           -19.3705598986      -18.4888990023        9.4866800954  MEMB      42              0.0000000000
      4586        42  SLPC      O32           -18.6672709751      -17.8172022391       10.2872861066  MEMB      42              0.0000000000
      4587        42  SLPC      C32           -18.9333506377      -19.0992621172        8.1213796538  MEMB      42              0.0000000000
      4588        42  SLPC      H2X           -19.7792770570      -18.9013094072        7.4288884335  MEMB      42              0.0000000000
      4589        42  SLPC      H2Y           -19.0795926209      -20.1711669204        8.3742717206  MEMB      42              0.0000000000
      4590        42  SLPC      C23           -18.3392995427      -22.4859465880       10.8707504497  MEMB      42              0.0000000000
      4591        42  SLPC      H3R           -17.2756731600      -22.8025051897       10.8177375783  MEMB      42              0.0000000000
      4592        42  SLPC      H3S           -18.3671762177      -21.5079578396       10.3443646629  MEMB      42              0.0000000000
      4593        42  SLPC      C24           -19.2491349642      -23.3179960002        9.9627180491  MEMB      42              0.0000000000
      4594        42  SLPC      H4R           -19.3645137685      -24.3188580970       10.4309950302  MEMB      42              0.0000000000
      4595        42  SLPC      H4S           -18.7897579621      -23.4805403461        8.9642824657  MEMB      42              0.0000000000
      4596        42  SLPC      C25           -20.6245730950      -22.6413706998        9.6222772729  MEMB      42              0.0000000000
      4597        42  SLPC      H5R           -20.5872568260      -21.6093936919        9.2124579914  MEMB      42              0.0000000000
      4598        42  SLPC      H5S           -21.4740701370      -22.6443404333       10.3382847235  MEMB      42              0.0000000000
      4599        42  SLPC      C26           -21.1793826911      -23.2745749811        8.3316532798  MEMB      42              0.0000000000
      4600        42  SLPC      H6R           -21.3392314290      -24.3557698637        8.5311210125  MEMB      42              0.0000000000
      4601        42  SLPC      H6S           -20.4222037967      -23.2850550084        7.5187011181  MEMB      42              0.0000000000
      4602        42  SLPC      C27           -22.4417686110      -22.6709280907        7.7346206912  MEMB      42              0.0000000000
      4603        42  SLPC      H7R           -23.2670720200      -22.7611239908        8.4729033146  MEMB      42              0.0000000000
      4604        42  SLPC      H7S           -22.8113576282      -23.2510956367        6.8621929783  MEMB      42              0.0000000000
      4605        42  SLPC      C28           -22.5153749580      -21.2146591181        7.3131620522  MEMB      42              0.0000000000
      4606        42  SLPC      H8R           -22.3011474236      -20.5876701034        8.2049655393  MEMB      42              0.0000000000
      4607        42  SLPC      H8S           -23.5618603095      -21.1361956080        6.9484249321  MEMB      42              0.0000000000
      4608        42  SLPC      C29           -21.5542621867      -20.9025247902        6.2060322530  MEMB      42              0.0000000000
      4609        42  SLPC      H9R           -20.5082871544      -21.0281383453        6.5225087061  MEMB      42              0.0000000000
      4610        42  SLPC      C210          -21.9159542684      -20.5211220739        4.9372821391  MEMB      42              0.0000000000
      4611        42  SLPC      H10R          -21.1647033660      -20.2462257775        4.1822626822  MEMB      42              0.0000000000
      4612        42  SLPC      C211          -23.3419918799      -20.3964325938        4.4815818254  MEMB      42              0.0000000000
      4613        42  SLPC      H11R          -23.9347208855      -21.3116352180        4.6946492718  MEMB      42              0.0000000000
      4614        42  SLPC      H11S          -23.1759241724      -20.2424201363        3.3939132374  MEMB      42              0.0000000000
      4615        42  SLPC      C212          -24.1441378248      -19.2147012356        5.0159002032  MEMB      42              0.0000000000
      4616        42  SLPC      H12R          -24.9371018403      -19.5674327288        5.6917621000  MEMB      42              0.0000000000
      4617        42  SLPC      C213          -24.0644435003      -17.9023610511        4.7307670158  MEMB      42              0.0000000000
      4618        42  SLPC      H13R          -24.8201011058      -17.2142895893        5.1376323759  MEMB      42              0.0000000000
      4619        42  SLPC      C214          -23.0920134429      -17.2170116109        3.7815634990  MEMB      42              0.0000000000
      4620        42  SLPC      H14R          -23.6002417049      -16.7805686318        2.8952548402  MEMB      42              0.0000000000
      4621        42  SLPC      H14S          -22.2885103755      -17.9168772385        3.4670935864  MEMB      42              0.0000000000
      4622        42  SLPC      C215          -22.4888621947      -16.0139240696        4.5820554820  MEMB      42              0.0000000000
      4623        42  SLPC      H15R          -22.2583368684      -16.3874210671        5.6026823675  MEMB      42              0.0000000000
      4624        42  SLPC      H15S          -23.2715859930      -15.2685825491        4.8392142368  MEMB      42              0.0000000000
      4625        42  SLPC      C216          -21.2069995989      -15.2937637655        4.0631399822  MEMB      42              0.0000000000
      4626        42  SLPC      H16R          -20.3872627453      -16.0385260051        4.1507850953  MEMB      42              0.0000000000
      4627        42  SLPC      H16S          -21.1349559221      -14.4255409198        4.7525741249  MEMB      42              0.0000000000
      4628        42  SLPC      C217          -21.3396041271      -14.8018102033        2.6553406749  MEMB      42              0.0000000000
      4629        42  SLPC      H17R          -22.1469200429      -14.0387190221        2.6394092098  MEMB      42              0.0000000000
      4630        42  SLPC      H17S          -21.5975638389      -15.4565823977        1.7956596892  MEMB      42              0.0000000000
      4631        42  SLPC      C218          -20.0129118265      -14.1130143304        2.2048534612  MEMB      42              0.0000000000
      4632        42  SLPC      H18R          -20.1929907620      -13.5775882389        1.2481860952  MEMB      42              0.0000000000
      4633        42  SLPC      H18S          -19.1868727265      -14.8144881747        1.9600779031  MEMB      42              0.0000000000
      4634        42  SLPC      H18T          -19.7535920019      -13.3858586115        3.0038017869  MEMB      42              0.0000000000
      4635        42  SLPC      C33           -17.6764374333      -18.5923484643        7.5066000773  MEMB      42              0.0000000000
      4636        42  SLPC      H3X           -17.0124147107      -18.5317522931        8.3952642254  MEMB      42              0.0000000000
      4637        42  SLPC      H3Y           -17.8342089883      -17.5587290166        7.1310209078  MEMB      42              0.0000000000
      4638        42  SLPC      C34           -17.2221315488      -19.5647723648        6.3902649165  MEMB      42              0.0000000000
      4639        42  SLPC      H4X           -16.2510889894      -19.2188063840        5.9758920700  MEMB      42              0.0000000000
      4640        42  SLPC      H4Y           -17.8295069813      -19.4624711331        5.4656296234  MEMB      42              0.0000000000
      4641        42  SLPC      C35           -17.1345453025      -20.9998646163        6.8152496443  MEMB      42              0.0000000000
      4642        42  SLPC      H5X           -18.1297706083      -21.4212756005        7.0726620255  MEMB      42              0.0000000000
      4643        42  SLPC      H5Y           -16.6335755227      -20.9831727772        7.8067493454  MEMB      42              0.0000000000
      4644        42  SLPC      C36           -16.3728672641      -22.0193415171        5.9419573211  MEMB      42              0.0000000000
      4645        42  SLPC      H6X           -15.5662376918      -22.4543353378        6.5700097729  MEMB      42              0.0000000000
      4646        42  SLPC      H6Y           -15.8253381411      -21.5733491630        5.0842724833  MEMB      42              0.0000000000
      4647        42  SLPC      C37           -17.1350000582      -23.1530543063        5.3872990502  MEMB      42              0.0000000000
      4648        42  SLPC      H7X           -17.4599180428      -23.7364020799        6.2752486842  MEMB      42              0.0000000000
      4649        42  SLPC      H7Y           -16.4650106405      -23.8222011227        4.8061991880  MEMB      42              0.0000000000
      4650        42  SLPC      C38           -18.3868692205      -22.8456182231        4.6035948584  MEMB      42              0.0000000000
      4651        42  SLPC      H8X           -18.1872062665      -21.8708426216        4.1093603421  MEMB      42              0.0000000000
      4652        42  SLPC      H8Y           -19.2862048427      -22.7448661547        5.2480834994  MEMB      42              0.0000000000
      4653        42  SLPC      C39           -18.6078494677      -23.8988847170        3.5756832311  MEMB      42              0.0000000000
      4654        42  SLPC      H9X           -18.9022746419      -24.9119327112        3.9240630063  MEMB      42              0.0000000000
      4655        42  SLPC      H9Y           -17.7436268479      -24.0200460886        2.8881079514  MEMB      42              0.0000000000
      4656        42  SLPC      C310          -19.7995477179      -23.4962747165        2.7009066361  MEMB      42              0.0000000000
      4657        42  SLPC      H10X          -20.5623505007      -23.2045395789        3.4541286433  MEMB      42              0.0000000000
      4658        42  SLPC      H10Y          -20.0256394362      -24.3895516328        2.0802141619  MEMB      42              0.0000000000
      4659        42  SLPC      C311          -19.4490297932      -22.2701231885        1.8317897581  MEMB      42              0.0000000000
      4660        42  SLPC      H11X          -18.4079251002      -22.4519434813        1.4892058372  MEMB      42              0.0000000000
      4661        42  SLPC      H11Y          -19.5560195385      -21.3882842103        2.4990489124  MEMB      42              0.0000000000
      4662        42  SLPC      C312          -20.2907645843      -22.1037479740        0.6228799935  MEMB      42              0.0000000000
      4663        42  SLPC      H12X          -21.3690537994      -22.1537437422        0.8857738373  MEMB      42              0.0000000000
      4664        42  SLPC      H12Y          -20.0645250398      -22.8929134068       -0.1256886607  MEMB      42              0.0000000000
      4665        42  SLPC      C313          -20.1978291769      -20.7305460850       -0.1207018781  MEMB      42              0.0000000000
      4666        42  SLPC      H13X          -20.6314966362      -20.9128639853       -1.1271869363  MEMB      42              0.0000000000
      4667        42  SLPC      H13Y          -19.1154744600      -20.5122876428       -0.2439613877  MEMB      42              0.0000000000
      4668        42  SLPC      C314          -20.9379847963      -19.5860150264        0.5912187587  MEMB      42              0.0000000000
      4669        42  SLPC      H14X          -20.3237309280      -19.0848178134        1.3695590918  MEMB      42              0.0000000000
      4670        42  SLPC      H14Y          -21.8641632419      -19.9238785345        1.1034312094  MEMB      42              0.0000000000
      4671        42  SLPC      C315          -21.3213850956      -18.4128846195       -0.3820845458  MEMB      42              0.0000000000
      4672        42  SLPC      H15X          -21.8050228641      -17.6907032801        0.3099178637  MEMB      42              0.0000000000
      4673        42  SLPC      H15Y          -22.1038866919      -18.7118675479       -1.1118938869  MEMB      42              0.0000000000
      4674        42  SLPC      C316          -20.1950468212      -17.7906085204       -1.2891142669  MEMB      42              0.0000000000
      4675        42  SLPC      H16X          -20.5186709088      -16.8110257340       -1.7014311531  MEMB      42              0.0000000000
      4676        42  SLPC      H16Y          -20.1384449649      -18.5161025133       -2.1286232958  MEMB      42              0.0000000000
      4677        42  SLPC      C317          -18.7995995628      -17.7442184832       -0.6831107850  MEMB      42              0.0000000000
      4678        42  SLPC      H17X          -18.5477407807      -18.5905917914       -0.0089143539  MEMB      42              0.0000000000
      4679        42  SLPC      H17Y          -18.7652698043      -16.8530114843       -0.0206220328  MEMB      42              0.0000000000
      4680        42  SLPC      C318          -17.6825535039      -17.5228391940       -1.7286851040  MEMB      42              0.0000000000
      4681        42  SLPC      H18X          -16.8345034629      -16.9961063622       -1.2411572490  MEMB      42              0.0000000000
      4682        42  SLPC      H18Y          -18.1127003708      -16.8571083081       -2.5072078900  MEMB      42              0.0000000000
      4683        42  SLPC      H18Z          -17.4346946277      -18.5098773243       -2.1743795335  MEMB      42              0.0000000000
      4684        43  CHL1      C3             13.4396926514      -24.1310675800       17.3336200000  MEMB      43              0.0000000000
      4685        43  CHL1      H3             14.2550828274      -23.3993378256       17.1491600000  MEMB      43              0.0000000000
      4686        43  CHL1      O3             12.9586567486      -24.1200228200       18.6663800000  MEMB      43              0.0000000000
      4687        43  CHL1      H3'            12.6855507022      -23.2308680878       18.9039100000  MEMB      43              0.0000000000
      4688        43  CHL1      C4             12.1967360472      -23.8337866175       16.4844600000  MEMB      43              0.0000000000
      4689        43  CHL1      H4A            11.3552225201      -24.5093333760       16.7486900000  MEMB      43              0.0000000000
      4690        43  CHL1      H4B            11.9953431964      -22.7822988939       16.7813500000  MEMB      43              0.0000000000
      4691        43  CHL1      C5             12.5684126754      -23.9222314941       15.0307400000  MEMB      43              0.0000000000
      4692        43  CHL1      C6             12.4696966692      -22.7906855287       14.2324300000  MEMB      43              0.0000000000
      4693        43  CHL1      H6             12.0069732811      -21.8313863989       14.5074600000  MEMB      43              0.0000000000
      4694        43  CHL1      C7             12.9460311834      -22.7078105201       12.7995700000  MEMB      43              0.0000000000
      4695        43  CHL1      H7A            12.2554889631      -22.1172050140       12.1603000000  MEMB      43              0.0000000000
      4696        43  CHL1      H7B            13.9357091114      -22.2068696344       12.7370500000  MEMB      43              0.0000000000
      4697        43  CHL1      C8             13.0756577326      -24.1959385512       12.2349100000  MEMB      43              0.0000000000
      4698        43  CHL1      H8             12.0382681203      -24.5860557202       12.1577200000  MEMB      43              0.0000000000
      4699        43  CHL1      C14            13.7197921253      -24.2904139045       10.8935500000  MEMB      43              0.0000000000
      4700        43  CHL1      H14            14.7335016950      -23.8544005245       11.0224500000  MEMB      43              0.0000000000
      4701        43  CHL1      C15            13.1039728239      -23.3220756678        9.8469900000  MEMB      43              0.0000000000
      4702        43  CHL1      H15A           12.0326466840      -23.6010442220        9.7534400000  MEMB      43              0.0000000000
      4703        43  CHL1      H15B           13.1904443162      -22.2480203382       10.1176500000  MEMB      43              0.0000000000
      4704        43  CHL1      C16            13.8745667876      -23.8055319411        8.6420600000  MEMB      43              0.0000000000
      4705        43  CHL1      H16A           13.2347041069      -23.8678303132        7.7359600000  MEMB      43              0.0000000000
      4706        43  CHL1      H16B           14.6416846473      -23.0314270091        8.4261300000  MEMB      43              0.0000000000
      4707        43  CHL1      C17            14.5488599368      -25.2415170081        8.9725200000  MEMB      43              0.0000000000
      4708        43  CHL1      H17            15.6015229344      -24.9555092979        9.1832600000  MEMB      43              0.0000000000
      4709        43  CHL1      C13            13.9528801179      -25.6711048754       10.2431800000  MEMB      43              0.0000000000
      4710        43  CHL1      C18            12.5810944789      -26.3409882686        9.9856400000  MEMB      43              0.0000000000
      4711        43  CHL1      H18A           12.7621951182      -27.3345917288        9.5227400000  MEMB      43              0.0000000000
      4712        43  CHL1      H18B           12.0272722484      -26.5173081397       10.9324800000  MEMB      43              0.0000000000
      4713        43  CHL1      H18C           12.0353329838      -25.7743323270        9.2011800000  MEMB      43              0.0000000000
      4714        43  CHL1      C12            14.9109109266      -26.4763598050       11.1133300000  MEMB      43              0.0000000000
      4715        43  CHL1      H12A           14.9303356382      -27.5310961539       10.7647800000  MEMB      43              0.0000000000
      4716        43  CHL1      H12B           15.8940539346      -25.9674738252       11.0195900000  MEMB      43              0.0000000000
      4717        43  CHL1      C11            14.2623084282      -26.5487106835       12.4971500000  MEMB      43              0.0000000000
      4718        43  CHL1      H11A           13.3582485886      -27.1731674303       12.3326800000  MEMB      43              0.0000000000
      4719        43  CHL1      H11B           15.0194880489      -27.0528239630       13.1350200000  MEMB      43              0.0000000000
      4720        43  CHL1      C9             13.8551541447      -25.1363484812       13.1373200000  MEMB      43              0.0000000000
      4721        43  CHL1      H9             14.8282579565      -24.6032161359       13.1934500000  MEMB      43              0.0000000000
      4722        43  CHL1      C10            13.2057379338      -25.2369386156       14.6235500000  MEMB      43              0.0000000000
      4723        43  CHL1      C19            12.1044715493      -26.3219511518       14.4899500000  MEMB      43              0.0000000000
      4724        43  CHL1      H19A           11.3692353983      -26.1386843145       13.6774400000  MEMB      43              0.0000000000
      4725        43  CHL1      H19B           12.6337920718      -27.2665815636       14.2413300000  MEMB      43              0.0000000000
      4726        43  CHL1      H19C           11.6136041545      -26.5409626235       15.4622700000  MEMB      43              0.0000000000
      4727        43  CHL1      C1             14.3132665221      -25.6990397086       15.5640500000  MEMB      43              0.0000000000
      4728        43  CHL1      H1A            14.4982518932      -26.7441389576       15.2356100000  MEMB      43              0.0000000000
      4729        43  CHL1      H1B            15.2475187309      -25.1191791337       15.4051300000  MEMB      43              0.0000000000
      4730        43  CHL1      C2             13.9114458530      -25.5651267862       17.0313900000  MEMB      43              0.0000000000
      4731        43  CHL1      H2A            14.7241658356      -25.8401174908       17.7372100000  MEMB      43              0.0000000000
      4732        43  CHL1      H2B            13.0054657193      -26.1784441896       17.2246500000  MEMB      43              0.0000000000
      4733        43  CHL1      C20            14.5918567206      -26.1234792041        7.6908700000  MEMB      43              0.0000000000
      4734        43  CHL1      H20            13.5390460715      -26.2876831579        7.3763300000  MEMB      43              0.0000000000
      4735        43  CHL1      C21            15.1613802092      -27.5236229273        7.9247500000  MEMB      43              0.0000000000
      4736        43  CHL1      H21A           16.2402719655      -27.4410452753        8.1767300000  MEMB      43              0.0000000000
      4737        43  CHL1      H21B           15.1607918929      -28.0904015370        6.9691900000  MEMB      43              0.0000000000
      4738        43  CHL1      H21C           14.6398876102      -28.0981947381        8.7198800000  MEMB      43              0.0000000000
      4739        43  CHL1      C22            15.2192540468      -25.4083006110        6.5504100000  MEMB      43              0.0000000000
      4740        43  CHL1      H22A           14.5126561451      -24.5660232712        6.3903900000  MEMB      43              0.0000000000
      4741        43  CHL1      H22B           16.1889710188      -24.9548958582        6.8477000000  MEMB      43              0.0000000000
      4742        43  CHL1      C23            15.2431158236      -26.1544048115        5.1981400000  MEMB      43              0.0000000000
      4743        43  CHL1      H23A           15.9990072514      -26.9670194630        5.1471500000  MEMB      43              0.0000000000
      4744        43  CHL1      H23B           14.2744197552      -26.6847210605        5.0768500000  MEMB      43              0.0000000000
      4745        43  CHL1      C24            15.3942683694      -25.1391880536        3.9967000000  MEMB      43              0.0000000000
      4746        43  CHL1      H24A           14.5509193473      -24.4332854018        3.8392400000  MEMB      43              0.0000000000
      4747        43  CHL1      H24B           16.2400623210      -24.4675625788        4.2572300000  MEMB      43              0.0000000000
      4748        43  CHL1      C25            15.7831579630      -25.8396381467        2.6959200000  MEMB      43              0.0000000000
      4749        43  CHL1      H25            16.6097266161      -26.5365847269        2.9516100000  MEMB      43              0.0000000000
      4750        43  CHL1      C26            14.7427582151      -26.7153976173        2.0031200000  MEMB      43              0.0000000000
      4751        43  CHL1      H26A           15.1123109734      -27.1363754482        1.0436700000  MEMB      43              0.0000000000
      4752        43  CHL1      H26B           14.4332421909      -27.4799228533        2.7474500000  MEMB      43              0.0000000000
      4753        43  CHL1      H26C           13.9623145162      -25.9456044381        1.8224400000  MEMB      43              0.0000000000
      4754        43  CHL1      C27            16.3843572876      -24.7997440730        1.7146100000  MEMB      43              0.0000000000
      4755        43  CHL1      H27A           16.6779934939      -25.3107907417        0.7728400000  MEMB      43              0.0000000000
      4756        43  CHL1      H27B           15.5395091698      -24.1478599470        1.4053900000  MEMB      43              0.0000000000
      4757        43  CHL1      H27C           17.2630988579      -24.3067164130        2.1826300000  MEMB      43              0.0000000000
      4758        44  CHL1      C3             23.5102834387      -15.5328967722       17.3025000000  MEMB      44              0.0000000000
      4759        44  CHL1      H3             22.5132888752      -15.6849408225       16.8364500000  MEMB      44              0.0000000000
      4760        44  CHL1      O3             23.4390911613      -15.3899914278       18.6975000000  MEMB      44              0.0000000000
      4761        44  CHL1      H3'            23.1556560058      -14.4913102183       18.8808900000  MEMB      44              0.0000000000
      4762        44  CHL1      C4             24.1784659437      -16.8458692675       16.8210400000  MEMB      44              0.0000000000
      4763        44  CHL1      H4A            25.2110569066      -16.8621741847       17.2307000000  MEMB      44              0.0000000000
      4764        44  CHL1      H4B            23.6703271223      -17.7150304829       17.2907900000  MEMB      44              0.0000000000
      4765        44  CHL1      C5             24.2361685302      -16.8714432604       15.2525100000  MEMB      44              0.0000000000
      4766        44  CHL1      C6             23.6670494490      -17.9093953854       14.5883500000  MEMB      44              0.0000000000
      4767        44  CHL1      H6             23.2803947207      -18.7475205245       15.1867200000  MEMB      44              0.0000000000
      4768        44  CHL1      C7             23.5838710946      -17.9664083126       13.1289200000  MEMB      44              0.0000000000
      4769        44  CHL1      H7A            23.8991469729      -18.9764946498       12.7903100000  MEMB      44              0.0000000000
      4770        44  CHL1      H7B            22.5230835719      -17.7860992841       12.8522700000  MEMB      44              0.0000000000
      4771        44  CHL1      C8             24.4776908999      -16.9509259670       12.3530600000  MEMB      44              0.0000000000
      4772        44  CHL1      H8             25.4809817380      -17.4114695703       12.4781100000  MEMB      44              0.0000000000
      4773        44  CHL1      C14            23.9946304501      -16.9034908163       10.8703500000  MEMB      44              0.0000000000
      4774        44  CHL1      H14            22.9339912352      -16.5791943640       10.8056100000  MEMB      44              0.0000000000
      4775        44  CHL1      C15            23.8770575717      -18.1837182951       10.0234500000  MEMB      44              0.0000000000
      4776        44  CHL1      H15A           24.7471973544      -18.8276983110       10.2733900000  MEMB      44              0.0000000000
      4777        44  CHL1      H15B           22.8525276867      -18.5685390145       10.2146900000  MEMB      44              0.0000000000
      4778        44  CHL1      C16            23.9885085635      -17.6656905092        8.6498100000  MEMB      44              0.0000000000
      4779        44  CHL1      H16A           24.7823546172      -18.2509971330        8.1383900000  MEMB      44              0.0000000000
      4780        44  CHL1      H16B           23.0115462037      -17.8050263845        8.1394700000  MEMB      44              0.0000000000
      4781        44  CHL1      C17            24.4064289657      -16.2019622132        8.7005600000  MEMB      44              0.0000000000
      4782        44  CHL1      H17            23.4668406780      -15.6091712308        8.7102800000  MEMB      44              0.0000000000
      4783        44  CHL1      C13            24.9343402300      -15.9480118725       10.1285600000  MEMB      44              0.0000000000
      4784        44  CHL1      C18            26.3803012025      -16.4984393158       10.1914300000  MEMB      44              0.0000000000
      4785        44  CHL1      H18A           26.5215535367      -17.5890418483       10.0334200000  MEMB      44              0.0000000000
      4786        44  CHL1      H18B           27.0483878894      -16.0534006892        9.4233700000  MEMB      44              0.0000000000
      4787        44  CHL1      H18C           26.9069693692      -16.2704013911       11.1427200000  MEMB      44              0.0000000000
      4788        44  CHL1      C12            24.8204022030      -14.5468867310       10.6346100000  MEMB      44              0.0000000000
      4789        44  CHL1      H12A           25.4392174484      -13.7835259390       10.1162900000  MEMB      44              0.0000000000
      4790        44  CHL1      H12B           23.7746694088      -14.2302028161       10.4334100000  MEMB      44              0.0000000000
      4791        44  CHL1      C11            25.1176691042      -14.4983695091       12.1461500000  MEMB      44              0.0000000000
      4792        44  CHL1      H11A           26.2143164754      -14.5960450270       12.2949300000  MEMB      44              0.0000000000
      4793        44  CHL1      H11B           24.7254585181      -13.5616777039       12.5968200000  MEMB      44              0.0000000000
      4794        44  CHL1      C9             24.3435211120      -15.5654212465       12.9625000000  MEMB      44              0.0000000000
      4795        44  CHL1      H9             23.2909177256      -15.2110391172       12.9900300000  MEMB      44              0.0000000000
      4796        44  CHL1      C10            24.7424665465      -15.5586910402       14.5408600000  MEMB      44              0.0000000000
      4797        44  CHL1      C19            26.2478091318      -15.5384443170       14.7137900000  MEMB      44              0.0000000000
      4798        44  CHL1      H19A           26.5165675738      -15.5623271714       15.7915300000  MEMB      44              0.0000000000
      4799        44  CHL1      H19B           26.6360817048      -16.3996091730       14.1290200000  MEMB      44              0.0000000000
      4800        44  CHL1      H19C           26.7011078433      -14.6697505993       14.1901500000  MEMB      44              0.0000000000
      4801        44  CHL1      C1             24.1611241489      -14.2372419800       15.2470600000  MEMB      44              0.0000000000
      4802        44  CHL1      H1A            24.7340272309      -13.4178762368       14.7625400000  MEMB      44              0.0000000000
      4803        44  CHL1      H1B            23.1215535315      -13.9624279155       14.9676200000  MEMB      44              0.0000000000
      4804        44  CHL1      C2             24.2312726958      -14.2407526170       16.7807600000  MEMB      44              0.0000000000
      4805        44  CHL1      H2A            23.7557497480      -13.3069481808       17.1498400000  MEMB      44              0.0000000000
      4806        44  CHL1      H2B            25.2212349321      -14.2753803116       17.2838500000  MEMB      44              0.0000000000
      4807        44  CHL1      C20            25.3212863108      -15.7073083523        7.5197700000  MEMB      44              0.0000000000
      4808        44  CHL1      H20            26.2038797827      -16.3819858163        7.5323600000  MEMB      44              0.0000000000
      4809        44  CHL1      C21            25.7146436933      -14.2700043607        7.5280200000  MEMB      44              0.0000000000
      4810        44  CHL1      H21A           26.0100073052      -13.8187790227        6.5566900000  MEMB      44              0.0000000000
      4811        44  CHL1      H21B           26.4956492811      -14.0051987773        8.2724900000  MEMB      44              0.0000000000
      4812        44  CHL1      H21C           24.8582573225      -13.6455955933        7.8612500000  MEMB      44              0.0000000000
      4813        44  CHL1      C22            24.6152523790      -15.8705143895        6.2515200000  MEMB      44              0.0000000000
      4814        44  CHL1      H22A           24.0470725716      -16.8240480766        6.2990100000  MEMB      44              0.0000000000
      4815        44  CHL1      H22B           23.8377332697      -15.0801858220        6.1797000000  MEMB      44              0.0000000000
      4816        44  CHL1      C23            25.3725440434      -15.8582985975        4.9126200000  MEMB      44              0.0000000000
      4817        44  CHL1      H23A           25.8718948766      -14.8794032796        4.7490900000  MEMB      44              0.0000000000
      4818        44  CHL1      H23B           26.1335528870      -16.6492618503        5.0845400000  MEMB      44              0.0000000000
      4819        44  CHL1      C24            24.4383636829      -16.2403063632        3.7118200000  MEMB      44              0.0000000000
      4820        44  CHL1      H24A           23.8780472847      -17.1994801297        3.7304400000  MEMB      44              0.0000000000
      4821        44  CHL1      H24B           23.6629464001      -15.4449775431        3.6897100000  MEMB      44              0.0000000000
      4822        44  CHL1      C25            25.1625968198      -16.0838143810        2.3377000000  MEMB      44              0.0000000000
      4823        44  CHL1      H25            25.5728768435      -15.0634222223        2.1803000000  MEMB      44              0.0000000000
      4824        44  CHL1      C26            26.1417009979      -17.1568243965        2.1411000000  MEMB      44              0.0000000000
      4825        44  CHL1      H26A           25.8160446952      -18.1909003791        2.3839100000  MEMB      44              0.0000000000
      4826        44  CHL1      H26B           26.5112572219      -17.1893396638        1.0938700000  MEMB      44              0.0000000000
      4827        44  CHL1      H26C           27.0348758480      -17.0313614595        2.7898000000  MEMB      44              0.0000000000
      4828        44  CHL1      C27            24.0594314284      -16.2575638640        1.2320600000  MEMB      44              0.0000000000
      4829        44  CHL1      H27A           23.8120955334      -17.3390834313        1.1732800000  MEMB      44              0.0000000000
      4830        44  CHL1      H27B           23.1966604872      -15.5778608377        1.3992600000  MEMB      44              0.0000000000
      4831        44  CHL1      H27C           24.4471606924      -16.0517780631        0.2114500000  MEMB      44              0.0000000000
      4832        45  CHL1      C3             28.4128008854       -0.5797696429       17.3173300000  MEMB      45              0.0000000000
      4833        45  CHL1      H3             28.2380781046        0.5130912368       17.2201500000  MEMB      45              0.0000000000
      4834        45  CHL1      O3             28.4664237146       -0.8446956231       18.6826700000  MEMB      45              0.0000000000
      4835        45  CHL1      H3'            28.9959975223       -0.1360696992       19.0555000000  MEMB      45              0.0000000000
      4836        45  CHL1      C4             27.1521413005       -1.2232792313       16.7587400000  MEMB      45              0.0000000000
      4837        45  CHL1      H4A            27.1911895998       -2.2593042852       17.1580700000  MEMB      45              0.0000000000
      4838        45  CHL1      H4B            26.3414030107       -0.7159419705       17.3240900000  MEMB      45              0.0000000000
      4839        45  CHL1      C5             26.9895139920       -1.2105468387       15.2287400000  MEMB      45              0.0000000000
      4840        45  CHL1      C6             25.8347122218       -0.8637864878       14.5968300000  MEMB      45              0.0000000000
      4841        45  CHL1      H6             24.9260985766       -0.6784216738       15.1884900000  MEMB      45              0.0000000000
      4842        45  CHL1      C7             25.7303470164       -0.7289945222       13.0980300000  MEMB      45              0.0000000000
      4843        45  CHL1      H7A            24.8622800989       -1.2006015220       12.5897300000  MEMB      45              0.0000000000
      4844        45  CHL1      H7B            25.8222203049        0.3583547467       12.8893700000  MEMB      45              0.0000000000
      4845        45  CHL1      C8             26.9404052397       -1.4763765137       12.4215400000  MEMB      45              0.0000000000
      4846        45  CHL1      H8             26.7791451749       -2.5753472183       12.4455400000  MEMB      45              0.0000000000
      4847        45  CHL1      C14            27.1654136943       -1.0464836166       10.9409600000  MEMB      45              0.0000000000
      4848        45  CHL1      H14            27.5045777237        0.0038498449       10.8141700000  MEMB      45              0.0000000000
      4849        45  CHL1      C15            25.9054059740       -1.0447912377       10.1101100000  MEMB      45              0.0000000000
      4850        45  CHL1      H15A           25.3665189249       -2.0018941358       10.2770900000  MEMB      45              0.0000000000
      4851        45  CHL1      H15B           25.2764100361       -0.2537864813       10.5716400000  MEMB      45              0.0000000000
      4852        45  CHL1      C16            26.4473772896       -0.8895674703        8.6608500000  MEMB      45              0.0000000000
      4853        45  CHL1      H16A           26.0271295902       -1.6942889834        8.0204300000  MEMB      45              0.0000000000
      4854        45  CHL1      H16B           26.1389336666        0.0914911887        8.2404700000  MEMB      45              0.0000000000
      4855        45  CHL1      C17            27.9975654632       -1.1679425908        8.7740100000  MEMB      45              0.0000000000
      4856        45  CHL1      H17            28.5843211044       -0.2245260215        8.7760000000  MEMB      45              0.0000000000
      4857        45  CHL1      C13            28.1934192471       -1.8497969127       10.1785000000  MEMB      45              0.0000000000
      4858        45  CHL1      C18            27.7737465749       -3.3401333061       10.1044300000  MEMB      45              0.0000000000
      4859        45  CHL1      H18A           26.7099714186       -3.3129047987        9.7851200000  MEMB      45              0.0000000000
      4860        45  CHL1      H18B           28.3994432373       -3.9089573316        9.3838300000  MEMB      45              0.0000000000
      4861        45  CHL1      H18C           27.8419851005       -3.8687621212       11.0792300000  MEMB      45              0.0000000000
      4862        45  CHL1      C12            29.5603885215       -1.6658618348       10.8145200000  MEMB      45              0.0000000000
      4863        45  CHL1      H12A           30.2512536341       -2.3925909774       10.3361100000  MEMB      45              0.0000000000
      4864        45  CHL1      H12B           29.9241635392       -0.6561041808       10.5274900000  MEMB      45              0.0000000000
      4865        45  CHL1      C11            29.4173354471       -2.0139059924       12.3194900000  MEMB      45              0.0000000000
      4866        45  CHL1      H11A           29.2544973717       -3.1117910254       12.3690900000  MEMB      45              0.0000000000
      4867        45  CHL1      H11B           30.3998304470       -1.7394835587       12.7596200000  MEMB      45              0.0000000000
      4868        45  CHL1      C9             28.3074994906       -1.2184625140       13.0259900000  MEMB      45              0.0000000000
      4869        45  CHL1      H9             28.4206254133       -0.1221126595       12.8862100000  MEMB      45              0.0000000000
      4870        45  CHL1      C10            28.3429115858       -1.5859804108       14.5140200000  MEMB      45              0.0000000000
      4871        45  CHL1      C19            28.5106289226       -3.1671092589       14.7074800000  MEMB      45              0.0000000000
      4872        45  CHL1      H19A           28.3716384213       -3.4881261062       15.7619700000  MEMB      45              0.0000000000
      4873        45  CHL1      H19B           27.6476840801       -3.6777974249       14.2291100000  MEMB      45              0.0000000000
      4874        45  CHL1      H19C           29.4094853530       -3.6609052679       14.2802400000  MEMB      45              0.0000000000
      4875        45  CHL1      C1             29.5862567770       -0.8937230197       15.1742800000  MEMB      45              0.0000000000
      4876        45  CHL1      H1A            30.5836768427       -1.1439709300       14.7537400000  MEMB      45              0.0000000000
      4877        45  CHL1      H1B            29.5263037868        0.1986230969       14.9806100000  MEMB      45              0.0000000000
      4878        45  CHL1      C2             29.7177869437       -1.0595204990       16.6731400000  MEMB      45              0.0000000000
      4879        45  CHL1      H2A            30.4842366484       -0.4021171952       17.1364900000  MEMB      45              0.0000000000
      4880        45  CHL1      H2B            29.7469959830       -2.1448216472       16.9088900000  MEMB      45              0.0000000000
      4881        45  CHL1      C20            28.4689098223       -1.8671518619        7.4353600000  MEMB      45              0.0000000000
      4882        45  CHL1      H20            27.7657361280       -2.7064420190        7.2470600000  MEMB      45              0.0000000000
      4883        45  CHL1      C21            29.9132761324       -2.3432424004        7.4401000000  MEMB      45              0.0000000000
      4884        45  CHL1      H21A           30.5801308687       -1.4742951145        7.6260100000  MEMB      45              0.0000000000
      4885        45  CHL1      H21B           30.1267567366       -3.0221797190        6.5869900000  MEMB      45              0.0000000000
      4886        45  CHL1      H21C           30.0409035115       -3.0079876666        8.3210900000  MEMB      45              0.0000000000
      4887        45  CHL1      C22            28.3579192642       -0.8592340561        6.3047900000  MEMB      45              0.0000000000
      4888        45  CHL1      H22A           27.3792100073       -0.3367599457        6.3635700000  MEMB      45              0.0000000000
      4889        45  CHL1      H22B           29.0155709722        0.0205024268        6.4717600000  MEMB      45              0.0000000000
      4890        45  CHL1      C23            28.2820784547       -1.4102028734        4.8769000000  MEMB      45              0.0000000000
      4891        45  CHL1      H23A           29.2728743590       -1.8385877057        4.6139700000  MEMB      45              0.0000000000
      4892        45  CHL1      H23B           27.4223038841       -2.1096362165        4.8000700000  MEMB      45              0.0000000000
      4893        45  CHL1      C24            27.9900562972       -0.2458143326        3.8482700000  MEMB      45              0.0000000000
      4894        45  CHL1      H24A           26.8936058883       -0.0672305640        3.8337600000  MEMB      45              0.0000000000
      4895        45  CHL1      H24B           28.3955430161        0.7433056839        4.1508600000  MEMB      45              0.0000000000
      4896        45  CHL1      C25            28.3914328344       -0.6225326748        2.3279600000  MEMB      45              0.0000000000
      4897        45  CHL1      H25            27.7696186334        0.0464742838        1.6954300000  MEMB      45              0.0000000000
      4898        45  CHL1      C26            29.9103453604       -0.6003750184        2.1336300000  MEMB      45              0.0000000000
      4899        45  CHL1      H26A           30.1298434809       -0.5295352336        1.0468400000  MEMB      45              0.0000000000
      4900        45  CHL1      H26B           30.3208295403        0.2088501249        2.7747100000  MEMB      45              0.0000000000
      4901        45  CHL1      H26C           30.3625574638       -1.5480451518        2.4966000000  MEMB      45              0.0000000000
      4902        45  CHL1      C27            27.7784966577       -2.0034100402        1.8688100000  MEMB      45              0.0000000000
      4903        45  CHL1      H27A           27.7826453914       -2.0313349253        0.7581700000  MEMB      45              0.0000000000
      4904        45  CHL1      H27B           28.3673241279       -2.8387890481        2.3044100000  MEMB      45              0.0000000000
      4905        45  CHL1      H27C           26.7530733743       -2.1245069950        2.2788800000  MEMB      45              0.0000000000
      4906        46  CHL1      C3             16.3216143239       23.5550428400       17.3438450000  MEMB      46              0.0000000000
      4907        46  CHL1      H3             17.1509090984       23.0264766308       16.8269150000  MEMB      46              0.0000000000
      4908        46  CHL1      O3             16.4004085337       23.3237368284       18.6561550000  MEMB      46              0.0000000000
      4909        46  CHL1      H3'            17.2237545185       23.7447332057       18.9139550000  MEMB      46              0.0000000000
      4910        46  CHL1      C4             16.3211555382       25.0845864434       16.9745650000  MEMB      46              0.0000000000
      4911        46  CHL1      H4A            15.4206345223       25.4485961032       17.5139050000  MEMB      46              0.0000000000
      4912        46  CHL1      H4B            17.1410093928       25.6833956681       17.4257750000  MEMB      46              0.0000000000
      4913        46  CHL1      C5             16.3813884301       25.0839755191       15.4653350000  MEMB      46              0.0000000000
      4914        46  CHL1      C6             17.4272919649       25.6815262561       14.8307450000  MEMB      46              0.0000000000
      4915        46  CHL1      H6             18.2517455395       26.1037820956       15.4240050000  MEMB      46              0.0000000000
      4916        46  CHL1      C7             17.4201400538       25.7827016552       13.3432450000  MEMB      46              0.0000000000
      4917        46  CHL1      H7A            17.9638267089       26.6435855879       12.8987050000  MEMB      46              0.0000000000
      4918        46  CHL1      H7B            17.9987351672       24.9333588976       12.9211350000  MEMB      46              0.0000000000
      4919        46  CHL1      C8             16.0081565710       25.6298035985       12.7186950000  MEMB      46              0.0000000000
      4920        46  CHL1      H8             15.4057744891       26.5374689540       12.9369050000  MEMB      46              0.0000000000
      4921        46  CHL1      C14            16.1545531474       25.3581432248       11.2245150000  MEMB      46              0.0000000000
      4922        46  CHL1      H14            16.7033154107       24.4022353418       11.0850950000  MEMB      46              0.0000000000
      4923        46  CHL1      C15            17.0939644496       26.3280095701       10.4351150000  MEMB      46              0.0000000000
      4924        46  CHL1      H15A           16.8135632525       27.3979541675       10.5396550000  MEMB      46              0.0000000000
      4925        46  CHL1      H15B           18.1930822157       26.3062358988       10.5956750000  MEMB      46              0.0000000000
      4926        46  CHL1      C16            16.7590615391       25.9830499676        8.9479650000  MEMB      46              0.0000000000
      4927        46  CHL1      H16A           16.4459596628       26.9350020840        8.4683050000  MEMB      46              0.0000000000
      4928        46  CHL1      H16B           17.6684620206       25.4834108980        8.5508750000  MEMB      46              0.0000000000
      4929        46  CHL1      C17            15.5928472739       24.9936737430        9.0650850000  MEMB      46              0.0000000000
      4930        46  CHL1      H17            16.1980107700       24.0750705708        8.9093250000  MEMB      46              0.0000000000
      4931        46  CHL1      C13            14.9144815550       25.2231801619       10.4290750000  MEMB      46              0.0000000000
      4932        46  CHL1      C18            14.0547847753       26.5284666284       10.3063950000  MEMB      46              0.0000000000
      4933        46  CHL1      H18A           14.6901887803       27.4024910116       10.0481950000  MEMB      46              0.0000000000
      4934        46  CHL1      H18B           13.2349317280       26.3275540085        9.5840450000  MEMB      46              0.0000000000
      4935        46  CHL1      H18C           13.5489136319       26.8110714834       11.2543250000  MEMB      46              0.0000000000
      4936        46  CHL1      C12            14.1155274963       24.0411198950       11.0191150000  MEMB      46              0.0000000000
      4937        46  CHL1      H12A           13.0537907879       23.9914592012       10.6957550000  MEMB      46              0.0000000000
      4938        46  CHL1      H12B           14.6664555938       23.1082178996       10.7731450000  MEMB      46              0.0000000000
      4939        46  CHL1      C11            13.9280905624       24.2066243821       12.5324950000  MEMB      46              0.0000000000
      4940        46  CHL1      H11A           13.3208324385       25.1363585666       12.5664450000  MEMB      46              0.0000000000
      4941        46  CHL1      H11B           13.3822969724       23.3467638384       12.9764350000  MEMB      46              0.0000000000
      4942        46  CHL1      C9             15.2944923983       24.4244672789       13.2068350000  MEMB      46              0.0000000000
      4943        46  CHL1      H9             15.9280084996       23.5350222236       13.0022050000  MEMB      46              0.0000000000
      4944        46  CHL1      C10            15.1175005033       24.4198357905       14.8039050000  MEMB      46              0.0000000000
      4945        46  CHL1      C19            13.7725211653       25.1565171548       15.2006250000  MEMB      46              0.0000000000
      4946        46  CHL1      H19A           13.6017348675       25.3742318067       16.2766150000  MEMB      46              0.0000000000
      4947        46  CHL1      H19B           13.6934683236       26.1634271594       14.7378150000  MEMB      46              0.0000000000
      4948        46  CHL1      H19C           12.9028474553       24.5104563014       14.9544450000  MEMB      46              0.0000000000
      4949        46  CHL1      C1             14.9784802009       22.9849627696       15.2779250000  MEMB      46              0.0000000000
      4950        46  CHL1      H1A            14.0658712354       22.4129007672       15.0055050000  MEMB      46              0.0000000000
      4951        46  CHL1      H1B            15.9145205634       22.4768798891       14.9617050000  MEMB      46              0.0000000000
      4952        46  CHL1      C2             15.0610115748       22.9877608633       16.8439150000  MEMB      46              0.0000000000
      4953        46  CHL1      H2A            14.8835534839       21.9488957014       17.1954650000  MEMB      46              0.0000000000
      4954        46  CHL1      H2B            14.1547248024       23.5169924761       17.2084650000  MEMB      46              0.0000000000
      4955        46  CHL1      C20            14.6548333202       25.0456287605        7.8051150000  MEMB      46              0.0000000000
      4956        46  CHL1      H20            14.1816529409       26.0508343361        7.8043350000  MEMB      46              0.0000000000
      4957        46  CHL1      C21            13.4646068591       24.0792936915        7.9538850000  MEMB      46              0.0000000000
      4958        46  CHL1      H21A           13.8196388653       23.0284928043        8.0177950000  MEMB      46              0.0000000000
      4959        46  CHL1      H21B           12.8024596316       24.1887070709        7.0684850000  MEMB      46              0.0000000000
      4960        46  CHL1      H21C           12.8457701851       24.3413146551        8.8385950000  MEMB      46              0.0000000000
      4961        46  CHL1      C22            15.3624616509       24.8710057940        6.3953250000  MEMB      46              0.0000000000
      4962        46  CHL1      H22A           16.4131043635       25.2320205071        6.3830350000  MEMB      46              0.0000000000
      4963        46  CHL1      H22B           15.5125419092       23.7823601509        6.2320650000  MEMB      46              0.0000000000
      4964        46  CHL1      C23            14.5182036402       25.5859150634        5.3408850000  MEMB      46              0.0000000000
      4965        46  CHL1      H23A           13.4663083240       25.3482643382        5.6080050000  MEMB      46              0.0000000000
      4966        46  CHL1      H23B           14.5700162916       26.6922071082        5.4290050000  MEMB      46              0.0000000000
      4967        46  CHL1      C24            14.6789682183       25.1653203571        3.8480750000  MEMB      46              0.0000000000
      4968        46  CHL1      H24A           15.7638129171       25.1020677121        3.6169550000  MEMB      46              0.0000000000
      4969        46  CHL1      H24B           14.0553245331       24.2479537337        3.7862550000  MEMB      46              0.0000000000
      4970        46  CHL1      C25            14.0874428764       26.2313037602        2.9453850000  MEMB      46              0.0000000000
      4971        46  CHL1      H25            14.8225930476       27.0562648698        3.0606950000  MEMB      46              0.0000000000
      4972        46  CHL1      C26            14.0123582082       25.8721910270        1.5036050000  MEMB      46              0.0000000000
      4973        46  CHL1      H26A           13.6526458187       26.6933076323        0.8473250000  MEMB      46              0.0000000000
      4974        46  CHL1      H26B           14.9919426512       25.4561900902        1.1847150000  MEMB      46              0.0000000000
      4975        46  CHL1      H26C           13.2438574709       25.0930441941        1.3121250000  MEMB      46              0.0000000000
      4976        46  CHL1      C27            12.6692568520       26.6441554423        3.2227150000  MEMB      46              0.0000000000
      4977        46  CHL1      H27A           12.4075808251       26.9295105050        4.2640650000  MEMB      46              0.0000000000
      4978        46  CHL1      H27B           12.3901601119       27.5353465086        2.6208750000  MEMB      46              0.0000000000
      4979        46  CHL1      H27C           11.9889431894       25.8959768264        2.7625750000  MEMB      46              0.0000000000
      4980        47  SAPS      N             -17.4434021491      -26.0553669108       20.4890514437  MEMB      47              0.0000000000
      4981        47  SAPS      HN1           -17.6092935094      -26.1065720492       21.5144578009  MEMB      47              0.0000000000
      4982        47  SAPS      HN2           -18.3825937143      -25.7937683921       20.1269942157  MEMB      47              0.0000000000
      4983        47  SAPS      HN3           -16.9809170282      -26.8879598193       20.0713237056  MEMB      47              0.0000000000
      4984        47  SAPS      C12           -16.6680252870      -24.8167147657       20.5379883226  MEMB      47              0.0000000000
      4985        47  SAPS      H12A          -17.4146529530      -24.0805593261       20.7968749153  MEMB      47              0.0000000000
      4986        47  SAPS      C13           -15.4790417241      -24.8378856079       21.5822322116  MEMB      47              0.0000000000
      4987        47  SAPS      O13A          -15.3287737261      -25.9644291981       22.1699058222  MEMB      47              0.0000000000
      4988        47  SAPS      O13B          -14.7789966628      -23.8322654085       21.8167647180  MEMB      47              0.0000000000
      4989        47  SAPS      C11           -16.0935082486      -24.5436804741       19.1354104938  MEMB      47              0.0000000000
      4990        47  SAPS      H11A          -16.8764873767      -24.5579989251       18.3473371153  MEMB      47              0.0000000000
      4991        47  SAPS      H11B          -15.3022168744      -25.2629597094       18.8340529993  MEMB      47              0.0000000000
      4992        47  SAPS      P             -16.1667104033      -21.9273972660       18.9121632604  MEMB      47              0.0000000000
      4993        47  SAPS      O13           -16.8478205603      -21.6132975203       20.2020648142  MEMB      47              0.0000000000
      4994        47  SAPS      O14           -15.2240645995      -20.8809299693       18.4392295570  MEMB      47              0.0000000000
      4995        47  SAPS      O12           -15.3721568400      -23.3030540193       18.9918858120  MEMB      47              0.0000000000
      4996        47  SAPS      O11           -17.2569387990      -22.1871098630       17.7233035556  MEMB      47              0.0000000000
      4997        47  SAPS      C1            -18.6551494647      -22.5269037640       17.9043423128  MEMB      47              0.0000000000
      4998        47  SAPS      HA            -18.6814296751      -23.1400147392       18.8304768098  MEMB      47              0.0000000000
      4999        47  SAPS      HB            -19.1152155414      -21.5294513695       18.0709230038  MEMB      47              0.0000000000
      5000        47  SAPS      C2            -19.2904709078      -23.2830849779       16.7822262747  MEMB      47              0.0000000000
      5001        47  SAPS      HS            -20.2846459319      -23.5525650942       17.1985398776  MEMB      47              0.0000000000
      5002        47  SAPS      O21           -18.4551394453      -24.3963329948       16.3661592950  MEMB      47              0.0000000000
      5003        47  SAPS      C21           -19.2114793992      -25.3778160503       15.8759460514  MEMB      47              0.0000000000
      5004        47  SAPS      O22           -20.4046084613      -25.3756121084       15.8688976888  MEMB      47              0.0000000000
      5005        47  SAPS      C22           -18.2515415850      -26.5088992492       15.4103844419  MEMB      47              0.0000000000
      5006        47  SAPS      H2R           -17.2735559406      -26.0999747260       15.0777500802  MEMB      47              0.0000000000
      5007        47  SAPS      H2S           -18.2369374338      -27.2825439214       16.2076184047  MEMB      47              0.0000000000
      5008        47  SAPS      C3            -19.5305442736      -22.3580774703       15.5268208870  MEMB      47              0.0000000000
      5009        47  SAPS      HX            -20.3127831108      -21.6333372254       15.8385496325  MEMB      47              0.0000000000
      5010        47  SAPS      HY            -19.9199879046      -22.9230332304       14.6530477046  MEMB      47              0.0000000000
      5011        47  SAPS      O31           -18.4028131438      -21.5991072897       15.1295230146  MEMB      47              0.0000000000
      5012        47  SAPS      C31           -17.5967134777      -22.1898694888       14.2689318617  MEMB      47              0.0000000000
      5013        47  SAPS      O32           -17.8509937019      -23.2358094806       13.6688601684  MEMB      47              0.0000000000
      5014        47  SAPS      C32           -16.5633429586      -21.1271076394       13.9070533252  MEMB      47              0.0000000000
      5015        47  SAPS      H2X           -15.6710345039      -21.3431645358       14.5326939015  MEMB      47              0.0000000000
      5016        47  SAPS      H2Y           -16.9570605456      -20.0967410727       14.0399141738  MEMB      47              0.0000000000
      5017        47  SAPS      C23           -18.6928640049      -27.3144174111       14.1758036514  MEMB      47              0.0000000000
      5018        47  SAPS      H3R           -19.7040626978      -27.7642663645       14.2729327172  MEMB      47              0.0000000000
      5019        47  SAPS      H3S           -18.0784791548      -28.2212085928       13.9898406608  MEMB      47              0.0000000000
      5020        47  SAPS      C24           -18.6746352419      -26.5518640229       12.8736621837  MEMB      47              0.0000000000
      5021        47  SAPS      H4R           -17.7103910438      -26.0000128376       12.8698555770  MEMB      47              0.0000000000
      5022        47  SAPS      H4S           -19.3877129712      -25.7021871129       12.8112892690  MEMB      47              0.0000000000
      5023        47  SAPS      C25           -18.8025108560      -27.4288154601       11.6351841080  MEMB      47              0.0000000000
      5024        47  SAPS      H5R           -19.6041217646      -28.1790505601       11.7027681987  MEMB      47              0.0000000000
      5025        47  SAPS      C26           -17.9822410856      -27.3765997017       10.5369512986  MEMB      47              0.0000000000
      5026        47  SAPS      H6R           -18.1405769093      -28.0838840160        9.7094975389  MEMB      47              0.0000000000
      5027        47  SAPS      C27           -16.8279733937      -26.4719120089       10.3779270503  MEMB      47              0.0000000000
      5028        47  SAPS      H7R           -16.0798756890      -26.9269695393        9.6941189249  MEMB      47              0.0000000000
      5029        47  SAPS      H7S           -16.3151568829      -26.5152170127       11.3625406693  MEMB      47              0.0000000000
      5030        47  SAPS      C28           -17.1930979397      -25.1162127376        9.9862839856  MEMB      47              0.0000000000
      5031        47  SAPS      H8R           -17.7810687581      -24.4744550385       10.6589185307  MEMB      47              0.0000000000
      5032        47  SAPS      C29           -17.0264482238      -24.5092343282        8.7247048862  MEMB      47              0.0000000000
      5033        47  SAPS      H9R           -17.3522469968      -23.4592814479        8.6865729293  MEMB      47              0.0000000000
      5034        47  SAPS      C210          -16.4594163124      -25.1317217248        7.4864918441  MEMB      47              0.0000000000
      5035        47  SAPS      H10R          -16.8861243929      -24.6351614939        6.5889015564  MEMB      47              0.0000000000
      5036        47  SAPS      H10S          -16.9552447022      -26.1056214603        7.2865054421  MEMB      47              0.0000000000
      5037        47  SAPS      C211          -15.0209589829      -25.2252507287        7.5230155586  MEMB      47              0.0000000000
      5038        47  SAPS      H11R          -14.7255031246      -25.9686171936        8.2780732227  MEMB      47              0.0000000000
      5039        47  SAPS      C212          -14.0538643136      -24.4506406762        6.9107054553  MEMB      47              0.0000000000
      5040        47  SAPS      H12R          -13.0112382897      -24.7095310012        7.1471515793  MEMB      47              0.0000000000
      5041        47  SAPS      C213          -14.2124931451      -23.2704040721        5.9624962949  MEMB      47              0.0000000000
      5042        47  SAPS      H13R          -13.7653203685      -22.4017681371        6.4914853148  MEMB      47              0.0000000000
      5043        47  SAPS      H13S          -15.2994785167      -23.0922523135        5.8174246438  MEMB      47              0.0000000000
      5044        47  SAPS      C214          -13.4449575647      -23.5674080666        4.6596922577  MEMB      47              0.0000000000
      5045        47  SAPS      H14R          -12.6262061324      -22.8839288303        4.3904309753  MEMB      47              0.0000000000
      5046        47  SAPS      C215          -13.7943270381      -24.4544220145        3.6767621039  MEMB      47              0.0000000000
      5047        47  SAPS      H15R          -13.2715374659      -24.4628812334        2.7089705223  MEMB      47              0.0000000000
      5048        47  SAPS      C216          -15.0122405840      -25.3067100774        3.7175519034  MEMB      47              0.0000000000
      5049        47  SAPS      H16R          -15.3320127381      -25.4780165658        2.6674462138  MEMB      47              0.0000000000
      5050        47  SAPS      H16S          -15.8454862586      -24.9795948676        4.3755927840  MEMB      47              0.0000000000
      5051        47  SAPS      C217          -14.8564832050      -26.7055554832        4.2569432339  MEMB      47              0.0000000000
      5052        47  SAPS      H17R          -15.8328225171      -27.2349996124        4.2847144612  MEMB      47              0.0000000000
      5053        47  SAPS      H17S          -14.3824933843      -26.6439049868        5.2598660646  MEMB      47              0.0000000000
      5054        47  SAPS      C218          -13.8756490503      -27.5921125900        3.4383273574  MEMB      47              0.0000000000
      5055        47  SAPS      H18R          -13.6280602751      -28.5547104915        3.9347406478  MEMB      47              0.0000000000
      5056        47  SAPS      H18S          -12.8986958093      -27.0737800276        3.3324278001  MEMB      47              0.0000000000
      5057        47  SAPS      C219          -14.3356950769      -27.8890059328        1.9992081815  MEMB      47              0.0000000000
      5058        47  SAPS      H19R          -14.5444660783      -26.9782372452        1.3981777700  MEMB      47              0.0000000000
      5059        47  SAPS      H19S          -15.2637629753      -28.4949542066        1.9228046546  MEMB      47              0.0000000000
      5060        47  SAPS      C220          -13.1581526039      -28.5984580890        1.2671119638  MEMB      47              0.0000000000
      5061        47  SAPS      H20R          -12.1783878054      -28.1666447249        1.5636238383  MEMB      47              0.0000000000
      5062        47  SAPS      H20S          -13.1906383200      -28.3690388184        0.1805418635  MEMB      47              0.0000000000
      5063        47  SAPS      H20T          -13.0723700608      -29.6827491834        1.4935509251  MEMB      47              0.0000000000
      5064        47  SAPS      C33           -16.1575746153      -21.1720935514       12.4228214404  MEMB      47              0.0000000000
      5065        47  SAPS      H3X           -15.6515861215      -22.1451775733       12.2456091867  MEMB      47              0.0000000000
      5066        47  SAPS      H3Y           -15.4605880214      -20.3200673203       12.2725467631  MEMB      47              0.0000000000
      5067        47  SAPS      C34           -17.3839100847      -21.2192783209       11.4020460894  MEMB      47              0.0000000000
      5068        47  SAPS      H4X           -17.9830607001      -20.2972868672       11.5610151320  MEMB      47              0.0000000000
      5069        47  SAPS      H4Y           -17.9400472430      -22.1804737730       11.3683472995  MEMB      47              0.0000000000
      5070        47  SAPS      C35           -16.8155757166      -21.0210527044        9.9817986185  MEMB      47              0.0000000000
      5071        47  SAPS      H5X           -16.3071147443      -21.9944803156        9.8137896313  MEMB      47              0.0000000000
      5072        47  SAPS      H5Y           -16.0293683669      -20.2466581122       10.1102970877  MEMB      47              0.0000000000
      5073        47  SAPS      C36           -17.8979116942      -20.5195447293        8.9216591994  MEMB      47              0.0000000000
      5074        47  SAPS      H6X           -18.3405988451      -19.5572218013        9.2567470717  MEMB      47              0.0000000000
      5075        47  SAPS      H6Y           -18.7383009338      -21.2457118359        8.8943054585  MEMB      47              0.0000000000
      5076        47  SAPS      C37           -17.2573019264      -20.1877375669        7.5981427242  MEMB      47              0.0000000000
      5077        47  SAPS      H7X           -16.6966716499      -21.0426626332        7.1632661905  MEMB      47              0.0000000000
      5078        47  SAPS      H7Y           -16.4786677226      -19.4271190875        7.8206504903  MEMB      47              0.0000000000
      5079        47  SAPS      C38           -18.3976363542      -19.7679983535        6.6481147617  MEMB      47              0.0000000000
      5080        47  SAPS      H8X           -18.7412224152      -18.7319211783        6.8550282451  MEMB      47              0.0000000000
      5081        47  SAPS      H8Y           -19.2499437230      -20.4614850546        6.8123379568  MEMB      47              0.0000000000
      5082        47  SAPS      C39           -17.9842418383      -19.8687987658        5.1501527516  MEMB      47              0.0000000000
      5083        47  SAPS      H9X           -18.8384982563      -19.4887777446        4.5500273360  MEMB      47              0.0000000000
      5084        47  SAPS      H9Y           -17.8466265078      -20.9546781628        4.9597602034  MEMB      47              0.0000000000
      5085        47  SAPS      C310          -16.5354771334      -19.1711861234        4.8454387203  MEMB      47              0.0000000000
      5086        47  SAPS      H10X          -15.7375063966      -19.6849135518        5.4230607083  MEMB      47              0.0000000000
      5087        47  SAPS      H10Y          -16.5346146872      -18.1326749218        5.2401729231  MEMB      47              0.0000000000
      5088        47  SAPS      C311          -16.3003735725      -19.1166472361        3.3235162113  MEMB      47              0.0000000000
      5089        47  SAPS      H11X          -15.2832873099      -18.7044040858        3.1505658293  MEMB      47              0.0000000000
      5090        47  SAPS      H11Y          -17.1610050283      -18.5421670176        2.9190330312  MEMB      47              0.0000000000
      5091        47  SAPS      C312          -16.1639661581      -20.4442418673        2.5000073469  MEMB      47              0.0000000000
      5092        47  SAPS      H12X          -17.1621969966      -20.9293172459        2.4494317950  MEMB      47              0.0000000000
      5093        47  SAPS      H12Y          -15.3647506537      -21.1018740518        2.9038579263  MEMB      47              0.0000000000
      5094        47  SAPS      C313          -15.7765352344      -20.1849403271        1.0426306245  MEMB      47              0.0000000000
      5095        47  SAPS      H13X          -14.7370516680      -19.8032633617        0.9525300918  MEMB      47              0.0000000000
      5096        47  SAPS      H13Y          -16.5032565682      -19.4005132513        0.7411826170  MEMB      47              0.0000000000
      5097        47  SAPS      C314          -15.9194039076      -21.3587107535        0.0853040859  MEMB      47              0.0000000000
      5098        47  SAPS      H14X          -15.3336509370      -21.1804892214       -0.8417621664  MEMB      47              0.0000000000
      5099        47  SAPS      H14Y          -17.0005322694      -21.5073259901       -0.1230130923  MEMB      47              0.0000000000
      5100        47  SAPS      C315          -15.3465686459      -22.7001778315        0.7437847069  MEMB      47              0.0000000000
      5101        47  SAPS      H15X          -16.1328819958      -23.0787964406        1.4313029060  MEMB      47              0.0000000000
      5102        47  SAPS      H15Y          -14.4910278462      -22.3110940745        1.3362245769  MEMB      47              0.0000000000
      5103        47  SAPS      C316          -14.9544936782      -23.9059001925       -0.1252832868  MEMB      47              0.0000000000
      5104        47  SAPS      H16X          -14.5666730325      -24.7131252587        0.5322153113  MEMB      47              0.0000000000
      5105        47  SAPS      H16Y          -14.1476869291      -23.6358606499       -0.8397499281  MEMB      47              0.0000000000
      5106        47  SAPS      C317          -16.1766279860      -24.4651816194       -0.7892786985  MEMB      47              0.0000000000
      5107        47  SAPS      H17X          -15.9028019926      -24.1744701648       -1.8260162778  MEMB      47              0.0000000000
      5108        47  SAPS      H17Y          -17.0483695470      -23.8414958246       -0.4970379535  MEMB      47              0.0000000000
      5109        47  SAPS      C318          -16.3835638042      -26.0010684687       -0.6090288276  MEMB      47              0.0000000000
      5110        47  SAPS      H18X          -16.5048988534      -26.1667294209        0.4828300959  MEMB      47              0.0000000000
      5111        47  SAPS      H18Y          -15.6099809697      -26.6530123054       -1.0682236728  MEMB      47              0.0000000000
      5112        47  SAPS      H18Z          -17.3103734147      -26.3573764543       -1.1074150957  MEMB      47              0.0000000000
      5113        48  SAPE      N             -26.0840767045       -9.9346762836       22.4471087126  MEMB      48              0.0000000000
      5114        48  SAPE      HN1           -25.1364949853       -9.8321160226       22.8632458687  MEMB      48              0.0000000000
      5115        48  SAPE      HN2           -26.7789224488       -9.4064293688       23.0125683940  MEMB      48              0.0000000000
      5116        48  SAPE      HN3           -26.4413003578      -10.9107860920       22.4124555468  MEMB      48              0.0000000000
      5117        48  SAPE      C12           -25.9408130011       -9.3849372524       21.0301002236  MEMB      48              0.0000000000
      5118        48  SAPE      H12A          -24.9764537885       -9.7778678108       20.6428820277  MEMB      48              0.0000000000
      5119        48  SAPE      H12B          -25.9800883334       -8.2747275729       21.0155121643  MEMB      48              0.0000000000
      5120        48  SAPE      C11           -27.0584778687       -9.8237207036       20.0178660198  MEMB      48              0.0000000000
      5121        48  SAPE      H11A          -26.7565368724       -9.5630673142       18.9809415409  MEMB      48              0.0000000000
      5122        48  SAPE      H11B          -27.9527655638       -9.2026205915       20.2387845549  MEMB      48              0.0000000000
      5123        48  SAPE      P             -26.6164101290      -12.3168870164       19.2585455752  MEMB      48              0.0000000000
      5124        48  SAPE      O13           -26.8202325441      -13.6686023489       19.9543221997  MEMB      48              0.0000000000
      5125        48  SAPE      O14           -27.0817149285      -12.1465499566       17.9098019887  MEMB      48              0.0000000000
      5126        48  SAPE      O12           -27.2769827835      -11.2025896411       20.1369471358  MEMB      48              0.0000000000
      5127        48  SAPE      O11           -25.0347504637      -11.9262103809       19.2453081322  MEMB      48              0.0000000000
      5128        48  SAPE      C1            -24.1097630397      -13.0390571600       19.0533336196  MEMB      48              0.0000000000
      5129        48  SAPE      HA            -23.8542864258      -13.4913583902       20.0354111762  MEMB      48              0.0000000000
      5130        48  SAPE      HB            -24.4987117881      -13.8803298697       18.4407162321  MEMB      48              0.0000000000
      5131        48  SAPE      C2            -22.9289698870      -12.4993558240       18.2534266436  MEMB      48              0.0000000000
      5132        48  SAPE      HS            -22.3320944420      -11.8227260765       18.9016802997  MEMB      48              0.0000000000
      5133        48  SAPE      O21           -23.4827318869      -11.7487877537       17.1242638188  MEMB      48              0.0000000000
      5134        48  SAPE      C21           -23.1388755588      -10.5481481533       17.0288863112  MEMB      48              0.0000000000
      5135        48  SAPE      O22           -22.3401186742       -9.8778875073       17.7400401244  MEMB      48              0.0000000000
      5136        48  SAPE      C22           -23.9126355132      -10.0824422707       15.7595263108  MEMB      48              0.0000000000
      5137        48  SAPE      H2R           -24.3991895776      -10.9323483790       15.2348873505  MEMB      48              0.0000000000
      5138        48  SAPE      H2S           -24.7185109108       -9.4344914122       16.1657840039  MEMB      48              0.0000000000
      5139        48  SAPE      C3            -21.9475053555      -13.5112032114       17.6995306626  MEMB      48              0.0000000000
      5140        48  SAPE      HX            -21.8800671614      -14.2152449699       18.5563263089  MEMB      48              0.0000000000
      5141        48  SAPE      HY            -20.9236693529      -13.1066444956       17.5498212993  MEMB      48              0.0000000000
      5142        48  SAPE      O31           -22.4764712798      -14.1679921035       16.5730835236  MEMB      48              0.0000000000
      5143        48  SAPE      C31           -21.8545406016      -14.1188082278       15.3866018982  MEMB      48              0.0000000000
      5144        48  SAPE      O32           -20.7826433895      -13.6798469695       15.1501198576  MEMB      48              0.0000000000
      5145        48  SAPE      C32           -22.8381460615      -14.7977309517       14.4507112765  MEMB      48              0.0000000000
      5146        48  SAPE      H2X           -23.4541383536      -15.6126097255       14.8875712552  MEMB      48              0.0000000000
      5147        48  SAPE      H2Y           -22.3271423632      -15.1637510234       13.5346184379  MEMB      48              0.0000000000
      5148        48  SAPE      C23           -22.9980186601       -9.3308869892       14.7709214088  MEMB      48              0.0000000000
      5149        48  SAPE      H3R           -22.0918730507       -9.9557933388       14.6202130875  MEMB      48              0.0000000000
      5150        48  SAPE      H3S           -22.6586229594       -8.4222001246       15.3126041140  MEMB      48              0.0000000000
      5151        48  SAPE      C24           -23.5506616511       -9.0562292928       13.3880700601  MEMB      48              0.0000000000
      5152        48  SAPE      H4R           -23.6246834301      -10.0328580544       12.8636297138  MEMB      48              0.0000000000
      5153        48  SAPE      H4S           -22.8138312571       -8.4718450927       12.7965494807  MEMB      48              0.0000000000
      5154        48  SAPE      C25           -24.7889631609       -8.3283032714       13.6165182367  MEMB      48              0.0000000000
      5155        48  SAPE      H5R           -24.8084412988       -7.5210760373       14.3635156674  MEMB      48              0.0000000000
      5156        48  SAPE      C26           -25.9942793009       -8.6218290577       12.9617094582  MEMB      48              0.0000000000
      5157        48  SAPE      H6R           -26.8282427305       -7.9446440895       13.1981950504  MEMB      48              0.0000000000
      5158        48  SAPE      C27           -26.3330169779       -9.7157331390       11.9650039420  MEMB      48              0.0000000000
      5159        48  SAPE      H7R           -27.4198980987       -9.9376913541       12.0262011528  MEMB      48              0.0000000000
      5160        48  SAPE      H7S           -25.8080541143      -10.6373986728       12.2955603087  MEMB      48              0.0000000000
      5161        48  SAPE      C28           -25.9069402489       -9.4647132734       10.5313064911  MEMB      48              0.0000000000
      5162        48  SAPE      H8R           -26.3628494117       -8.5914036089       10.0419431774  MEMB      48              0.0000000000
      5163        48  SAPE      C29           -25.0139409901      -10.1611739258        9.8334836566  MEMB      48              0.0000000000
      5164        48  SAPE      H9R           -24.7023750094       -9.7392038417        8.8665983083  MEMB      48              0.0000000000
      5165        48  SAPE      C210          -24.1588349589      -11.3897809028       10.2533736533  MEMB      48              0.0000000000
      5166        48  SAPE      H10R          -24.5918813946      -12.2524760105        9.7033289763  MEMB      48              0.0000000000
      5167        48  SAPE      H10S          -24.1513022594      -11.5574246329       11.3516262887  MEMB      48              0.0000000000
      5168        48  SAPE      C211          -22.7650050787      -11.1260349564        9.7541274932  MEMB      48              0.0000000000
      5169        48  SAPE      H11R          -22.1288850685      -10.7461019945       10.5671478808  MEMB      48              0.0000000000
      5170        48  SAPE      C212          -22.1580236169      -11.4612644260        8.5704178858  MEMB      48              0.0000000000
      5171        48  SAPE      H12R          -21.1602633218      -11.0331693140        8.3937563038  MEMB      48              0.0000000000
      5172        48  SAPE      C213          -22.6920693220      -12.2285437717        7.3276734898  MEMB      48              0.0000000000
      5173        48  SAPE      H13R          -22.8881428465      -11.3916664891        6.6237470724  MEMB      48              0.0000000000
      5174        48  SAPE      H13S          -23.6441776348      -12.7589576171        7.5432476184  MEMB      48              0.0000000000
      5175        48  SAPE      C214          -21.7886547833      -13.2455075960        6.6834034587  MEMB      48              0.0000000000
      5176        48  SAPE      H14R          -20.7819682578      -13.2852377586        7.1249958304  MEMB      48              0.0000000000
      5177        48  SAPE      C215          -22.1622044354      -14.1932268524        5.7268792684  MEMB      48              0.0000000000
      5178        48  SAPE      H15R          -21.3984979375      -14.9469236418        5.4846126220  MEMB      48              0.0000000000
      5179        48  SAPE      C216          -23.5747041893      -14.3725647779        5.2581810377  MEMB      48              0.0000000000
      5180        48  SAPE      H16R          -24.3482163045      -13.8041932159        5.8176038706  MEMB      48              0.0000000000
      5181        48  SAPE      H16S          -23.9139133528      -15.4245934758        5.3699541668  MEMB      48              0.0000000000
      5182        48  SAPE      C217          -23.5809781361      -13.8341400380        3.8420946665  MEMB      48              0.0000000000
      5183        48  SAPE      H17R          -23.4237153520      -12.7343264921        3.8420932654  MEMB      48              0.0000000000
      5184        48  SAPE      H17S          -24.6495564845      -13.9573511115        3.5641011161  MEMB      48              0.0000000000
      5185        48  SAPE      C218          -22.7086444423      -14.5020359558        2.7943687943  MEMB      48              0.0000000000
      5186        48  SAPE      H18R          -22.9041260073      -15.5938821044        2.8574542162  MEMB      48              0.0000000000
      5187        48  SAPE      H18S          -21.6817874591      -14.2537442158        3.1382248149  MEMB      48              0.0000000000
      5188        48  SAPE      C219          -22.8975400326      -13.9446935419        1.3130091144  MEMB      48              0.0000000000
      5189        48  SAPE      H19R          -23.9861004254      -13.8710328361        1.1034106840  MEMB      48              0.0000000000
      5190        48  SAPE      H19S          -22.3989252775      -14.7352064373        0.7123471958  MEMB      48              0.0000000000
      5191        48  SAPE      C220          -22.2149479999      -12.5715166301        1.0614086086  MEMB      48              0.0000000000
      5192        48  SAPE      H20R          -21.1206952091      -12.6022612078        1.2511098790  MEMB      48              0.0000000000
      5193        48  SAPE      H20S          -22.6651290322      -11.7840205082        1.7028984348  MEMB      48              0.0000000000
      5194        48  SAPE      H20T          -22.3140695258      -12.2897597931       -0.0086890863  MEMB      48              0.0000000000
      5195        48  SAPE      C33           -23.7815712646      -13.7208880741       13.7922668677  MEMB      48              0.0000000000
      5196        48  SAPE      H3X           -23.1503492719      -12.9326621531       13.3290393871  MEMB      48              0.0000000000
      5197        48  SAPE      H3Y           -24.3377771425      -13.2053464559       14.6041618813  MEMB      48              0.0000000000
      5198        48  SAPE      C34           -24.7767964767      -14.2679553256       12.7772637401  MEMB      48              0.0000000000
      5199        48  SAPE      H4X           -24.2344890831      -14.9091575683       12.0498823294  MEMB      48              0.0000000000
      5200        48  SAPE      H4Y           -25.0949874991      -13.3927604764       12.1713676448  MEMB      48              0.0000000000
      5201        48  SAPE      C35           -25.9529330726      -15.0314453128       13.2015778582  MEMB      48              0.0000000000
      5202        48  SAPE      H5X           -26.5497051780      -14.2064782194       13.6461151158  MEMB      48              0.0000000000
      5203        48  SAPE      H5Y           -25.7938079094      -15.8618659031       13.9222733300  MEMB      48              0.0000000000
      5204        48  SAPE      C36           -26.6307685035      -15.7091641894       12.0035709752  MEMB      48              0.0000000000
      5205        48  SAPE      H6X           -27.4532589204      -16.3709594704       12.3497753792  MEMB      48              0.0000000000
      5206        48  SAPE      H6Y           -25.9562066906      -16.4996593647       11.6106269619  MEMB      48              0.0000000000
      5207        48  SAPE      C37           -26.9786598158      -14.7973070768       10.8697415405  MEMB      48              0.0000000000
      5208        48  SAPE      H7X           -27.2097406633      -15.4357929034        9.9903903469  MEMB      48              0.0000000000
      5209        48  SAPE      H7Y           -26.0191247742      -14.3265571746       10.5664127964  MEMB      48              0.0000000000
      5210        48  SAPE      C38           -27.9759389664      -13.6564702898       11.1600924267  MEMB      48              0.0000000000
      5211        48  SAPE      H8X           -27.4045974539      -12.7998929273       11.5774232978  MEMB      48              0.0000000000
      5212        48  SAPE      H8Y           -28.6518491295      -13.9814840278       11.9797456135  MEMB      48              0.0000000000
      5213        48  SAPE      C39           -28.7488738831      -13.1538665428        9.9062349764  MEMB      48              0.0000000000
      5214        48  SAPE      H9X           -29.6433283279      -12.6207606503       10.2936245549  MEMB      48              0.0000000000
      5215        48  SAPE      H9Y           -29.1360830618      -14.0376402646        9.3554780215  MEMB      48              0.0000000000
      5216        48  SAPE      C310          -27.9093761576      -12.2565139866        9.0360348135  MEMB      48              0.0000000000
      5217        48  SAPE      H10X          -26.9263100242      -12.7125297845        8.7911853041  MEMB      48              0.0000000000
      5218        48  SAPE      H10Y          -27.7761653459      -11.4314475478        9.7680461399  MEMB      48              0.0000000000
      5219        48  SAPE      C311          -28.6139488738      -11.7742385648        7.7925726541  MEMB      48              0.0000000000
      5220        48  SAPE      H11X          -29.6888221675      -11.8326624375        8.0674452384  MEMB      48              0.0000000000
      5221        48  SAPE      H11Y          -28.2970906884      -12.4307132434        6.9541437899  MEMB      48              0.0000000000
      5222        48  SAPE      C312          -28.2144548385      -10.3091810567        7.3869033899  MEMB      48              0.0000000000
      5223        48  SAPE      H12X          -28.1623792796       -9.6819448323        8.3024275173  MEMB      48              0.0000000000
      5224        48  SAPE      H12Y          -28.9199687217       -9.9496532303        6.6076023865  MEMB      48              0.0000000000
      5225        48  SAPE      C313          -26.7834548183      -10.2391583213        6.7736072834  MEMB      48              0.0000000000
      5226        48  SAPE      H13X          -26.6685855629      -10.8698111944        5.8661917917  MEMB      48              0.0000000000
      5227        48  SAPE      H13Y          -25.9226858395      -10.4728360500        7.4360216786  MEMB      48              0.0000000000
      5228        48  SAPE      C314          -26.4608838580       -8.8030860567        6.3501416381  MEMB      48              0.0000000000
      5229        48  SAPE      H14X          -26.3515734123       -8.2881840815        7.3285322848  MEMB      48              0.0000000000
      5230        48  SAPE      H14Y          -27.2464141709       -8.3454126281        5.7115507739  MEMB      48              0.0000000000
      5231        48  SAPE      C315          -25.0334165918       -8.5267744850        5.6805550071  MEMB      48              0.0000000000
      5232        48  SAPE      H15X          -24.2481306097       -8.8277515232        6.4065437197  MEMB      48              0.0000000000
      5233        48  SAPE      H15Y          -24.9691428608       -7.4510535811        5.4103427950  MEMB      48              0.0000000000
      5234        48  SAPE      C316          -24.8593463257       -9.3655514736        4.4247868002  MEMB      48              0.0000000000
      5235        48  SAPE      H16X          -25.6744396224       -9.2763320322        3.6751310749  MEMB      48              0.0000000000
      5236        48  SAPE      H16Y          -24.9178476861      -10.3939035664        4.8411887927  MEMB      48              0.0000000000
      5237        48  SAPE      C317          -23.5986084688       -9.0666883704        3.6453077683  MEMB      48              0.0000000000
      5238        48  SAPE      H17X          -23.3761974376       -9.9099898602        2.9570498798  MEMB      48              0.0000000000
      5239        48  SAPE      H17Y          -22.6989418208       -8.8418405745        4.2571599458  MEMB      48              0.0000000000
      5240        48  SAPE      C318          -23.8616499738       -7.7666902355        2.8441302132  MEMB      48              0.0000000000
      5241        48  SAPE      H18X          -24.7626314463       -7.9101179332        2.2101098484  MEMB      48              0.0000000000
      5242        48  SAPE      H18Y          -23.0785797309       -7.5397174528        2.0894068936  MEMB      48              0.0000000000
      5243        48  SAPE      H18Z          -24.0579195167       -6.8787517198        3.4823803305  MEMB      48              0.0000000000
      5244        49  CHL1      C3             25.8205700706       12.3600958610       17.3209950000  MEMB      49              0.0000000000
      5245        49  CHL1      H3             24.9232499041       11.7143692339       17.2106350000  MEMB      49              0.0000000000
      5246        49  CHL1      O3             26.1974453294       12.4710289390       18.6790050000  MEMB      49              0.0000000000
      5247        49  CHL1      H3'            25.5693021044       13.0546169968       19.1108150000  MEMB      49              0.0000000000
      5248        49  CHL1      C4             27.0820054188       11.9179871830       16.5902650000  MEMB      49              0.0000000000
      5249        49  CHL1      H4A            27.8275578762       12.7084504305       16.8218450000  MEMB      49              0.0000000000
      5250        49  CHL1      H4B            27.4477157470       10.9356365347       16.9584650000  MEMB      49              0.0000000000
      5251        49  CHL1      C5             26.6775871665       11.7387694594       15.1391850000  MEMB      49              0.0000000000
      5252        49  CHL1      C6             26.8222817976       10.5816897485       14.4766750000  MEMB      49              0.0000000000
      5253        49  CHL1      H6             27.2167638812        9.7079025111       15.0160050000  MEMB      49              0.0000000000
      5254        49  CHL1      C7             26.5376280136       10.3924535843       13.0594850000  MEMB      49              0.0000000000
      5255        49  CHL1      H7A            27.4093050186        9.7911415067       12.7234450000  MEMB      49              0.0000000000
      5256        49  CHL1      H7B            25.5747545466        9.8563784560       12.9186750000  MEMB      49              0.0000000000
      5257        49  CHL1      C8             26.4490322592       11.6963551398       12.2794550000  MEMB      49              0.0000000000
      5258        49  CHL1      H8             27.4996755576       12.0506447304       12.2091050000  MEMB      49              0.0000000000
      5259        49  CHL1      C14            25.8242291138       11.5083614165       10.9153150000  MEMB      49              0.0000000000
      5260        49  CHL1      H14            24.7839706033       11.1548725000       11.0803750000  MEMB      49              0.0000000000
      5261        49  CHL1      C15            26.5318941612       10.4653074890       10.0648350000  MEMB      49              0.0000000000
      5262        49  CHL1      H15A           27.6042591487       10.6595673986       10.2807450000  MEMB      49              0.0000000000
      5263        49  CHL1      H15B           26.0827122496        9.5453917424       10.4964650000  MEMB      49              0.0000000000
      5264        49  CHL1      C16            26.1201528057       10.8129707095        8.6186350000  MEMB      49              0.0000000000
      5265        49  CHL1      H16A           27.0305251330       10.8765146864        7.9849850000  MEMB      49              0.0000000000
      5266        49  CHL1      H16B           25.5009794510        9.9519273386        8.2876750000  MEMB      49              0.0000000000
      5267        49  CHL1      C17            25.2363203800       12.0970421077        8.6290950000  MEMB      49              0.0000000000
      5268        49  CHL1      H17            24.1494941045       11.8688283242        8.5966450000  MEMB      49              0.0000000000
      5269        49  CHL1      C13            25.6846026363       12.7180947533       10.0538050000  MEMB      49              0.0000000000
      5270        49  CHL1      C18            27.0676827068       13.2983696654        9.9795850000  MEMB      49              0.0000000000
      5271        49  CHL1      H18A           26.9750791173       14.2115766214        9.3536450000  MEMB      49              0.0000000000
      5272        49  CHL1      H18B           27.4734495379       13.6834115504       10.9394950000  MEMB      49              0.0000000000
      5273        49  CHL1      H18C           27.9128239825       12.6968054523        9.5818850000  MEMB      49              0.0000000000
      5274        49  CHL1      C12            24.6964365746       13.6980424310       10.7968550000  MEMB      49              0.0000000000
      5275        49  CHL1      H12A           24.5084862534       14.6387324645       10.2364250000  MEMB      49              0.0000000000
      5276        49  CHL1      H12B           23.6813830483       13.2582533489       10.8997050000  MEMB      49              0.0000000000
      5277        49  CHL1      C11            25.2960162856       14.0047351448       12.1410050000  MEMB      49              0.0000000000
      5278        49  CHL1      H11A           26.1335831060       14.7330725620       12.0925450000  MEMB      49              0.0000000000
      5279        49  CHL1      H11B           24.5038313602       14.5765206162       12.6699850000  MEMB      49              0.0000000000
      5280        49  CHL1      C9             25.6843600538       12.7652206236       13.0255650000  MEMB      49              0.0000000000
      5281        49  CHL1      H9             24.6865666325       12.3040974826       13.1871150000  MEMB      49              0.0000000000
      5282        49  CHL1      C10            26.2270974861       13.0189732150       14.3948050000  MEMB      49              0.0000000000
      5283        49  CHL1      C19            27.3796099686       13.9321754433       14.3741250000  MEMB      49              0.0000000000
      5284        49  CHL1      H19A           27.2171088645       14.8511516230       13.7712950000  MEMB      49              0.0000000000
      5285        49  CHL1      H19B           27.8392578190       14.2271913728       15.3416050000  MEMB      49              0.0000000000
      5286        49  CHL1      H19C           28.3096743824       13.4464905983       14.0088450000  MEMB      49              0.0000000000
      5287        49  CHL1      C1             25.0718330982       13.6960715970       15.2257050000  MEMB      49              0.0000000000
      5288        49  CHL1      H1A            24.9651058650       14.7246129122       14.8194650000  MEMB      49              0.0000000000
      5289        49  CHL1      H1B            24.1055483610       13.1906325478       15.0132550000  MEMB      49              0.0000000000
      5290        49  CHL1      C2             25.3889346413       13.7824009882       16.7493850000  MEMB      49              0.0000000000
      5291        49  CHL1      H2A            24.4850647696       14.1549396033       17.2771750000  MEMB      49              0.0000000000
      5292        49  CHL1      H2B            26.2215540490       14.4852461790       16.9663150000  MEMB      49              0.0000000000
      5293        49  CHL1      C20            25.6422742498       12.9136729550        7.3480650000  MEMB      49              0.0000000000
      5294        49  CHL1      H20            26.7463701004       13.0265913080        7.3985550000  MEMB      49              0.0000000000
      5295        49  CHL1      C21            25.1374912709       14.3524794154        7.4032850000  MEMB      49              0.0000000000
      5296        49  CHL1      H21A           25.3815327444       14.9545716909        6.5020350000  MEMB      49              0.0000000000
      5297        49  CHL1      H21B           25.5057196391       14.9172302006        8.2863350000  MEMB      49              0.0000000000
      5298        49  CHL1      H21C           24.0293309597       14.4217227492        7.3644150000  MEMB      49              0.0000000000
      5299        49  CHL1      C22            25.2445987818       12.1144461320        6.0297450000  MEMB      49              0.0000000000
      5300        49  CHL1      H22A           25.9309850092       12.4194242068        5.2110850000  MEMB      49              0.0000000000
      5301        49  CHL1      H22B           25.3987716039       11.0155358942        6.0840050000  MEMB      49              0.0000000000
      5302        49  CHL1      C23            23.8096873989       12.2845319727        5.6141650000  MEMB      49              0.0000000000
      5303        49  CHL1      H23A           23.2054007457       12.0374641329        6.5131150000  MEMB      49              0.0000000000
      5304        49  CHL1      H23B           23.6069093666       13.3600008425        5.4229050000  MEMB      49              0.0000000000
      5305        49  CHL1      C24            23.2516089149       11.3298847635        4.5512050000  MEMB      49              0.0000000000
      5306        49  CHL1      H24A           23.9704473206       11.3862202670        3.7059650000  MEMB      49              0.0000000000
      5307        49  CHL1      H24B           23.3025886580       10.2663507669        4.8684050000  MEMB      49              0.0000000000
      5308        49  CHL1      C25            21.7660835518       11.5399799519        4.1496650000  MEMB      49              0.0000000000
      5309        49  CHL1      H25            21.4375470152       12.6001087502        4.0994550000  MEMB      49              0.0000000000
      5310        49  CHL1      C26            21.4338004869       10.9240057690        2.7611850000  MEMB      49              0.0000000000
      5311        49  CHL1      H26A           21.7452835625        9.8595464666        2.8263250000  MEMB      49              0.0000000000
      5312        49  CHL1      H26B           20.3466161056       10.9075118766        2.5329850000  MEMB      49              0.0000000000
      5313        49  CHL1      H26C           21.9930790216       11.4334728098        1.9475750000  MEMB      49              0.0000000000
      5314        49  CHL1      C27            20.9261647899       10.8086690566        5.0948250000  MEMB      49              0.0000000000
      5315        49  CHL1      H27A           21.2605519548        9.7692942253        5.3002850000  MEMB      49              0.0000000000
      5316        49  CHL1      H27B           20.8484070146       11.4052839017        6.0288150000  MEMB      49              0.0000000000
      5317        49  CHL1      H27C           19.8573115019       10.7216625674        4.8044650000  MEMB      49              0.0000000000
      5318        50  CHL1      C3            -27.3139815818       10.7462884832       17.3222600000  MEMB      50              0.0000000000
      5319        50  CHL1      H3            -27.7284039758       11.7759092636       17.2726900000  MEMB      50              0.0000000000
      5320        50  CHL1      O3            -26.9312696182       10.6521091168       18.6777400000  MEMB      50              0.0000000000
      5321        50  CHL1      H3'           -26.2281610105       11.3053380300       18.6550300000  MEMB      50              0.0000000000
      5322        50  CHL1      C4            -28.4068537486        9.7737234334       16.9167400000  MEMB      50              0.0000000000
      5323        50  CHL1      H4A           -27.9573417868        8.7850140235       17.1506600000  MEMB      50              0.0000000000
      5324        50  CHL1      H4B           -29.2265011584        9.9679507198       17.6411500000  MEMB      50              0.0000000000
      5325        50  CHL1      C5            -28.7899751638        9.8097432396       15.4476700000  MEMB      50              0.0000000000
      5326        50  CHL1      C6            -30.0250842818       10.0174594101       15.0227000000  MEMB      50              0.0000000000
      5327        50  CHL1      H6            -30.8798469966       10.1845372239       15.6946100000  MEMB      50              0.0000000000
      5328        50  CHL1      C7            -30.3967818028       10.1563740652       13.5678500000  MEMB      50              0.0000000000
      5329        50  CHL1      H7A           -31.3862401028        9.7324921963       13.2928900000  MEMB      50              0.0000000000
      5330        50  CHL1      H7B           -30.3815316846       11.1949467357       13.1735800000  MEMB      50              0.0000000000
      5331        50  CHL1      C8            -29.3052112178        9.6433286240       12.5384500000  MEMB      50              0.0000000000
      5332        50  CHL1      H8            -29.3177367007        8.5324929362       12.5526100000  MEMB      50              0.0000000000
      5333        50  CHL1      C14           -29.6013372729        9.9899106151       11.0774300000  MEMB      50              0.0000000000
      5334        50  CHL1      H14           -29.6334195429       11.0940769044       10.9586000000  MEMB      50              0.0000000000
      5335        50  CHL1      C15           -30.9008770116        9.4864532366       10.4980700000  MEMB      50              0.0000000000
      5336        50  CHL1      H15A          -31.2173101449        8.4645274246       10.7978400000  MEMB      50              0.0000000000
      5337        50  CHL1      H15B          -31.6460803875       10.1604553380       10.9721100000  MEMB      50              0.0000000000
      5338        50  CHL1      C16           -30.6772157421        9.6502007389        8.9770300000  MEMB      50              0.0000000000
      5339        50  CHL1      H16A          -30.8983490874        8.6797930064        8.4833400000  MEMB      50              0.0000000000
      5340        50  CHL1      H16B          -31.3139779499       10.5081812257        8.6725300000  MEMB      50              0.0000000000
      5341        50  CHL1      C17           -29.1787630215       10.0270178882        8.7630000000  MEMB      50              0.0000000000
      5342        50  CHL1      H17           -29.1203804202       11.1338986446        8.8387700000  MEMB      50              0.0000000000
      5343        50  CHL1      C13           -28.4905757356        9.4856489858       10.0270000000  MEMB      50              0.0000000000
      5344        50  CHL1      C18           -28.2532912453        7.9518788193        9.9608100000  MEMB      50              0.0000000000
      5345        50  CHL1      H18A          -27.9966085809        7.7152820883       11.0155400000  MEMB      50              0.0000000000
      5346        50  CHL1      H18B          -29.1845170418        7.4287993797        9.6549900000  MEMB      50              0.0000000000
      5347        50  CHL1      H18C          -27.5014882150        7.6136826760        9.2160000000  MEMB      50              0.0000000000
      5348        50  CHL1      C12           -27.1520283202       10.1994328573       10.4492600000  MEMB      50              0.0000000000
      5349        50  CHL1      H12A          -26.2787428904        9.7623919130        9.9194700000  MEMB      50              0.0000000000
      5350        50  CHL1      H12B          -27.1840703443       11.3091607004       10.4069400000  MEMB      50              0.0000000000
      5351        50  CHL1      C11           -26.7604063710        9.8831160014       11.8864600000  MEMB      50              0.0000000000
      5352        50  CHL1      H11A          -26.5269663307        8.7971022227       11.9066100000  MEMB      50              0.0000000000
      5353        50  CHL1      H11B          -25.8315902235       10.4173793621       12.1800500000  MEMB      50              0.0000000000
      5354        50  CHL1      C9            -27.8681504498       10.2077138204       12.9926500000  MEMB      50              0.0000000000
      5355        50  CHL1      H9            -28.1013879546       11.2906319442       12.9077500000  MEMB      50              0.0000000000
      5356        50  CHL1      C10           -27.5690742359        9.8235992906       14.4693900000  MEMB      50              0.0000000000
      5357        50  CHL1      C19           -27.0552872050        8.3368709943       14.4188000000  MEMB      50              0.0000000000
      5358        50  CHL1      H19A          -26.7444917240        8.0059999212       15.4328300000  MEMB      50              0.0000000000
      5359        50  CHL1      H19B          -27.7719419046        7.6776832563       13.8838100000  MEMB      50              0.0000000000
      5360        50  CHL1      H19C          -26.1258860887        8.3127387744       13.8105700000  MEMB      50              0.0000000000
      5361        50  CHL1      C1            -26.4720721031       10.7697524381       14.9586300000  MEMB      50              0.0000000000
      5362        50  CHL1      H1A           -25.5740562359       10.6941927066       14.3088700000  MEMB      50              0.0000000000
      5363        50  CHL1      H1B           -26.8222012387       11.8159068996       14.8271600000  MEMB      50              0.0000000000
      5364        50  CHL1      C2            -26.0465895110       10.6013954475       16.4258600000  MEMB      50              0.0000000000
      5365        50  CHL1      H2A           -25.2639192182       11.3585748911       16.6459300000  MEMB      50              0.0000000000
      5366        50  CHL1      H2B           -25.6113717670        9.6004845525       16.6334500000  MEMB      50              0.0000000000
      5367        50  CHL1      C20           -28.6574562732        9.8682319577        7.3694900000  MEMB      50              0.0000000000
      5368        50  CHL1      H20           -28.4931474965        8.7745095875        7.2641900000  MEMB      50              0.0000000000
      5369        50  CHL1      C21           -27.2793900277       10.5439150606        7.1659000000  MEMB      50              0.0000000000
      5370        50  CHL1      H21A          -27.2061605301       11.5520607240        7.6270000000  MEMB      50              0.0000000000
      5371        50  CHL1      H21B          -27.0494658510       10.5769536662        6.0794600000  MEMB      50              0.0000000000
      5372        50  CHL1      H21C          -26.3933669191        9.9986715948        7.5557800000  MEMB      50              0.0000000000
      5373        50  CHL1      C22           -29.5843314765       10.2854222932        6.2368100000  MEMB      50              0.0000000000
      5374        50  CHL1      H22A          -30.5537851421        9.8011206892        6.4816300000  MEMB      50              0.0000000000
      5375        50  CHL1      H22B          -29.7297193413       11.3865284830        6.2641100000  MEMB      50              0.0000000000
      5376        50  CHL1      C23           -29.1975958026        9.7386156494        4.8407800000  MEMB      50              0.0000000000
      5377        50  CHL1      H23A          -28.4463713032       10.3725536459        4.3229800000  MEMB      50              0.0000000000
      5378        50  CHL1      H23B          -28.8757962955        8.6825905925        4.9655400000  MEMB      50              0.0000000000
      5379        50  CHL1      C24           -30.3483851710        9.6922645953        3.8244300000  MEMB      50              0.0000000000
      5380        50  CHL1      H24A          -31.1379155163        8.9342514978        4.0151600000  MEMB      50              0.0000000000
      5381        50  CHL1      H24B          -30.8242241208       10.6958833378        3.8499600000  MEMB      50              0.0000000000
      5382        50  CHL1      C25           -29.8938682197        9.3792384080        2.4264500000  MEMB      50              0.0000000000
      5383        50  CHL1      H25           -29.1910257997        8.5221810514        2.3505000000  MEMB      50              0.0000000000
      5384        50  CHL1      C26           -31.0321155407        9.1337684900        1.3819200000  MEMB      50              0.0000000000
      5385        50  CHL1      H26A          -30.5891302445        8.8340872429        0.4081200000  MEMB      50              0.0000000000
      5386        50  CHL1      H26B          -31.5926979953        8.2600544114        1.7777700000  MEMB      50              0.0000000000
      5387        50  CHL1      H26C          -31.7207997622       10.0055250103        1.3909100000  MEMB      50              0.0000000000
      5388        50  CHL1      C27           -29.0594653593       10.5015217523        1.7705000000  MEMB      50              0.0000000000
      5389        50  CHL1      H27A          -28.2161684257       10.8513018300        2.4036100000  MEMB      50              0.0000000000
      5390        50  CHL1      H27B          -28.6517964347       10.1372029643        0.8033500000  MEMB      50              0.0000000000
      5391        50  CHL1      H27C          -29.6891302552       11.3662130188        1.4702300000  MEMB      50              0.0000000000
      5392        51  SAPC      N             -29.9515957795        1.7302072579       18.5721962489  MEMB      51              0.0000000000
      5393        51  SAPC      C12           -29.0396873773        3.0309912904       18.5735507954  MEMB      51              0.0000000000
      5394        51  SAPC      H12A          -29.4377481347        3.4625665687       17.6670793966  MEMB      51              0.0000000000
      5395        51  SAPC      H12B          -28.0268562416        2.7068129169       18.3851855167  MEMB      51              0.0000000000
      5396        51  SAPC      C13           -31.3879726696        2.0885449814       18.8745234841  MEMB      51              0.0000000000
      5397        51  SAPC      H13A          -31.3293252785        2.5642097116       19.8423579945  MEMB      51              0.0000000000
      5398        51  SAPC      H13B          -31.7671437818        2.8271072274       18.1837592301  MEMB      51              0.0000000000
      5399        51  SAPC      H13C          -31.9190584158        1.1484193253       18.8519059654  MEMB      51              0.0000000000
      5400        51  SAPC      C14           -29.8992235543        1.0920542911       17.2082358037  MEMB      51              0.0000000000
      5401        51  SAPC      H14A          -28.8685922768        1.1212787677       16.8867624867  MEMB      51              0.0000000000
      5402        51  SAPC      H14B          -30.3527800148        0.1314295041       17.4028804314  MEMB      51              0.0000000000
      5403        51  SAPC      H14C          -30.5522172840        1.6113907056       16.5224594539  MEMB      51              0.0000000000
      5404        51  SAPC      C15           -29.4620422505        0.7913855136       19.5588708748  MEMB      51              0.0000000000
      5405        51  SAPC      H15A          -28.4888928220        0.3670299568       19.3606224791  MEMB      51              0.0000000000
      5406        51  SAPC      H15B          -29.5788394007        1.3065051152       20.5008954295  MEMB      51              0.0000000000
      5407        51  SAPC      H15C          -30.1472017744       -0.0434528549       19.5600644888  MEMB      51              0.0000000000
      5408        51  SAPC      C11           -29.0528159343        4.0014575282       19.7835310071  MEMB      51              0.0000000000
      5409        51  SAPC      H11A          -30.0217090459        4.5123483905       19.9694273853  MEMB      51              0.0000000000
      5410        51  SAPC      H11B          -28.3971918440        4.8644989208       19.5393227213  MEMB      51              0.0000000000
      5411        51  SAPC      P             -27.1414175744        3.2749429629       21.5261730662  MEMB      51              0.0000000000
      5412        51  SAPC      O13           -26.9619553431        4.1520411122       22.7198647124  MEMB      51              0.0000000000
      5413        51  SAPC      O14           -26.7932762982        1.8088249396       21.7802708994  MEMB      51              0.0000000000
      5414        51  SAPC      O12           -28.7104074580        3.3826779450       20.9897544553  MEMB      51              0.0000000000
      5415        51  SAPC      O11           -26.1774627130        3.8969265941       20.4130287013  MEMB      51              0.0000000000
      5416        51  SAPC      C1            -25.8316703720        5.2317125447       20.4214374672  MEMB      51              0.0000000000
      5417        51  SAPC      HA            -26.6733998294        5.9055911780       20.6892061877  MEMB      51              0.0000000000
      5418        51  SAPC      HB            -24.9420001617        5.4905951534       21.0344526232  MEMB      51              0.0000000000
      5419        51  SAPC      C2            -25.4071739568        5.6004431012       18.9760596343  MEMB      51              0.0000000000
      5420        51  SAPC      HS            -25.2326888995        6.6975090362       18.9581087830  MEMB      51              0.0000000000
      5421        51  SAPC      O21           -26.5291925013        5.2813947829       18.1157836070  MEMB      51              0.0000000000
      5422        51  SAPC      C21           -26.7467149924        5.9814467600       16.9799786015  MEMB      51              0.0000000000
      5423        51  SAPC      O22           -26.0870267163        6.9789422295       16.6816005731  MEMB      51              0.0000000000
      5424        51  SAPC      C22           -27.8793600780        5.3183868454       16.1771232768  MEMB      51              0.0000000000
      5425        51  SAPC      H2R           -27.6671104525        4.2310336716       16.0938519434  MEMB      51              0.0000000000
      5426        51  SAPC      H2S           -28.7808089061        5.5302598650       16.7909804029  MEMB      51              0.0000000000
      5427        51  SAPC      C3            -24.1531458153        4.9753806263       18.4973968432  MEMB      51              0.0000000000
      5428        51  SAPC      HX            -23.4439235528        5.1126496803       19.3414834294  MEMB      51              0.0000000000
      5429        51  SAPC      HY            -23.9216541866        5.5167975168       17.5552713351  MEMB      51              0.0000000000
      5430        51  SAPC      O31           -24.3844622284        3.6204658251       18.4578720674  MEMB      51              0.0000000000
      5431        51  SAPC      C31           -24.5558038364        3.1316139154       17.2312735962  MEMB      51              0.0000000000
      5432        51  SAPC      O32           -24.5456798640        3.8051550575       16.1735999958  MEMB      51              0.0000000000
      5433        51  SAPC      C32           -25.1369832315        1.7451060264       17.2523488322  MEMB      51              0.0000000000
      5434        51  SAPC      H2X           -25.8972805363        1.5517558594       18.0390410725  MEMB      51              0.0000000000
      5435        51  SAPC      H2Y           -24.3209704666        1.0182246046       17.4525684434  MEMB      51              0.0000000000
      5436        51  SAPC      C23           -27.9937020662        5.9936677726       14.7992231376  MEMB      51              0.0000000000
      5437        51  SAPC      H3R           -27.2723805602        5.5307618600       14.0923041835  MEMB      51              0.0000000000
      5438        51  SAPC      H3S           -27.6925302241        7.0586912895       14.8958738281  MEMB      51              0.0000000000
      5439        51  SAPC      C24           -29.4088033715        5.9170631969       14.2121671187  MEMB      51              0.0000000000
      5440        51  SAPC      H4R           -29.4261174933        6.4280986406       13.2258284248  MEMB      51              0.0000000000
      5441        51  SAPC      H4S           -29.9738649023        6.5960632830       14.8859510630  MEMB      51              0.0000000000
      5442        51  SAPC      C25           -29.9993386517        4.5363172499       14.2118872391  MEMB      51              0.0000000000
      5443        51  SAPC      H5R           -29.9640744329        4.0158683853       15.1803345395  MEMB      51              0.0000000000
      5444        51  SAPC      C26           -30.3810682437        3.8930202371       13.1085491365  MEMB      51              0.0000000000
      5445        51  SAPC      H6R           -30.9962492530        2.9897636889       13.2337687057  MEMB      51              0.0000000000
      5446        51  SAPC      C27           -30.3378004427        4.3319863655       11.6512473329  MEMB      51              0.0000000000
      5447        51  SAPC      H7R           -30.2617331503        5.4288158272       11.4915604649  MEMB      51              0.0000000000
      5448        51  SAPC      H7S           -31.2806249889        4.0047896091       11.1630419842  MEMB      51              0.0000000000
      5449        51  SAPC      C28           -29.1590936813        3.7423252012       10.8700909120  MEMB      51              0.0000000000
      5450        51  SAPC      H8R           -28.8088896620        2.7401757586       11.1582815456  MEMB      51              0.0000000000
      5451        51  SAPC      C29           -28.3102636077        4.4236446093       10.0651734908  MEMB      51              0.0000000000
      5452        51  SAPC      H9R           -27.4655507063        3.9004060413        9.5932820030  MEMB      51              0.0000000000
      5453        51  SAPC      C210          -28.3125447487        5.8796035727        9.7602122570  MEMB      51              0.0000000000
      5454        51  SAPC      H10R          -29.3188919743        6.3147342639        9.9397874686  MEMB      51              0.0000000000
      5455        51  SAPC      H10S          -28.0708415718        6.2134873533        8.7285039192  MEMB      51              0.0000000000
      5456        51  SAPC      C211          -27.3867813944        6.6255184046       10.6612216904  MEMB      51              0.0000000000
      5457        51  SAPC      H11R          -27.9275671653        7.1760788956       11.4450803518  MEMB      51              0.0000000000
      5458        51  SAPC      C212          -26.0175618488        6.6194851174       10.6678844243  MEMB      51              0.0000000000
      5459        51  SAPC      H12R          -25.4945032423        7.2111626890       11.4336042353  MEMB      51              0.0000000000
      5460        51  SAPC      C213          -25.0609763571        5.9011400516        9.7655705346  MEMB      51              0.0000000000
      5461        51  SAPC      H13R          -25.5204856572        5.0335952432        9.2454374155  MEMB      51              0.0000000000
      5462        51  SAPC      H13S          -24.2421468362        5.5147292535       10.4094078488  MEMB      51              0.0000000000
      5463        51  SAPC      C214          -24.4795417139        6.7638973057        8.7504442057  MEMB      51              0.0000000000
      5464        51  SAPC      H14R          -23.7881029957        7.5237180156        9.1436176298  MEMB      51              0.0000000000
      5465        51  SAPC      C215          -24.6717925618        6.8109583885        7.4148170913  MEMB      51              0.0000000000
      5466        51  SAPC      H15R          -24.1387603561        7.6042795934        6.8702821395  MEMB      51              0.0000000000
      5467        51  SAPC      C216          -25.5203578085        5.9222489713        6.6166587054  MEMB      51              0.0000000000
      5468        51  SAPC      H16R          -25.9859919613        5.2105173923        7.3314620852  MEMB      51              0.0000000000
      5469        51  SAPC      H16S          -24.8503273189        5.3378428526        5.9504386459  MEMB      51              0.0000000000
      5470        51  SAPC      C217          -26.5752610897        6.7237081163        5.8703229238  MEMB      51              0.0000000000
      5471        51  SAPC      H17R          -26.1286111364        7.4850049705        5.1956001743  MEMB      51              0.0000000000
      5472        51  SAPC      H17S          -27.2547056355        7.2104988331        6.6022458578  MEMB      51              0.0000000000
      5473        51  SAPC      C218          -27.3897646111        5.8065582596        4.9893988145  MEMB      51              0.0000000000
      5474        51  SAPC      H18R          -28.2439446854        6.3830358411        4.5742226321  MEMB      51              0.0000000000
      5475        51  SAPC      H18S          -28.0370719782        5.0109388177        5.4163695648  MEMB      51              0.0000000000
      5476        51  SAPC      C219          -26.7832915646        5.2491062493        3.6901271855  MEMB      51              0.0000000000
      5477        51  SAPC      H19R          -27.4772767754        4.6467632260        3.0657183507  MEMB      51              0.0000000000
      5478        51  SAPC      H19S          -25.9633838068        4.5222138605        3.8737020440  MEMB      51              0.0000000000
      5479        51  SAPC      C220          -26.1466213192        6.2615397566        2.7451049840  MEMB      51              0.0000000000
      5480        51  SAPC      H20R          -26.0620633183        5.7952148050        1.7402610269  MEMB      51              0.0000000000
      5481        51  SAPC      H20S          -25.2289037348        6.7829271083        3.0919055081  MEMB      51              0.0000000000
      5482        51  SAPC      H20T          -26.8310552406        7.1365942585        2.7328251488  MEMB      51              0.0000000000
      5483        51  SAPC      C33           -25.7630771152        1.1320991749       15.9860205957  MEMB      51              0.0000000000
      5484        51  SAPC      H3X           -26.3577114920        1.9555300411       15.5358066786  MEMB      51              0.0000000000
      5485        51  SAPC      H3Y           -26.5525257856        0.3940748475       16.2437254469  MEMB      51              0.0000000000
      5486        51  SAPC      C34           -24.7141417979        0.6555420875       15.0362640530  MEMB      51              0.0000000000
      5487        51  SAPC      H4X           -24.1396237302       -0.0954723419       15.6195547628  MEMB      51              0.0000000000
      5488        51  SAPC      H4Y           -24.0192794835        1.4266732085       14.6402286834  MEMB      51              0.0000000000
      5489        51  SAPC      C35           -25.2685847993       -0.1890531548       13.8845198251  MEMB      51              0.0000000000
      5490        51  SAPC      H5X           -25.9543705013       -0.9302160079       14.3478736288  MEMB      51              0.0000000000
      5491        51  SAPC      H5Y           -24.4090529667       -0.6310057738       13.3366108169  MEMB      51              0.0000000000
      5492        51  SAPC      C36           -26.0771623079        0.5591074832       12.8765830932  MEMB      51              0.0000000000
      5493        51  SAPC      H6X           -26.4856984933        1.5631333392       13.1202040017  MEMB      51              0.0000000000
      5494        51  SAPC      H6Y           -26.9056846820       -0.0895872124       12.5201183437  MEMB      51              0.0000000000
      5495        51  SAPC      C37           -25.2222187370        0.8044539962       11.5574464945  MEMB      51              0.0000000000
      5496        51  SAPC      H7X           -24.8313021018       -0.0674190262       10.9905753190  MEMB      51              0.0000000000
      5497        51  SAPC      H7Y           -24.3043059496        1.4043538840       11.7359881471  MEMB      51              0.0000000000
      5498        51  SAPC      C38           -25.9298485857        1.8743451392       10.6285848453  MEMB      51              0.0000000000
      5499        51  SAPC      H8X           -25.7881861512        2.8286580471       11.1795297841  MEMB      51              0.0000000000
      5500        51  SAPC      H8Y           -27.0194772675        1.6574808902       10.6279644327  MEMB      51              0.0000000000
      5501        51  SAPC      C39           -25.2085144645        1.9744200215        9.2665674174  MEMB      51              0.0000000000
      5502        51  SAPC      H9X           -24.1148215022        2.1296330814        9.3851654926  MEMB      51              0.0000000000
      5503        51  SAPC      H9Y           -25.7786627646        2.8129518144        8.8125663499  MEMB      51              0.0000000000
      5504        51  SAPC      C310          -25.4677728799        0.7881417169        8.3651972219  MEMB      51              0.0000000000
      5505        51  SAPC      H10X          -26.5254152939        0.4622367474        8.4626629048  MEMB      51              0.0000000000
      5506        51  SAPC      H10Y          -24.8132802138       -0.0670943093        8.6382014859  MEMB      51              0.0000000000
      5507        51  SAPC      C311          -25.0853420985        1.1496465368        6.8665472607  MEMB      51              0.0000000000
      5508        51  SAPC      H11X          -25.2353664833        0.1976382589        6.3138326563  MEMB      51              0.0000000000
      5509        51  SAPC      H11Y          -24.0369753550        1.4888050779        6.7243510966  MEMB      51              0.0000000000
      5510        51  SAPC      C312          -26.0209490962        2.0591886163        6.0632763775  MEMB      51              0.0000000000
      5511        51  SAPC      H12X          -25.6798332320        2.0568179707        5.0059426891  MEMB      51              0.0000000000
      5512        51  SAPC      H12Y          -25.7550746128        3.0603045580        6.4650209306  MEMB      51              0.0000000000
      5513        51  SAPC      C313          -27.5035666434        2.0051466446        6.2819051499  MEMB      51              0.0000000000
      5514        51  SAPC      H13X          -27.9710584658        2.8793647316        5.7803927166  MEMB      51              0.0000000000
      5515        51  SAPC      H13Y          -27.6334878718        2.0614504315        7.3838449275  MEMB      51              0.0000000000
      5516        51  SAPC      C314          -28.2136068995        0.7256314903        5.7560946662  MEMB      51              0.0000000000
      5517        51  SAPC      H14X          -28.1862762996        0.1474167098        6.7043776006  MEMB      51              0.0000000000
      5518        51  SAPC      H14Y          -27.5404647465        0.1453779032        5.0893814158  MEMB      51              0.0000000000
      5519        51  SAPC      C315          -29.5563680953        0.9275113303        5.0759178778  MEMB      51              0.0000000000
      5520        51  SAPC      H15X          -30.2049774827        1.3718983927        5.8608685219  MEMB      51              0.0000000000
      5521        51  SAPC      H15Y          -29.9751043434       -0.0357146647        4.7137346093  MEMB      51              0.0000000000
      5522        51  SAPC      C316          -29.4439060460        1.9495887740        3.9303566795  MEMB      51              0.0000000000
      5523        51  SAPC      H16X          -28.4990724494        1.6708733671        3.4166160132  MEMB      51              0.0000000000
      5524        51  SAPC      H16Y          -29.3636883432        2.9658158702        4.3721351901  MEMB      51              0.0000000000
      5525        51  SAPC      C317          -30.5868607899        1.7984417764        2.8646355837  MEMB      51              0.0000000000
      5526        51  SAPC      H17X          -31.5920267482        1.8610336845        3.3337257152  MEMB      51              0.0000000000
      5527        51  SAPC      H17Y          -30.5552259449        0.7502263957        2.4978048520  MEMB      51              0.0000000000
      5528        51  SAPC      C318          -30.7136665802        2.7742560191        1.7090892927  MEMB      51              0.0000000000
      5529        51  SAPC      H18X          -31.5890122042        2.5090615015        1.0784051648  MEMB      51              0.0000000000
      5530        51  SAPC      H18Y          -29.7851449999        2.7355510004        1.1002625805  MEMB      51              0.0000000000
      5531        51  SAPC      H18Z          -30.7778746444        3.7453855406        2.2449118637  MEMB      51              0.0000000000
      5532        52  POPC      N              -5.3863345251       29.6888561705       18.2395608640  MEMB      52              0.0000000000
      5533        52  POPC      C12            -6.2092132715       28.4304046782       18.1038523623  MEMB      52              0.0000000000
      5534        52  POPC      H12A           -5.5285252806       27.6338149020       17.8421110853  MEMB      52              0.0000000000
      5535        52  POPC      H12B           -6.9677792269       28.5368094365       17.3425010879  MEMB      52              0.0000000000
      5536        52  POPC      C13            -4.1617608853       29.3528888927       19.1232250907  MEMB      52              0.0000000000
      5537        52  POPC      H13A           -3.7520840703       28.4045870807       18.8081242410  MEMB      52              0.0000000000
      5538        52  POPC      H13B           -3.4215330694       30.1304837301       19.0057127579  MEMB      52              0.0000000000
      5539        52  POPC      H13C           -4.5543058632       29.2850175263       20.1270687450  MEMB      52              0.0000000000
      5540        52  POPC      C14            -4.8086973411       29.9108217135       16.8894039155  MEMB      52              0.0000000000
      5541        52  POPC      H14A           -4.1121548235       29.1556410084       16.5563415045  MEMB      52              0.0000000000
      5542        52  POPC      H14B           -5.5787957745       29.9174435202       16.1322349934  MEMB      52              0.0000000000
      5543        52  POPC      H14C           -4.2938190428       30.8601697639       16.8955917811  MEMB      52              0.0000000000
      5544        52  POPC      C15            -6.0188838661       30.8983500648       18.6744694684  MEMB      52              0.0000000000
      5545        52  POPC      H15A           -6.7802957721       31.1888236490       17.9657545075  MEMB      52              0.0000000000
      5546        52  POPC      H15B           -5.2262932362       31.6296767495       18.7324449403  MEMB      52              0.0000000000
      5547        52  POPC      H15C           -6.4901572645       30.7348343056       19.6323650352  MEMB      52              0.0000000000
      5548        52  POPC      C11            -6.9729810293       27.9358904177       19.3603230331  MEMB      52              0.0000000000
      5549        52  POPC      H11A           -6.3424900839       27.3157685141       20.0328190376  MEMB      52              0.0000000000
      5550        52  POPC      H11B           -7.6474280665       27.0832361791       19.1313630593  MEMB      52              0.0000000000
      5551        52  POPC      P              -9.1078494015       29.3869136722       19.7542892002  MEMB      52              0.0000000000
      5552        52  POPC      O13            -9.3147473025       30.6321803365       20.4296601346  MEMB      52              0.0000000000
      5553        52  POPC      O14            -9.9594803713       28.2493027854       20.1618250803  MEMB      52              0.0000000000
      5554        52  POPC      O12            -7.5536253726       28.9927905013       20.0641910442  MEMB      52              0.0000000000
      5555        52  POPC      O11            -9.1959564266       29.6219134424       18.1991998023  MEMB      52              0.0000000000
      5556        52  POPC      C1             -9.2871791436       28.6666067250       17.1416585091  MEMB      52              0.0000000000
      5557        52  POPC      HA            -10.2913922043       28.1915874327       17.1263725843  MEMB      52              0.0000000000
      5558        52  POPC      HB             -8.6227212200       27.7789063135       17.2109745805  MEMB      52              0.0000000000
      5559        52  POPC      C2             -9.0153200766       29.3545800603       15.7384989484  MEMB      52              0.0000000000
      5560        52  POPC      HS             -7.9510862123       29.6681156697       15.6799947477  MEMB      52              0.0000000000
      5561        52  POPC      O21            -9.9524781588       30.4857228957       15.6477021298  MEMB      52              0.0000000000
      5562        52  POPC      C21            -9.5041224180       31.6357515616       15.2692303138  MEMB      52              0.0000000000
      5563        52  POPC      O22            -8.3252574094       31.9007509380       15.1592556736  MEMB      52              0.0000000000
      5564        52  POPC      C22           -10.6283653757       32.5793827674       15.1418924682  MEMB      52              0.0000000000
      5565        52  POPC      H2R           -10.1887839215       33.5170927242       14.7396626128  MEMB      52              0.0000000000
      5566        52  POPC      H2S           -11.0731151044       32.7501677363       16.1455615060  MEMB      52              0.0000000000
      5567        52  POPC      C3             -9.2868948471       28.3157603833       14.5621885005  MEMB      52              0.0000000000
      5568        52  POPC      HX            -10.3873300258       28.3636310756       14.4170278012  MEMB      52              0.0000000000
      5569        52  POPC      HY             -8.9719672016       27.2815407122       14.8181794425  MEMB      52              0.0000000000
      5570        52  POPC      O31            -8.6363802733       28.7725894026       13.3282074538  MEMB      52              0.0000000000
      5571        52  POPC      C31            -7.3217879668       28.8254536703       13.3487018952  MEMB      52              0.0000000000
      5572        52  POPC      O32            -6.5989050486       28.3529400703       14.2248648731  MEMB      52              0.0000000000
      5573        52  POPC      C32            -6.7954847462       29.7493897518       12.1853780573  MEMB      52              0.0000000000
      5574        52  POPC      H2X            -7.1654861779       30.7768765483       12.3895615994  MEMB      52              0.0000000000
      5575        52  POPC      H2Y            -7.2483295863       29.4112830140       11.2288551473  MEMB      52              0.0000000000
      5576        52  POPC      C23           -11.7736424126       31.9126770315       14.3611942801  MEMB      52              0.0000000000
      5577        52  POPC      H3R           -12.4579750600       32.7588667868       14.1376491904  MEMB      52              0.0000000000
      5578        52  POPC      H3S           -12.3870473122       31.1944457921       14.9461728355  MEMB      52              0.0000000000
      5579        52  POPC      C24           -11.4189401809       31.3773910785       12.9365131244  MEMB      52              0.0000000000
      5580        52  POPC      H4R           -12.3524727240       30.9374167008       12.5250992676  MEMB      52              0.0000000000
      5581        52  POPC      H4S           -10.5933322793       30.6339844482       12.9427637319  MEMB      52              0.0000000000
      5582        52  POPC      C25           -10.9400604564       32.4588608465       12.0030420070  MEMB      52              0.0000000000
      5583        52  POPC      H5R            -9.9597389828       32.7305593089       12.4496639392  MEMB      52              0.0000000000
      5584        52  POPC      H5S           -11.7112835012       33.2458743929       12.1449778196  MEMB      52              0.0000000000
      5585        52  POPC      C26           -10.7437381721       31.9429516756       10.5368372648  MEMB      52              0.0000000000
      5586        52  POPC      H6R           -11.8009713571       31.8719590592       10.2028637995  MEMB      52              0.0000000000
      5587        52  POPC      H6S           -10.2334020029       30.9561096596       10.5414206272  MEMB      52              0.0000000000
      5588        52  POPC      C27            -9.7182674396       32.8280192448        9.7792020235  MEMB      52              0.0000000000
      5589        52  POPC      H7R            -8.7974424418       32.7570409854       10.3967490513  MEMB      52              0.0000000000
      5590        52  POPC      H7S           -10.0878196859       33.8703903675        9.6733043467  MEMB      52              0.0000000000
      5591        52  POPC      C28            -9.4330354383       32.4242591256        8.3290471007  MEMB      52              0.0000000000
      5592        52  POPC      H8R            -8.5896612812       33.0443342042        7.9568270185  MEMB      52              0.0000000000
      5593        52  POPC      H8S           -10.3727788897       32.6105831209        7.7664762784  MEMB      52              0.0000000000
      5594        52  POPC      C29            -8.8674212630       31.0403323317        8.2700103817  MEMB      52              0.0000000000
      5595        52  POPC      H91            -7.7928302883       31.1172033854        8.4921481493  MEMB      52              0.0000000000
      5596        52  POPC      C210           -9.5414436321       29.9570000864        7.9332240547  MEMB      52              0.0000000000
      5597        52  POPC      H101           -8.8820129219       29.0782437279        7.8790155446  MEMB      52              0.0000000000
      5598        52  POPC      C211          -10.9513321469       29.8554797672        7.5598469812  MEMB      52              0.0000000000
      5599        52  POPC      H11R          -11.5741030076       30.5281746132        8.1875081800  MEMB      52              0.0000000000
      5600        52  POPC      H11S          -11.5241617637       28.9460298079        7.8410727665  MEMB      52              0.0000000000
      5601        52  POPC      C212          -11.2563866958       30.2003381132        6.0933387057  MEMB      52              0.0000000000
      5602        52  POPC      H12R          -11.1552240519       31.2858452472        5.8794196171  MEMB      52              0.0000000000
      5603        52  POPC      H12S          -12.3545011774       30.0532535977        6.0106849728  MEMB      52              0.0000000000
      5604        52  POPC      C213          -10.6301116053       29.3910265908        4.9252202037  MEMB      52              0.0000000000
      5605        52  POPC      H13R          -10.9353694113       28.3828460136        5.2783644155  MEMB      52              0.0000000000
      5606        52  POPC      H13S           -9.5325214375       29.5290271686        4.8223980893  MEMB      52              0.0000000000
      5607        52  POPC      C214          -11.3566051240       29.6139972271        3.5959933603  MEMB      52              0.0000000000
      5608        52  POPC      H14R          -11.3801196827       30.7064982405        3.3954694920  MEMB      52              0.0000000000
      5609        52  POPC      H14S          -12.3779775831       29.1884814455        3.6962705458  MEMB      52              0.0000000000
      5610        52  POPC      C215          -10.7406758504       28.9957038742        2.3593043426  MEMB      52              0.0000000000
      5611        52  POPC      H15R          -11.1008611208       27.9542015628        2.2183775359  MEMB      52              0.0000000000
      5612        52  POPC      H15S           -9.6341155884       28.9104723319        2.4101077099  MEMB      52              0.0000000000
      5613        52  POPC      C216          -11.0636089090       29.7890502019        1.0660584950  MEMB      52              0.0000000000
      5614        52  POPC      H16R          -10.5181266107       30.7556904636        1.0173048759  MEMB      52              0.0000000000
      5615        52  POPC      H16S          -12.1709789095       29.8356734302        0.9893837214  MEMB      52              0.0000000000
      5616        52  POPC      C217          -10.6262912266       28.9683790748       -0.1819611094  MEMB      52              0.0000000000
      5617        52  POPC      H17R          -11.0329208498       27.9558835887        0.0273872908  MEMB      52              0.0000000000
      5618        52  POPC      H17S           -9.5312663845       28.8769112791       -0.3458976820  MEMB      52              0.0000000000
      5619        52  POPC      C218          -11.2703875780       29.4955435843       -1.4558035799  MEMB      52              0.0000000000
      5620        52  POPC      H18R          -10.8518114835       28.9188728750       -2.3081914291  MEMB      52              0.0000000000
      5621        52  POPC      H18S          -11.0202899370       30.5574631553       -1.6658008929  MEMB      52              0.0000000000
      5622        52  POPC      H18T          -12.3608838347       29.2830954372       -1.4536153029  MEMB      52              0.0000000000
      5623        52  POPC      C33            -5.2693381848       29.7113640313       12.1093797491  MEMB      52              0.0000000000
      5624        52  POPC      H3X            -4.9333457070       28.6529804303       12.1447948715  MEMB      52              0.0000000000
      5625        52  POPC      H3Y            -4.8673187838       30.2213397899       13.0108378952  MEMB      52              0.0000000000
      5626        52  POPC      C34            -4.6410178932       30.3050263404       10.8322175699  MEMB      52              0.0000000000
      5627        52  POPC      H4X            -4.9343972078       29.6061310119       10.0199402100  MEMB      52              0.0000000000
      5628        52  POPC      H4Y            -3.5501855034       30.3858054369       11.0268464736  MEMB      52              0.0000000000
      5629        52  POPC      C35            -5.1961439687       31.6690295448       10.4368035247  MEMB      52              0.0000000000
      5630        52  POPC      H5X            -5.2744982496       32.2562080966       11.3766981512  MEMB      52              0.0000000000
      5631        52  POPC      H5Y            -6.1827173769       31.4312429121        9.9846401594  MEMB      52              0.0000000000
      5632        52  POPC      C36            -4.2749825681       32.4282875166        9.4580890419  MEMB      52              0.0000000000
      5633        52  POPC      H6X            -3.4347068011       31.7850369965        9.1197303651  MEMB      52              0.0000000000
      5634        52  POPC      H6Y            -3.8809848725       33.3586733244        9.9201158194  MEMB      52              0.0000000000
      5635        52  POPC      C37            -4.9658734364       32.9065440097        8.1764912224  MEMB      52              0.0000000000
      5636        52  POPC      H7X            -4.5537282041       33.8755258105        7.8221856275  MEMB      52              0.0000000000
      5637        52  POPC      H7Y            -6.0495416068       33.1131230343        8.3080568977  MEMB      52              0.0000000000
      5638        52  POPC      C38            -4.8948816808       31.8567112643        7.0642213203  MEMB      52              0.0000000000
      5639        52  POPC      H8X            -5.3217453736       30.9241936660        7.4914438865  MEMB      52              0.0000000000
      5640        52  POPC      H8Y            -3.8630241014       31.6967144033        6.6847585556  MEMB      52              0.0000000000
      5641        52  POPC      C39            -5.9868681920       32.1981783977        6.0022387348  MEMB      52              0.0000000000
      5642        52  POPC      H9X            -6.3187382744       33.2573490399        5.9538528235  MEMB      52              0.0000000000
      5643        52  POPC      H9Y            -6.8994558265       31.6471938931        6.3151616352  MEMB      52              0.0000000000
      5644        52  POPC      C310           -5.5986583799       31.5681570779        4.6062806048  MEMB      52              0.0000000000
      5645        52  POPC      H10X           -5.0286566826       30.6362469213        4.8086736171  MEMB      52              0.0000000000
      5646        52  POPC      H10Y           -4.7816331737       32.2040404831        4.2032382117  MEMB      52              0.0000000000
      5647        52  POPC      C311           -6.6803254994       31.3122296386        3.5981010313  MEMB      52              0.0000000000
      5648        52  POPC      H11X           -7.2786681199       32.2119885125        3.3397576254  MEMB      52              0.0000000000
      5649        52  POPC      H11Y           -7.3456995895       30.5883900597        4.1154539290  MEMB      52              0.0000000000
      5650        52  POPC      C312           -6.2936023221       30.8579896463        2.1491256298  MEMB      52              0.0000000000
      5651        52  POPC      H12X           -5.6348537011       31.6162310039        1.6743186506  MEMB      52              0.0000000000
      5652        52  POPC      H12Y           -7.2076125596       30.7258960830        1.5315033450  MEMB      52              0.0000000000
      5653        52  POPC      C313           -5.7237269656       29.4256612601        2.1024802650  MEMB      52              0.0000000000
      5654        52  POPC      H13X           -4.8999624431       29.4460174087        2.8476776374  MEMB      52              0.0000000000
      5655        52  POPC      H13Y           -5.3205017940       29.0696493022        1.1303767804  MEMB      52              0.0000000000
      5656        52  POPC      C314           -6.8446410669       28.3746183064        2.2743716446  MEMB      52              0.0000000000
      5657        52  POPC      H14X           -7.5661617733       28.4358815204        1.4317713665  MEMB      52              0.0000000000
      5658        52  POPC      H14Y           -7.3588388474       28.4668115388        3.2548927869  MEMB      52              0.0000000000
      5659        52  POPC      C315           -6.0290812895       27.0254548573        2.1957641516  MEMB      52              0.0000000000
      5660        52  POPC      H15X           -5.3068386651       27.1200952232        3.0346499147  MEMB      52              0.0000000000
      5661        52  POPC      H15Y           -5.4846902243       27.0101837435        1.2274009156  MEMB      52              0.0000000000
      5662        52  POPC      C316           -6.9551794937       25.7921189719        2.3041111652  MEMB      52              0.0000000000
      5663        52  POPC      H16X           -6.3693358597       24.9124567296        2.6466060028  MEMB      52              0.0000000000
      5664        52  POPC      H16Y           -7.6081977303       25.5582888218        1.4362345878  MEMB      52              0.0000000000
      5665        52  POPC      H16Z           -7.7077421436       25.8778371144        3.1168990875  MEMB      52              0.0000000000
      5666        53  CHL1      C3              0.8914213943       30.4952811731       17.3113350000  MEMB      53              0.0000000000
      5667        53  CHL1      H3              0.3605916687       31.4692784703       17.2491350000  MEMB      53              0.0000000000
      5668        53  CHL1      O3              0.8793643477       30.0778966269       18.6886650000  MEMB      53              0.0000000000
      5669        53  CHL1      H3'             0.8061667956       30.9135374441       19.1555050000  MEMB      53              0.0000000000
      5670        53  CHL1      C4             -0.0102787093       29.4802312510       16.5878550000  MEMB      53              0.0000000000
      5671        53  CHL1      H4A             0.3417702602       28.4287284309       16.6565850000  MEMB      53              0.0000000000
      5672        53  CHL1      H4B            -1.0190349148       29.4568717290       17.0528050000  MEMB      53              0.0000000000
      5673        53  CHL1      C5             -0.0456187920       29.8824835852       15.0737250000  MEMB      53              0.0000000000
      5674        53  CHL1      C6             -1.1677516306       30.3092250840       14.4453150000  MEMB      53              0.0000000000
      5675        53  CHL1      H6             -2.1604681278       30.3291051083       14.9187250000  MEMB      53              0.0000000000
      5676        53  CHL1      C7             -1.1713791483       30.6340463099       13.0039850000  MEMB      53              0.0000000000
      5677        53  CHL1      H7A            -2.0448454165       30.1601373257       12.5072150000  MEMB      53              0.0000000000
      5678        53  CHL1      H7B            -1.0970018643       31.6969655733       12.6893450000  MEMB      53              0.0000000000
      5679        53  CHL1      C8             -0.0223038579       29.9326026000       12.2201550000  MEMB      53              0.0000000000
      5680        53  CHL1      H8             -0.1432293642       28.8297986327       12.2794650000  MEMB      53              0.0000000000
      5681        53  CHL1      C14             0.0389957033       30.2246940931       10.7860550000  MEMB      53              0.0000000000
      5682        53  CHL1      H14             0.2712867829       31.3100168108       10.8353450000  MEMB      53              0.0000000000
      5683        53  CHL1      C15            -1.2324562579       30.0030500358        9.9128450000  MEMB      53              0.0000000000
      5684        53  CHL1      H15A           -1.6639552500       28.9838831507       10.0099050000  MEMB      53              0.0000000000
      5685        53  CHL1      H15B           -2.0692177087       30.7116834661       10.0917150000  MEMB      53              0.0000000000
      5686        53  CHL1      C16            -0.6882549510       30.1848039214        8.5028550000  MEMB      53              0.0000000000
      5687        53  CHL1      H16A           -1.1146708433       29.3995443048        7.8426550000  MEMB      53              0.0000000000
      5688        53  CHL1      H16B           -0.8536246447       31.1554595215        7.9882650000  MEMB      53              0.0000000000
      5689        53  CHL1      C17             0.8702670783       30.0084190350        8.5457350000  MEMB      53              0.0000000000
      5690        53  CHL1      H17             1.2628242481       31.0435451987        8.6392050000  MEMB      53              0.0000000000
      5691        53  CHL1      C13             1.1562673310       29.4959934568        9.9705450000  MEMB      53              0.0000000000
      5692        53  CHL1      C18             0.8781995026       28.0031485902        9.9950650000  MEMB      53              0.0000000000
      5693        53  CHL1      H18A           -0.0680473513       27.7168986371        9.4881250000  MEMB      53              0.0000000000
      5694        53  CHL1      H18B            1.7455621272       27.5432955318        9.4749250000  MEMB      53              0.0000000000
      5695        53  CHL1      H18C            0.8853268767       27.5480682551       11.0085650000  MEMB      53              0.0000000000
      5696        53  CHL1      C12             2.4339000254       30.0347408702       10.5627450000  MEMB      53              0.0000000000
      5697        53  CHL1      H12A            3.2895112817       29.6519000774        9.9663550000  MEMB      53              0.0000000000
      5698        53  CHL1      H12B            2.3270659893       31.1310268528       10.4176750000  MEMB      53              0.0000000000
      5699        53  CHL1      C11             2.6558071272       29.7970256039       12.0650450000  MEMB      53              0.0000000000
      5700        53  CHL1      H11A            2.7681088108       28.6967676909       12.1706050000  MEMB      53              0.0000000000
      5701        53  CHL1      H11B            3.5923561566       30.2237006284       12.4835350000  MEMB      53              0.0000000000
      5702        53  CHL1      C9              1.3376509029       30.1808823974       12.8905050000  MEMB      53              0.0000000000
      5703        53  CHL1      H9              1.2412130228       31.2875950017       12.9053250000  MEMB      53              0.0000000000
      5704        53  CHL1      C10             1.4000283522       29.8257823464       14.3757750000  MEMB      53              0.0000000000
      5705        53  CHL1      C19             2.0081314749       28.3565334476       14.5247850000  MEMB      53              0.0000000000
      5706        53  CHL1      H19A            1.3346991433       27.6226794885       14.0325950000  MEMB      53              0.0000000000
      5707        53  CHL1      H19B            3.0020514886       28.2656569139       14.0367350000  MEMB      53              0.0000000000
      5708        53  CHL1      H19C            2.0585093162       28.0685604218       15.5966350000  MEMB      53              0.0000000000
      5709        53  CHL1      C1              2.2916101726       30.8594487060       15.1753550000  MEMB      53              0.0000000000
      5710        53  CHL1      H1A             3.3648603941       30.8862494621       14.8894650000  MEMB      53              0.0000000000
      5711        53  CHL1      H1B             1.8380333963       31.8578344191       14.9969350000  MEMB      53              0.0000000000
      5712        53  CHL1      C2              2.3212878827       30.6795721304       16.7201650000  MEMB      53              0.0000000000
      5713        53  CHL1      H2A             2.7500853389       31.5811634050       17.2075750000  MEMB      53              0.0000000000
      5714        53  CHL1      H2B             3.0045360539       29.8266746194       16.9202950000  MEMB      53              0.0000000000
      5715        53  CHL1      C20             1.3990149845       29.2936039827        7.2663350000  MEMB      53              0.0000000000
      5716        53  CHL1      H20             0.8768922555       28.3456198287        7.0152750000  MEMB      53              0.0000000000
      5717        53  CHL1      C21             2.8820999348       28.7858503887        7.3098750000  MEMB      53              0.0000000000
      5718        53  CHL1      H21A            3.0933905956       28.1872400660        6.3980950000  MEMB      53              0.0000000000
      5719        53  CHL1      H21B            3.1328644363       28.1379941241        8.1768950000  MEMB      53              0.0000000000
      5720        53  CHL1      H21C            3.7091724092       29.5265926195        7.3495350000  MEMB      53              0.0000000000
      5721        53  CHL1      C22             1.1058895346       30.1231799630        6.0013150000  MEMB      53              0.0000000000
      5722        53  CHL1      H22A            0.4613324660       30.9888548399        6.2649150000  MEMB      53              0.0000000000
      5723        53  CHL1      H22B            2.0955439649       30.4334531779        5.6030350000  MEMB      53              0.0000000000
      5724        53  CHL1      C23             0.4505623682       29.4342411060        4.7807750000  MEMB      53              0.0000000000
      5725        53  CHL1      H23A            0.8987825052       28.4187216800        4.7345350000  MEMB      53              0.0000000000
      5726        53  CHL1      H23B           -0.6037546372       29.2693423244        5.0898650000  MEMB      53              0.0000000000
      5727        53  CHL1      C24             0.5824851484       30.3457416259        3.5249350000  MEMB      53              0.0000000000
      5728        53  CHL1      H24A           -0.1483906543       31.1731968489        3.6493250000  MEMB      53              0.0000000000
      5729        53  CHL1      H24B            1.6289632612       30.6988660100        3.4044950000  MEMB      53              0.0000000000
      5730        53  CHL1      C25             0.0251445390       29.5727213990        2.2575250000  MEMB      53              0.0000000000
      5731        53  CHL1      H25             0.8075665486       28.8514443920        1.9382950000  MEMB      53              0.0000000000
      5732        53  CHL1      C26            -1.3705239139       28.9502982214        2.5028950000  MEMB      53              0.0000000000
      5733        53  CHL1      H26A           -2.1296891561       29.7565758876        2.5917950000  MEMB      53              0.0000000000
      5734        53  CHL1      H26B           -1.6298303842       28.3150911839        1.6290550000  MEMB      53              0.0000000000
      5735        53  CHL1      H26C           -1.3440408659       28.2986066382        3.4022850000  MEMB      53              0.0000000000
      5736        53  CHL1      C27            -0.1934061036       30.6000236158        1.1934550000  MEMB      53              0.0000000000
      5737        53  CHL1      H27A           -0.3510114027       30.1329868072        0.1977850000  MEMB      53              0.0000000000
      5738        53  CHL1      H27B           -1.0559001800       31.2439430161        1.4687950000  MEMB      53              0.0000000000
      5739        53  CHL1      H27C            0.6686744295       31.2898750063        1.0700350000  MEMB      53              0.0000000000
      5740        54  CHL1      C3            -24.8804828396       18.5209479027       17.3038850000  MEMB      54              0.0000000000
      5741        54  CHL1      H3            -23.8292647919       18.6219478101       16.9588450000  MEMB      54              0.0000000000
      5742        54  CHL1      O3            -24.8928843604       18.7127676973       18.6961150000  MEMB      54              0.0000000000
      5743        54  CHL1      H3'           -24.5241737167       19.5912441398       18.8141350000  MEMB      54              0.0000000000
      5744        54  CHL1      C4            -25.8206742163       19.6116281382       16.6728750000  MEMB      54              0.0000000000
      5745        54  CHL1      H4A           -26.7945855926       19.4036118609       17.1653650000  MEMB      54              0.0000000000
      5746        54  CHL1      H4B           -25.4421931179       20.6062430942       16.9919550000  MEMB      54              0.0000000000
      5747        54  CHL1      C5            -25.9963280212       19.4413270377       15.2140950000  MEMB      54              0.0000000000
      5748        54  CHL1      C6            -25.7945195918       20.4883531614       14.3660350000  MEMB      54              0.0000000000
      5749        54  CHL1      H6            -25.4423238254       21.4335988402       14.8047450000  MEMB      54              0.0000000000
      5750        54  CHL1      C7            -25.9204087405       20.4672628641       12.8679750000  MEMB      54              0.0000000000
      5751        54  CHL1      H7A           -26.3595081285       21.3944577285       12.4415750000  MEMB      54              0.0000000000
      5752        54  CHL1      H7B           -24.8552006544       20.4610981740       12.5523750000  MEMB      54              0.0000000000
      5753        54  CHL1      C8            -26.5940877598       19.1078505543       12.3892750000  MEMB      54              0.0000000000
      5754        54  CHL1      H8            -27.6808207615       19.2572019075       12.5653950000  MEMB      54              0.0000000000
      5755        54  CHL1      C14           -26.2364383754       18.8425766010       10.9401450000  MEMB      54              0.0000000000
      5756        54  CHL1      H14           -25.1556509269       18.5885671798       10.8987850000  MEMB      54              0.0000000000
      5757        54  CHL1      C15           -26.2927579652       20.0031194645        9.9609250000  MEMB      54              0.0000000000
      5758        54  CHL1      H15A          -27.2383275400       20.5754108946       10.0735550000  MEMB      54              0.0000000000
      5759        54  CHL1      H15B          -25.5546034341       20.8308382885       10.0268050000  MEMB      54              0.0000000000
      5760        54  CHL1      C16           -26.4110190176       19.3550789654        8.5822650000  MEMB      54              0.0000000000
      5761        54  CHL1      H16A          -27.3673646425       19.6176530441        8.0814950000  MEMB      54              0.0000000000
      5762        54  CHL1      H16B          -25.6408547156       19.6414825742        7.8345150000  MEMB      54              0.0000000000
      5763        54  CHL1      C17           -26.5755131120       17.7665276230        8.8320050000  MEMB      54              0.0000000000
      5764        54  CHL1      H17           -25.5171319687       17.4306520764        8.8687050000  MEMB      54              0.0000000000
      5765        54  CHL1      C13           -26.9602874830       17.6855039956       10.3514150000  MEMB      54              0.0000000000
      5766        54  CHL1      C18           -28.4780972723       17.8694886689       10.4741150000  MEMB      54              0.0000000000
      5767        54  CHL1      H18A          -28.7756186119       18.7955707379        9.9373150000  MEMB      54              0.0000000000
      5768        54  CHL1      H18B          -28.9255660295       17.0141454162        9.9241250000  MEMB      54              0.0000000000
      5769        54  CHL1      H18C          -28.8400852644       17.8873671918       11.5243450000  MEMB      54              0.0000000000
      5770        54  CHL1      C12           -26.4128267626       16.4000586151       11.1298150000  MEMB      54              0.0000000000
      5771        54  CHL1      H12A          -27.0454809038       15.5872636460       10.7133650000  MEMB      54              0.0000000000
      5772        54  CHL1      H12B          -25.3338743079       16.3493060250       10.8697850000  MEMB      54              0.0000000000
      5773        54  CHL1      C11           -26.6882304660       16.5444654445       12.6185050000  MEMB      54              0.0000000000
      5774        54  CHL1      H11A          -27.7746543729       16.4137292296       12.8106350000  MEMB      54              0.0000000000
      5775        54  CHL1      H11B          -26.2900041687       15.6706081396       13.1771550000  MEMB      54              0.0000000000
      5776        54  CHL1      C9            -26.1650396948       17.8649496850       13.1550850000  MEMB      54              0.0000000000
      5777        54  CHL1      H9            -25.0802958813       17.7680008931       12.9354250000  MEMB      54              0.0000000000
      5778        54  CHL1      C10           -26.3276437014       18.0493948973       14.6997350000  MEMB      54              0.0000000000
      5779        54  CHL1      C19           -27.8773621464       17.9177944273       15.0244450000  MEMB      54              0.0000000000
      5780        54  CHL1      H19A          -28.5170964465       18.6587842678       14.4990950000  MEMB      54              0.0000000000
      5781        54  CHL1      H19B          -28.2678100611       16.8892027056       14.8699250000  MEMB      54              0.0000000000
      5782        54  CHL1      H19C          -28.0917589378       17.9411583817       16.1143150000  MEMB      54              0.0000000000
      5783        54  CHL1      C1            -25.5165505271       16.9936442215       15.4932150000  MEMB      54              0.0000000000
      5784        54  CHL1      H1A           -25.9800906786       16.0209351574       15.2224850000  MEMB      54              0.0000000000
      5785        54  CHL1      H1B           -24.4906948551       16.9874347865       15.0667050000  MEMB      54              0.0000000000
      5786        54  CHL1      C2            -25.4187958645       17.1734928735       17.0385950000  MEMB      54              0.0000000000
      5787        54  CHL1      H2A           -24.7125927336       16.4847243489       17.5496750000  MEMB      54              0.0000000000
      5788        54  CHL1      H2B           -26.4061607944       16.9875084344       17.5127550000  MEMB      54              0.0000000000
      5789        54  CHL1      C20           -27.3216537171       16.8277504908        7.8089250000  MEMB      54              0.0000000000
      5790        54  CHL1      H20           -27.8540879208       15.9936395294        8.3139950000  MEMB      54              0.0000000000
      5791        54  CHL1      C21           -26.1636535764       16.1581274642        6.9690950000  MEMB      54              0.0000000000
      5792        54  CHL1      H21A          -26.5373943589       15.4781491190        6.1739450000  MEMB      54              0.0000000000
      5793        54  CHL1      H21B          -25.3840693260       15.6538240938        7.5792150000  MEMB      54              0.0000000000
      5794        54  CHL1      H21C          -25.5733947670       16.9180150063        6.4136750000  MEMB      54              0.0000000000
      5795        54  CHL1      C22           -28.3973077792       17.5922625669        6.9235250000  MEMB      54              0.0000000000
      5796        54  CHL1      H22A          -29.1825859640       17.9225815599        7.6366550000  MEMB      54              0.0000000000
      5797        54  CHL1      H22B          -27.8241601881       18.3994323965        6.4192450000  MEMB      54              0.0000000000
      5798        54  CHL1      C23           -29.1529443114       16.7814249199        5.9060950000  MEMB      54              0.0000000000
      5799        54  CHL1      H23A          -28.2874283487       16.3762401653        5.3394950000  MEMB      54              0.0000000000
      5800        54  CHL1      H23B          -29.7375366844       15.9569145406        6.3673550000  MEMB      54              0.0000000000
      5801        54  CHL1      C24           -30.0949175389       17.6379189299        5.0881450000  MEMB      54              0.0000000000
      5802        54  CHL1      H24A          -30.9430603535       17.8898347385        5.7600850000  MEMB      54              0.0000000000
      5803        54  CHL1      H24B          -29.6118920268       18.6068915897        4.8389850000  MEMB      54              0.0000000000
      5804        54  CHL1      C25           -30.5569121532       17.1271825112        3.7370750000  MEMB      54              0.0000000000
      5805        54  CHL1      H25           -30.6743025375       16.0231117192        3.7766750000  MEMB      54              0.0000000000
      5806        54  CHL1      C26           -31.8629378687       17.7273704047        3.2055950000  MEMB      54              0.0000000000
      5807        54  CHL1      H26A          -32.7702900504       17.4060679693        3.7603950000  MEMB      54              0.0000000000
      5808        54  CHL1      H26B          -31.7816105776       18.8352221631        3.1863450000  MEMB      54              0.0000000000
      5809        54  CHL1      H26C          -31.9592542194       17.4261172303        2.1405650000  MEMB      54              0.0000000000
      5810        54  CHL1      C27           -29.3960432073       17.5349281646        2.7569150000  MEMB      54              0.0000000000
      5811        54  CHL1      H27A          -29.4660206248       18.6101876167        2.4862650000  MEMB      54              0.0000000000
      5812        54  CHL1      H27B          -28.4013652757       17.2125797245        3.1324450000  MEMB      54              0.0000000000
      5813        54  CHL1      H27C          -29.5704436382       17.0196191168        1.7882250000  MEMB      54              0.0000000000
      5814        55  OSM       N              19.8268618648      -23.6464254000       22.5919120961  MEMB      55              0.0000000000
      5815        55  OSM       C15            20.2579298161      -25.1222936617       22.7683621903  MEMB      55              0.0000000000
      5816        55  OSM       H15A           21.1474991709      -25.3249445451       22.1904358977  MEMB      55              0.0000000000
      5817        55  OSM       H15B           19.4170388460      -25.7454351188       22.5019089567  MEMB      55              0.0000000000
      5818        55  OSM       H15C           20.4634291168      -25.1502176356       23.8282631327  MEMB      55              0.0000000000
      5819        55  OSM       C14            18.5592344247      -23.4334230640       23.4071713227  MEMB      55              0.0000000000
      5820        55  OSM       H14A           18.4192594836      -22.3698879440       23.5324717923  MEMB      55              0.0000000000
      5821        55  OSM       H14B           18.6919976539      -23.8678538845       24.3869896358  MEMB      55              0.0000000000
      5822        55  OSM       H14C           17.8053106545      -23.9405876206       22.8234051866  MEMB      55              0.0000000000
      5823        55  OSM       C13            20.9332567047      -22.7305661170       23.0550820986  MEMB      55              0.0000000000
      5824        55  OSM       H13A           21.8903269529      -22.8238627817       22.5634398023  MEMB      55              0.0000000000
      5825        55  OSM       H13B           21.1232968125      -22.9372046639       24.0979556569  MEMB      55              0.0000000000
      5826        55  OSM       H13C           20.6160943310      -21.7000273721       22.9934553000  MEMB      55              0.0000000000
      5827        55  OSM       C12            19.4824892262      -23.3151042957       21.1997985831  MEMB      55              0.0000000000
      5828        55  OSM       H12A           19.2872690510      -22.2542088497       21.2526195195  MEMB      55              0.0000000000
      5829        55  OSM       H12B           18.4989416660      -23.7104311280       20.9930360977  MEMB      55              0.0000000000
      5830        55  OSM       C11            20.4506165062      -23.5700836468       20.0609716066  MEMB      55              0.0000000000
      5831        55  OSM       H11A           20.0827548073      -23.1341455526       19.1075793256  MEMB      55              0.0000000000
      5832        55  OSM       H11B           20.4881383734      -24.6549000082       19.8241456115  MEMB      55              0.0000000000
      5833        55  OSM       P              22.4871169328      -21.9914798096       19.6287391374  MEMB      55              0.0000000000
      5834        55  OSM       O13            21.7234259875      -20.7240294404       19.9066558441  MEMB      55              0.0000000000
      5835        55  OSM       O14            23.8726991643      -21.9354894626       20.0665244298  MEMB      55              0.0000000000
      5836        55  OSM       O11            22.4137787973      -22.2918807769       18.0608477677  MEMB      55              0.0000000000
      5837        55  OSM       O12            21.7660324508      -23.2121367225       20.2539349287  MEMB      55              0.0000000000
      5838        55  OSM       C1S            22.9512592779      -23.5536635290       17.6580185408  MEMB      55              0.0000000000
      5839        55  OSM       H1S            22.3390686199      -24.3692235704       18.0989329538  MEMB      55              0.0000000000
      5840        55  OSM       H1T            23.9110645705      -23.8299797411       18.1445820569  MEMB      55              0.0000000000
      5841        55  OSM       NF             23.0818444423      -24.9699306225       15.5539523036  MEMB      55              0.0000000000
      5842        55  OSM       HNF            23.9667594822      -25.3805171503       15.3481548089  MEMB      55              0.0000000000
      5843        55  OSM       C2S            23.1647622070      -23.6174033007       16.0430644434  MEMB      55              0.0000000000
      5844        55  OSM       H2S            22.3632039033      -23.0321650293       15.5437432186  MEMB      55              0.0000000000
      5845        55  OSM       C3S            24.5453659969      -22.9585148907       15.7940260423  MEMB      55              0.0000000000
      5846        55  OSM       H3S            25.2994830943      -23.6563481551       16.2167046564  MEMB      55              0.0000000000
      5847        55  OSM       O3             24.5091566939      -21.6472150512       16.4682053552  MEMB      55              0.0000000000
      5848        55  OSM       HO3            23.5730065219      -21.4725203621       16.5894685638  MEMB      55              0.0000000000
      5849        55  OSM       C4S            24.8438756593      -22.8356420719       14.3040956481  MEMB      55              0.0000000000
      5850        55  OSM       H4S            25.2434961542      -23.7821219752       13.9110574263  MEMB      55              0.0000000000
      5851        55  OSM       C5S            24.5147197765      -21.8916570910       13.4500035565  MEMB      55              0.0000000000
      5852        55  OSM       H5S            24.0944351852      -20.9949088584       13.9287555655  MEMB      55              0.0000000000
      5853        55  OSM       C6S            24.7393274421      -21.6570100481       11.9677274157  MEMB      55              0.0000000000
      5854        55  OSM       H6S            23.6603380858      -21.5800572595       11.7143873411  MEMB      55              0.0000000000
      5855        55  OSM       H6T            25.1664943645      -22.5182966266       11.4109193465  MEMB      55              0.0000000000
      5856        55  OSM       C7S            25.3566444255      -20.2800402468       11.5734541288  MEMB      55              0.0000000000
      5857        55  OSM       H7S            26.2878052460      -20.2259784628       12.1770580687  MEMB      55              0.0000000000
      5858        55  OSM       H7T            24.6876410733      -19.5071352598       12.0086246728  MEMB      55              0.0000000000
      5859        55  OSM       C8S            25.8127145928      -19.9957586745       10.1640956473  MEMB      55              0.0000000000
      5860        55  OSM       H8S            26.5126139761      -20.7782536238        9.8005531852  MEMB      55              0.0000000000
      5861        55  OSM       H8T            26.4362210511      -19.0765722234       10.1897158913  MEMB      55              0.0000000000
      5862        55  OSM       C9S            24.6694058156      -19.7906791998        9.2028069826  MEMB      55              0.0000000000
      5863        55  OSM       H9S            24.2913818634      -18.7477417379        9.2636406734  MEMB      55              0.0000000000
      5864        55  OSM       H9T            23.7840170745      -20.3099699281        9.6279484511  MEMB      55              0.0000000000
      5865        55  OSM       C10S           24.9182661837      -20.1745095516        7.6771421610  MEMB      55              0.0000000000
      5866        55  OSM       H10S           25.4427893880      -21.1536970406        7.6968369436  MEMB      55              0.0000000000
      5867        55  OSM       H10T           25.5354411717      -19.4246150593        7.1376292012  MEMB      55              0.0000000000
      5868        55  OSM       C11S           23.7284508637      -20.3606759142        6.8927524948  MEMB      55              0.0000000000
      5869        55  OSM       H11S           23.2813389340      -19.3586800313        6.7183492515  MEMB      55              0.0000000000
      5870        55  OSM       H11T           23.0010077634      -20.9506542973        7.4903085578  MEMB      55              0.0000000000
      5871        55  OSM       C12S           23.8804072291      -21.0863530631        5.5087394848  MEMB      55              0.0000000000
      5872        55  OSM       H12S           23.7406416429      -22.1854685298        5.5907860578  MEMB      55              0.0000000000
      5873        55  OSM       H12T           24.9119354494      -20.9355016292        5.1246623100  MEMB      55              0.0000000000
      5874        55  OSM       C13S           22.8886204320      -20.6365203481        4.3792991371  MEMB      55              0.0000000000
      5875        55  OSM       H13S           22.9737205376      -19.5350851141        4.2613193271  MEMB      55              0.0000000000
      5876        55  OSM       H13T           21.8510844450      -20.8669895001        4.7029097838  MEMB      55              0.0000000000
      5877        55  OSM       C14S           23.1505937080      -21.3595092710        3.0507046615  MEMB      55              0.0000000000
      5878        55  OSM       H14S           23.2990220078      -22.4446237105        3.2372964770  MEMB      55              0.0000000000
      5879        55  OSM       H14T           24.1651709548      -21.0604354462        2.7108371314  MEMB      55              0.0000000000
      5880        55  OSM       C15S           21.9898508408      -21.1233442630        1.9943220047  MEMB      55              0.0000000000
      5881        55  OSM       H15S           21.6307678083      -20.0722839600        1.9687690581  MEMB      55              0.0000000000
      5882        55  OSM       H15T           21.1794033832      -21.7880232422        2.3626946212  MEMB      55              0.0000000000
      5883        55  OSM       C16S           22.4196048267      -21.5663438719        0.5521365432  MEMB      55              0.0000000000
      5884        55  OSM       H16S           21.5074675811      -21.8534718163       -0.0134453210  MEMB      55              0.0000000000
      5885        55  OSM       H16T           23.0332444191      -22.4923315683        0.5344144582  MEMB      55              0.0000000000
      5886        55  OSM       C17S           23.1919188465      -20.4704948520       -0.1858104986  MEMB      55              0.0000000000
      5887        55  OSM       H17S           24.1703954615      -20.2332259459        0.2838787948  MEMB      55              0.0000000000
      5888        55  OSM       H17T           22.6722361539      -19.4945917104       -0.0768896377  MEMB      55              0.0000000000
      5889        55  OSM       C18S           23.2352543925      -20.6520881984       -1.7314027387  MEMB      55              0.0000000000
      5890        55  OSM       H18S           23.5241007669      -19.6718416298       -2.1672987861  MEMB      55              0.0000000000
      5891        55  OSM       H18T           22.2008512306      -20.9719714684       -1.9804118930  MEMB      55              0.0000000000
      5892        55  OSM       H18U           23.9744781237      -21.4223760819       -2.0388524137  MEMB      55              0.0000000000
      5893        55  OSM       C1F            21.9392700115      -25.7009913490       15.6209074678  MEMB      55              0.0000000000
      5894        55  OSM       OF             20.8934491215      -25.2388947295       16.0294106856  MEMB      55              0.0000000000
      5895        55  OSM       C2F            22.0893234402      -27.1364900554       15.2179628104  MEMB      55              0.0000000000
      5896        55  OSM       H2F            21.5218860118      -27.6799434280       16.0034525747  MEMB      55              0.0000000000
      5897        55  OSM       H2G            23.1712799472      -27.3592431691       15.3365891223  MEMB      55              0.0000000000
      5898        55  OSM       C3F            21.5357922754      -27.4500321740       13.8968898754  MEMB      55              0.0000000000
      5899        55  OSM       H3F            20.6229073841      -26.8479449033       13.7007959037  MEMB      55              0.0000000000
      5900        55  OSM       H3G            21.2041804618      -28.5029383207       13.7714177895  MEMB      55              0.0000000000
      5901        55  OSM       C4F            22.4150902143      -26.9458238801       12.7377174373  MEMB      55              0.0000000000
      5902        55  OSM       H4F            23.4686735260      -27.2744401156       12.8653684480  MEMB      55              0.0000000000
      5903        55  OSM       H4G            22.6140921750      -25.8530280285       12.7149958574  MEMB      55              0.0000000000
      5904        55  OSM       C5F            21.8299764691      -27.2901718100       11.3600651937  MEMB      55              0.0000000000
      5905        55  OSM       H5F            20.9063572613      -26.7381466656       11.0834486445  MEMB      55              0.0000000000
      5906        55  OSM       H5G            21.6002733650      -28.3457895343       11.1007808230  MEMB      55              0.0000000000
      5907        55  OSM       C6F            22.7841035271      -26.8560568257       10.1790546236  MEMB      55              0.0000000000
      5908        55  OSM       H6F            22.2070252138      -26.9446918206        9.2338320087  MEMB      55              0.0000000000
      5909        55  OSM       H6G            23.6442215585      -27.5357372582        9.9986324158  MEMB      55              0.0000000000
      5910        55  OSM       C7F            23.4657700499      -25.5113884424       10.3593507894  MEMB      55              0.0000000000
      5911        55  OSM       H7F            24.1191555330      -25.5959023594       11.2539258210  MEMB      55              0.0000000000
      5912        55  OSM       H7G            22.7079378829      -24.7082923050       10.4820196982  MEMB      55              0.0000000000
      5913        55  OSM       C8F            24.4196611200      -25.1044757371        9.2411016509  MEMB      55              0.0000000000
      5914        55  OSM       H8F            24.9335303654      -26.0456467948        8.9504865073  MEMB      55              0.0000000000
      5915        55  OSM       H8G            25.1380357481      -24.3285709364        9.5820269239  MEMB      55              0.0000000000
      5916        55  OSM       C9F            23.6872120708      -24.4683582590        8.0710465533  MEMB      55              0.0000000000
      5917        55  OSM       H9F            23.4166371739      -23.4110001509        8.2080973799  MEMB      55              0.0000000000
      5918        55  OSM       C10F           23.3575237424      -25.2086612445        6.9581236391  MEMB      55              0.0000000000
      5919        55  OSM       H10F           22.8618574494      -24.6516980630        6.1493551885  MEMB      55              0.0000000000
      5920        55  OSM       C11F           23.6567058399      -26.6256604380        6.5595865782  MEMB      55              0.0000000000
      5921        55  OSM       H11F           24.0843922718      -27.2632228057        7.3626550973  MEMB      55              0.0000000000
      5922        55  OSM       H11G           24.2739111000      -26.5608378700        5.6380781708  MEMB      55              0.0000000000
      5923        55  OSM       C12F           22.3676584734      -27.3810740325        6.2004238702  MEMB      55              0.0000000000
      5924        55  OSM       H12F           21.7211957099      -27.4354468631        7.1023382038  MEMB      55              0.0000000000
      5925        55  OSM       H12G           22.5532072451      -28.3513935571        5.6921190997  MEMB      55              0.0000000000
      5926        55  OSM       C13F           21.4274941443      -26.7224098335        5.0809188716  MEMB      55              0.0000000000
      5927        55  OSM       H13F           22.0746243711      -26.3944762008        4.2394892585  MEMB      55              0.0000000000
      5928        55  OSM       H13G           21.0147897409      -25.8145605506        5.5706175900  MEMB      55              0.0000000000
      5929        55  OSM       C14F           20.3563372319      -27.5737785592        4.4125171861  MEMB      55              0.0000000000
      5930        55  OSM       H14F           19.6888345007      -27.9126710165        5.2334381672  MEMB      55              0.0000000000
      5931        55  OSM       H14G           20.7970809121      -28.3866559522        3.7966447962  MEMB      55              0.0000000000
      5932        55  OSM       C15F           19.5447104322      -26.8446109473        3.3207595620  MEMB      55              0.0000000000
      5933        55  OSM       H15F           19.5613854046      -25.7339691755        3.3435130387  MEMB      55              0.0000000000
      5934        55  OSM       H15G           18.4893856209      -27.1905981387        3.2907115362  MEMB      55              0.0000000000
      5935        55  OSM       C16F           19.9959548820      -27.1626827520        1.9223755063  MEMB      55              0.0000000000
      5936        55  OSM       H16F           19.8377758566      -28.2185639970        1.6151048601  MEMB      55              0.0000000000
      5937        55  OSM       H16G           21.1047439831      -27.1413325121        1.8556491515  MEMB      55              0.0000000000
      5938        55  OSM       C17F           19.5219439234      -26.0786766033        0.9579330047  MEMB      55              0.0000000000
      5939        55  OSM       H17F           19.8995269515      -25.1134112958        1.3579531184  MEMB      55              0.0000000000
      5940        55  OSM       H17G           18.4125789997      -26.1388562864        0.9609373170  MEMB      55              0.0000000000
      5941        55  OSM       C18F           19.9546363527      -26.3450162276       -0.4694942864  MEMB      55              0.0000000000
      5942        55  OSM       H18F           19.4331086775      -25.6060650825       -1.1146928323  MEMB      55              0.0000000000
      5943        55  OSM       H18G           19.5944109284      -27.3450285767       -0.7928119291  MEMB      55              0.0000000000
      5944        55  OSM       H18H           21.0335914408      -26.1052974588       -0.5822429396  MEMB      55              0.0000000000
      5945        56  SAPC      N             -16.8425910355       27.7463551961       19.0381377491  MEMB      56              0.0000000000
      5946        56  SAPC      C12           -15.4673403181       28.2672008072       18.5695750768  MEMB      56              0.0000000000
      5947        56  SAPC      H12A          -15.6961277763       29.0964020287       17.9165193259  MEMB      56              0.0000000000
      5948        56  SAPC      H12B          -14.9548697731       27.5508486349       17.9445843870  MEMB      56              0.0000000000
      5949        56  SAPC      C13           -17.6731273327       28.8369360371       19.5905398625  MEMB      56              0.0000000000
      5950        56  SAPC      H13A          -17.4337480782       29.0650643891       20.6186716324  MEMB      56              0.0000000000
      5951        56  SAPC      H13B          -17.6291608878       29.6863061806       18.9249292959  MEMB      56              0.0000000000
      5952        56  SAPC      H13C          -18.7047498541       28.5198141852       19.6303995527  MEMB      56              0.0000000000
      5953        56  SAPC      C14           -17.4598845486       27.3297354695       17.6937483061  MEMB      56              0.0000000000
      5954        56  SAPC      H14A          -17.3969315557       28.2180191395       17.0826927032  MEMB      56              0.0000000000
      5955        56  SAPC      H14B          -17.0894348029       26.4541881304       17.1813189750  MEMB      56              0.0000000000
      5956        56  SAPC      H14C          -18.4977253661       27.0832799431       17.8627040617  MEMB      56              0.0000000000
      5957        56  SAPC      C15           -16.7390790667       26.5481107911       19.9411811270  MEMB      56              0.0000000000
      5958        56  SAPC      H15A          -17.7322122827       26.1997845288       20.1835757692  MEMB      56              0.0000000000
      5959        56  SAPC      H15B          -16.2409872464       25.7445328954       19.4191015447  MEMB      56              0.0000000000
      5960        56  SAPC      H15C          -16.1891527619       26.7841120729       20.8402274807  MEMB      56              0.0000000000
      5961        56  SAPC      C11           -14.6505126297       28.7294990433       19.7064862907  MEMB      56              0.0000000000
      5962        56  SAPC      H11A          -15.2174690719       29.4712629059       20.3087053178  MEMB      56              0.0000000000
      5963        56  SAPC      H11B          -13.8216144763       29.2924897696       19.2266006468  MEMB      56              0.0000000000
      5964        56  SAPC      P             -12.9118362304       27.6012375390       21.1798995254  MEMB      56              0.0000000000
      5965        56  SAPC      O13           -12.6363183169       28.9645418004       21.7946058069  MEMB      56              0.0000000000
      5966        56  SAPC      O14           -12.8393099260       26.3605362866       22.0488520627  MEMB      56              0.0000000000
      5967        56  SAPC      O12           -14.2257031159       27.6051361940       20.4695772105  MEMB      56              0.0000000000
      5968        56  SAPC      O11           -11.8686332779       27.4536519417       19.9673969502  MEMB      56              0.0000000000
      5969        56  SAPC      C1            -12.2321947397       26.5497785731       18.9034305722  MEMB      56              0.0000000000
      5970        56  SAPC      HA            -11.8723424378       25.5427873856       19.2047540845  MEMB      56              0.0000000000
      5971        56  SAPC      HB            -13.3166089028       26.3149654063       18.8465988370  MEMB      56              0.0000000000
      5972        56  SAPC      C2            -11.8541139612       27.0140874821       17.4993640250  MEMB      56              0.0000000000
      5973        56  SAPC      HS            -10.7735982965       27.2723236654       17.4883712349  MEMB      56              0.0000000000
      5974        56  SAPC      O21           -12.6358692566       28.0930814203       17.1428405563  MEMB      56              0.0000000000
      5975        56  SAPC      C21           -12.2892525409       28.9352770618       16.1802386167  MEMB      56              0.0000000000
      5976        56  SAPC      O22           -11.2271582684       29.0606733548       15.6188700504  MEMB      56              0.0000000000
      5977        56  SAPC      C22           -13.4865727146       29.7801811010       15.9372367872  MEMB      56              0.0000000000
      5978        56  SAPC      H2R           -14.1635435661       29.7716324938       16.8181218078  MEMB      56              0.0000000000
      5979        56  SAPC      H2S           -13.0866524058       30.8166695866       15.9285018754  MEMB      56              0.0000000000
      5980        56  SAPC      C3            -11.9337824899       25.8948445690       16.3503301476  MEMB      56              0.0000000000
      5981        56  SAPC      HX            -11.5723181751       24.9031415738       16.6970136525  MEMB      56              0.0000000000
      5982        56  SAPC      HY            -11.1514841526       26.2321516962       15.6372003449  MEMB      56              0.0000000000
      5983        56  SAPC      O31           -13.2977917534       25.8704472572       15.7454456159  MEMB      56              0.0000000000
      5984        56  SAPC      C31           -14.0750048887       24.7723921930       16.0284188143  MEMB      56              0.0000000000
      5985        56  SAPC      O32           -13.8229051715       23.9515665333       16.8715467928  MEMB      56              0.0000000000
      5986        56  SAPC      C32           -15.4100718782       24.9021879137       15.2957091179  MEMB      56              0.0000000000
      5987        56  SAPC      H2X           -15.3576902808       25.7422378537       14.5705241505  MEMB      56              0.0000000000
      5988        56  SAPC      H2Y           -16.1230304062       25.1606063681       16.1076392892  MEMB      56              0.0000000000
      5989        56  SAPC      C23           -14.3565309465       29.5071843996       14.6628980658  MEMB      56              0.0000000000
      5990        56  SAPC      H3R           -14.6987640470       28.4502424884       14.6544444371  MEMB      56              0.0000000000
      5991        56  SAPC      H3S           -13.7717945181       29.4836589845       13.7185192405  MEMB      56              0.0000000000
      5992        56  SAPC      C24           -15.6855161286       30.3731505913       14.5864026160  MEMB      56              0.0000000000
      5993        56  SAPC      H4R           -16.1408807780       29.9716140563       13.6559550107  MEMB      56              0.0000000000
      5994        56  SAPC      H4S           -15.4325543397       31.4020572439       14.2522131091  MEMB      56              0.0000000000
      5995        56  SAPC      C25           -16.6719960703       30.2427854168       15.7366852625  MEMB      56              0.0000000000
      5996        56  SAPC      H5R           -16.3151138573       30.5303103822       16.7366672131  MEMB      56              0.0000000000
      5997        56  SAPC      C26           -17.9536763395       29.8660091237       15.5721013658  MEMB      56              0.0000000000
      5998        56  SAPC      H6R           -18.6641339241       30.1220870255       16.3718971668  MEMB      56              0.0000000000
      5999        56  SAPC      C27           -18.6933606895       29.4660930526       14.3447687507  MEMB      56              0.0000000000
      6000        56  SAPC      H7R           -17.9841906012       29.2168782072       13.5266669992  MEMB      56              0.0000000000
      6001        56  SAPC      H7S           -19.2418724018       30.3731339142       14.0120027740  MEMB      56              0.0000000000
      6002        56  SAPC      C28           -19.7659038148       28.3656121233       14.4823898668  MEMB      56              0.0000000000
      6003        56  SAPC      H8R           -20.6380168167       28.6432690169       15.0925742543  MEMB      56              0.0000000000
      6004        56  SAPC      C29           -19.8718504189       27.1710417926       13.8389049071  MEMB      56              0.0000000000
      6005        56  SAPC      H9R           -20.7185757747       26.5654149587       14.1942527029  MEMB      56              0.0000000000
      6006        56  SAPC      C210          -18.9376812341       26.6196333531       12.7600996181  MEMB      56              0.0000000000
      6007        56  SAPC      H10R          -17.9740085960       26.3991083719       13.2670759019  MEMB      56              0.0000000000
      6008        56  SAPC      H10S          -18.7109306382       27.4972655222       12.1177084138  MEMB      56              0.0000000000
      6009        56  SAPC      C211          -19.3006858454       25.5009694950       11.8597823748  MEMB      56              0.0000000000
      6010        56  SAPC      H11R          -19.9437147836       24.7726675667       12.3756212924  MEMB      56              0.0000000000
      6011        56  SAPC      C212          -18.9460187458       25.2590190232       10.5688186823  MEMB      56              0.0000000000
      6012        56  SAPC      H12R          -19.2000907002       24.3070984851       10.0796409453  MEMB      56              0.0000000000
      6013        56  SAPC      C213          -18.0135005900       26.2526742473        9.7964845094  MEMB      56              0.0000000000
      6014        56  SAPC      H13R          -17.4086063584       25.5829984430        9.1484433507  MEMB      56              0.0000000000
      6015        56  SAPC      H13S          -17.3220908048       26.8031263892       10.4697423201  MEMB      56              0.0000000000
      6016        56  SAPC      C214          -18.7439485640       27.2851508149        8.9509236621  MEMB      56              0.0000000000
      6017        56  SAPC      H14R          -19.8080444158       27.5156372105        9.1076904743  MEMB      56              0.0000000000
      6018        56  SAPC      C215          -18.1149415242       28.0071758391        8.0390100386  MEMB      56              0.0000000000
      6019        56  SAPC      H15R          -18.6976741332       28.5512868975        7.2811410368  MEMB      56              0.0000000000
      6020        56  SAPC      C216          -16.6432016510       27.9518661540        7.7201713016  MEMB      56              0.0000000000
      6021        56  SAPC      H16R          -16.0666524136       27.8727975263        8.6665638440  MEMB      56              0.0000000000
      6022        56  SAPC      H16S          -16.1487951528       28.9020845554        7.4252674706  MEMB      56              0.0000000000
      6023        56  SAPC      C217          -16.1053764091       26.8412119400        6.8189666342  MEMB      56              0.0000000000
      6024        56  SAPC      H17R          -16.5895347624       25.8868399843        7.1174387641  MEMB      56              0.0000000000
      6025        56  SAPC      H17S          -15.0071012201       26.7515995216        6.6772543153  MEMB      56              0.0000000000
      6026        56  SAPC      C218          -16.6309638911       27.0954505265        5.3514173988  MEMB      56              0.0000000000
      6027        56  SAPC      H18R          -17.7296067241       27.2601856704        5.3643418439  MEMB      56              0.0000000000
      6028        56  SAPC      H18S          -16.4750504074       26.1703133048        4.7563272825  MEMB      56              0.0000000000
      6029        56  SAPC      C219          -16.0476827204       28.3342412030        4.6389965206  MEMB      56              0.0000000000
      6030        56  SAPC      H19R          -16.0275351123       29.2216250787        5.3071771884  MEMB      56              0.0000000000
      6031        56  SAPC      H19S          -16.8280050496       28.7358465278        3.9577256086  MEMB      56              0.0000000000
      6032        56  SAPC      C220          -14.7447676082       28.1479712158        3.7652282899  MEMB      56              0.0000000000
      6033        56  SAPC      H20R          -13.8672452264       28.0117603001        4.4328524487  MEMB      56              0.0000000000
      6034        56  SAPC      H20S          -14.6736989744       29.1079292375        3.2104761123  MEMB      56              0.0000000000
      6035        56  SAPC      H20T          -14.7959865658       27.2409377275        3.1257076689  MEMB      56              0.0000000000
      6036        56  SAPC      C33           -15.8014724206       23.5491119931       14.6110688070  MEMB      56              0.0000000000
      6037        56  SAPC      H3X           -16.9032098411       23.4115626931       14.6507636353  MEMB      56              0.0000000000
      6038        56  SAPC      H3Y           -15.2852901778       22.6930894872       15.0959422955  MEMB      56              0.0000000000
      6039        56  SAPC      C34           -15.3898141892       23.5014720133       13.0891054642  MEMB      56              0.0000000000
      6040        56  SAPC      H4X           -15.8622564835       24.4145378825       12.6678814411  MEMB      56              0.0000000000
      6041        56  SAPC      H4Y           -15.7952171656       22.5346791257       12.7213003255  MEMB      56              0.0000000000
      6042        56  SAPC      C35           -13.8565765765       23.5094800658       12.8930709472  MEMB      56              0.0000000000
      6043        56  SAPC      H5X           -13.4121248230       22.5049559866       13.0595492641  MEMB      56              0.0000000000
      6044        56  SAPC      H5Y           -13.4923984484       24.0463032806       13.7950220997  MEMB      56              0.0000000000
      6045        56  SAPC      C36           -13.3639241384       24.1097212537       11.5542661738  MEMB      56              0.0000000000
      6046        56  SAPC      H6X           -13.7011236834       23.4465373093       10.7291575896  MEMB      56              0.0000000000
      6047        56  SAPC      H6Y           -12.2547706041       24.1245411758       11.4919805518  MEMB      56              0.0000000000
      6048        56  SAPC      C37           -13.8442902243       25.5565097648       11.1686153649  MEMB      56              0.0000000000
      6049        56  SAPC      H7X           -13.7585861617       26.4088589520       11.8760588665  MEMB      56              0.0000000000
      6050        56  SAPC      H7Y           -14.9024837889       25.5622915082       10.8302163690  MEMB      56              0.0000000000
      6051        56  SAPC      C38           -13.1083457521       26.2353528036        9.9014556310  MEMB      56              0.0000000000
      6052        56  SAPC      H8X           -13.7777371863       27.0918332199        9.6719397886  MEMB      56              0.0000000000
      6053        56  SAPC      H8Y           -13.0568934692       25.6438382043        8.9624219849  MEMB      56              0.0000000000
      6054        56  SAPC      C39           -11.6201512327       26.7204198466       10.1991073185  MEMB      56              0.0000000000
      6055        56  SAPC      H9X           -10.9232073940       25.8552942343       10.2112713789  MEMB      56              0.0000000000
      6056        56  SAPC      H9Y           -11.5859344626       27.0670628161       11.2540903636  MEMB      56              0.0000000000
      6057        56  SAPC      C310          -10.9399577444       27.7078475244        9.2344421177  MEMB      56              0.0000000000
      6058        56  SAPC      H10X           -9.8536132955       27.7837667516        9.4544726062  MEMB      56              0.0000000000
      6059        56  SAPC      H10Y          -11.4801033096       28.6474983376        9.4786146688  MEMB      56              0.0000000000
      6060        56  SAPC      C311          -11.1315117695       27.5336576112        7.6868010293  MEMB      56              0.0000000000
      6061        56  SAPC      H11X          -11.3052848334       28.5127845709        7.1913878804  MEMB      56              0.0000000000
      6062        56  SAPC      H11Y          -12.0644160755       26.9373589292        7.5949408694  MEMB      56              0.0000000000
      6063        56  SAPC      C312           -9.8666874745       26.9880553055        6.9798258934  MEMB      56              0.0000000000
      6064        56  SAPC      H12X           -9.6345999781       26.0330480523        7.4979169517  MEMB      56              0.0000000000
      6065        56  SAPC      H12Y           -9.0038932294       27.6743613457        7.1172713126  MEMB      56              0.0000000000
      6066        56  SAPC      C313           -9.9727915959       26.6358797180        5.4829366949  MEMB      56              0.0000000000
      6067        56  SAPC      H13X          -10.6316562248       25.7446376471        5.5597863005  MEMB      56              0.0000000000
      6068        56  SAPC      H13Y           -8.9666131712       26.2478631662        5.2157868562  MEMB      56              0.0000000000
      6069        56  SAPC      C314          -10.4487544264       27.7624176408        4.5642979272  MEMB      56              0.0000000000
      6070        56  SAPC      H14X           -9.7982935077       28.6288191337        4.8104077773  MEMB      56              0.0000000000
      6071        56  SAPC      H14Y          -11.4832147204       28.1248628327        4.7455346285  MEMB      56              0.0000000000
      6072        56  SAPC      C315          -10.1561715156       27.3247347120        3.1039928483  MEMB      56              0.0000000000
      6073        56  SAPC      H15X          -10.5851144369       26.3349523190        2.8381751825  MEMB      56              0.0000000000
      6074        56  SAPC      H15Y           -9.0535592924       27.3170515158        2.9679471366  MEMB      56              0.0000000000
      6075        56  SAPC      C316          -10.6224778121       28.3077257879        1.9944512263  MEMB      56              0.0000000000
      6076        56  SAPC      H16X          -10.4640022962       29.3531579348        2.3354470963  MEMB      56              0.0000000000
      6077        56  SAPC      H16Y          -11.7333410512       28.3176214686        2.0087955469  MEMB      56              0.0000000000
      6078        56  SAPC      C317          -10.0671017591       27.9716049907        0.6329864371  MEMB      56              0.0000000000
      6079        56  SAPC      H17X          -10.1040980465       26.8649126340        0.5425204076  MEMB      56              0.0000000000
      6080        56  SAPC      H17Y           -9.0113562069       28.3096162987        0.7069525322  MEMB      56              0.0000000000
      6081        56  SAPC      C318          -10.8140012286       28.7237532422       -0.5078764083  MEMB      56              0.0000000000
      6082        56  SAPC      H18X          -10.6111041881       28.2513025114       -1.4927324477  MEMB      56              0.0000000000
      6083        56  SAPC      H18Y          -10.6490760634       29.8223263803       -0.5239234732  MEMB      56              0.0000000000
      6084        56  SAPC      H18Z          -11.8872425236       28.5339315713       -0.2923721321  MEMB      56              0.0000000000
      6085        57  OSM       N              11.7643492879       27.5979342458       21.5186525765  MEMB      57              0.0000000000
      6086        57  OSM       C15            12.0523138597       26.3792684868       22.3660689324  MEMB      57              0.0000000000
      6087        57  OSM       H15A           11.2848083826       25.6409571713       22.1865376021  MEMB      57              0.0000000000
      6088        57  OSM       H15B           12.1673866114       26.6426614491       23.4071177423  MEMB      57              0.0000000000
      6089        57  OSM       H15C           13.0156314799       25.9133368720       22.2200316568  MEMB      57              0.0000000000
      6090        57  OSM       C14            12.7272817475       28.6208399134       21.8455545625  MEMB      57              0.0000000000
      6091        57  OSM       H14A           12.8817412297       28.6651722893       22.9135326123  MEMB      57              0.0000000000
      6092        57  OSM       H14B           12.4509148767       29.5781092386       21.4288330297  MEMB      57              0.0000000000
      6093        57  OSM       H14C           13.7160789560       28.3988410586       21.4721963509  MEMB      57              0.0000000000
      6094        57  OSM       C13            11.6759617643       27.0452682554       20.0566403574  MEMB      57              0.0000000000
      6095        57  OSM       H13A           10.9812142850       26.2260971349       19.9440154291  MEMB      57              0.0000000000
      6096        57  OSM       H13B           12.6690328919       26.6559194927       19.8874742397  MEMB      57              0.0000000000
      6097        57  OSM       H13C           11.5811420372       27.8652419726       19.3601831902  MEMB      57              0.0000000000
      6098        57  OSM       C12            10.3342958549       28.0425809447       21.9986113912  MEMB      57              0.0000000000
      6099        57  OSM       H12A           10.1873077488       28.3721564861       23.0165380351  MEMB      57              0.0000000000
      6100        57  OSM       H12B            9.7194739699       27.1695462181       21.8367336492  MEMB      57              0.0000000000
      6101        57  OSM       C11             9.7348320309       29.2294115249       21.2482842984  MEMB      57              0.0000000000
      6102        57  OSM       H11A            8.6884888010       29.4230508677       21.5676440382  MEMB      57              0.0000000000
      6103        57  OSM       H11B            9.5968817966       28.8199233317       20.2247560282  MEMB      57              0.0000000000
      6104        57  OSM       P              10.4380694089       31.7201858420       20.3816020394  MEMB      57              0.0000000000
      6105        57  OSM       O13             9.9174135320       32.7073955191       21.3155726307  MEMB      57              0.0000000000
      6106        57  OSM       O14            11.7296769519       31.9633597468       19.7394591582  MEMB      57              0.0000000000
      6107        57  OSM       O11             9.2646537173       31.3988841618       19.3785278415  MEMB      57              0.0000000000
      6108        57  OSM       O12            10.5631458382       30.3747198115       21.1510262064  MEMB      57              0.0000000000
      6109        57  OSM       C1S             9.0438332233       32.1964371399       18.2282292368  MEMB      57              0.0000000000
      6110        57  OSM       H1S             9.4968768306       33.2087676398       18.2934929887  MEMB      57              0.0000000000
      6111        57  OSM       H1T             7.9701774789       32.3674642031       17.9994634089  MEMB      57              0.0000000000
      6112        57  OSM       NF             10.1288092866       32.3260284928       16.0674173494  MEMB      57              0.0000000000
      6113        57  OSM       HNF             9.5565108195       32.2515637082       15.2544363732  MEMB      57              0.0000000000
      6114        57  OSM       C2S             9.7032756853       31.4496920418       17.0727513254  MEMB      57              0.0000000000
      6115        57  OSM       H2S            10.5961741459       30.8834133294       17.4138990975  MEMB      57              0.0000000000
      6116        57  OSM       C3S             8.6392330482       30.4924251209       16.5596885702  MEMB      57              0.0000000000
      6117        57  OSM       H3S             7.6998822090       31.0739619820       16.4424022658  MEMB      57              0.0000000000
      6118        57  OSM       O3              8.4239016796       29.4355486628       17.5187323142  MEMB      57              0.0000000000
      6119        57  OSM       HO3             9.1374065654       29.5297131436       18.1540620950  MEMB      57              0.0000000000
      6120        57  OSM       C4S             9.0490940434       29.9686672625       15.2510359956  MEMB      57              0.0000000000
      6121        57  OSM       H4S            10.1022254679       29.6517641479       15.2289703186  MEMB      57              0.0000000000
      6122        57  OSM       C5S             8.3280357231       29.9471470490       14.0945869393  MEMB      57              0.0000000000
      6123        57  OSM       H5S             7.3294509517       30.3963204494       14.1998091897  MEMB      57              0.0000000000
      6124        57  OSM       C6S             8.6191905615       29.3741355261       12.7336523428  MEMB      57              0.0000000000
      6125        57  OSM       H6S             8.7324025377       28.2717477443       12.8126792740  MEMB      57              0.0000000000
      6126        57  OSM       H6T             9.5813946307       29.7658485566       12.3398942406  MEMB      57              0.0000000000
      6127        57  OSM       C7S             7.4825677331       29.6219313625       11.6653874851  MEMB      57              0.0000000000
      6128        57  OSM       H7S             6.5484667693       29.0872353516       11.9408432797  MEMB      57              0.0000000000
      6129        57  OSM       H7T             7.8646260172       29.0679686192       10.7813754861  MEMB      57              0.0000000000
      6130        57  OSM       C8S             7.1726753061       31.1309111067       11.4849088880  MEMB      57              0.0000000000
      6131        57  OSM       H8S             6.7018548677       31.5513379833       12.3991789753  MEMB      57              0.0000000000
      6132        57  OSM       H8T             6.3606936066       31.1711990008       10.7276883724  MEMB      57              0.0000000000
      6133        57  OSM       C9S             8.3292376171       32.1131518509       11.0391758771  MEMB      57              0.0000000000
      6134        57  OSM       H9S             9.1260111496       31.6416581160       10.4250370871  MEMB      57              0.0000000000
      6135        57  OSM       H9T             8.8283902257       32.3873797700       11.9930972391  MEMB      57              0.0000000000
      6136        57  OSM       C10S            7.8167288557       33.4713303166       10.4131859498  MEMB      57              0.0000000000
      6137        57  OSM       H10S            8.5896974876       34.2567838497       10.5542651566  MEMB      57              0.0000000000
      6138        57  OSM       H10T            6.8778824198       33.6989458306       10.9618923122  MEMB      57              0.0000000000
      6139        57  OSM       C11S            7.4959071192       33.4380349879        8.9382238602  MEMB      57              0.0000000000
      6140        57  OSM       H11S            6.8623739430       34.3208977734        8.7069019746  MEMB      57              0.0000000000
      6141        57  OSM       H11T            6.9115101316       32.5083508435        8.7694383387  MEMB      57              0.0000000000
      6142        57  OSM       C12S            8.6443335913       33.2479367165        7.9147688431  MEMB      57              0.0000000000
      6143        57  OSM       H12S            9.4232819848       32.5830140405        8.3453942112  MEMB      57              0.0000000000
      6144        57  OSM       H12T            9.1591631870       34.2026886310        7.6745189050  MEMB      57              0.0000000000
      6145        57  OSM       C13S            8.1804059749       32.7240266346        6.5395892150  MEMB      57              0.0000000000
      6146        57  OSM       H13S            7.2119119580       33.2368489127        6.3569592093  MEMB      57              0.0000000000
      6147        57  OSM       H13T            7.9616777587       31.6539050576        6.7428595126  MEMB      57              0.0000000000
      6148        57  OSM       C14S            9.1732715281       32.9243312566        5.4302776821  MEMB      57              0.0000000000
      6149        57  OSM       H14S           10.1720870381       32.5323548121        5.7184498448  MEMB      57              0.0000000000
      6150        57  OSM       H14T            9.4159480762       33.9967364697        5.2709784600  MEMB      57              0.0000000000
      6151        57  OSM       C15S            8.7608210123       32.1759925649        4.1190304251  MEMB      57              0.0000000000
      6152        57  OSM       H15S            7.6506065969       32.1693321716        4.0777882334  MEMB      57              0.0000000000
      6153        57  OSM       H15T            8.9439529960       31.0967225466        4.3086634905  MEMB      57              0.0000000000
      6154        57  OSM       C16S            9.2073067149       32.7776061375        2.7559648945  MEMB      57              0.0000000000
      6155        57  OSM       H16S            8.9614013990       33.8610403906        2.7606205915  MEMB      57              0.0000000000
      6156        57  OSM       H16T            8.5750468629       32.2085960407        2.0412650539  MEMB      57              0.0000000000
      6157        57  OSM       C17S           10.6496739582       32.5628539972        2.4383379801  MEMB      57              0.0000000000
      6158        57  OSM       H17S           11.0397997069       31.5307136468        2.5679885106  MEMB      57              0.0000000000
      6159        57  OSM       H17T           11.2267988384       33.1779420164        3.1614661367  MEMB      57              0.0000000000
      6160        57  OSM       C18S           11.0239731127       32.9996333013        0.9811991020  MEMB      57              0.0000000000
      6161        57  OSM       H18S           10.7535925088       32.1697616565        0.2937919821  MEMB      57              0.0000000000
      6162        57  OSM       H18T           12.1217119505       33.1424401911        0.8868746692  MEMB      57              0.0000000000
      6163        57  OSM       H18U           10.6469340209       34.0308399553        0.8115667143  MEMB      57              0.0000000000
      6164        57  OSM       C1F            11.1945741723       33.1678310820       16.1044759066  MEMB      57              0.0000000000
      6165        57  OSM       OF             12.1797345146       32.9885859594       16.8396536091  MEMB      57              0.0000000000
      6166        57  OSM       C2F            11.2972326493       34.2211900066       15.0858667942  MEMB      57              0.0000000000
      6167        57  OSM       H2F            12.3073088594       34.3189546040       14.6336400347  MEMB      57              0.0000000000
      6168        57  OSM       H2G            11.1009161055       35.2292749446       15.5095958021  MEMB      57              0.0000000000
      6169        57  OSM       C3F            10.4440605576       33.7653675269       13.8789663560  MEMB      57              0.0000000000
      6170        57  OSM       H3F             9.4033283435       34.1145413948       14.0500657751  MEMB      57              0.0000000000
      6171        57  OSM       H3G            10.4292313386       32.6765283664       13.6586698683  MEMB      57              0.0000000000
      6172        57  OSM       C4F            10.6828222321       34.5434698719       12.6247776907  MEMB      57              0.0000000000
      6173        57  OSM       H4F            11.2944917990       35.4673979722       12.7056343680  MEMB      57              0.0000000000
      6174        57  OSM       H4G             9.6784914272       34.7364881907       12.1907444775  MEMB      57              0.0000000000
      6175        57  OSM       C5F            11.5044865396       33.6865706550       11.5545531595  MEMB      57              0.0000000000
      6176        57  OSM       H5F            11.4366693803       34.3947337754       10.7011911547  MEMB      57              0.0000000000
      6177        57  OSM       H5G            11.0907523619       32.6754595678       11.3525646962  MEMB      57              0.0000000000
      6178        57  OSM       C6F            12.9676928741       33.5345158765       12.0187413987  MEMB      57              0.0000000000
      6179        57  OSM       H6F            13.0596033655       32.8224147250       12.8665536929  MEMB      57              0.0000000000
      6180        57  OSM       H6G            13.4109509606       34.5097985482       12.3131343397  MEMB      57              0.0000000000
      6181        57  OSM       C7F            13.8591440441       33.0273683494       10.8269089639  MEMB      57              0.0000000000
      6182        57  OSM       H7F            14.8737188327       32.6994996783       11.1390963093  MEMB      57              0.0000000000
      6183        57  OSM       H7G            14.0965279121       33.9084512467       10.1931402367  MEMB      57              0.0000000000
      6184        57  OSM       C8F            13.2552620761       31.8650879929        9.9364181079  MEMB      57              0.0000000000
      6185        57  OSM       H8F            13.9226131624       31.7155123966        9.0608663396  MEMB      57              0.0000000000
      6186        57  OSM       H8G            12.4256155884       32.3930360043        9.4194284280  MEMB      57              0.0000000000
      6187        57  OSM       C9F            12.6718139007       30.5643565351       10.5222841689  MEMB      57              0.0000000000
      6188        57  OSM       H9F            11.8670161752       30.7425834394       11.2506630504  MEMB      57              0.0000000000
      6189        57  OSM       C10F           12.9388840944       29.3360826730       10.0547553107  MEMB      57              0.0000000000
      6190        57  OSM       H10F           12.4575174609       28.4473154289       10.4887817740  MEMB      57              0.0000000000
      6191        57  OSM       C11F           13.7866293566       29.0666828948        8.8428089442  MEMB      57              0.0000000000
      6192        57  OSM       H11F           13.8126385978       27.9621257846        8.7261976673  MEMB      57              0.0000000000
      6193        57  OSM       H11G           14.7771943487       29.5695147722        8.8266175725  MEMB      57              0.0000000000
      6194        57  OSM       C12F           13.0161496709       29.5221944890        7.5593747740  MEMB      57              0.0000000000
      6195        57  OSM       H12F           12.7892696887       30.6097654595        7.5653557302  MEMB      57              0.0000000000
      6196        57  OSM       H12G           12.0827674728       28.9196568148        7.5511876882  MEMB      57              0.0000000000
      6197        57  OSM       C13F           13.7287612273       29.1149190191        6.2736719978  MEMB      57              0.0000000000
      6198        57  OSM       H13F           13.6810579813       28.0229144735        6.0747458526  MEMB      57              0.0000000000
      6199        57  OSM       H13G           14.7738075722       29.4899696556        6.3128652257  MEMB      57              0.0000000000
      6200        57  OSM       C14F           13.0107823835       29.7102453833        5.0960628496  MEMB      57              0.0000000000
      6201        57  OSM       H14F           13.1257979213       30.8074314868        5.2274977878  MEMB      57              0.0000000000
      6202        57  OSM       H14G           11.9475244270       29.4189035253        5.2336248143  MEMB      57              0.0000000000
      6203        57  OSM       C15F           13.5522329178       29.2823813488        3.7531883160  MEMB      57              0.0000000000
      6204        57  OSM       H15F           14.6547585178       29.3490280631        3.6335363401  MEMB      57              0.0000000000
      6205        57  OSM       H15G           13.1472584560       30.0312096346        3.0393442067  MEMB      57              0.0000000000
      6206        57  OSM       C16F           13.1037316118       27.9566985492        3.1549462477  MEMB      57              0.0000000000
      6207        57  OSM       H16F           12.0025620756       27.8866473826        3.2847139055  MEMB      57              0.0000000000
      6208        57  OSM       H16G           13.5809192524       27.0914704498        3.6628776844  MEMB      57              0.0000000000
      6209        57  OSM       C17F           13.3926590370       27.8859020921        1.5740939044  MEMB      57              0.0000000000
      6210        57  OSM       H17F           14.4403328190       28.2008379223        1.3804018533  MEMB      57              0.0000000000
      6211        57  OSM       H17G           12.7519897578       28.6266211620        1.0495000700  MEMB      57              0.0000000000
      6212        57  OSM       C18F           12.9887227626       26.5325551357        1.0151079679  MEMB      57              0.0000000000
      6213        57  OSM       H18F           13.1521381962       26.5295427191       -0.0838050152  MEMB      57              0.0000000000
      6214        57  OSM       H18G           11.9650454159       26.1650441598        1.2416925810  MEMB      57              0.0000000000
      6215        57  OSM       H18H           13.7102325625       25.7666236035        1.3716098238  MEMB      57              0.0000000000
      6216        58  SAPE      N              -9.2334035742      -27.9856931312       22.0696235660  MEMB      58              0.0000000000
      6217        58  SAPE      HN1            -8.5476061461      -27.7867777291       21.3135055479  MEMB      58              0.0000000000
      6218        58  SAPE      HN2           -10.1445213333      -27.5989255121       21.7504441243  MEMB      58              0.0000000000
      6219        58  SAPE      HN3            -8.9558499840      -27.5769375172       22.9847644518  MEMB      58              0.0000000000
      6220        58  SAPE      C12            -9.2010756176      -29.4609251076       22.1288828722  MEMB      58              0.0000000000
      6221        58  SAPE      H12A          -10.0053686624      -29.7437931721       22.8412163253  MEMB      58              0.0000000000
      6222        58  SAPE      H12B           -8.2065501786      -29.7324848997       22.5430030571  MEMB      58              0.0000000000
      6223        58  SAPE      C11            -9.6186992021      -30.0157385804       20.7367433045  MEMB      58              0.0000000000
      6224        58  SAPE      H11A           -9.6502748458      -31.1262453032       20.7268018757  MEMB      58              0.0000000000
      6225        58  SAPE      H11B           -8.9164568513      -29.5864918555       19.9904700321  MEMB      58              0.0000000000
      6226        58  SAPE      P             -11.5413384894      -30.2589903937       19.0431713315  MEMB      58              0.0000000000
      6227        58  SAPE      O13           -11.0018339038      -31.6643905273       18.9779198105  MEMB      58              0.0000000000
      6228        58  SAPE      O14           -12.9756435650      -30.0846603699       18.9979658575  MEMB      58              0.0000000000
      6229        58  SAPE      O12           -10.8978284473      -29.5040687373       20.2358634911  MEMB      58              0.0000000000
      6230        58  SAPE      O11           -10.8923196027      -29.4636883501       17.8098297892  MEMB      58              0.0000000000
      6231        58  SAPE      C1            -11.0506694572      -28.0546870714       17.8657438667  MEMB      58              0.0000000000
      6232        58  SAPE      HA            -12.1077551882      -27.7193959984       17.7988815431  MEMB      58              0.0000000000
      6233        58  SAPE      HB            -10.4193585686      -27.5986928903       18.6581055185  MEMB      58              0.0000000000
      6234        58  SAPE      C2            -10.3971798176      -27.5836947976       16.4756757808  MEMB      58              0.0000000000
      6235        58  SAPE      HS            -10.2554718159      -26.4861588022       16.5739344578  MEMB      58              0.0000000000
      6236        58  SAPE      O21           -11.0644380683      -27.8492522931       15.2308489079  MEMB      58              0.0000000000
      6237        58  SAPE      C21           -12.1636266015      -27.1299807209       14.9347665134  MEMB      58              0.0000000000
      6238        58  SAPE      O22           -12.6855835379      -26.3324700651       15.7251482068  MEMB      58              0.0000000000
      6239        58  SAPE      C22           -12.7148926830      -27.4365038061       13.5378636578  MEMB      58              0.0000000000
      6240        58  SAPE      H2R           -12.2636437901      -28.3332192876       13.0618421283  MEMB      58              0.0000000000
      6241        58  SAPE      H2S           -13.7985605921      -27.6678775062       13.6181833881  MEMB      58              0.0000000000
      6242        58  SAPE      C3             -9.0003824291      -28.1917360099       16.1450108055  MEMB      58              0.0000000000
      6243        58  SAPE      HX             -8.3685332088      -28.0006493879       17.0386399728  MEMB      58              0.0000000000
      6244        58  SAPE      HY             -8.5712697930      -27.7607913801       15.2152420600  MEMB      58              0.0000000000
      6245        58  SAPE      O31            -9.1413672800      -29.6840082066       16.0724512422  MEMB      58              0.0000000000
      6246        58  SAPE      C31            -8.2070841783      -30.2656719118       15.3422097770  MEMB      58              0.0000000000
      6247        58  SAPE      O32            -7.2055575422      -29.6953341890       14.9442062408  MEMB      58              0.0000000000
      6248        58  SAPE      C32            -8.5585440424      -31.7263057324       15.2023974234  MEMB      58              0.0000000000
      6249        58  SAPE      H2X            -9.3484872102      -31.9914931039       15.9372349552  MEMB      58              0.0000000000
      6250        58  SAPE      H2Y            -7.6889372877      -32.2894846799       15.6035646162  MEMB      58              0.0000000000
      6251        58  SAPE      C23           -12.3308252435      -26.2869590037       12.6115128794  MEMB      58              0.0000000000
      6252        58  SAPE      H3R           -12.8386931242      -25.3868259757       13.0191298171  MEMB      58              0.0000000000
      6253        58  SAPE      H3S           -12.6934355960      -26.4833634870       11.5798833531  MEMB      58              0.0000000000
      6254        58  SAPE      C24           -10.8013732714      -26.0708388626       12.3664526887  MEMB      58              0.0000000000
      6255        58  SAPE      H4R           -10.2329175193      -25.5771982071       13.1834578787  MEMB      58              0.0000000000
      6256        58  SAPE      H4S           -10.7764572759      -25.3659915373       11.5080292909  MEMB      58              0.0000000000
      6257        58  SAPE      C25            -9.9816687587      -27.2739788615       12.0677261328  MEMB      58              0.0000000000
      6258        58  SAPE      H5R            -9.7379674258      -27.9033400227       12.9363537679  MEMB      58              0.0000000000
      6259        58  SAPE      C26            -9.3726221153      -27.4853864874       10.8621440138  MEMB      58              0.0000000000
      6260        58  SAPE      H6R            -8.8133780588      -28.4321663955       10.8913655381  MEMB      58              0.0000000000
      6261        58  SAPE      C27            -9.3396313149      -26.6647649337        9.5934885934  MEMB      58              0.0000000000
      6262        58  SAPE      H7R           -10.1704324921      -25.9271867073        9.6017682388  MEMB      58              0.0000000000
      6263        58  SAPE      H7S            -9.6533246832      -27.3019648717        8.7391499172  MEMB      58              0.0000000000
      6264        58  SAPE      C28            -7.9758393915      -25.9531731027        9.3335993492  MEMB      58              0.0000000000
      6265        58  SAPE      H8R            -7.9263615779      -24.8803840569        9.5716651673  MEMB      58              0.0000000000
      6266        58  SAPE      C29            -6.8524331303      -26.6353115395        8.8202760495  MEMB      58              0.0000000000
      6267        58  SAPE      H9R            -6.0175386103      -25.9494832901        8.6138990723  MEMB      58              0.0000000000
      6268        58  SAPE      C210           -6.8981015070      -28.0683328902        8.4157328082  MEMB      58              0.0000000000
      6269        58  SAPE      H10R           -7.8833417227      -28.4408855445        8.0624228427  MEMB      58              0.0000000000
      6270        58  SAPE      H10S           -6.8496789076      -28.5583749453        9.4116414042  MEMB      58              0.0000000000
      6271        58  SAPE      C211           -5.8345714606      -28.6673973932        7.5957556777  MEMB      58              0.0000000000
      6272        58  SAPE      H11R           -4.8449413676      -28.4084624077        8.0002124215  MEMB      58              0.0000000000
      6273        58  SAPE      C212           -5.9213386305      -29.3878442474        6.5597207261  MEMB      58              0.0000000000
      6274        58  SAPE      H12R           -5.0342087504      -29.7661209843        6.0306580497  MEMB      58              0.0000000000
      6275        58  SAPE      C213           -7.2153591599      -29.8416910428        5.8025424783  MEMB      58              0.0000000000
      6276        58  SAPE      H13R           -8.1124050221      -29.6671561024        6.4343390329  MEMB      58              0.0000000000
      6277        58  SAPE      H13S           -7.1656842819      -30.9165535734        5.5259130795  MEMB      58              0.0000000000
      6278        58  SAPE      C214           -7.5206993870      -28.9281633268        4.6584160406  MEMB      58              0.0000000000
      6279        58  SAPE      H14R           -7.3639365283      -27.8490214209        4.8029077959  MEMB      58              0.0000000000
      6280        58  SAPE      C215           -8.0021484428      -29.2257333607        3.4621880590  MEMB      58              0.0000000000
      6281        58  SAPE      H15R           -8.0907856020      -28.4041073960        2.7361892278  MEMB      58              0.0000000000
      6282        58  SAPE      C216           -8.3444008450      -30.6047471898        3.0185491385  MEMB      58              0.0000000000
      6283        58  SAPE      H16R           -8.4780980238      -31.3681250343        3.8146012153  MEMB      58              0.0000000000
      6284        58  SAPE      H16S           -7.5373442370      -31.0107257296        2.3718951287  MEMB      58              0.0000000000
      6285        58  SAPE      C217           -9.6605105426      -30.6357300216        2.1230795255  MEMB      58              0.0000000000
      6286        58  SAPE      H17R           -9.4977299021      -30.0711622671        1.1801655444  MEMB      58              0.0000000000
      6287        58  SAPE      H17S          -10.4443066241      -30.1678198661        2.7563597661  MEMB      58              0.0000000000
      6288        58  SAPE      C218          -10.1033230949      -31.9663191040        1.7221132084  MEMB      58              0.0000000000
      6289        58  SAPE      H18R          -11.2060129513      -31.9090165630        1.5991803851  MEMB      58              0.0000000000
      6290        58  SAPE      H18S           -9.9339922380      -32.6257659528        2.6000539076  MEMB      58              0.0000000000
      6291        58  SAPE      C219           -9.2511449272      -32.6137840749        0.5196842296  MEMB      58              0.0000000000
      6292        58  SAPE      H19R           -8.2241884919      -32.5779287641        0.9420538856  MEMB      58              0.0000000000
      6293        58  SAPE      H19S           -9.2733358325      -31.9346934645       -0.3593288680  MEMB      58              0.0000000000
      6294        58  SAPE      C220           -9.5982913924      -34.0143137925        0.1075881088  MEMB      58              0.0000000000
      6295        58  SAPE      H20R          -10.5405130395      -34.1515518562       -0.4648671525  MEMB      58              0.0000000000
      6296        58  SAPE      H20S           -9.6393631357      -34.6922760154        0.9867935134  MEMB      58              0.0000000000
      6297        58  SAPE      H20T           -8.8639353670      -34.4274777813       -0.6165235976  MEMB      58              0.0000000000
      6298        58  SAPE      C33            -8.5054289248      -32.1791066746       13.7499939082  MEMB      58              0.0000000000
      6299        58  SAPE      H3X            -8.3178180044      -33.2727488779       13.6945907637  MEMB      58              0.0000000000
      6300        58  SAPE      H3Y            -7.5913082311      -31.7313091489       13.3048182296  MEMB      58              0.0000000000
      6301        58  SAPE      C34            -9.7923283488      -31.8922346435       13.0413382844  MEMB      58              0.0000000000
      6302        58  SAPE      H4X           -10.1789696282      -30.8829035313       13.2983990078  MEMB      58              0.0000000000
      6303        58  SAPE      H4Y           -10.5513255333      -32.5556473728       13.5083797037  MEMB      58              0.0000000000
      6304        58  SAPE      C35            -9.6976680719      -31.8582218498       11.5529562103  MEMB      58              0.0000000000
      6305        58  SAPE      H5X            -9.4593289596      -32.8938988878       11.2290914669  MEMB      58              0.0000000000
      6306        58  SAPE      H5Y            -8.8543156660      -31.1704572317       11.3292199362  MEMB      58              0.0000000000
      6307        58  SAPE      C36           -10.8960353428      -31.2847824537       10.8068820803  MEMB      58              0.0000000000
      6308        58  SAPE      H6X           -11.1867906665      -30.2863406598       11.1979014920  MEMB      58              0.0000000000
      6309        58  SAPE      H6Y           -11.8554120680      -31.8290238328       10.9399932597  MEMB      58              0.0000000000
      6310        58  SAPE      C37           -10.5399011631      -31.1736596261        9.3401004416  MEMB      58              0.0000000000
      6311        58  SAPE      H7X           -10.4349798652      -32.1880542571        8.8992873459  MEMB      58              0.0000000000
      6312        58  SAPE      H7Y            -9.5606006011      -30.6931261639        9.1294376791  MEMB      58              0.0000000000
      6313        58  SAPE      C38           -11.7362204614      -30.5285293143        8.6296567876  MEMB      58              0.0000000000
      6314        58  SAPE      H8X           -11.9324230154      -29.4901099676        8.9724548432  MEMB      58              0.0000000000
      6315        58  SAPE      H8Y           -12.5957941205      -31.2245164529        8.7348041107  MEMB      58              0.0000000000
      6316        58  SAPE      C39           -11.4107483207      -30.4716402541        7.1245590368  MEMB      58              0.0000000000
      6317        58  SAPE      H9X           -11.4724136921      -31.4969322545        6.7011273775  MEMB      58              0.0000000000
      6318        58  SAPE      H9Y           -10.3338512990      -30.2736738303        6.9363494683  MEMB      58              0.0000000000
      6319        58  SAPE      C310          -12.2995062366      -29.4702242508        6.3891695788  MEMB      58              0.0000000000
      6320        58  SAPE      H10X          -13.3566576573      -29.6963648401        6.6453187216  MEMB      58              0.0000000000
      6321        58  SAPE      H10Y          -12.2836525954      -29.6637760832        5.2952739284  MEMB      58              0.0000000000
      6322        58  SAPE      C311          -11.8771616306      -27.9568162450        6.6155980529  MEMB      58              0.0000000000
      6323        58  SAPE      H11X          -10.8090140356      -27.8777670574        6.3204154745  MEMB      58              0.0000000000
      6324        58  SAPE      H11Y          -11.8793399402      -27.7516230767        7.7074826314  MEMB      58              0.0000000000
      6325        58  SAPE      C312          -12.6860651043      -26.9788236898        5.7760036343  MEMB      58              0.0000000000
      6326        58  SAPE      H12X          -12.5196076588      -25.9567645925        6.1785064289  MEMB      58              0.0000000000
      6327        58  SAPE      H12Y          -13.7529845842      -27.1908653570        6.0019299935  MEMB      58              0.0000000000
      6328        58  SAPE      C313          -12.4977784930      -27.1332494414        4.2712896404  MEMB      58              0.0000000000
      6329        58  SAPE      H13X          -12.7188126344      -28.1281708810        3.8290269697  MEMB      58              0.0000000000
      6330        58  SAPE      H13Y          -11.4090844734      -26.9380959267        4.1664968868  MEMB      58              0.0000000000
      6331        58  SAPE      C314          -13.2227255879      -26.0093263062        3.4921941129  MEMB      58              0.0000000000
      6332        58  SAPE      H14X          -12.8992787314      -25.0293646500        3.9037497478  MEMB      58              0.0000000000
      6333        58  SAPE      H14Y          -14.3231675578      -25.9819682201        3.6425260830  MEMB      58              0.0000000000
      6334        58  SAPE      C315          -13.1780886319      -25.9718490641        1.9478969693  MEMB      58              0.0000000000
      6335        58  SAPE      H15X          -13.5491913993      -24.9935311367        1.5744045939  MEMB      58              0.0000000000
      6336        58  SAPE      H15Y          -13.6546456999      -26.8994770380        1.5648549651  MEMB      58              0.0000000000
      6337        58  SAPE      C316          -11.7258451438      -26.2232465374        1.3767548303  MEMB      58              0.0000000000
      6338        58  SAPE      H16X          -11.3077423208      -27.2485100669        1.4681101374  MEMB      58              0.0000000000
      6339        58  SAPE      H16Y          -11.0357253767      -25.5446642348        1.9222658186  MEMB      58              0.0000000000
      6340        58  SAPE      C317          -11.5580035580      -25.8787332724       -0.1139915619  MEMB      58              0.0000000000
      6341        58  SAPE      H17X          -11.7348637493      -24.7832733762       -0.1688522836  MEMB      58              0.0000000000
      6342        58  SAPE      H17Y          -12.2651637792      -26.3236401575       -0.8463192142  MEMB      58              0.0000000000
      6343        58  SAPE      C318          -10.1392507245      -26.2813543420       -0.7394585071  MEMB      58              0.0000000000
      6344        58  SAPE      H18X           -9.3994328361      -25.5316566101       -0.3859844036  MEMB      58              0.0000000000
      6345        58  SAPE      H18Y          -10.2168519902      -26.4002680769       -1.8413474435  MEMB      58              0.0000000000
      6346        58  SAPE      H18Z           -9.8086230532      -27.3127442986       -0.4919888927  MEMB      58              0.0000000000
      6347        59  OSM       N              32.7334340066        5.9888844045       22.4820181965  MEMB      59              0.0000000000
      6348        59  OSM       C15            32.6264041273        5.7877987205       23.9969582959  MEMB      59              0.0000000000
      6349        59  OSM       H15A           32.9649160704        4.7902794909       24.2352125613  MEMB      59              0.0000000000
      6350        59  OSM       H15B           31.5833267524        5.8647630187       24.2661537210  MEMB      59              0.0000000000
      6351        59  OSM       H15C           33.1570071398        6.6196658744       24.4361137318  MEMB      59              0.0000000000
      6352        59  OSM       C14            34.1792486954        6.2886684562       22.1338518471  MEMB      59              0.0000000000
      6353        59  OSM       H14A           34.5429924963        7.0093908422       22.8512426825  MEMB      59              0.0000000000
      6354        59  OSM       H14B           34.1425389290        6.7801055069       21.1728409344  MEMB      59              0.0000000000
      6355        59  OSM       H14C           34.8150699398        5.4280307068       22.2802549521  MEMB      59              0.0000000000
      6356        59  OSM       C13            32.2641576192        4.7611624264       21.8590214747  MEMB      59              0.0000000000
      6357        59  OSM       H13A           32.7642639032        3.8873403985       22.2498266022  MEMB      59              0.0000000000
      6358        59  OSM       H13B           32.5454774179        4.6986334887       20.8181808034  MEMB      59              0.0000000000
      6359        59  OSM       H13C           31.1967338259        4.7870254040       22.0213102513  MEMB      59              0.0000000000
      6360        59  OSM       C12            31.8998566847        7.2394713977       22.2394507413  MEMB      59              0.0000000000
      6361        59  OSM       H12A           32.3278682717        8.1148512933       22.7051930852  MEMB      59              0.0000000000
      6362        59  OSM       H12B           30.9269560099        7.1358138442       22.6967464402  MEMB      59              0.0000000000
      6363        59  OSM       C11            31.6333883414        7.5865362796       20.7551387249  MEMB      59              0.0000000000
      6364        59  OSM       H11A           32.5781703479        7.5905470705       20.1705946671  MEMB      59              0.0000000000
      6365        59  OSM       H11B           31.1676169393        8.5912422100       20.6660100501  MEMB      59              0.0000000000
      6366        59  OSM       P              29.4803610330        6.8686267645       19.5278045037  MEMB      59              0.0000000000
      6367        59  OSM       O13            28.8979724662        5.5947826923       19.1406063174  MEMB      59              0.0000000000
      6368        59  OSM       O14            28.7932038845        7.7676274037       20.4856290262  MEMB      59              0.0000000000
      6369        59  OSM       O11            29.7950160370        7.7946459938       18.2351226582  MEMB      59              0.0000000000
      6370        59  OSM       O12            30.9095884054        6.5472064173       20.1443982138  MEMB      59              0.0000000000
      6371        59  OSM       C1S            30.9250823995        7.4235254454       17.5194386137  MEMB      59              0.0000000000
      6372        59  OSM       H1S            30.7045324232        6.4792350912       16.9772259040  MEMB      59              0.0000000000
      6373        59  OSM       H1T            31.8265310559        7.1784741175       18.1208212304  MEMB      59              0.0000000000
      6374        59  OSM       NF             32.6705035140        8.2418114081       16.0317194987  MEMB      59              0.0000000000
      6375        59  OSM       HNF            33.4316847115        8.8696705414       16.1745651832  MEMB      59              0.0000000000
      6376        59  OSM       C2S            31.3007920022        8.5090907024       16.4818380104  MEMB      59              0.0000000000
      6377        59  OSM       H2S            30.6138145232        8.3329116222       15.6266515475  MEMB      59              0.0000000000
      6378        59  OSM       C3S            31.2216888678        9.9787277393       17.0001519700  MEMB      59              0.0000000000
      6379        59  OSM       H3S            32.0281027784       10.1600305080       17.7425445435  MEMB      59              0.0000000000
      6380        59  OSM       O3             29.9690119444       10.3091972415       17.6638109835  MEMB      59              0.0000000000
      6381        59  OSM       HO3            29.4933139116        9.4765118790       17.6196931835  MEMB      59              0.0000000000
      6382        59  OSM       C4S            31.4796717996       10.8643605421       15.8601553905  MEMB      59              0.0000000000
      6383        59  OSM       H4S            32.3943491725       11.4746321060       15.8295970441  MEMB      59              0.0000000000
      6384        59  OSM       C5S            30.6317975843       11.0636874895       14.8359788197  MEMB      59              0.0000000000
      6385        59  OSM       H5S            29.7094754686       10.4642953872       14.8431164297  MEMB      59              0.0000000000
      6386        59  OSM       C6S            30.9842873009       11.9155094095       13.6323321196  MEMB      59              0.0000000000
      6387        59  OSM       H6S            32.0224680396       12.3110677729       13.6382576458  MEMB      59              0.0000000000
      6388        59  OSM       H6T            30.3481251603       12.8254162334       13.6734242437  MEMB      59              0.0000000000
      6389        59  OSM       C7S            30.9963092497       11.2791872433       12.2441060194  MEMB      59              0.0000000000
      6390        59  OSM       H7S            31.6173385292       11.9915969398       11.6600551351  MEMB      59              0.0000000000
      6391        59  OSM       H7T            29.9259455051       11.3505978498       11.9550678529  MEMB      59              0.0000000000
      6392        59  OSM       C8S            31.4925843748        9.8501533402       12.0827651040  MEMB      59              0.0000000000
      6393        59  OSM       H8S            31.0739644807        9.1990932959       12.8797590586  MEMB      59              0.0000000000
      6394        59  OSM       H8T            32.6021344312        9.9025033664       12.0608720573  MEMB      59              0.0000000000
      6395        59  OSM       C9S            31.0053313063        9.0792427446       10.8208829583  MEMB      59              0.0000000000
      6396        59  OSM       H9S            29.9947919822        8.6280179089       10.9184908289  MEMB      59              0.0000000000
      6397        59  OSM       H9T            31.6824845775        8.2027683052       10.7338367640  MEMB      59              0.0000000000
      6398        59  OSM       C10S           31.0727873883        9.9077852338        9.5603680238  MEMB      59              0.0000000000
      6399        59  OSM       H10S           32.0520725310       10.4273925592        9.6333730895  MEMB      59              0.0000000000
      6400        59  OSM       H10T           30.3090569199       10.6969804561        9.7283198331  MEMB      59              0.0000000000
      6401        59  OSM       C11S           30.8913362223        9.1196333816        8.2395339022  MEMB      59              0.0000000000
      6402        59  OSM       H11S           30.0415247979        8.4124609843        8.3493012369  MEMB      59              0.0000000000
      6403        59  OSM       H11T           31.7883465744        8.4656994838        8.1941032215  MEMB      59              0.0000000000
      6404        59  OSM       C12S           30.7181774659       10.0003686560        6.9786257905  MEMB      59              0.0000000000
      6405        59  OSM       H12S           31.5788045053       10.7029579453        6.9818615661  MEMB      59              0.0000000000
      6406        59  OSM       H12T           29.7862653170       10.5423774383        7.2471163571  MEMB      59              0.0000000000
      6407        59  OSM       C13S           30.6021115845        9.2172861270        5.5978566186  MEMB      59              0.0000000000
      6408        59  OSM       H13S           31.6289232636        8.8801062170        5.3403912819  MEMB      59              0.0000000000
      6409        59  OSM       H13T           30.2535877953       10.0109137556        4.9028698154  MEMB      59              0.0000000000
      6410        59  OSM       C14S           29.7184499017        7.9876422235        5.7725095045  MEMB      59              0.0000000000
      6411        59  OSM       H14S           28.6383460108        8.2026437628        5.9190386719  MEMB      59              0.0000000000
      6412        59  OSM       H14T           29.9860889766        7.2084473228        6.5178592587  MEMB      59              0.0000000000
      6413        59  OSM       C15S           29.8115912258        7.0194773012        4.5360320201  MEMB      59              0.0000000000
      6414        59  OSM       H15S           29.0592478641        6.2122009908        4.6648926192  MEMB      59              0.0000000000
      6415        59  OSM       H15T           30.8140826916        6.5632619917        4.6816314899  MEMB      59              0.0000000000
      6416        59  OSM       C16S           29.8296354945        7.6564346700        3.1402810325  MEMB      59              0.0000000000
      6417        59  OSM       H16S           30.8805835386        7.8575977016        2.8413456665  MEMB      59              0.0000000000
      6418        59  OSM       H16T           29.2468771444        8.6010731953        3.1889829349  MEMB      59              0.0000000000
      6419        59  OSM       C17S           29.0369396065        6.8325490038        2.1077886974  MEMB      59              0.0000000000
      6420        59  OSM       H17S           29.1114934411        7.1710914857        1.0522541525  MEMB      59              0.0000000000
      6421        59  OSM       H17T           27.9970724827        6.7802447910        2.4954244586  MEMB      59              0.0000000000
      6422        59  OSM       C18S           29.6341787323        5.3862105911        2.0923163025  MEMB      59              0.0000000000
      6423        59  OSM       H18S           28.9380253120        4.8603832761        1.4044234329  MEMB      59              0.0000000000
      6424        59  OSM       H18T           29.6187055640        4.8804053492        3.0813785207  MEMB      59              0.0000000000
      6425        59  OSM       H18U           30.6484991089        5.3387715120        1.6415114486  MEMB      59              0.0000000000
      6426        59  OSM       C1F            33.0436689059        7.1928492631       15.2669119121  MEMB      59              0.0000000000
      6427        59  OSM       OF             32.3415512420        6.2472954782       15.1538772965  MEMB      59              0.0000000000
      6428        59  OSM       C2F            34.3909886479        7.1147693962       14.7783114440  MEMB      59              0.0000000000
      6429        59  OSM       H2F            35.1357169790        6.5821124749       15.4075785083  MEMB      59              0.0000000000
      6430        59  OSM       H2G            34.8372876632        8.1192859838       14.6168035454  MEMB      59              0.0000000000
      6431        59  OSM       C3F            34.4045441716        6.4358703007       13.3457007007  MEMB      59              0.0000000000
      6432        59  OSM       H3F            33.4481818331        6.6920614425       12.8416584007  MEMB      59              0.0000000000
      6433        59  OSM       H3G            34.4092254686        5.3271466909       13.4166302397  MEMB      59              0.0000000000
      6434        59  OSM       C4F            35.5981527081        6.7287822757       12.4535071010  MEMB      59              0.0000000000
      6435        59  OSM       H4F            35.6603111125        5.9553289399       11.6583800235  MEMB      59              0.0000000000
      6436        59  OSM       H4G            36.4500380832        6.5432205382       13.1421138481  MEMB      59              0.0000000000
      6437        59  OSM       C5F            35.4983087843        8.1371398524       11.8270279408  MEMB      59              0.0000000000
      6438        59  OSM       H5F            35.4432151952        8.7464772945       12.7543867580  MEMB      59              0.0000000000
      6439        59  OSM       H5G            34.5492634490        8.1473682140       11.2495079900  MEMB      59              0.0000000000
      6440        59  OSM       C6F            36.7010696418        8.6928031647       11.0001762469  MEMB      59              0.0000000000
      6441        59  OSM       H6F            37.6778922993        8.5931731405       11.5199958532  MEMB      59              0.0000000000
      6442        59  OSM       H6G            36.5983018735        9.7955533102       10.9124146668  MEMB      59              0.0000000000
      6443        59  OSM       C7F            36.9782152137        8.0141402109        9.6250784603  MEMB      59              0.0000000000
      6444        59  OSM       H7F            37.5115708034        7.0465527832        9.7418168947  MEMB      59              0.0000000000
      6445        59  OSM       H7G            37.7121404420        8.5871601399        9.0190064696  MEMB      59              0.0000000000
      6446        59  OSM       C8F            35.6726012240        7.8943599828        8.6931978273  MEMB      59              0.0000000000
      6447        59  OSM       H8F            34.9165909689        7.2774014675        9.2243589544  MEMB      59              0.0000000000
      6448        59  OSM       H8G            36.1219054192        7.2414585621        7.9146314098  MEMB      59              0.0000000000
      6449        59  OSM       C9F            35.1035261651        9.2032995409        8.1451386659  MEMB      59              0.0000000000
      6450        59  OSM       H9F            34.3522389403        9.7590639916        8.7253918480  MEMB      59              0.0000000000
      6451        59  OSM       C10F           35.5728873139        9.7834099419        6.9981222117  MEMB      59              0.0000000000
      6452        59  OSM       H10F           35.1385611857       10.7578847938        6.7302427052  MEMB      59              0.0000000000
      6453        59  OSM       C11F           36.6742324255        9.3004926914        6.1316552633  MEMB      59              0.0000000000
      6454        59  OSM       H11F           37.3751951353        8.5564560666        6.5668352141  MEMB      59              0.0000000000
      6455        59  OSM       H11G           37.3389513946       10.1905023660        6.1128870571  MEMB      59              0.0000000000
      6456        59  OSM       C12F           36.3257155848        8.9726336566        4.6655415456  MEMB      59              0.0000000000
      6457        59  OSM       H12F           37.2527445938        9.0557348572        4.0588836134  MEMB      59              0.0000000000
      6458        59  OSM       H12G           35.5965703109        9.6885361575        4.2294772999  MEMB      59              0.0000000000
      6459        59  OSM       C13F           35.8356507367        7.5187071493        4.4692459207  MEMB      59              0.0000000000
      6460        59  OSM       H13F           36.3436168049        6.8926456563        5.2336653562  MEMB      59              0.0000000000
      6461        59  OSM       H13G           36.3897884669        7.1418245280        3.5831238022  MEMB      59              0.0000000000
      6462        59  OSM       C14F           34.3537769429        7.2948736706        4.4690964249  MEMB      59              0.0000000000
      6463        59  OSM       H14F           33.8648748467        8.1229933403        3.9127567062  MEMB      59              0.0000000000
      6464        59  OSM       H14G           33.9727728596        7.2643156415        5.5122751333  MEMB      59              0.0000000000
      6465        59  OSM       C15F           34.0435243550        6.0076443039        3.7849415982  MEMB      59              0.0000000000
      6466        59  OSM       H15F           33.2633169236        5.5234903107        4.4103961985  MEMB      59              0.0000000000
      6467        59  OSM       H15G           34.8974147512        5.3077758522        3.9089431656  MEMB      59              0.0000000000
      6468        59  OSM       C16F           33.8263777520        6.0741271690        2.3467108805  MEMB      59              0.0000000000
      6469        59  OSM       H16F           34.5453611189        6.7969245519        1.9051815160  MEMB      59              0.0000000000
      6470        59  OSM       H16G           32.8428050841        6.5865113475        2.2806189029  MEMB      59              0.0000000000
      6471        59  OSM       C17F           34.0088999197        4.7332449526        1.6814773423  MEMB      59              0.0000000000
      6472        59  OSM       H17F           35.1013578672        4.5636407372        1.7914354031  MEMB      59              0.0000000000
      6473        59  OSM       H17G           33.8630520560        4.8307690437        0.5844182747  MEMB      59              0.0000000000
      6474        59  OSM       C18F           33.2012202113        3.5015346833        2.2261338861  MEMB      59              0.0000000000
      6475        59  OSM       H18F           32.1344240747        3.5936399495        1.9298513984  MEMB      59              0.0000000000
      6476        59  OSM       H18G           33.3321772430        3.5462883513        3.3284807587  MEMB      59              0.0000000000
      6477        59  OSM       H18H           33.6674992184        2.5600256666        1.8649343479  MEMB      59              0.0000000000
      6478        60  OSM       N             -31.8494841987       -3.1921576172       21.2658376869  MEMB      60              0.0000000000
      6479        60  OSM       C15           -32.0428496444       -1.8334956177       21.8776785182  MEMB      60              0.0000000000
      6480        60  OSM       H15A          -32.7330572209       -1.8975607893       22.7058748472  MEMB      60              0.0000000000
      6481        60  OSM       H15B          -32.4966410434       -1.2288386501       21.1064044839  MEMB      60              0.0000000000
      6482        60  OSM       H15C          -31.1188475800       -1.4366924209       22.2715913422  MEMB      60              0.0000000000
      6483        60  OSM       C14           -33.2436255891       -3.6618559191       20.9189324886  MEMB      60              0.0000000000
      6484        60  OSM       H14A          -33.8190049052       -2.8466107229       20.5057566924  MEMB      60              0.0000000000
      6485        60  OSM       H14B          -33.6331640535       -4.1722831113       21.7873355724  MEMB      60              0.0000000000
      6486        60  OSM       H14C          -33.0908151281       -4.3697639048       20.1177363922  MEMB      60              0.0000000000
      6487        60  OSM       C13           -31.0398533000       -2.9987020692       19.9914923341  MEMB      60              0.0000000000
      6488        60  OSM       H13A          -30.8891532471       -3.9755682826       19.5562659058  MEMB      60              0.0000000000
      6489        60  OSM       H13B          -30.0797465939       -2.6289361194       20.3199249345  MEMB      60              0.0000000000
      6490        60  OSM       H13C          -31.6044059719       -2.2721154711       19.4260260390  MEMB      60              0.0000000000
      6491        60  OSM       C12           -31.1346472248       -4.0484877844       22.2251384076  MEMB      60              0.0000000000
      6492        60  OSM       H12A          -31.8707320082       -4.2535939920       22.9883622980  MEMB      60              0.0000000000
      6493        60  OSM       H12B          -30.2397967414       -3.5107041147       22.5016005167  MEMB      60              0.0000000000
      6494        60  OSM       C11           -30.6886605686       -5.4518966217       21.6621266948  MEMB      60              0.0000000000
      6495        60  OSM       H11A          -30.1862899667       -5.9676118499       22.5082842957  MEMB      60              0.0000000000
      6496        60  OSM       H11B          -30.0164897482       -5.3336299540       20.7854737886  MEMB      60              0.0000000000
      6497        60  OSM       P             -31.6864271996       -7.5514772715       20.6602763815  MEMB      60              0.0000000000
      6498        60  OSM       O13           -30.6391668072       -8.2902072886       21.4306278227  MEMB      60              0.0000000000
      6499        60  OSM       O14           -33.0182671271       -8.1516965486       20.6160669101  MEMB      60              0.0000000000
      6500        60  OSM       O11           -31.1169076742       -7.3615690766       19.2061337900  MEMB      60              0.0000000000
      6501        60  OSM       O12           -31.8236506680       -6.0970533229       21.1456889624  MEMB      60              0.0000000000
      6502        60  OSM       C1S           -32.0993803402       -6.8891380506       18.1981804261  MEMB      60              0.0000000000
      6503        60  OSM       H1S           -32.2597628590       -5.8442390585       18.5399180261  MEMB      60              0.0000000000
      6504        60  OSM       H1T           -33.0478352434       -7.4613025135       18.1122606232  MEMB      60              0.0000000000
      6505        60  OSM       NF            -32.3193583914       -6.1905467466       15.8398381200  MEMB      60              0.0000000000
      6506        60  OSM       HNF           -32.8810821609       -6.6051771835       15.1281100908  MEMB      60              0.0000000000
      6507        60  OSM       C2S           -31.5495409787       -7.0000912751       16.7136490219  MEMB      60              0.0000000000
      6508        60  OSM       H2S           -30.5060654075       -6.6190523201       16.6966454600  MEMB      60              0.0000000000
      6509        60  OSM       C3S           -31.6622613502       -8.3601538385       16.1031736147  MEMB      60              0.0000000000
      6510        60  OSM       H3S           -32.7395113403       -8.6302491241       16.1332047158  MEMB      60              0.0000000000
      6511        60  OSM       O3            -30.9146251349       -9.2857942938       16.7311440654  MEMB      60              0.0000000000
      6512        60  OSM       HO3           -30.7532309872       -8.8029665661       17.5450416511  MEMB      60              0.0000000000
      6513        60  OSM       C4S           -31.3248641887       -8.4114362888       14.6668515854  MEMB      60              0.0000000000
      6514        60  OSM       H4S           -30.3524243913       -7.9400409359       14.4615537558  MEMB      60              0.0000000000
      6515        60  OSM       C5S           -32.1199155648       -8.8070556612       13.6212267883  MEMB      60              0.0000000000
      6516        60  OSM       H5S           -33.0835436352       -9.2677625735       13.8842287455  MEMB      60              0.0000000000
      6517        60  OSM       C6S           -31.8083908284       -8.8286138340       12.1733895884  MEMB      60              0.0000000000
      6518        60  OSM       H6S           -32.7017167853       -8.4567600453       11.6274830115  MEMB      60              0.0000000000
      6519        60  OSM       H6T           -31.4630038850       -9.8467268336       11.8932565640  MEMB      60              0.0000000000
      6520        60  OSM       C7S           -30.6652315384       -7.8125848633       11.9327478316  MEMB      60              0.0000000000
      6521        60  OSM       H7S           -29.7490259383       -8.1328436238       12.4734164745  MEMB      60              0.0000000000
      6522        60  OSM       H7T           -30.8905712692       -6.8223334397       12.3832417770  MEMB      60              0.0000000000
      6523        60  OSM       C8S           -30.4219560582       -7.5462871602       10.4247629220  MEMB      60              0.0000000000
      6524        60  OSM       H8S           -31.4050870149       -7.1837112839       10.0555565855  MEMB      60              0.0000000000
      6525        60  OSM       H8T           -30.1754545114       -8.5002402895        9.9114092517  MEMB      60              0.0000000000
      6526        60  OSM       C9S           -29.1949546922       -6.5183066763       10.1297974124  MEMB      60              0.0000000000
      6527        60  OSM       H9S           -28.2213915354       -6.9744678758       10.4098218695  MEMB      60              0.0000000000
      6528        60  OSM       H9T           -29.3272593804       -5.6812046604       10.8481820734  MEMB      60              0.0000000000
      6529        60  OSM       C10S          -29.1631257293       -5.6193877083        8.8771823983  MEMB      60              0.0000000000
      6530        60  OSM       H10S          -29.2795780570       -6.2511235447        7.9707223791  MEMB      60              0.0000000000
      6531        60  OSM       H10T          -28.3356459595       -4.8780979315        8.8678139039  MEMB      60              0.0000000000
      6532        60  OSM       C11S          -30.3631666481       -4.6666181024        8.8843166787  MEMB      60              0.0000000000
      6533        60  OSM       H11S          -30.1675992780       -3.9026033150        9.6668477699  MEMB      60              0.0000000000
      6534        60  OSM       H11T          -31.2621636867       -5.2689137227        9.1360414234  MEMB      60              0.0000000000
      6535        60  OSM       C12S          -30.7323370826       -3.8659698768        7.6877546506  MEMB      60              0.0000000000
      6536        60  OSM       H12S          -29.8097324897       -3.6136405662        7.1225537887  MEMB      60              0.0000000000
      6537        60  OSM       H12T          -31.2861306369       -2.9136968912        7.8320105196  MEMB      60              0.0000000000
      6538        60  OSM       C13S          -31.6949699952       -4.5822555343        6.6732602298  MEMB      60              0.0000000000
      6539        60  OSM       H13S          -32.4645271631       -5.0360424428        7.3337001894  MEMB      60              0.0000000000
      6540        60  OSM       H13T          -31.1515801271       -5.3525307167        6.0852772032  MEMB      60              0.0000000000
      6541        60  OSM       C14S          -32.3594537046       -3.5693089338        5.6873284017  MEMB      60              0.0000000000
      6542        60  OSM       H14S          -32.6666395915       -2.6258385192        6.1871497628  MEMB      60              0.0000000000
      6543        60  OSM       H14T          -33.2888750331       -4.0474999165        5.3107240293  MEMB      60              0.0000000000
      6544        60  OSM       C15S          -31.4972182837       -3.1563058041        4.5130580820  MEMB      60              0.0000000000
      6545        60  OSM       H15S          -31.2347624843       -4.1174207428        4.0214327289  MEMB      60              0.0000000000
      6546        60  OSM       H15T          -30.6037591620       -2.5750398102        4.8263981855  MEMB      60              0.0000000000
      6547        60  OSM       C16S          -32.2580246793       -2.3966387412        3.4040705924  MEMB      60              0.0000000000
      6548        60  OSM       H16S          -32.6752674091       -1.4534181053        3.8170644155  MEMB      60              0.0000000000
      6549        60  OSM       H16T          -33.1409383272       -2.9304992444        2.9920288455  MEMB      60              0.0000000000
      6550        60  OSM       C17S          -31.5308066026       -2.0929841579        2.0895830627  MEMB      60              0.0000000000
      6551        60  OSM       H17S          -32.2456241981       -1.4196213763        1.5700256489  MEMB      60              0.0000000000
      6552        60  OSM       H17T          -31.3068359420       -2.9352411546        1.4005549499  MEMB      60              0.0000000000
      6553        60  OSM       C18S          -30.1823992881       -1.3114628761        2.3305997190  MEMB      60              0.0000000000
      6554        60  OSM       H18S          -29.7733962740       -1.1147468482        1.3165272324  MEMB      60              0.0000000000
      6555        60  OSM       H18T          -29.4364449027       -1.9445658897        2.8569578986  MEMB      60              0.0000000000
      6556        60  OSM       H18U          -30.3237012670       -0.3714166684        2.9056366131  MEMB      60              0.0000000000
      6557        60  OSM       C1F           -32.3741892221       -4.8179280491       15.9826649864  MEMB      60              0.0000000000
      6558        60  OSM       OF            -31.4601938783       -4.1167618118       16.5095255587  MEMB      60              0.0000000000
      6559        60  OSM       C2F           -33.6133885281       -4.2127771499       15.3839454654  MEMB      60              0.0000000000
      6560        60  OSM       H2F           -33.9377806059       -3.3448470413       15.9969612652  MEMB      60              0.0000000000
      6561        60  OSM       H2G           -34.3103954505       -5.0766297583       15.4314960756  MEMB      60              0.0000000000
      6562        60  OSM       C3F           -33.2834699404       -3.7854863942       13.9079018613  MEMB      60              0.0000000000
      6563        60  OSM       H3F           -32.2250509543       -3.4525502916       13.8511228921  MEMB      60              0.0000000000
      6564        60  OSM       H3G           -33.9815508125       -2.9601645117       13.6512932112  MEMB      60              0.0000000000
      6565        60  OSM       C4F           -33.4170761674       -5.0212732258       12.9984504140  MEMB      60              0.0000000000
      6566        60  OSM       H4F           -34.4954912960       -5.2877659449       12.9804648393  MEMB      60              0.0000000000
      6567        60  OSM       H4G           -32.9026830701       -5.9554656102       13.3099068252  MEMB      60              0.0000000000
      6568        60  OSM       C5F           -33.0169312768       -4.8487149439       11.4716921485  MEMB      60              0.0000000000
      6569        60  OSM       H5F           -32.7566946252       -5.8196170453       10.9984625459  MEMB      60              0.0000000000
      6570        60  OSM       H5G           -32.0212575651       -4.3701362776       11.5896641219  MEMB      60              0.0000000000
      6571        60  OSM       C6F           -33.8672228093       -3.8551980748       10.7003389006  MEMB      60              0.0000000000
      6572        60  OSM       H6F           -33.2380457492       -3.4672198086        9.8709232689  MEMB      60              0.0000000000
      6573        60  OSM       H6G           -34.1389754591       -2.9881369609       11.3396168092  MEMB      60              0.0000000000
      6574        60  OSM       C7F           -35.2326157732       -4.4524294460       10.1744701022  MEMB      60              0.0000000000
      6575        60  OSM       H7F           -36.0739719038       -3.7270141841       10.1890851645  MEMB      60              0.0000000000
      6576        60  OSM       H7G           -35.6217147766       -5.2799990813       10.8053833656  MEMB      60              0.0000000000
      6577        60  OSM       C8F           -34.8873532081       -4.9745587619        8.7348369259  MEMB      60              0.0000000000
      6578        60  OSM       H8F           -33.8722555211       -5.4210330684        8.6673201441  MEMB      60              0.0000000000
      6579        60  OSM       H8G           -34.8137714873       -4.1598711882        7.9830449743  MEMB      60              0.0000000000
      6580        60  OSM       C9F           -35.8951475394       -5.9744662859        8.1609249567  MEMB      60              0.0000000000
      6581        60  OSM       H9F           -36.8112460413       -5.5723030116        7.7037284791  MEMB      60              0.0000000000
      6582        60  OSM       C10F          -35.6730470173       -7.2886339447        8.1468560305  MEMB      60              0.0000000000
      6583        60  OSM       H10F          -36.4872933557       -8.0173079928        8.0202162767  MEMB      60              0.0000000000
      6584        60  OSM       C11F          -34.4155517390       -7.9772954336        8.6551190174  MEMB      60              0.0000000000
      6585        60  OSM       H11F          -34.5938632732       -8.3893427919        9.6713581280  MEMB      60              0.0000000000
      6586        60  OSM       H11G          -33.5787023547       -7.2548669338        8.7651231764  MEMB      60              0.0000000000
      6587        60  OSM       C12F          -33.8227564311       -9.1095702330        7.7432869030  MEMB      60              0.0000000000
      6588        60  OSM       H12F          -34.6284363164       -9.8023566689        7.4188678580  MEMB      60              0.0000000000
      6589        60  OSM       H12G          -33.1254599205       -9.7612528598        8.3119762540  MEMB      60              0.0000000000
      6590        60  OSM       C13F          -32.9290498231       -8.5934704169        6.6010982242  MEMB      60              0.0000000000
      6591        60  OSM       H13F          -32.4304872391       -9.5200533986        6.2444465943  MEMB      60              0.0000000000
      6592        60  OSM       H13G          -32.1470594291       -7.8919018695        6.9625029269  MEMB      60              0.0000000000
      6593        60  OSM       C14F          -33.4476279223       -7.7559387883        5.4897265506  MEMB      60              0.0000000000
      6594        60  OSM       H14F          -33.4943132560       -6.6865412008        5.7872667060  MEMB      60              0.0000000000
      6595        60  OSM       H14G          -34.3894027800       -8.1776009250        5.0779232369  MEMB      60              0.0000000000
      6596        60  OSM       C15F          -32.4477420661       -7.8391290040        4.3539283202  MEMB      60              0.0000000000
      6597        60  OSM       H15F          -32.5947795699       -8.8545989770        3.9278744405  MEMB      60              0.0000000000
      6598        60  OSM       H15G          -31.4372243380       -7.6198262104        4.7602291775  MEMB      60              0.0000000000
      6599        60  OSM       C16F          -32.6031703134       -6.6773189768        3.3589304918  MEMB      60              0.0000000000
      6600        60  OSM       H16F          -31.6096797361       -6.4233821687        2.9313634594  MEMB      60              0.0000000000
      6601        60  OSM       H16G          -32.8557341634       -5.8106585393        4.0065676791  MEMB      60              0.0000000000
      6602        60  OSM       C17F          -33.7326613111       -6.7933783991        2.2940720143  MEMB      60              0.0000000000
      6603        60  OSM       H17F          -34.6350347897       -6.7257495334        2.9386410339  MEMB      60              0.0000000000
      6604        60  OSM       H17G          -33.8266483232       -7.7262297973        1.6980234632  MEMB      60              0.0000000000
      6605        60  OSM       C18F          -33.7895945646       -5.5684312533        1.3693213281  MEMB      60              0.0000000000
      6606        60  OSM       H18F          -32.7636353051       -5.3637572756        0.9953725002  MEMB      60              0.0000000000
      6607        60  OSM       H18G          -34.1267034116       -4.6784073914        1.9425009992  MEMB      60              0.0000000000
      6608        60  OSM       H18H          -34.4109078199       -5.8150560168        0.4819274641  MEMB      60              0.0000000000
      6609        61  SOPE      N               7.4477787374      -32.7456994456       22.6408492303  MEMB      61              0.0000000000
      6610        61  SOPE      HN1             6.5850900049      -32.6394629298       23.2118854008  MEMB      61              0.0000000000
      6611        61  SOPE      HN2             7.2109983611      -33.3757053955       21.8479888882  MEMB      61              0.0000000000
      6612        61  SOPE      HN3             8.3047099853      -33.2384652650       22.9640373010  MEMB      61              0.0000000000
      6613        61  SOPE      C12             7.9799735741      -31.5186637882       21.9853093393  MEMB      61              0.0000000000
      6614        61  SOPE      H12A            8.3017240066      -30.7495257703       22.7196282650  MEMB      61              0.0000000000
      6615        61  SOPE      H12B            7.1032730242      -31.1539172232       21.4085276699  MEMB      61              0.0000000000
      6616        61  SOPE      C11             9.0662955618      -31.9209536848       20.9608459880  MEMB      61              0.0000000000
      6617        61  SOPE      H11A            8.7408075128      -32.8197924817       20.3947474281  MEMB      61              0.0000000000
      6618        61  SOPE      H11B            9.9111127809      -32.3014486052       21.5738945467  MEMB      61              0.0000000000
      6619        61  SOPE      P              10.5909552141      -29.8130812202       20.5763989630  MEMB      61              0.0000000000
      6620        61  SOPE      O13            11.3731571505      -30.3723310057       21.6502459275  MEMB      61              0.0000000000
      6621        61  SOPE      O14             9.9374252027      -28.5065819614       20.8496412358  MEMB      61              0.0000000000
      6622        61  SOPE      O12             9.4624555717      -30.7788555254       20.1296820756  MEMB      61              0.0000000000
      6623        61  SOPE      O11            11.4882884932      -29.8313493654       19.2070272373  MEMB      61              0.0000000000
      6624        61  SOPE      C1             11.6153758170      -31.0471043719       18.5305311416  MEMB      61              0.0000000000
      6625        61  SOPE      HA             11.1237621456      -31.9802909208       18.8795293581  MEMB      61              0.0000000000
      6626        61  SOPE      HB             12.7037561602      -31.2596627616       18.5981207973  MEMB      61              0.0000000000
      6627        61  SOPE      C2             11.2048020240      -30.7594039235       17.0002108043  MEMB      61              0.0000000000
      6628        61  SOPE      HS             11.5212823904      -31.5668805926       16.3058459656  MEMB      61              0.0000000000
      6629        61  SOPE      O21            11.7276241725      -29.5092304607       16.5053932915  MEMB      61              0.0000000000
      6630        61  SOPE      C21            12.9996320439      -29.4658903892       16.2652623404  MEMB      61              0.0000000000
      6631        61  SOPE      O22            13.7886000928      -30.4042278331       16.2144701091  MEMB      61              0.0000000000
      6632        61  SOPE      C22            13.4340472704      -28.0475853288       15.8947785721  MEMB      61              0.0000000000
      6633        61  SOPE      H2R            14.5344320220      -27.9813934737       15.7565993184  MEMB      61              0.0000000000
      6634        61  SOPE      H2S            13.1094335938      -27.3563711525       16.7017296894  MEMB      61              0.0000000000
      6635        61  SOPE      C3              9.6291006134      -30.8519584809       16.8880426819  MEMB      61              0.0000000000
      6636        61  SOPE      HX              9.2870860951      -29.9437006164       17.4287966005  MEMB      61              0.0000000000
      6637        61  SOPE      HY              9.3290391011      -31.8487956530       17.2761142585  MEMB      61              0.0000000000
      6638        61  SOPE      O31             9.1146775394      -30.5844395135       15.5658561272  MEMB      61              0.0000000000
      6639        61  SOPE      C31             7.7524009537      -30.4891345914       15.4685781013  MEMB      61              0.0000000000
      6640        61  SOPE      O32             6.9419818856      -30.9384345698       16.2932037007  MEMB      61              0.0000000000
      6641        61  SOPE      C32             7.4131394100      -30.0329205263       14.0992518740  MEMB      61              0.0000000000
      6642        61  SOPE      H2X             8.3543756808      -29.9788232856       13.5114859577  MEMB      61              0.0000000000
      6643        61  SOPE      H2Y             6.9534099894      -29.0216826684       14.0800725822  MEMB      61              0.0000000000
      6644        61  SOPE      C23            12.7639601423      -27.5289185260       14.6325983015  MEMB      61              0.0000000000
      6645        61  SOPE      H3R            13.0554995190      -26.4591156250       14.5629714191  MEMB      61              0.0000000000
      6646        61  SOPE      H3S            11.6584692150      -27.5292462847       14.7430994108  MEMB      61              0.0000000000
      6647        61  SOPE      C24            13.1254666603      -28.0795630609       13.2600879586  MEMB      61              0.0000000000
      6648        61  SOPE      H4R            14.1989704023      -27.8033593736       13.1851070152  MEMB      61              0.0000000000
      6649        61  SOPE      H4S            12.9837554451      -29.1814303234       13.2487882440  MEMB      61              0.0000000000
      6650        61  SOPE      C25            12.4188800577      -27.3193282626       12.1897493464  MEMB      61              0.0000000000
      6651        61  SOPE      H5R            11.3427477971      -27.2530593787       12.4578331658  MEMB      61              0.0000000000
      6652        61  SOPE      H5S            12.7944383100      -26.2808699724       12.0677612215  MEMB      61              0.0000000000
      6653        61  SOPE      C26            12.4626431582      -27.9969751291       10.7723787344  MEMB      61              0.0000000000
      6654        61  SOPE      H6R            12.5638407063      -27.2166413831        9.9880580206  MEMB      61              0.0000000000
      6655        61  SOPE      H6S            13.3753994195      -28.6222821210       10.6714405340  MEMB      61              0.0000000000
      6656        61  SOPE      C27            11.2585441692      -28.9590331100       10.5742784252  MEMB      61              0.0000000000
      6657        61  SOPE      H7R            11.3393942047      -29.4358519028        9.5740643470  MEMB      61              0.0000000000
      6658        61  SOPE      H7S            11.2816700627      -29.7481103257       11.3560349505  MEMB      61              0.0000000000
      6659        61  SOPE      C28             9.8793626528      -28.3430455398       10.5127597657  MEMB      61              0.0000000000
      6660        61  SOPE      H8R             9.1860466303      -29.1510233991       10.1952608287  MEMB      61              0.0000000000
      6661        61  SOPE      H8S             9.5281270213      -28.0817850999       11.5338854401  MEMB      61              0.0000000000
      6662        61  SOPE      C29             9.7389711549      -27.0796185308        9.7446290744  MEMB      61              0.0000000000
      6663        61  SOPE      H91            10.0951221344      -26.1274637767       10.1648166519  MEMB      61              0.0000000000
      6664        61  SOPE      C210            9.2698123143      -26.9510120301        8.4597290151  MEMB      61              0.0000000000
      6665        61  SOPE      H101            9.2213082048      -25.9842743415        7.9371719782  MEMB      61              0.0000000000
      6666        61  SOPE      C211            8.8032030989      -28.1103046375        7.5145866161  MEMB      61              0.0000000000
      6667        61  SOPE      H11R            7.7380373355      -28.2133478459        7.2160491840  MEMB      61              0.0000000000
      6668        61  SOPE      H11S            8.9625224007      -29.0802318086        8.0324479937  MEMB      61              0.0000000000
      6669        61  SOPE      C212            9.7677371753      -28.1211148312        6.2911274833  MEMB      61              0.0000000000
      6670        61  SOPE      H12R            9.6547917627      -29.0740720053        5.7312731864  MEMB      61              0.0000000000
      6671        61  SOPE      H12S           10.7886102687      -28.0875728006        6.7281783063  MEMB      61              0.0000000000
      6672        61  SOPE      C213            9.6538130311      -26.8769831904        5.2740191704  MEMB      61              0.0000000000
      6673        61  SOPE      H13R           10.3070962888      -27.1940777439        4.4331896357  MEMB      61              0.0000000000
      6674        61  SOPE      H13S            9.9165285230      -25.8967811213        5.7262420900  MEMB      61              0.0000000000
      6675        61  SOPE      C214            8.1858137139      -26.7160124525        4.7595324115  MEMB      61              0.0000000000
      6676        61  SOPE      H14R            7.6440383506      -26.1206926301        5.5252961927  MEMB      61              0.0000000000
      6677        61  SOPE      H14S            7.6207537185      -27.6639580714        4.6313633199  MEMB      61              0.0000000000
      6678        61  SOPE      C215            8.0932703312      -25.8853798947        3.4784402250  MEMB      61              0.0000000000
      6679        61  SOPE      H15R            8.5736701724      -26.3945799709        2.6157396106  MEMB      61              0.0000000000
      6680        61  SOPE      H15S            8.6991004946      -24.9854262501        3.7179690608  MEMB      61              0.0000000000
      6681        61  SOPE      C216            6.6820421399      -25.5518861582        3.0048694030  MEMB      61              0.0000000000
      6682        61  SOPE      H16R            6.6474327406      -24.8157635509        2.1734567371  MEMB      61              0.0000000000
      6683        61  SOPE      H16S            6.0546957537      -25.0973643171        3.8012157550  MEMB      61              0.0000000000
      6684        61  SOPE      C217            5.8529815899      -26.7072129088        2.3789156948  MEMB      61              0.0000000000
      6685        61  SOPE      H17R            5.7103246396      -27.6292900983        2.9820278128  MEMB      61              0.0000000000
      6686        61  SOPE      H17S            6.2883393977      -27.0875563077        1.4301669110  MEMB      61              0.0000000000
      6687        61  SOPE      C218            4.4381675642      -26.2212566235        2.0934369358  MEMB      61              0.0000000000
      6688        61  SOPE      H18R            4.4365337174      -25.4145283876        1.3295600991  MEMB      61              0.0000000000
      6689        61  SOPE      H18S            3.9725905695      -25.9810620178        3.0731642383  MEMB      61              0.0000000000
      6690        61  SOPE      H18T            3.8276531936      -26.9830230820        1.5630545538  MEMB      61              0.0000000000
      6691        61  SOPE      C33             6.4604566851      -30.9603202840       13.3357263287  MEMB      61              0.0000000000
      6692        61  SOPE      H3X             5.5227646570      -30.8264073121       13.9163484433  MEMB      61              0.0000000000
      6693        61  SOPE      H3Y             6.6687644496      -32.0430519081       13.4721855438  MEMB      61              0.0000000000
      6694        61  SOPE      C34             6.4476653475      -30.4975992163       11.8318332616  MEMB      61              0.0000000000
      6695        61  SOPE      H4X             7.2393534290      -31.1026623224       11.3404576574  MEMB      61              0.0000000000
      6696        61  SOPE      H4Y             6.7157934607      -29.4194409976       11.8336178408  MEMB      61              0.0000000000
      6697        61  SOPE      C35             5.0638384284      -30.6097119073       11.2639876372  MEMB      61              0.0000000000
      6698        61  SOPE      H5X             4.2494105196      -30.1205368924       11.8399530508  MEMB      61              0.0000000000
      6699        61  SOPE      H5Y             4.7804714241      -31.6717196536       11.1022369627  MEMB      61              0.0000000000
      6700        61  SOPE      C36             4.9660040126      -29.9744215151        9.9072759682  MEMB      61              0.0000000000
      6701        61  SOPE      H6X             5.7179002607      -30.4340670438        9.2307420128  MEMB      61              0.0000000000
      6702        61  SOPE      H6Y             5.2929694540      -28.9201265956       10.0332792027  MEMB      61              0.0000000000
      6703        61  SOPE      C37             3.6330124260      -30.2147152699        9.2141811942  MEMB      61              0.0000000000
      6704        61  SOPE      H7X             2.7582733648      -29.9581320685        9.8492535222  MEMB      61              0.0000000000
      6705        61  SOPE      H7Y             3.6032148883      -31.2924945337        8.9461786622  MEMB      61              0.0000000000
      6706        61  SOPE      C38             3.3965446437      -29.3369709255        8.0226702515  MEMB      61              0.0000000000
      6707        61  SOPE      H8X             3.5628604993      -28.2692629670        8.2808557554  MEMB      61              0.0000000000
      6708        61  SOPE      H8Y             2.4086919206      -29.5905642030        7.5820368959  MEMB      61              0.0000000000
      6709        61  SOPE      C39             4.4222931887      -29.5809727076        6.9027598758  MEMB      61              0.0000000000
      6710        61  SOPE      H9X             5.4650965383      -29.4338771461        7.2566607869  MEMB      61              0.0000000000
      6711        61  SOPE      H9Y             4.1589587615      -28.7577251215        6.2047352618  MEMB      61              0.0000000000
      6712        61  SOPE      C310            4.2409211835      -30.9809380389        6.2808746547  MEMB      61              0.0000000000
      6713        61  SOPE      H10X            3.1563354774      -31.0938179044        6.0681486123  MEMB      61              0.0000000000
      6714        61  SOPE      H10Y            4.5065559943      -31.8083141980        6.9731224633  MEMB      61              0.0000000000
      6715        61  SOPE      C311            4.9128820345      -31.2801094593        4.8879528890  MEMB      61              0.0000000000
      6716        61  SOPE      H11X            4.5310907313      -30.6456830023        4.0596674863  MEMB      61              0.0000000000
      6717        61  SOPE      H11Y            4.5840834857      -32.3218580453        4.6855366375  MEMB      61              0.0000000000
      6718        61  SOPE      C312            6.4132162453      -31.2638322041        4.9217190229  MEMB      61              0.0000000000
      6719        61  SOPE      H12X            6.7321621878      -31.9679661983        5.7197091810  MEMB      61              0.0000000000
      6720        61  SOPE      H12Y            6.7321460401      -30.2469916508        5.2357890391  MEMB      61              0.0000000000
      6721        61  SOPE      C313            7.0869905898      -31.6439087933        3.5483862127  MEMB      61              0.0000000000
      6722        61  SOPE      H13X            6.8195504431      -30.8161419442        2.8573011524  MEMB      61              0.0000000000
      6723        61  SOPE      H13Y            6.7129703541      -32.6120402013        3.1519620309  MEMB      61              0.0000000000
      6724        61  SOPE      C314            8.6112461774      -31.6595156549        3.5768099001  MEMB      61              0.0000000000
      6725        61  SOPE      H14X            8.8874452532      -32.4493249749        4.3077245429  MEMB      61              0.0000000000
      6726        61  SOPE      H14Y            8.9969787218      -30.6845132911        3.9440999247  MEMB      61              0.0000000000
      6727        61  SOPE      C315            9.3397985527      -31.9345021331        2.1933858191  MEMB      61              0.0000000000
      6728        61  SOPE      H15X            8.9977488483      -32.8755424380        1.7119651287  MEMB      61              0.0000000000
      6729        61  SOPE      H15Y           10.4339975625      -31.9811868663        2.3801236628  MEMB      61              0.0000000000
      6730        61  SOPE      C316            9.0974600513      -30.8714156911        1.0939019176  MEMB      61              0.0000000000
      6731        61  SOPE      H16X            8.1179331044      -31.0356039941        0.5960164808  MEMB      61              0.0000000000
      6732        61  SOPE      H16Y            9.8576918664      -30.9359745204        0.2863123385  MEMB      61              0.0000000000
      6733        61  SOPE      C317            8.9656204762      -29.3714028879        1.6153680829  MEMB      61              0.0000000000
      6734        61  SOPE      H17X            8.1916581162      -29.4206642217        2.4109033273  MEMB      61              0.0000000000
      6735        61  SOPE      H17Y            8.6048233761      -28.7128817584        0.7965295279  MEMB      61              0.0000000000
      6736        61  SOPE      C318           10.2542252058      -28.7669212326        2.1446352275  MEMB      61              0.0000000000
      6737        61  SOPE      H18X           11.0845287355      -29.0719172990        1.4724044251  MEMB      61              0.0000000000
      6738        61  SOPE      H18Y           10.5904946275      -29.0620310412        3.1615676060  MEMB      61              0.0000000000
      6739        61  SOPE      H18Z           10.3104295471      -27.6574112126        2.1324075073  MEMB      61              0.0000000000
      6740        62  SOPE      N               5.9465194209      -31.0522571079       18.8167149430  MEMB      62              0.0000000000
      6741        62  SOPE      HN1             5.2650449140      -30.5876448012       18.1832104298  MEMB      62              0.0000000000
      6742        62  SOPE      HN2             6.6946224463      -30.3408423534       18.9425358387  MEMB      62              0.0000000000
      6743        62  SOPE      HN3             6.3388296803      -31.9569355036       18.4861857337  MEMB      62              0.0000000000
      6744        62  SOPE      C12             5.0471402401      -31.3149584873       19.9979362605  MEMB      62              0.0000000000
      6745        62  SOPE      H12A            4.0236277357      -31.2355177042       19.5731629688  MEMB      62              0.0000000000
      6746        62  SOPE      H12B            5.2397366645      -30.5033785845       20.7318066380  MEMB      62              0.0000000000
      6747        62  SOPE      C11             5.3658485316      -32.6512269853       20.6397595636  MEMB      62              0.0000000000
      6748        62  SOPE      H11A            6.4025962239      -32.6089411601       21.0368582331  MEMB      62              0.0000000000
      6749        62  SOPE      H11B            5.2171231206      -33.3556361038       19.7935860319  MEMB      62              0.0000000000
      6750        62  SOPE      P               3.4160403300      -34.0374329333       21.7562759510  MEMB      62              0.0000000000
      6751        62  SOPE      O13             2.3548927980      -33.8398061579       22.8216436897  MEMB      62              0.0000000000
      6752        62  SOPE      O14             4.2067712292      -35.2507456257       21.9085916169  MEMB      62              0.0000000000
      6753        62  SOPE      O12             4.4726539192      -32.8862810086       21.7899712962  MEMB      62              0.0000000000
      6754        62  SOPE      O11             2.8175633851      -33.8920051272       20.2691066522  MEMB      62              0.0000000000
      6755        62  SOPE      C1              1.5092395665      -34.2633922148       20.0805643169  MEMB      62              0.0000000000
      6756        62  SOPE      HA              0.8997081261      -33.7797200043       20.8735673087  MEMB      62              0.0000000000
      6757        62  SOPE      HB              1.4347336637      -35.3665217506       20.1895374052  MEMB      62              0.0000000000
      6758        62  SOPE      C2              1.1029820356      -33.8267927920       18.6304760006  MEMB      62              0.0000000000
      6759        62  SOPE      HS              0.0807578877      -34.1829854417       18.3804637075  MEMB      62              0.0000000000
      6760        62  SOPE      O21             2.0483693152      -34.2993220303       17.6599432612  MEMB      62              0.0000000000
      6761        62  SOPE      C21             1.9894556067      -35.5533829934       17.3010222174  MEMB      62              0.0000000000
      6762        62  SOPE      O22             1.1848045112      -36.3535863184       17.6988321252  MEMB      62              0.0000000000
      6763        62  SOPE      C22             3.0177257148      -35.8218313017       16.2204790633  MEMB      62              0.0000000000
      6764        62  SOPE      H2R             3.4857724466      -36.8090988165       16.4218644349  MEMB      62              0.0000000000
      6765        62  SOPE      H2S             3.7992770999      -35.0336361688       16.2678818576  MEMB      62              0.0000000000
      6766        62  SOPE      C3              1.0166882769      -32.3288054974       18.4315047526  MEMB      62              0.0000000000
      6767        62  SOPE      HX              2.0016485313      -31.9692302899       18.7987649340  MEMB      62              0.0000000000
      6768        62  SOPE      HY              0.2568560126      -31.7688907011       19.0175687163  MEMB      62              0.0000000000
      6769        62  SOPE      O31             0.7481587312      -31.9344526657       17.0511976830  MEMB      62              0.0000000000
      6770        62  SOPE      C31             1.7315031488      -31.9752122184       16.1582916395  MEMB      62              0.0000000000
      6771        62  SOPE      O32             2.8909014318      -32.0469003562       16.4678943666  MEMB      62              0.0000000000
      6772        62  SOPE      C32             1.1352583543      -32.0074021345       14.6877687464  MEMB      62              0.0000000000
      6773        62  SOPE      H2X             0.2182633026      -32.6340176598       14.7159425480  MEMB      62              0.0000000000
      6774        62  SOPE      H2Y             1.8414312704      -32.4810970400       13.9727484905  MEMB      62              0.0000000000
      6775        62  SOPE      C23             2.3331244337      -35.9242822238       14.8889438956  MEMB      62              0.0000000000
      6776        62  SOPE      H3R             1.6889798020      -35.0212042318       14.8269067015  MEMB      62              0.0000000000
      6777        62  SOPE      H3S             1.5234902328      -36.6848997095       14.8723769824  MEMB      62              0.0000000000
      6778        62  SOPE      C24             3.2871081169      -36.1334907330       13.6961654278  MEMB      62              0.0000000000
      6779        62  SOPE      H4R             3.5594915664      -37.1861662384       13.9242069734  MEMB      62              0.0000000000
      6780        62  SOPE      H4S             2.6265524950      -36.2214816180       12.8072082782  MEMB      62              0.0000000000
      6781        62  SOPE      C25             4.4136692222      -35.1398343182       13.6770339822  MEMB      62              0.0000000000
      6782        62  SOPE      H5R             4.0723370985      -34.1704321684       14.0990210182  MEMB      62              0.0000000000
      6783        62  SOPE      H5S             5.1999541554      -35.4595637743       14.3938672538  MEMB      62              0.0000000000
      6784        62  SOPE      C26             5.1820717297      -34.9988422035       12.2915695956  MEMB      62              0.0000000000
      6785        62  SOPE      H6R             5.9698884764      -34.2156728554       12.2739185256  MEMB      62              0.0000000000
      6786        62  SOPE      H6S             5.7540575087      -35.9450514173       12.1827518284  MEMB      62              0.0000000000
      6787        62  SOPE      C27             4.2738433498      -34.8333599237       11.0514858216  MEMB      62              0.0000000000
      6788        62  SOPE      H7R             4.8931942543      -34.9784396734       10.1406190722  MEMB      62              0.0000000000
      6789        62  SOPE      H7S             3.4862290266      -35.6011315363       10.8949248437  MEMB      62              0.0000000000
      6790        62  SOPE      C28             3.5654160191      -33.4133973102       10.8617127992  MEMB      62              0.0000000000
      6791        62  SOPE      H8R             3.2648098540      -33.3535956835        9.7938269377  MEMB      62              0.0000000000
      6792        62  SOPE      H8S             2.6829764809      -33.3153845467       11.5295564314  MEMB      62              0.0000000000
      6793        62  SOPE      C29             4.4477558444      -32.2232062354       11.2460917526  MEMB      62              0.0000000000
      6794        62  SOPE      H91             4.0949097986      -31.7291339211       12.1633661806  MEMB      62              0.0000000000
      6795        62  SOPE      C210            5.3982504012      -31.8448172925       10.4290073336  MEMB      62              0.0000000000
      6796        62  SOPE      H101            5.9974175292      -30.9534275902       10.6665428582  MEMB      62              0.0000000000
      6797        62  SOPE      C211            5.8004254301      -32.4442082225        9.0701598717  MEMB      62              0.0000000000
      6798        62  SOPE      H11R            5.7751533880      -31.7762955505        8.1827063794  MEMB      62              0.0000000000
      6799        62  SOPE      H11S            5.1508685482      -33.2799594091        8.7326441361  MEMB      62              0.0000000000
      6800        62  SOPE      C212            7.2482908904      -33.1169369347        9.0098745796  MEMB      62              0.0000000000
      6801        62  SOPE      H12R            7.1054727874      -34.1169987911        9.4722599080  MEMB      62              0.0000000000
      6802        62  SOPE      H12S            7.9300164914      -32.6297525180        9.7394107199  MEMB      62              0.0000000000
      6803        62  SOPE      C213            7.8547089982      -33.2326976628        7.6561947807  MEMB      62              0.0000000000
      6804        62  SOPE      H13R            8.9496936522      -33.3966478625        7.7481187113  MEMB      62              0.0000000000
      6805        62  SOPE      H13S            7.6238827161      -32.3274772736        7.0548492762  MEMB      62              0.0000000000
      6806        62  SOPE      C214            7.4043247550      -34.4943067334        6.9023505261  MEMB      62              0.0000000000
      6807        62  SOPE      H14R            6.3056899925      -34.5519006658        6.7474130399  MEMB      62              0.0000000000
      6808        62  SOPE      H14S            7.8163910968      -35.3962947501        7.4032905228  MEMB      62              0.0000000000
      6809        62  SOPE      C215            7.7852715750      -34.6576739901        5.4074599413  MEMB      62              0.0000000000
      6810        62  SOPE      H15R            7.2485990044      -35.5076149076        4.9342756776  MEMB      62              0.0000000000
      6811        62  SOPE      H15S            8.8738406140      -34.8587633627        5.3131110067  MEMB      62              0.0000000000
      6812        62  SOPE      C216            7.5463518848      -33.3956994644        4.4970540245  MEMB      62              0.0000000000
      6813        62  SOPE      H16R            8.1484097441      -32.5139879582        4.8043522189  MEMB      62              0.0000000000
      6814        62  SOPE      H16S            6.4745100082      -33.1219708822        4.5997590388  MEMB      62              0.0000000000
      6815        62  SOPE      C217            7.9950145874      -33.7403492678        3.0024362441  MEMB      62              0.0000000000
      6816        62  SOPE      H17R            9.0013276486      -34.1875689132        2.8552990009  MEMB      62              0.0000000000
      6817        62  SOPE      H17S            8.1586228821      -32.8352467233        2.3792645088  MEMB      62              0.0000000000
      6818        62  SOPE      C218            6.9732815918      -34.5711347363        2.1817938644  MEMB      62              0.0000000000
      6819        62  SOPE      H18R            7.4089533836      -34.9743737727        1.2426937599  MEMB      62              0.0000000000
      6820        62  SOPE      H18S            6.0719378645      -33.9603365654        1.9608281347  MEMB      62              0.0000000000
      6821        62  SOPE      H18T            6.5690067758      -35.3390339804        2.8754895956  MEMB      62              0.0000000000
      6822        62  SOPE      C33             0.5238821120      -30.5903548189       14.2467144159  MEMB      62              0.0000000000
      6823        62  SOPE      H3X             0.7877224922      -29.9672978852       15.1279117484  MEMB      62              0.0000000000
      6824        62  SOPE      H3Y            -0.5701270927      -30.7648173000       14.1628842651  MEMB      62              0.0000000000
      6825        62  SOPE      C34             1.0081268352      -30.0605975864       12.9096945639  MEMB      62              0.0000000000
      6826        62  SOPE      H4X             2.1168273178      -30.0790017935       12.8406606789  MEMB      62              0.0000000000
      6827        62  SOPE      H4Y             0.6408922700      -29.0184529006       12.7939590997  MEMB      62              0.0000000000
      6828        62  SOPE      C35             0.6008929492      -30.9259238662       11.7255347680  MEMB      62              0.0000000000
      6829        62  SOPE      H5X            -0.5000846795      -31.0730978621       11.7029881557  MEMB      62              0.0000000000
      6830        62  SOPE      H5Y             1.0095822932      -31.9586103363       11.7547319859  MEMB      62              0.0000000000
      6831        62  SOPE      C36             1.0305838498      -30.2777366310       10.4123361466  MEMB      62              0.0000000000
      6832        62  SOPE      H6X             1.9903069031      -29.8014062199       10.7062105111  MEMB      62              0.0000000000
      6833        62  SOPE      H6Y             0.3514242367      -29.4138644163       10.2486671516  MEMB      62              0.0000000000
      6834        62  SOPE      C37             0.9358320842      -31.1951538958        9.1595981199  MEMB      62              0.0000000000
      6835        62  SOPE      H7X            -0.0688799769      -31.6483923745        9.0201363207  MEMB      62              0.0000000000
      6836        62  SOPE      H7Y             1.6131176418      -32.0336335432        9.4289627730  MEMB      62              0.0000000000
      6837        62  SOPE      C38             1.2625753215      -30.5431348627        7.8152228233  MEMB      62              0.0000000000
      6838        62  SOPE      H8X             0.3942571018      -29.9867161525        7.4020132464  MEMB      62              0.0000000000
      6839        62  SOPE      H8Y             1.6138273887      -31.2635239071        7.0458189330  MEMB      62              0.0000000000
      6840        62  SOPE      C39             2.3950381329      -29.5344945035        7.9015082301  MEMB      62              0.0000000000
      6841        62  SOPE      H9X             3.3077884125      -29.9556837802        8.3745914279  MEMB      62              0.0000000000
      6842        62  SOPE      H9Y             2.0900750117      -28.7387732197        8.6143519174  MEMB      62              0.0000000000
      6843        62  SOPE      C310            2.6523418409      -28.8661218438        6.4634873933  MEMB      62              0.0000000000
      6844        62  SOPE      H10X            1.7140063868      -28.3030315731        6.2717144701  MEMB      62              0.0000000000
      6845        62  SOPE      H10Y            2.6758691729      -29.6147957363        5.6429666317  MEMB      62              0.0000000000
      6846        62  SOPE      C311            3.8196980441      -27.9998131007        6.3138935342  MEMB      62              0.0000000000
      6847        62  SOPE      H11X            4.0113423214      -27.5074293436        7.2912121563  MEMB      62              0.0000000000
      6848        62  SOPE      H11Y            3.6934861241      -27.2150111103        5.5376998911  MEMB      62              0.0000000000
      6849        62  SOPE      C312            5.0752318070      -28.7925563536        5.9792122316  MEMB      62              0.0000000000
      6850        62  SOPE      H12X            5.2604089109      -29.4788855943        6.8330168401  MEMB      62              0.0000000000
      6851        62  SOPE      H12Y            5.8794151593      -28.0288408439        5.9132666353  MEMB      62              0.0000000000
      6852        62  SOPE      C313            5.2130750041      -29.6630811598        4.6845768774  MEMB      62              0.0000000000
      6853        62  SOPE      H13X            4.6096221379      -30.5917540110        4.7725076433  MEMB      62              0.0000000000
      6854        62  SOPE      H13Y            6.2482114404      -30.0560021730        4.5927773409  MEMB      62              0.0000000000
      6855        62  SOPE      C314            4.9713840528      -28.8320045867        3.4388944917  MEMB      62              0.0000000000
      6856        62  SOPE      H14X            5.9237995967      -28.3122989581        3.1998727379  MEMB      62              0.0000000000
      6857        62  SOPE      H14Y            4.2037457598      -28.0363220965        3.5481736402  MEMB      62              0.0000000000
      6858        62  SOPE      C315            4.5794173512      -29.7747370271        2.2416366397  MEMB      62              0.0000000000
      6859        62  SOPE      H15X            3.6852804149      -30.4216137198        2.3696662665  MEMB      62              0.0000000000
      6860        62  SOPE      H15Y            5.4598816797      -30.4519175735        2.2186131682  MEMB      62              0.0000000000
      6861        62  SOPE      C316            4.5450219654      -29.0644465328        0.9343337532  MEMB      62              0.0000000000
      6862        62  SOPE      H16X            5.5290836267      -28.9084948440        0.4427827730  MEMB      62              0.0000000000
      6863        62  SOPE      H16Y            4.0565642730      -28.0670683539        0.9654260180  MEMB      62              0.0000000000
      6864        62  SOPE      C317            3.6289081919      -29.8103922445       -0.0834313133  MEMB      62              0.0000000000
      6865        62  SOPE      H17X            2.6096673166      -29.8590301270        0.3560057021  MEMB      62              0.0000000000
      6866        62  SOPE      H17Y            4.0316959780      -30.8453549561       -0.1140144870  MEMB      62              0.0000000000
      6867        62  SOPE      C318            3.5934911508      -29.0292875803       -1.4269625511  MEMB      62              0.0000000000
      6868        62  SOPE      H18X            3.0504672216      -28.0601096395       -1.4151078666  MEMB      62              0.0000000000
      6869        62  SOPE      H18Y            2.9350056917      -29.6618732909       -2.0598559736  MEMB      62              0.0000000000
      6870        62  SOPE      H18Z            4.5824218312      -28.9404734287       -1.9254107738  MEMB      62              0.0000000000
      6871        63  SAPS      N              31.0069251677      -14.8374386242       21.8189029180  MEMB      63              0.0000000000
      6872        63  SAPS      HN1            31.9180853204      -15.2674599930       21.5610878045  MEMB      63              0.0000000000
      6873        63  SAPS      HN2            30.8530318500      -14.6879412377       22.8365312672  MEMB      63              0.0000000000
      6874        63  SAPS      HN3            30.2656247267      -15.3821049264       21.3337100988  MEMB      63              0.0000000000
      6875        63  SAPS      C12            31.1450361346      -13.4915415475       21.0795307554  MEMB      63              0.0000000000
      6876        63  SAPS      H12A           30.1522585027      -13.0663732429       21.0844887556  MEMB      63              0.0000000000
      6877        63  SAPS      C13            31.9538966748      -12.4061414756       21.8764608059  MEMB      63              0.0000000000
      6878        63  SAPS      O13A           32.6929464550      -12.6460782604       22.8785443432  MEMB      63              0.0000000000
      6879        63  SAPS      O13B           31.9012965494      -11.3043745482       21.2851529956  MEMB      63              0.0000000000
      6880        63  SAPS      C11            31.6753235529      -13.5271583114       19.5813645352  MEMB      63              0.0000000000
      6881        63  SAPS      H11A           32.7509249350      -13.7978515440       19.6456130013  MEMB      63              0.0000000000
      6882        63  SAPS      H11B           31.6432878801      -12.4751495702       19.2255945711  MEMB      63              0.0000000000
      6883        63  SAPS      P              31.0960987959      -15.7772250955       18.2712646590  MEMB      63              0.0000000000
      6884        63  SAPS      O13            31.5176887003      -15.6599708850       16.8517904301  MEMB      63              0.0000000000
      6885        63  SAPS      O14            31.9207441545      -16.4992117889       19.1960963026  MEMB      63              0.0000000000
      6886        63  SAPS      O12            30.8298100211      -14.2543085994       18.7813402040  MEMB      63              0.0000000000
      6887        63  SAPS      O11            29.5679921584      -16.3843986026       18.3795520400  MEMB      63              0.0000000000
      6888        63  SAPS      C1             28.4969227213      -15.6418746962       17.8460465356  MEMB      63              0.0000000000
      6889        63  SAPS      HA             27.7059899987      -15.3819202519       18.5816891967  MEMB      63              0.0000000000
      6890        63  SAPS      HB             28.8912529609      -14.6581150414       17.5128176454  MEMB      63              0.0000000000
      6891        63  SAPS      C2             27.8977450013      -16.4428835938       16.6584409204  MEMB      63              0.0000000000
      6892        63  SAPS      HS             27.5330248427      -17.4333289890       17.0053103703  MEMB      63              0.0000000000
      6893        63  SAPS      O21            28.5933341856      -16.5261448254       15.4619612914  MEMB      63              0.0000000000
      6894        63  SAPS      C21            29.3962454596      -17.6071581530       15.3905579243  MEMB      63              0.0000000000
      6895        63  SAPS      O22            29.6634697315      -18.3153449380       16.3332402601  MEMB      63              0.0000000000
      6896        63  SAPS      C22            29.9037956686      -17.8843745537       13.9852253700  MEMB      63              0.0000000000
      6897        63  SAPS      H2R            29.8930766889      -18.9885274461       13.8625378829  MEMB      63              0.0000000000
      6898        63  SAPS      H2S            29.3807346604      -17.3423793501       13.1685434778  MEMB      63              0.0000000000
      6899        63  SAPS      C3             26.5466263333      -15.7795605408       16.3100235152  MEMB      63              0.0000000000
      6900        63  SAPS      HX             25.8745999801      -16.0839918662       17.1406999149  MEMB      63              0.0000000000
      6901        63  SAPS      HY             26.1020441771      -16.2659938202       15.4155678819  MEMB      63              0.0000000000
      6902        63  SAPS      O31            26.5343605714      -14.3649699516       16.1365369717  MEMB      63              0.0000000000
      6903        63  SAPS      C31            26.8909331145      -13.8647470045       14.9033979691  MEMB      63              0.0000000000
      6904        63  SAPS      O32            27.2384146409      -14.5697949529       13.9469474717  MEMB      63              0.0000000000
      6905        63  SAPS      C32            26.9721444881      -12.3318195793       15.1024474551  MEMB      63              0.0000000000
      6906        63  SAPS      H2X            26.0481573007      -11.9519968504       15.5885579091  MEMB      63              0.0000000000
      6907        63  SAPS      H2Y            27.0247367639      -11.7865940550       14.1358635771  MEMB      63              0.0000000000
      6908        63  SAPS      C23            31.3549846625      -17.3586242535       13.9507600243  MEMB      63              0.0000000000
      6909        63  SAPS      H3R            31.8063135639      -17.6659989684       14.9183052676  MEMB      63              0.0000000000
      6910        63  SAPS      H3S            31.4325462658      -16.2531613749       13.8716582956  MEMB      63              0.0000000000
      6911        63  SAPS      C24            32.2985820133      -17.9165384098       12.8572548822  MEMB      63              0.0000000000
      6912        63  SAPS      H4R            32.2029459391      -19.0226408755       12.8986366194  MEMB      63              0.0000000000
      6913        63  SAPS      H4S            33.3846023642      -17.7469361011       13.0188592871  MEMB      63              0.0000000000
      6914        63  SAPS      C25            31.9128907134      -17.3714848017       11.4573973542  MEMB      63              0.0000000000
      6915        63  SAPS      H5R            32.2146652185      -16.3622466079       11.1405841675  MEMB      63              0.0000000000
      6916        63  SAPS      C26            31.3056540514      -18.1112261674       10.4962540010  MEMB      63              0.0000000000
      6917        63  SAPS      H6R            31.1235665036      -17.4865281358        9.6093507590  MEMB      63              0.0000000000
      6918        63  SAPS      C27            30.8252540859      -19.5685133161       10.4063273531  MEMB      63              0.0000000000
      6919        63  SAPS      H7R            30.9309917732      -20.0619538110       11.3961030414  MEMB      63              0.0000000000
      6920        63  SAPS      H7S            31.4129138796      -20.2034924439        9.7093488822  MEMB      63              0.0000000000
      6921        63  SAPS      C28            29.3679993422      -19.5809727976       10.0657803412  MEMB      63              0.0000000000
      6922        63  SAPS      H8R            28.6809133927      -19.9252780976       10.8527780017  MEMB      63              0.0000000000
      6923        63  SAPS      C29            28.8118082036      -19.1325751654        8.9406543365  MEMB      63              0.0000000000
      6924        63  SAPS      H9R            27.7316316875      -19.3376784680        8.9067271777  MEMB      63              0.0000000000
      6925        63  SAPS      C210           29.3809468525      -18.5266769907        7.6517861126  MEMB      63              0.0000000000
      6926        63  SAPS      H10R           30.4914058354      -18.5074712264        7.6229217565  MEMB      63              0.0000000000
      6927        63  SAPS      H10S           29.1443167010      -17.4437085220        7.7259920261  MEMB      63              0.0000000000
      6928        63  SAPS      C211           28.9555729734      -19.2198810847        6.3876892580  MEMB      63              0.0000000000
      6929        63  SAPS      H11R           27.8895880954      -19.4613160103        6.2636531585  MEMB      63              0.0000000000
      6930        63  SAPS      C212           29.7091641158      -19.6836769237        5.3548954236  MEMB      63              0.0000000000
      6931        63  SAPS      H12R           29.1284241410      -19.9476110076        4.4587476491  MEMB      63              0.0000000000
      6932        63  SAPS      C213           31.2334674194      -19.6010094765        5.2146646365  MEMB      63              0.0000000000
      6933        63  SAPS      H13R           31.7500791587      -19.8158340159        6.1744997637  MEMB      63              0.0000000000
      6934        63  SAPS      H13S           31.4968433998      -18.5402075550        5.0155326947  MEMB      63              0.0000000000
      6935        63  SAPS      C214           31.8417699833      -20.4451355805        4.1686475038  MEMB      63              0.0000000000
      6936        63  SAPS      H14R           31.8843327558      -21.5147368770        4.4219095278  MEMB      63              0.0000000000
      6937        63  SAPS      C215           32.2438040225      -20.2482830607        2.9020084749  MEMB      63              0.0000000000
      6938        63  SAPS      H15R           32.5663098875      -21.1355472516        2.3374277263  MEMB      63              0.0000000000
      6939        63  SAPS      C216           32.1099058303      -18.9139748537        2.2577541530  MEMB      63              0.0000000000
      6940        63  SAPS      H16R           33.1655638974      -18.6532177102        2.0299111688  MEMB      63              0.0000000000
      6941        63  SAPS      H16S           31.7783385612      -18.1226644144        2.9635959295  MEMB      63              0.0000000000
      6942        63  SAPS      C217           31.2897340043      -18.8276609019        0.9886752646  MEMB      63              0.0000000000
      6943        63  SAPS      H17R           31.2183651364      -17.7401774319        0.7727886929  MEMB      63              0.0000000000
      6944        63  SAPS      H17S           30.2633220244      -19.2059192042        1.1828922604  MEMB      63              0.0000000000
      6945        63  SAPS      C218           31.9211555442      -19.5060373013       -0.1755016984  MEMB      63              0.0000000000
      6946        63  SAPS      H18R           32.1623627208      -20.5432351733        0.1412954984  MEMB      63              0.0000000000
      6947        63  SAPS      H18S           32.9014746993      -19.0033762362       -0.3191230506  MEMB      63              0.0000000000
      6948        63  SAPS      C219           31.0606846519      -19.7059596572       -1.4558452500  MEMB      63              0.0000000000
      6949        63  SAPS      H19R           31.0685919708      -18.7784079711       -2.0673248768  MEMB      63              0.0000000000
      6950        63  SAPS      H19S           30.0345095322      -19.8201805171       -1.0456763117  MEMB      63              0.0000000000
      6951        63  SAPS      C220           31.3953687594      -20.8905232265       -2.3746659147  MEMB      63              0.0000000000
      6952        63  SAPS      H20R           32.4190598866      -21.2195806480       -2.0952045564  MEMB      63              0.0000000000
      6953        63  SAPS      H20S           31.2717866591      -20.5644054504       -3.4295095669  MEMB      63              0.0000000000
      6954        63  SAPS      H20T           30.7564608688      -21.7728535964       -2.1564664547  MEMB      63              0.0000000000
      6955        63  SAPS      C33            28.1481573665      -12.0353705693       15.9581442140  MEMB      63              0.0000000000
      6956        63  SAPS      H3X            28.0224919733      -12.5491214786       16.9351750163  MEMB      63              0.0000000000
      6957        63  SAPS      H3Y            28.1183276036      -10.9837532474       16.3152601075  MEMB      63              0.0000000000
      6958        63  SAPS      C34            29.4920189790      -12.4561475625       15.4355060272  MEMB      63              0.0000000000
      6959        63  SAPS      H4X            29.4554518297      -13.5387865729       15.1887747535  MEMB      63              0.0000000000
      6960        63  SAPS      H4Y            30.2236047907      -12.2608302623       16.2484968944  MEMB      63              0.0000000000
      6961        63  SAPS      C35            29.8610751513      -11.7604497589       14.1510172599  MEMB      63              0.0000000000
      6962        63  SAPS      H5X            29.8897055932      -10.6618800393       14.3142524647  MEMB      63              0.0000000000
      6963        63  SAPS      H5Y            29.2398473408      -12.0296993068       13.2701646491  MEMB      63              0.0000000000
      6964        63  SAPS      C36            31.2197848558      -12.4247995036       13.6820431403  MEMB      63              0.0000000000
      6965        63  SAPS      H6X            31.1563584183      -13.5337101382       13.6572316406  MEMB      63              0.0000000000
      6966        63  SAPS      H6Y            31.9709280630      -12.2415408346       14.4798657980  MEMB      63              0.0000000000
      6967        63  SAPS      C37            31.8218902528      -11.8899945503       12.3368599008  MEMB      63              0.0000000000
      6968        63  SAPS      H7X            32.8085354966      -11.4702116616       12.6277792637  MEMB      63              0.0000000000
      6969        63  SAPS      H7Y            31.1070744187      -11.0884341565       12.0525007222  MEMB      63              0.0000000000
      6970        63  SAPS      C38            31.9981618145      -12.9445993308       11.2197829121  MEMB      63              0.0000000000
      6971        63  SAPS      H8X            32.6876761627      -13.6863966568       11.6765407568  MEMB      63              0.0000000000
      6972        63  SAPS      H8Y            32.6314609900      -12.4941678624       10.4258285113  MEMB      63              0.0000000000
      6973        63  SAPS      C39            30.7738034734      -13.7089099057       10.6628829311  MEMB      63              0.0000000000
      6974        63  SAPS      H9X            30.1515369864      -14.1130572517       11.4897871475  MEMB      63              0.0000000000
      6975        63  SAPS      H9Y            31.1321113233      -14.5896877209       10.0882820713  MEMB      63              0.0000000000
      6976        63  SAPS      C310           29.8225213652      -12.8317770613        9.7955051232  MEMB      63              0.0000000000
      6977        63  SAPS      H10X           29.6935415100      -11.8441816645       10.2877858689  MEMB      63              0.0000000000
      6978        63  SAPS      H10Y           28.7963348720      -13.2318217604        9.6498111159  MEMB      63              0.0000000000
      6979        63  SAPS      C311           30.3871217482      -12.3358576841        8.4924529864  MEMB      63              0.0000000000
      6980        63  SAPS      H11X           31.4388401914      -12.0481159371        8.7055584838  MEMB      63              0.0000000000
      6981        63  SAPS      H11Y           29.7512321838      -11.5787194399        7.9857906785  MEMB      63              0.0000000000
      6982        63  SAPS      C312           30.4041541461      -13.6023506567        7.5454750032  MEMB      63              0.0000000000
      6983        63  SAPS      H12X           29.4518057556      -13.6653248760        6.9768029556  MEMB      63              0.0000000000
      6984        63  SAPS      H12Y           30.6305651149      -14.4855573839        8.1803012735  MEMB      63              0.0000000000
      6985        63  SAPS      C313           31.4621586000      -13.4877206352        6.4669873349  MEMB      63              0.0000000000
      6986        63  SAPS      H13X           32.4927015013      -13.6188744962        6.8608160449  MEMB      63              0.0000000000
      6987        63  SAPS      H13Y           31.3051125413      -12.4188469908        6.2078219883  MEMB      63              0.0000000000
      6988        63  SAPS      C314           31.1591645136      -14.5389461142        5.3760703067  MEMB      63              0.0000000000
      6989        63  SAPS      H14X           30.1291819002      -14.3434534456        5.0083208397  MEMB      63              0.0000000000
      6990        63  SAPS      H14Y           31.2105503213      -15.5717365260        5.7823022035  MEMB      63              0.0000000000
      6991        63  SAPS      C315           31.9744187137      -14.3259256647        4.1090159721  MEMB      63              0.0000000000
      6992        63  SAPS      H15X           31.7573426705      -13.2946866552        3.7572408876  MEMB      63              0.0000000000
      6993        63  SAPS      H15Y           31.6984183278      -15.1300442998        3.3937957160  MEMB      63              0.0000000000
      6994        63  SAPS      C316           33.4959605433      -14.4490453678        4.1591118285  MEMB      63              0.0000000000
      6995        63  SAPS      H16X           33.7239075512      -15.3589679383        4.7544283901  MEMB      63              0.0000000000
      6996        63  SAPS      H16Y           33.9561542584      -13.7050827048        4.8439933119  MEMB      63              0.0000000000
      6997        63  SAPS      C317           34.3166631781      -14.6917569324        2.8900223690  MEMB      63              0.0000000000
      6998        63  SAPS      H17X           35.4134719808      -14.5969586274        3.0395027484  MEMB      63              0.0000000000
      6999        63  SAPS      H17Y           34.0015182444      -13.9022399014        2.1747142897  MEMB      63              0.0000000000
      7000        63  SAPS      C318           34.0937554969      -16.0069467360        2.2206962795  MEMB      63              0.0000000000
      7001        63  SAPS      H18X           35.0274407946      -16.3790589443        1.7473199698  MEMB      63              0.0000000000
      7002        63  SAPS      H18Y           33.2833505124      -15.9925767776        1.4608552908  MEMB      63              0.0000000000
      7003        63  SAPS      H18Z           33.8036582265      -16.7397017580        3.0037898147  MEMB      63              0.0000000000
      7004        64  OSM       N              31.9217137849       -7.2176431848       22.2477107812  MEMB      64              0.0000000000
      7005        64  OSM       C15            33.0209271935       -6.7976497447       23.2095967813  MEMB      64              0.0000000000
      7006        64  OSM       H15A           32.9164790344       -5.7795630627       23.5545461960  MEMB      64              0.0000000000
      7007        64  OSM       H15B           33.9945270601       -6.9012450068       22.7537775608  MEMB      64              0.0000000000
      7008        64  OSM       H15C           32.8715337652       -7.3708906975       24.1126341338  MEMB      64              0.0000000000
      7009        64  OSM       C14            31.9066084245       -8.7362180457       22.1355851841  MEMB      64              0.0000000000
      7010        64  OSM       H14A           31.0904069947       -9.1103270717       21.5353705586  MEMB      64              0.0000000000
      7011        64  OSM       H14B           31.8390666399       -9.1060575113       23.1480362007  MEMB      64              0.0000000000
      7012        64  OSM       H14C           32.8650754123       -9.0443733973       21.7447126425  MEMB      64              0.0000000000
      7013        64  OSM       C13            30.5585059202       -6.8755149898       22.8325119137  MEMB      64              0.0000000000
      7014        64  OSM       H13A           30.4357588085       -7.5239207908       23.6874406919  MEMB      64              0.0000000000
      7015        64  OSM       H13B           29.8931246342       -6.9848133357       21.9888759956  MEMB      64              0.0000000000
      7016        64  OSM       H13C           30.4165941356       -5.8880238336       23.2461812597  MEMB      64              0.0000000000
      7017        64  OSM       C12            32.0296543826       -6.5746565118       20.8918540289  MEMB      64              0.0000000000
      7018        64  OSM       H12A           32.1453033967       -5.5158040716       21.0703377950  MEMB      64              0.0000000000
      7019        64  OSM       H12B           31.1770185526       -6.8165902712       20.2746990278  MEMB      64              0.0000000000
      7020        64  OSM       C11            33.2748638964       -6.8670157218       20.0178164482  MEMB      64              0.0000000000
      7021        64  OSM       H11A           33.1364462890       -6.3643961839       19.0367276497  MEMB      64              0.0000000000
      7022        64  OSM       H11B           33.4278061054       -7.9219437715       19.7046765835  MEMB      64              0.0000000000
      7023        64  OSM       P              35.8889113674       -6.4006122458       19.9538475405  MEMB      64              0.0000000000
      7024        64  OSM       O13            36.8642928194       -5.5888390601       20.7522079581  MEMB      64              0.0000000000
      7025        64  OSM       O14            36.3288111568       -7.7757892582       19.6514385912  MEMB      64              0.0000000000
      7026        64  OSM       O11            35.5553388896       -5.6499684439       18.6013742523  MEMB      64              0.0000000000
      7027        64  OSM       O12            34.4614139623       -6.4074894675       20.7060565198  MEMB      64              0.0000000000
      7028        64  OSM       C1S            35.1117793813       -4.2964117834       18.6608906209  MEMB      64              0.0000000000
      7029        64  OSM       H1S            35.8611388056       -3.6016395526       19.0968643072  MEMB      64              0.0000000000
      7030        64  OSM       H1T            34.1032251104       -4.2116743063       19.1191035974  MEMB      64              0.0000000000
      7031        64  OSM       NF             34.0879427398       -4.4991893357       16.3474204697  MEMB      64              0.0000000000
      7032        64  OSM       HNF            34.2960038470       -4.8460558238       15.4361556918  MEMB      64              0.0000000000
      7033        64  OSM       C2S            35.0512169728       -3.8112995873       17.1606503814  MEMB      64              0.0000000000
      7034        64  OSM       H2S            34.6979966246       -2.7579608057       17.1548665909  MEMB      64              0.0000000000
      7035        64  OSM       C3S            36.4521384393       -3.9173885742       16.5151981462  MEMB      64              0.0000000000
      7036        64  OSM       H3S            36.6978208257       -4.9921449464       16.6525299230  MEMB      64              0.0000000000
      7037        64  OSM       O3             37.3474429545       -3.0827568672       17.2757394874  MEMB      64              0.0000000000
      7038        64  OSM       HO3            36.8142418389       -2.6512317859       17.9473665698  MEMB      64              0.0000000000
      7039        64  OSM       C4S            36.3940570656       -3.5108748320       15.0795943280  MEMB      64              0.0000000000
      7040        64  OSM       H4S            36.2584148054       -2.4292310385       14.9324612395  MEMB      64              0.0000000000
      7041        64  OSM       C5S            36.5715371781       -4.3550085073       14.0439817367  MEMB      64              0.0000000000
      7042        64  OSM       H5S            36.9019602936       -5.3731207445       14.2974932621  MEMB      64              0.0000000000
      7043        64  OSM       C6S            36.4861555928       -3.9222022141       12.6096745252  MEMB      64              0.0000000000
      7044        64  OSM       H6S            35.7695079345       -4.5924972131       12.0886736094  MEMB      64              0.0000000000
      7045        64  OSM       H6T            37.5468793287       -4.0679645837       12.3131291681  MEMB      64              0.0000000000
      7046        64  OSM       C7S            36.1115638579       -2.4397751771       12.1875532782  MEMB      64              0.0000000000
      7047        64  OSM       H7S            36.3294806517       -2.4210981729       11.0982942991  MEMB      64              0.0000000000
      7048        64  OSM       H7T            36.7327053643       -1.6778346165       12.7051929105  MEMB      64              0.0000000000
      7049        64  OSM       C8S            34.6318948482       -1.9639931858       12.4217255359  MEMB      64              0.0000000000
      7050        64  OSM       H8S            34.6307992967       -0.8543171667       12.4759355217  MEMB      64              0.0000000000
      7051        64  OSM       H8T            34.3639323213       -2.3305802000       13.4356939300  MEMB      64              0.0000000000
      7052        64  OSM       C9S            33.5998717358       -2.4250772331       11.4392531995  MEMB      64              0.0000000000
      7053        64  OSM       H9S            32.6040684030       -2.1944469878       11.8745770015  MEMB      64              0.0000000000
      7054        64  OSM       H9T            33.7256150748       -3.5053137435       11.2121011500  MEMB      64              0.0000000000
      7055        64  OSM       C10S           33.6112313945       -1.6938621617       10.1402351089  MEMB      64              0.0000000000
      7056        64  OSM       H10S           34.4686077675       -1.9455811792        9.4800351795  MEMB      64              0.0000000000
      7057        64  OSM       H10T           33.7478126331       -0.6086845758       10.3353156505  MEMB      64              0.0000000000
      7058        64  OSM       C11S           32.3492783829       -2.0577285484        9.2586940427  MEMB      64              0.0000000000
      7059        64  OSM       H11S           32.5361097258       -1.6565949185        8.2396224888  MEMB      64              0.0000000000
      7060        64  OSM       H11T           31.4203954712       -1.5233412071        9.5518284849  MEMB      64              0.0000000000
      7061        64  OSM       C12S           32.0612475839       -3.5145939867        9.1169090308  MEMB      64              0.0000000000
      7062        64  OSM       H12S           31.1903198246       -3.8439534049        8.5108329235  MEMB      64              0.0000000000
      7063        64  OSM       H12T           31.7894726893       -3.9083301582       10.1196215876  MEMB      64              0.0000000000
      7064        64  OSM       C13S           33.2361713605       -4.4551276938        8.6405255222  MEMB      64              0.0000000000
      7065        64  OSM       H13S           32.7792299685       -5.4638340926        8.5508768438  MEMB      64              0.0000000000
      7066        64  OSM       H13T           34.0892469662       -4.5468447777        9.3463375735  MEMB      64              0.0000000000
      7067        64  OSM       C14S           34.0611894698       -4.1417051894        7.3361390282  MEMB      64              0.0000000000
      7068        64  OSM       H14S           35.1275979144       -4.3460730227        7.5713579788  MEMB      64              0.0000000000
      7069        64  OSM       H14T           33.9834184208       -3.0343069728        7.2920726196  MEMB      64              0.0000000000
      7070        64  OSM       C15S           33.5985290859       -4.8755335159        6.0918053085  MEMB      64              0.0000000000
      7071        64  OSM       H15S           32.5130107814       -4.6518702682        6.0146979282  MEMB      64              0.0000000000
      7072        64  OSM       H15T           33.6634982449       -5.9574906766        6.3356672135  MEMB      64              0.0000000000
      7073        64  OSM       C16S           34.2922073939       -4.2919421191        4.9235936725  MEMB      64              0.0000000000
      7074        64  OSM       H16S           35.3256447052       -4.6708567588        4.7727549617  MEMB      64              0.0000000000
      7075        64  OSM       H16T           34.3700078246       -3.1838743901        4.9022891513  MEMB      64              0.0000000000
      7076        64  OSM       C17S           33.5324858684       -4.5350216887        3.5883287538  MEMB      64              0.0000000000
      7077        64  OSM       H17S           32.7070970402       -3.8030912371        3.4566770558  MEMB      64              0.0000000000
      7078        64  OSM       H17T           33.1473030245       -5.5685712484        3.4551720019  MEMB      64              0.0000000000
      7079        64  OSM       C18S           34.3793813202       -4.3096687588        2.2618391445  MEMB      64              0.0000000000
      7080        64  OSM       H18S           35.1612072505       -5.0853747695        2.1157241478  MEMB      64              0.0000000000
      7081        64  OSM       H18T           34.9635737421       -3.3798238155        2.4304460561  MEMB      64              0.0000000000
      7082        64  OSM       H18U           33.8371660730       -4.2899923268        1.2923368610  MEMB      64              0.0000000000
      7083        64  OSM       C1F            32.7766245586       -4.5172662445       16.5969632983  MEMB      64              0.0000000000
      7084        64  OSM       OF             32.2902834162       -3.8836217968       17.5121325941  MEMB      64              0.0000000000
      7085        64  OSM       C2F            31.9117754224       -5.2618113840       15.6541579192  MEMB      64              0.0000000000
      7086        64  OSM       H2F            30.8700446860       -5.2462010083       16.0400004642  MEMB      64              0.0000000000
      7087        64  OSM       H2G            32.2958580112       -6.3005582007       15.5658038733  MEMB      64              0.0000000000
      7088        64  OSM       C3F            31.7875770806       -4.5421356656       14.2164568724  MEMB      64              0.0000000000
      7089        64  OSM       H3F            32.8160944923       -4.3818034032       13.8281699748  MEMB      64              0.0000000000
      7090        64  OSM       H3G            31.3896179821       -3.5300084323       14.4434985139  MEMB      64              0.0000000000
      7091        64  OSM       C4F            30.9595261126       -5.2796562680       13.1654088448  MEMB      64              0.0000000000
      7092        64  OSM       H4F            30.7950860304       -4.5548016613       12.3396565356  MEMB      64              0.0000000000
      7093        64  OSM       H4G            29.9271574011       -5.4395306075       13.5435297934  MEMB      64              0.0000000000
      7094        64  OSM       C5F            31.5384924450       -6.5812475877       12.6340622521  MEMB      64              0.0000000000
      7095        64  OSM       H5F            31.6668508157       -7.3619242448       13.4140551865  MEMB      64              0.0000000000
      7096        64  OSM       H5G            32.5357379573       -6.2920961870       12.2388230018  MEMB      64              0.0000000000
      7097        64  OSM       C6F            30.8850864708       -7.2239854174       11.3908028989  MEMB      64              0.0000000000
      7098        64  OSM       H6F            31.0728804074       -6.5528647139       10.5255557159  MEMB      64              0.0000000000
      7099        64  OSM       H6G            29.7906175997       -7.3878519024       11.4888167929  MEMB      64              0.0000000000
      7100        64  OSM       C7F            31.5325308649       -8.5813746134       11.1145053195  MEMB      64              0.0000000000
      7101        64  OSM       H7F            30.7094892216       -9.3271822386       11.1408616762  MEMB      64              0.0000000000
      7102        64  OSM       H7G            32.3113645218       -8.8181105509       11.8706098204  MEMB      64              0.0000000000
      7103        64  OSM       C8F            32.1002201399       -8.6943879487        9.6334122692  MEMB      64              0.0000000000
      7104        64  OSM       H8F            32.7357724708       -7.8043964463        9.4376848625  MEMB      64              0.0000000000
      7105        64  OSM       H8G            31.3380960636       -8.6438796874        8.8266066557  MEMB      64              0.0000000000
      7106        64  OSM       C9F            33.0033597482       -9.9430239496        9.5302068089  MEMB      64              0.0000000000
      7107        64  OSM       H9F            32.5133227838      -10.8433383102        9.9293285663  MEMB      64              0.0000000000
      7108        64  OSM       C10F           34.2370463413      -10.0295299898        9.0835506724  MEMB      64              0.0000000000
      7109        64  OSM       H10F           34.7431243893      -10.9839333997        9.2909131431  MEMB      64              0.0000000000
      7110        64  OSM       C11F           35.0321597965       -8.9061322398        8.5149440047  MEMB      64              0.0000000000
      7111        64  OSM       H11F           36.0878266242       -8.9176460230        8.8610014667  MEMB      64              0.0000000000
      7112        64  OSM       H11G           34.6829695314       -7.9057084892        8.8489189332  MEMB      64              0.0000000000
      7113        64  OSM       C12F           35.1280901451       -8.9301927076        6.9403633881  MEMB      64              0.0000000000
      7114        64  OSM       H12F           35.6543238478       -9.8302720282        6.5566227630  MEMB      64              0.0000000000
      7115        64  OSM       H12G           35.7823335676       -8.1705122044        6.4616436300  MEMB      64              0.0000000000
      7116        64  OSM       C13F           33.8035486046       -8.9601157150        6.1827781605  MEMB      64              0.0000000000
      7117        64  OSM       H13F           33.0331785088       -8.3296867874        6.6761449433  MEMB      64              0.0000000000
      7118        64  OSM       H13G           33.4398192686      -10.0041991825        6.2919192501  MEMB      64              0.0000000000
      7119        64  OSM       C14F           33.9218262946       -8.5191757828        4.6613281163  MEMB      64              0.0000000000
      7120        64  OSM       H14F           34.6900261584       -9.2533548806        4.3370277266  MEMB      64              0.0000000000
      7121        64  OSM       H14G           34.2967629931       -7.4880532152        4.4866003138  MEMB      64              0.0000000000
      7122        64  OSM       C15F           32.6323857528       -8.7258101053        3.8864201716  MEMB      64              0.0000000000
      7123        64  OSM       H15F           31.9191808322       -7.9936955028        4.3219302425  MEMB      64              0.0000000000
      7124        64  OSM       H15G           32.3209469621       -9.7806310276        4.0435195686  MEMB      64              0.0000000000
      7125        64  OSM       C16F           32.7118083129       -8.6673884163        2.3666714806  MEMB      64              0.0000000000
      7126        64  OSM       H16F           32.9712266659       -7.6345345774        2.0500708495  MEMB      64              0.0000000000
      7127        64  OSM       H16G           31.7334824011       -8.9898924204        1.9505092456  MEMB      64              0.0000000000
      7128        64  OSM       C17F           33.8487934605       -9.6026272384        1.9052874586  MEMB      64              0.0000000000
      7129        64  OSM       H17F           33.6745144201      -10.5431623356        2.4703911513  MEMB      64              0.0000000000
      7130        64  OSM       H17G           34.8594574042       -9.2523926696        2.2056446398  MEMB      64              0.0000000000
      7131        64  OSM       C18F           33.7600591292       -9.9685637446        0.3699772372  MEMB      64              0.0000000000
      7132        64  OSM       H18F           34.6881605685      -10.5294902248        0.1285020049  MEMB      64              0.0000000000
      7133        64  OSM       H18G           33.6551712334       -8.9894343284       -0.1444405105  MEMB      64              0.0000000000
      7134        64  OSM       H18H           32.8448721809      -10.5832814772        0.2325873629  MEMB      64              0.0000000000
      7135        65  SAPE      N              22.2888822146       24.5444111759       22.7120059418  MEMB      65              0.0000000000
      7136        65  SAPE      HN1            21.2571050294       24.5461079969       22.8425162360  MEMB      65              0.0000000000
      7137        65  SAPE      HN2            22.4838443825       23.8550692119       21.9580847087  MEMB      65              0.0000000000
      7138        65  SAPE      HN3            22.7021820318       24.2074279414       23.6048808775  MEMB      65              0.0000000000
      7139        65  SAPE      C12            22.9112530797       25.8987422235       22.3759893750  MEMB      65              0.0000000000
      7140        65  SAPE      H12A           23.3494512039       26.2341719171       23.3402457731  MEMB      65              0.0000000000
      7141        65  SAPE      H12B           22.0829089306       26.5711836326       22.0661677647  MEMB      65              0.0000000000
      7142        65  SAPE      C11            23.9642385686       25.7414621691       21.3504749375  MEMB      65              0.0000000000
      7143        65  SAPE      H11A           24.7388120471       25.0144089107       21.6756677914  MEMB      65              0.0000000000
      7144        65  SAPE      H11B           24.3033638083       26.7669712980       21.0903863251  MEMB      65              0.0000000000
      7145        65  SAPE      P              23.8976467022       25.3410213382       18.6969198909  MEMB      65              0.0000000000
      7146        65  SAPE      O13            23.0643076136       26.2828528982       17.8978553891  MEMB      65              0.0000000000
      7147        65  SAPE      O14            25.4044992622       25.5287212342       18.7083239690  MEMB      65              0.0000000000
      7148        65  SAPE      O12            23.3775945421       25.2371976251       20.1417129447  MEMB      65              0.0000000000
      7149        65  SAPE      O11            23.5993804187       23.8642041339       18.1167175474  MEMB      65              0.0000000000
      7150        65  SAPE      C1             24.4342541315       22.7892163863       18.7123404396  MEMB      65              0.0000000000
      7151        65  SAPE      HA             25.5214961487       22.9597283322       18.8644964171  MEMB      65              0.0000000000
      7152        65  SAPE      HB             24.0012457038       22.5188783597       19.6991241815  MEMB      65              0.0000000000
      7153        65  SAPE      C2             24.4964988503       21.4918083054       17.8570728861  MEMB      65              0.0000000000
      7154        65  SAPE      HS             25.3003147889       20.8382134403       18.2583391622  MEMB      65              0.0000000000
      7155        65  SAPE      O21            24.7778911797       21.9172368416       16.4906547324  MEMB      65              0.0000000000
      7156        65  SAPE      C21            25.9610328955       22.3993193915       16.2081792246  MEMB      65              0.0000000000
      7157        65  SAPE      O22            26.8058192050       22.5256689926       17.0401530937  MEMB      65              0.0000000000
      7158        65  SAPE      C22            26.1163332977       22.7328977238       14.7451100343  MEMB      65              0.0000000000
      7159        65  SAPE      H2R            26.5715682852       21.8426200525       14.2608705362  MEMB      65              0.0000000000
      7160        65  SAPE      H2S            25.1224529555       22.8453211460       14.2614943059  MEMB      65              0.0000000000
      7161        65  SAPE      C3             23.2287202458       20.7089227088       17.9064139262  MEMB      65              0.0000000000
      7162        65  SAPE      HX             22.9444494207       20.5104009121       18.9619234658  MEMB      65              0.0000000000
      7163        65  SAPE      HY             23.2769255514       19.6662157740       17.5259415086  MEMB      65              0.0000000000
      7164        65  SAPE      O31            22.1429810856       21.5545408151       17.3742170257  MEMB      65              0.0000000000
      7165        65  SAPE      C31            21.8643655220       21.3304324814       16.0549257609  MEMB      65              0.0000000000
      7166        65  SAPE      O32            22.3698172498       20.6113738491       15.2164017008  MEMB      65              0.0000000000
      7167        65  SAPE      C32            20.6130459204       22.1138892352       15.6780616122  MEMB      65              0.0000000000
      7168        65  SAPE      H2X            19.7541311214       22.0425295150       16.3791283307  MEMB      65              0.0000000000
      7169        65  SAPE      H2Y            20.3089094312       21.6435364385       14.7185879545  MEMB      65              0.0000000000
      7170        65  SAPE      C23            27.0924943366       23.8697762573       14.5158915143  MEMB      65              0.0000000000
      7171        65  SAPE      H3R            27.9774175715       23.8957113635       15.1871287583  MEMB      65              0.0000000000
      7172        65  SAPE      H3S            26.6203682311       24.8723170910       14.5954516234  MEMB      65              0.0000000000
      7173        65  SAPE      C24            27.6332317743       23.9176716251       13.0407045476  MEMB      65              0.0000000000
      7174        65  SAPE      H4R            28.0244783422       22.8939801867       12.8582141845  MEMB      65              0.0000000000
      7175        65  SAPE      H4S            28.3883786779       24.7324020721       13.0237193386  MEMB      65              0.0000000000
      7176        65  SAPE      C25            26.6110574655       24.2700290976       12.0321536752  MEMB      65              0.0000000000
      7177        65  SAPE      H5R            26.2937574653       25.3190266939       12.1266253902  MEMB      65              0.0000000000
      7178        65  SAPE      C26            25.9272837994       23.4605374253       11.1807867314  MEMB      65              0.0000000000
      7179        65  SAPE      H6R            25.0335378388       23.9373087026       10.7519428641  MEMB      65              0.0000000000
      7180        65  SAPE      C27            26.0925689400       21.9576618106       11.1061365584  MEMB      65              0.0000000000
      7181        65  SAPE      H7R            26.1302968016       21.6804912469       12.1813458111  MEMB      65              0.0000000000
      7182        65  SAPE      H7S            27.0223073892       21.7599629345       10.5309654206  MEMB      65              0.0000000000
      7183        65  SAPE      C28            25.0509767375       21.2285520269       10.3644292433  MEMB      65              0.0000000000
      7184        65  SAPE      H8R            24.3622756940       20.6038902041       10.9522118294  MEMB      65              0.0000000000
      7185        65  SAPE      C29            24.7837965056       21.3057066482        9.0046480428  MEMB      65              0.0000000000
      7186        65  SAPE      H9R            23.9749381938       20.7150156243        8.5498607046  MEMB      65              0.0000000000
      7187        65  SAPE      C210           25.6138733018       22.2182580752        8.0567990150  MEMB      65              0.0000000000
      7188        65  SAPE      H10R           26.7107032592       22.2195797268        8.2336704866  MEMB      65              0.0000000000
      7189        65  SAPE      H10S           25.3270303777       23.2220783546        8.4367807850  MEMB      65              0.0000000000
      7190        65  SAPE      C211           25.4341071484       22.1217403231        6.6014352840  MEMB      65              0.0000000000
      7191        65  SAPE      H11R           24.7620977848       21.3018948180        6.3077407668  MEMB      65              0.0000000000
      7192        65  SAPE      C212           26.1252832450       22.9882906626        5.7341077091  MEMB      65              0.0000000000
      7193        65  SAPE      H12R           25.9847651545       22.8029958641        4.6589701801  MEMB      65              0.0000000000
      7194        65  SAPE      C213           27.0780803076       24.0740249723        6.1867388481  MEMB      65              0.0000000000
      7195        65  SAPE      H13R           27.7073514671       23.6167995614        6.9800130149  MEMB      65              0.0000000000
      7196        65  SAPE      H13S           26.5111124324       24.8808860611        6.6984461564  MEMB      65              0.0000000000
      7197        65  SAPE      C214           28.1510512756       24.6844213064        5.2618072992  MEMB      65              0.0000000000
      7198        65  SAPE      H14R           29.0894409189       24.1283052853        5.1198217924  MEMB      65              0.0000000000
      7199        65  SAPE      C215           28.0994405609       25.7940330770        4.6199236583  MEMB      65              0.0000000000
      7200        65  SAPE      H15R           29.0005995718       26.1407225270        4.0929334580  MEMB      65              0.0000000000
      7201        65  SAPE      C216           26.9485352306       26.7658981691        4.6586772946  MEMB      65              0.0000000000
      7202        65  SAPE      H16R           27.2631786395       27.6818823592        5.2030052691  MEMB      65              0.0000000000
      7203        65  SAPE      H16S           26.0642627725       26.3182636194        5.1606801855  MEMB      65              0.0000000000
      7204        65  SAPE      C217           26.4879241516       27.2728443847        3.2603347462  MEMB      65              0.0000000000
      7205        65  SAPE      H17R           27.2065113759       27.7456626854        2.5572019266  MEMB      65              0.0000000000
      7206        65  SAPE      H17S           25.7330883123       28.0459177406        3.5189896883  MEMB      65              0.0000000000
      7207        65  SAPE      C218           25.8074875138       26.1914603211        2.5302536588  MEMB      65              0.0000000000
      7208        65  SAPE      H18R           25.1331586247       25.6808264925        3.2505686043  MEMB      65              0.0000000000
      7209        65  SAPE      H18S           26.5079403581       25.4067670252        2.1725616416  MEMB      65              0.0000000000
      7210        65  SAPE      C219           24.9707044773       26.5699540753        1.2976899106  MEMB      65              0.0000000000
      7211        65  SAPE      H19R           24.4649600266       25.6592051002        0.9115816630  MEMB      65              0.0000000000
      7212        65  SAPE      H19S           25.5527056673       26.8553375557        0.3953861594  MEMB      65              0.0000000000
      7213        65  SAPE      C220           23.7738708944       27.4989965505        1.5027507285  MEMB      65              0.0000000000
      7214        65  SAPE      H20R           23.9631345031       28.5933338036        1.4723066220  MEMB      65              0.0000000000
      7215        65  SAPE      H20S           23.2354372941       27.2604710475        2.4448324257  MEMB      65              0.0000000000
      7216        65  SAPE      H20T           23.0311212514       27.1947415783        0.7345888542  MEMB      65              0.0000000000
      7217        65  SAPE      C33            21.0691337237       23.6317058297       15.4647907263  MEMB      65              0.0000000000
      7218        65  SAPE      H3X            21.4102070108       24.0163258933       16.4497054416  MEMB      65              0.0000000000
      7219        65  SAPE      H3Y            20.1864609268       24.2129222001       15.1221573157  MEMB      65              0.0000000000
      7220        65  SAPE      C34            22.0817715208       23.8810357491       14.3945964805  MEMB      65              0.0000000000
      7221        65  SAPE      H4X            23.0551651059       23.3817741407       14.5884102718  MEMB      65              0.0000000000
      7222        65  SAPE      H4Y            22.2445170376       24.9796950255       14.3666197120  MEMB      65              0.0000000000
      7223        65  SAPE      C35            21.7180293354       23.4627383994       12.9559051441  MEMB      65              0.0000000000
      7224        65  SAPE      H5X            21.4988419646       22.3739309319       12.9280453381  MEMB      65              0.0000000000
      7225        65  SAPE      H5Y            22.6347034443       23.6409243130       12.3540085886  MEMB      65              0.0000000000
      7226        65  SAPE      C36            20.4498303477       24.1914303539       12.4252985079  MEMB      65              0.0000000000
      7227        65  SAPE      H6X            20.8426900876       25.1996304114       12.1732769718  MEMB      65              0.0000000000
      7228        65  SAPE      H6Y            19.6767420900       24.2199105676       13.2226970261  MEMB      65              0.0000000000
      7229        65  SAPE      C37            19.7380739026       23.6536918370       11.2132272420  MEMB      65              0.0000000000
      7230        65  SAPE      H7X            19.0380080004       24.4734080643       10.9443521561  MEMB      65              0.0000000000
      7231        65  SAPE      H7Y            19.0627443995       22.7925228014       11.4046395092  MEMB      65              0.0000000000
      7232        65  SAPE      C38            20.6259376611       23.2842867611        9.9536092099  MEMB      65              0.0000000000
      7233        65  SAPE      H8X            19.9373462112       22.9406181239        9.1523262619  MEMB      65              0.0000000000
      7234        65  SAPE      H8Y            21.2823030889       22.4601933945       10.3062784616  MEMB      65              0.0000000000
      7235        65  SAPE      C39            21.4667206829       24.4846099740        9.3883403196  MEMB      65              0.0000000000
      7236        65  SAPE      H9X            22.2643562344       24.8263152470       10.0821240513  MEMB      65              0.0000000000
      7237        65  SAPE      H9Y            20.8384457269       25.3910788556        9.2545275036  MEMB      65              0.0000000000
      7238        65  SAPE      C310           22.1632142473       24.1703946805        8.0726566503  MEMB      65              0.0000000000
      7239        65  SAPE      H10X           21.4261433146       23.6278639950        7.4428091513  MEMB      65              0.0000000000
      7240        65  SAPE      H10Y           23.0410842737       23.5099792179        8.2385385094  MEMB      65              0.0000000000
      7241        65  SAPE      C311           22.4916112461       25.4548408231        7.2957342684  MEMB      65              0.0000000000
      7242        65  SAPE      H11X           23.5107779613       25.8569756177        7.4798741084  MEMB      65              0.0000000000
      7243        65  SAPE      H11Y           21.8033949984       26.2198786656        7.7145385043  MEMB      65              0.0000000000
      7244        65  SAPE      C312           22.1657770618       25.3568043735        5.7748956694  MEMB      65              0.0000000000
      7245        65  SAPE      H12X           22.3050173434       26.3508287319        5.2986090828  MEMB      65              0.0000000000
      7246        65  SAPE      H12Y           21.0891345547       25.0841796877        5.7459542105  MEMB      65              0.0000000000
      7247        65  SAPE      C313           23.1371866750       24.3551190274        5.0632623983  MEMB      65              0.0000000000
      7248        65  SAPE      H13X           23.0116984977       23.4093329521        5.6325278087  MEMB      65              0.0000000000
      7249        65  SAPE      H13Y           24.1942047322       24.6860417926        4.9765219166  MEMB      65              0.0000000000
      7250        65  SAPE      C314           22.6760610123       24.0820519590        3.6373274446  MEMB      65              0.0000000000
      7251        65  SAPE      H14X           22.8670821450       24.9992447098        3.0401758309  MEMB      65              0.0000000000
      7252        65  SAPE      H14Y           21.5934781030       23.8339140315        3.6649479012  MEMB      65              0.0000000000
      7253        65  SAPE      C315           23.4855045624       22.9714660027        2.8768343888  MEMB      65              0.0000000000
      7254        65  SAPE      H15X           23.3302444447       22.0818372002        3.5239634681  MEMB      65              0.0000000000
      7255        65  SAPE      H15Y           24.5311501252       23.3346765186        2.7818379843  MEMB      65              0.0000000000
      7256        65  SAPE      C316           22.9575190266       22.6775484958        1.4590353927  MEMB      65              0.0000000000
      7257        65  SAPE      H16X           23.2069190641       23.5099753422        0.7668031274  MEMB      65              0.0000000000
      7258        65  SAPE      H16Y           21.8844379068       22.4493167256        1.6343295892  MEMB      65              0.0000000000
      7259        65  SAPE      C317           23.5586231460       21.4168853607        0.7876451491  MEMB      65              0.0000000000
      7260        65  SAPE      H17X           23.5413908351       20.5290418499        1.4552964588  MEMB      65              0.0000000000
      7261        65  SAPE      H17Y           24.6605645874       21.5316372847        0.7047118791  MEMB      65              0.0000000000
      7262        65  SAPE      C318           23.0925979657       20.9815714721       -0.5940903778  MEMB      65              0.0000000000
      7263        65  SAPE      H18X           23.5972686160       20.0387280678       -0.8952117573  MEMB      65              0.0000000000
      7264        65  SAPE      H18Y           23.4474510524       21.6761205024       -1.3852929243  MEMB      65              0.0000000000
      7265        65  SAPE      H18Z           22.0177605910       20.7183151282       -0.6927885496  MEMB      65              0.0000000000
      7266        66  POPC      N              30.6233548773       19.6793536377       19.9062269216  MEMB      66              0.0000000000
      7267        66  POPC      C12            29.9906465335       20.7482288038       19.0440753961  MEMB      66              0.0000000000
      7268        66  POPC      H12A           30.5238601238       20.7744375825       18.1052483292  MEMB      66              0.0000000000
      7269        66  POPC      H12B           30.3472298425       21.6077185699       19.5922775808  MEMB      66              0.0000000000
      7270        66  POPC      C13            30.3300234066       18.3512734960       19.2030036148  MEMB      66              0.0000000000
      7271        66  POPC      H13A           30.6857860405       17.6303993425       19.9242341318  MEMB      66              0.0000000000
      7272        66  POPC      H13B           29.2647420019       18.3454984346       19.0254023221  MEMB      66              0.0000000000
      7273        66  POPC      H13C           30.9069769516       18.2863483550       18.2923393959  MEMB      66              0.0000000000
      7274        66  POPC      C14            32.0779462378       19.8883078261       19.9310450993  MEMB      66              0.0000000000
      7275        66  POPC      H14A           32.4941669514       19.0335539139       20.4434475256  MEMB      66              0.0000000000
      7276        66  POPC      H14B           32.3503592370       20.0453984331       18.8978395579  MEMB      66              0.0000000000
      7277        66  POPC      H14C           32.2683215613       20.7817027148       20.5072421029  MEMB      66              0.0000000000
      7278        66  POPC      C15            30.0234890758       19.5506417993       21.2626787466  MEMB      66              0.0000000000
      7279        66  POPC      H15A           28.9588495681       19.6521804864       21.1122370649  MEMB      66              0.0000000000
      7280        66  POPC      H15B           30.2968450862       20.3334684694       21.9546749531  MEMB      66              0.0000000000
      7281        66  POPC      H15C           30.3248932518       18.5748900086       21.6140533031  MEMB      66              0.0000000000
      7282        66  POPC      C11            28.4211780327       20.8247227200       18.8676139702  MEMB      66              0.0000000000
      7283        66  POPC      H11A           28.2487158144       21.7269385004       18.2426463282  MEMB      66              0.0000000000
      7284        66  POPC      H11B           27.9596472072       21.0728616636       19.8472758546  MEMB      66              0.0000000000
      7285        66  POPC      P              26.2751402197       19.5295203872       18.2219708929  MEMB      66              0.0000000000
      7286        66  POPC      O13            25.5788711676       20.6829241738       18.7722161340  MEMB      66              0.0000000000
      7287        66  POPC      O14            25.8021591774       18.2351746725       18.7861168195  MEMB      66              0.0000000000
      7288        66  POPC      O12            27.8238859523       19.6142438909       18.3404726136  MEMB      66              0.0000000000
      7289        66  POPC      O11            26.0446081194       19.5894364950       16.6645797895  MEMB      66              0.0000000000
      7290        66  POPC      C1             26.3427465541       18.5266055856       15.8023760828  MEMB      66              0.0000000000
      7291        66  POPC      HA             25.5722461290       18.4452148753       15.0061191679  MEMB      66              0.0000000000
      7292        66  POPC      HB             26.4201401106       17.5108855913       16.2458216949  MEMB      66              0.0000000000
      7293        66  POPC      C2             27.6478589291       18.7721088458       14.9877968811  MEMB      66              0.0000000000
      7294        66  POPC      HS             28.4807507452       18.4625866356       15.6547363880  MEMB      66              0.0000000000
      7295        66  POPC      O21            27.6765943399       20.1273964668       14.5596282149  MEMB      66              0.0000000000
      7296        66  POPC      C21            28.8916933791       20.7486296133       14.6551107326  MEMB      66              0.0000000000
      7297        66  POPC      O22            29.9462304180       20.2529456964       14.9848882557  MEMB      66              0.0000000000
      7298        66  POPC      C22            28.7050080141       22.2847408718       14.4006199547  MEMB      66              0.0000000000
      7299        66  POPC      H2R            28.5645167676       22.7885207299       15.3808182792  MEMB      66              0.0000000000
      7300        66  POPC      H2S            27.7386378496       22.3656443849       13.8584904600  MEMB      66              0.0000000000
      7301        66  POPC      C3             27.7796684367       17.9268713360       13.6860391346  MEMB      66              0.0000000000
      7302        66  POPC      HX             28.0274108994       16.8910152686       14.0021830244  MEMB      66              0.0000000000
      7303        66  POPC      HY             28.7247709976       18.3601681952       13.2944324104  MEMB      66              0.0000000000
      7304        66  POPC      O31            26.6433822187       17.8530618780       12.7689284822  MEMB      66              0.0000000000
      7305        66  POPC      C31            26.5829125986       18.8200710307       11.8622125183  MEMB      66              0.0000000000
      7306        66  POPC      O32            27.5247511969       19.5740399867       11.6119146713  MEMB      66              0.0000000000
      7307        66  POPC      C32            25.1641470878       19.0069442972       11.3048094415  MEMB      66              0.0000000000
      7308        66  POPC      H2X            24.8690905428       20.0652042041       11.4701838770  MEMB      66              0.0000000000
      7309        66  POPC      H2Y            24.3559774727       18.4239580555       11.7960429595  MEMB      66              0.0000000000
      7310        66  POPC      C23            29.9152377722       22.8810406986       13.6717091070  MEMB      66              0.0000000000
      7311        66  POPC      H3R            30.1726850604       22.1038706618       12.9206774233  MEMB      66              0.0000000000
      7312        66  POPC      H3S            30.8054659228       22.9147026760       14.3355475357  MEMB      66              0.0000000000
      7313        66  POPC      C24            29.6471444039       24.2543736700       13.0740976624  MEMB      66              0.0000000000
      7314        66  POPC      H4R            30.4730166906       24.3952821797       12.3444393814  MEMB      66              0.0000000000
      7315        66  POPC      H4S            29.7279722689       25.1056366367       13.7834207392  MEMB      66              0.0000000000
      7316        66  POPC      C25            28.3942332527       24.4585280990       12.1418460219  MEMB      66              0.0000000000
      7317        66  POPC      H5R            28.5305905074       25.4552698042       11.6704300244  MEMB      66              0.0000000000
      7318        66  POPC      H5S            27.5005242540       24.6235934253       12.7808756593  MEMB      66              0.0000000000
      7319        66  POPC      C26            28.1071682703       23.3235785003       11.1527372396  MEMB      66              0.0000000000
      7320        66  POPC      H6R            28.0479017709       22.3795311391       11.7354746147  MEMB      66              0.0000000000
      7321        66  POPC      H6S            29.0051220497       23.2795731677       10.5000014966  MEMB      66              0.0000000000
      7322        66  POPC      C27            26.8480534123       23.5995097892       10.2896411375  MEMB      66              0.0000000000
      7323        66  POPC      H7R            26.8115786956       24.6085737367        9.8261966637  MEMB      66              0.0000000000
      7324        66  POPC      H7S            25.9804123132       23.6130269401       10.9834262436  MEMB      66              0.0000000000
      7325        66  POPC      C28            26.5167514457       22.5364683771        9.1519214631  MEMB      66              0.0000000000
      7326        66  POPC      H8R            25.5391812863       22.7527929564        8.6703806719  MEMB      66              0.0000000000
      7327        66  POPC      H8S            26.2814822380       21.5136197416        9.5162700464  MEMB      66              0.0000000000
      7328        66  POPC      C29            27.5737867665       22.3647964653        8.1042731648  MEMB      66              0.0000000000
      7329        66  POPC      H91            28.5591783362       22.0064399359        8.4368148414  MEMB      66              0.0000000000
      7330        66  POPC      C210           27.3579796902       22.5289309557        6.7833942056  MEMB      66              0.0000000000
      7331        66  POPC      H101           28.2011101581       22.1958161019        6.1603656447  MEMB      66              0.0000000000
      7332        66  POPC      C211           26.1579023823       22.9141718979        5.9854776770  MEMB      66              0.0000000000
      7333        66  POPC      H11R           26.5518447689       23.5134270486        5.1369353027  MEMB      66              0.0000000000
      7334        66  POPC      H11S           25.3726557030       23.5075342958        6.5008706841  MEMB      66              0.0000000000
      7335        66  POPC      C212           25.5317289013       21.6518048136        5.3574706037  MEMB      66              0.0000000000
      7336        66  POPC      H12R           24.6784629187       21.9997107679        4.7368090072  MEMB      66              0.0000000000
      7337        66  POPC      H12S           25.1312693431       21.0434168393        6.1964084706  MEMB      66              0.0000000000
      7338        66  POPC      C213           26.5775409916       20.9787860541        4.4656474700  MEMB      66              0.0000000000
      7339        66  POPC      H13R           27.2489004410       20.4764618676        5.1945288920  MEMB      66              0.0000000000
      7340        66  POPC      H13S           27.1535561077       21.6652648745        3.8089323413  MEMB      66              0.0000000000
      7341        66  POPC      C214           26.0134497663       19.7222241883        3.8004527776  MEMB      66              0.0000000000
      7342        66  POPC      H14R           25.2895878334       19.3030916877        4.5316654784  MEMB      66              0.0000000000
      7343        66  POPC      H14S           26.7661364567       18.9129142203        3.6873107456  MEMB      66              0.0000000000
      7344        66  POPC      C215           25.5297157217       19.9502351272        2.4064159713  MEMB      66              0.0000000000
      7345        66  POPC      H15R           26.2189958952       20.6206058144        1.8498049600  MEMB      66              0.0000000000
      7346        66  POPC      H15S           24.4995158551       20.3471615108        2.5307477045  MEMB      66              0.0000000000
      7347        66  POPC      C216           25.4654565796       18.7314915873        1.4999019398  MEMB      66              0.0000000000
      7348        66  POPC      H16R           25.1012368929       17.9034924552        2.1449457557  MEMB      66              0.0000000000
      7349        66  POPC      H16S           26.5198435952       18.5505382167        1.2001600533  MEMB      66              0.0000000000
      7350        66  POPC      C217           24.6635119413       18.7907337464        0.1871689531  MEMB      66              0.0000000000
      7351        66  POPC      H17R           23.6425374585       19.1605613856        0.4220275645  MEMB      66              0.0000000000
      7352        66  POPC      H17S           24.6700165216       17.7794274622       -0.2727645526  MEMB      66              0.0000000000
      7353        66  POPC      C218           25.2622974622       19.6167546775       -0.9261482728  MEMB      66              0.0000000000
      7354        66  POPC      H18R           25.3762590085       20.6579325035       -0.5556327257  MEMB      66              0.0000000000
      7355        66  POPC      H18S           24.6445565810       19.7247584658       -1.8432369613  MEMB      66              0.0000000000
      7356        66  POPC      H18T           26.2901118307       19.2620504307       -1.1544117583  MEMB      66              0.0000000000
      7357        66  POPC      C33            25.1958810206       18.7995243053        9.7643825360  MEMB      66              0.0000000000
      7358        66  POPC      H3X            26.1496765164       19.1222077784        9.2948403699  MEMB      66              0.0000000000
      7359        66  POPC      H3Y            24.3828950373       19.4235046440        9.3354028006  MEMB      66              0.0000000000
      7360        66  POPC      C34            25.0227196339       17.3202051974        9.3637490273  MEMB      66              0.0000000000
      7361        66  POPC      H4X            24.7275969997       17.4735275192        8.3036949308  MEMB      66              0.0000000000
      7362        66  POPC      H4Y            24.1407140427       16.9906665850        9.9534874190  MEMB      66              0.0000000000
      7363        66  POPC      C35            26.1755686863       16.4252284919        9.5498162716  MEMB      66              0.0000000000
      7364        66  POPC      H5X            25.7607787244       15.4505504758        9.2147442954  MEMB      66              0.0000000000
      7365        66  POPC      H5Y            26.3108774729       16.3810792996       10.6516617295  MEMB      66              0.0000000000
      7366        66  POPC      C36            27.4842117592       16.8771328348        8.6869789826  MEMB      66              0.0000000000
      7367        66  POPC      H6X            28.2135792070       16.0705709894        8.9145785648  MEMB      66              0.0000000000
      7368        66  POPC      H6Y            28.0778387287       17.7393176432        9.0592224338  MEMB      66              0.0000000000
      7369        66  POPC      C37            27.4440638623       16.9419108413        7.1598283883  MEMB      66              0.0000000000
      7370        66  POPC      H7X            27.0000226444       17.8821053079        6.7684421572  MEMB      66              0.0000000000
      7371        66  POPC      H7Y            26.7542855752       16.1958704851        6.7104388607  MEMB      66              0.0000000000
      7372        66  POPC      C38            28.7540143592       16.8825206054        6.3827693252  MEMB      66              0.0000000000
      7373        66  POPC      H8X            28.3532108164       16.9761065259        5.3508204870  MEMB      66              0.0000000000
      7374        66  POPC      H8Y            29.1840424953       15.8620920255        6.4728946578  MEMB      66              0.0000000000
      7375        66  POPC      C39            29.8073944968       17.9375029507        6.7920687816  MEMB      66              0.0000000000
      7376        66  POPC      H9X            30.4131115285       17.4033763590        7.5550475874  MEMB      66              0.0000000000
      7377        66  POPC      H9Y            29.2478507574       18.8389460432        7.1216631728  MEMB      66              0.0000000000
      7378        66  POPC      C310           30.8417865163       18.4243206769        5.7228151520  MEMB      66              0.0000000000
      7379        66  POPC      H10X           31.3265907986       17.4395679332        5.5509209846  MEMB      66              0.0000000000
      7380        66  POPC      H10Y           31.5151033843       19.1319799995        6.2521392427  MEMB      66              0.0000000000
      7381        66  POPC      C311           30.1496784136       18.9887168896        4.4726204696  MEMB      66              0.0000000000
      7382        66  POPC      H11X           29.5033500238       19.8662304704        4.6883758643  MEMB      66              0.0000000000
      7383        66  POPC      H11Y           29.5254598612       18.1142002469        4.1899667426  MEMB      66              0.0000000000
      7384        66  POPC      C312           30.9686735558       19.2085375114        3.1925909440  MEMB      66              0.0000000000
      7385        66  POPC      H12X           31.5179890389       18.2712049257        2.9602519331  MEMB      66              0.0000000000
      7386        66  POPC      H12Y           31.6353631196       20.0809717175        3.3620158120  MEMB      66              0.0000000000
      7387        66  POPC      C313           30.2437254213       19.4877512067        1.8872096960  MEMB      66              0.0000000000
      7388        66  POPC      H13X           29.5055381213       18.6697069271        1.7450681732  MEMB      66              0.0000000000
      7389        66  POPC      H13Y           31.0335261241       19.4137547838        1.1093529441  MEMB      66              0.0000000000
      7390        66  POPC      C314           29.4844174464       20.8429403609        1.8172798257  MEMB      66              0.0000000000
      7391        66  POPC      H14X           30.3526805155       21.4961312010        2.0491896425  MEMB      66              0.0000000000
      7392        66  POPC      H14Y           28.6942028364       20.8621444094        2.5979944117  MEMB      66              0.0000000000
      7393        66  POPC      C315           28.8001469419       20.9825210596        0.5022777887  MEMB      66              0.0000000000
      7394        66  POPC      H15X           27.8333921928       20.4440961900        0.4032579619  MEMB      66              0.0000000000
      7395        66  POPC      H15Y           29.5109944860       20.5595058125       -0.2393937973  MEMB      66              0.0000000000
      7396        66  POPC      C316           28.4864234490       22.4813498693        0.1546256037  MEMB      66              0.0000000000
      7397        66  POPC      H16X           27.8362701958       22.9043974552        0.9500193028  MEMB      66              0.0000000000
      7398        66  POPC      H16Y           28.0011500226       22.4825979031       -0.8447886950  MEMB      66              0.0000000000
      7399        66  POPC      H16Z           29.4699868303       22.9979499707        0.1615929670  MEMB      66              0.0000000000
      7400        67  SOPE      N             -26.8312579469      -27.1425972488       21.9582244010  MEMB      67              0.0000000000
      7401        67  SOPE      HN1           -27.3256913304      -26.2396475521       22.1059316103  MEMB      67              0.0000000000
      7402        67  SOPE      HN2           -26.9224375367      -27.5063231627       20.9881780784  MEMB      67              0.0000000000
      7403        67  SOPE      HN3           -27.2465720147      -27.8210551536       22.6281565585  MEMB      67              0.0000000000
      7404        67  SOPE      C12           -25.4246883795      -26.8291424846       22.2281655149  MEMB      67              0.0000000000
      7405        67  SOPE      H12A          -24.8126426822      -27.7563157519       22.2197469440  MEMB      67              0.0000000000
      7406        67  SOPE      H12B          -25.4118917295      -26.2244939505       23.1601298118  MEMB      67              0.0000000000
      7407        67  SOPE      C11           -24.9118775737      -26.0895720174       20.9762737970  MEMB      67              0.0000000000
      7408        67  SOPE      H11A          -25.5052234942      -25.1504134504       20.9606880503  MEMB      67              0.0000000000
      7409        67  SOPE      H11B          -25.0758442201      -26.7081208924       20.0680704952  MEMB      67              0.0000000000
      7410        67  SOPE      P             -22.3852434430      -26.5359727249       20.6426424532  MEMB      67              0.0000000000
      7411        67  SOPE      O13           -22.2507556326      -27.7814884453       21.4441127909  MEMB      67              0.0000000000
      7412        67  SOPE      O14           -21.2689993191      -25.5918495296       20.4929230452  MEMB      67              0.0000000000
      7413        67  SOPE      O12           -23.5752429096      -25.6593651736       21.0883944131  MEMB      67              0.0000000000
      7414        67  SOPE      O11           -22.7828716058      -26.9174610804       19.1692635988  MEMB      67              0.0000000000
      7415        67  SOPE      C1            -22.5163357651      -26.0618560215       18.0703769410  MEMB      67              0.0000000000
      7416        67  SOPE      HA            -22.3485930959      -26.7310679653       17.1995505002  MEMB      67              0.0000000000
      7417        67  SOPE      HB            -21.5806911496      -25.4638765718       18.1065851001  MEMB      67              0.0000000000
      7418        67  SOPE      C2            -23.6831153900      -25.1260985258       17.6630057239  MEMB      67              0.0000000000
      7419        67  SOPE      HS            -24.0870899227      -24.6770942831       18.5954866621  MEMB      67              0.0000000000
      7420        67  SOPE      O21           -24.7870071404      -25.8511779107       17.1389075269  MEMB      67              0.0000000000
      7421        67  SOPE      C21           -25.9353764864      -25.3773973699       16.9832154128  MEMB      67              0.0000000000
      7422        67  SOPE      O22           -26.2617444176      -24.2256841686       17.1812640942  MEMB      67              0.0000000000
      7423        67  SOPE      C22           -26.9209574307      -26.4256273442       16.5090972991  MEMB      67              0.0000000000
      7424        67  SOPE      H2R           -27.7462838593      -26.3427757877       17.2482134405  MEMB      67              0.0000000000
      7425        67  SOPE      H2S           -26.4445742987      -27.4293098473       16.5078507977  MEMB      67              0.0000000000
      7426        67  SOPE      C3            -23.1878341619      -24.0909709271       16.6158687148  MEMB      67              0.0000000000
      7427        67  SOPE      HX            -22.5600073642      -23.2837622515       17.0501136545  MEMB      67              0.0000000000
      7428        67  SOPE      HY            -24.0414587183      -23.5213327177       16.1902419060  MEMB      67              0.0000000000
      7429        67  SOPE      O31           -22.3462905244      -24.6406675932       15.6122371782  MEMB      67              0.0000000000
      7430        67  SOPE      C31           -22.8922973736      -25.4273054768       14.6652009656  MEMB      67              0.0000000000
      7431        67  SOPE      O32           -24.1008129081      -25.6434236133       14.5506920642  MEMB      67              0.0000000000
      7432        67  SOPE      C32           -21.7752969707      -25.7635081428       13.7211413133  MEMB      67              0.0000000000
      7433        67  SOPE      H2X           -21.0428396833      -26.3862906016       14.2778900211  MEMB      67              0.0000000000
      7434        67  SOPE      H2Y           -21.1755291124      -24.8448249337       13.5461530035  MEMB      67              0.0000000000
      7435        67  SOPE      C23           -27.5160350689      -25.9782511005       15.1699970352  MEMB      67              0.0000000000
      7436        67  SOPE      H3R           -26.8821874540      -25.4699642761       14.4122356263  MEMB      67              0.0000000000
      7437        67  SOPE      H3S           -28.3382433954      -25.2834759198       15.4449193686  MEMB      67              0.0000000000
      7438        67  SOPE      C24           -28.3978206392      -27.0350371155       14.3835087064  MEMB      67              0.0000000000
      7439        67  SOPE      H4R           -29.1685649374      -27.4643155954       15.0587822304  MEMB      67              0.0000000000
      7440        67  SOPE      H4S           -29.0767079647      -26.4674913123       13.7117013592  MEMB      67              0.0000000000
      7441        67  SOPE      C25           -27.5137990789      -28.1298324892       13.8257470319  MEMB      67              0.0000000000
      7442        67  SOPE      H5R           -26.7548173416      -28.5396089971       14.5259975509  MEMB      67              0.0000000000
      7443        67  SOPE      H5S           -28.1107910387      -29.0353927841       13.5851605108  MEMB      67              0.0000000000
      7444        67  SOPE      C26           -26.9139763295      -27.6162690909       12.5153438881  MEMB      67              0.0000000000
      7445        67  SOPE      H6R           -26.9605789037      -26.5070470785       12.5574851902  MEMB      67              0.0000000000
      7446        67  SOPE      H6S           -25.8424841557      -27.9005461288       12.4417760219  MEMB      67              0.0000000000
      7447        67  SOPE      C27           -27.4760712256      -28.0777095034       11.1746392237  MEMB      67              0.0000000000
      7448        67  SOPE      H7R           -27.5988480730      -29.1757289020       11.2912589402  MEMB      67              0.0000000000
      7449        67  SOPE      H7S           -28.5389579369      -27.7569479138       11.1333492981  MEMB      67              0.0000000000
      7450        67  SOPE      C28           -26.6566651762      -27.7093772116        9.9085219988  MEMB      67              0.0000000000
      7451        67  SOPE      H8R           -25.6279502627      -28.1160539097       10.0118696649  MEMB      67              0.0000000000
      7452        67  SOPE      H8S           -26.9659714088      -28.4627664758        9.1528397758  MEMB      67              0.0000000000
      7453        67  SOPE      C29           -26.8217589230      -26.3316669075        9.2898228080  MEMB      67              0.0000000000
      7454        67  SOPE      H91           -27.1419663871      -25.5665925572       10.0124068850  MEMB      67              0.0000000000
      7455        67  SOPE      C210          -26.8031648977      -26.0444495280        8.0121268101  MEMB      67              0.0000000000
      7456        67  SOPE      H101          -27.0561982667      -25.0292321239        7.6725567997  MEMB      67              0.0000000000
      7457        67  SOPE      C211          -26.5904946593      -26.9933501152        6.8900668532  MEMB      67              0.0000000000
      7458        67  SOPE      H11R          -25.9518688708      -27.8577152294        7.1717603799  MEMB      67              0.0000000000
      7459        67  SOPE      H11S          -25.9815572580      -26.4293167535        6.1515664982  MEMB      67              0.0000000000
      7460        67  SOPE      C212          -27.8928249322      -27.4593906058        6.2175881200  MEMB      67              0.0000000000
      7461        67  SOPE      H12R          -28.6223593250      -27.8669167936        6.9497242987  MEMB      67              0.0000000000
      7462        67  SOPE      H12S          -27.6714751824      -28.2804287311        5.5025903251  MEMB      67              0.0000000000
      7463        67  SOPE      C213          -28.6332883625      -26.3325907318        5.4352064108  MEMB      67              0.0000000000
      7464        67  SOPE      H13R          -28.4391924785      -25.3232766589        5.8570273901  MEMB      67              0.0000000000
      7465        67  SOPE      H13S          -29.7128824118      -26.5505193291        5.5811675788  MEMB      67              0.0000000000
      7466        67  SOPE      C214          -28.2917518889      -26.3937452419        3.8707895720  MEMB      67              0.0000000000
      7467        67  SOPE      H14R          -28.9636625808      -26.9766017373        3.2051056466  MEMB      67              0.0000000000
      7468        67  SOPE      H14S          -27.2668266004      -26.7852517319        3.6959418665  MEMB      67              0.0000000000
      7469        67  SOPE      C215          -28.0296691660      -24.9077483205        3.2634862770  MEMB      67              0.0000000000
      7470        67  SOPE      H15R          -27.3757129190      -24.4009477682        4.0049826087  MEMB      67              0.0000000000
      7471        67  SOPE      H15S          -28.9703678368      -24.3301899028        3.1376549790  MEMB      67              0.0000000000
      7472        67  SOPE      C216          -27.4684620372      -24.8993270329        1.8181223735  MEMB      67              0.0000000000
      7473        67  SOPE      H16R          -26.6332019062      -25.6150870649        1.6620799010  MEMB      67              0.0000000000
      7474        67  SOPE      H16S          -26.9654799980      -23.9222142148        1.6550868393  MEMB      67              0.0000000000
      7475        67  SOPE      C217          -28.4474201077      -25.0994346709        0.6638033108  MEMB      67              0.0000000000
      7476        67  SOPE      H17R          -29.3855129066      -24.5748991035        0.9451663329  MEMB      67              0.0000000000
      7477        67  SOPE      H17S          -28.7167403135      -26.1763453198        0.7090928659  MEMB      67              0.0000000000
      7478        67  SOPE      C218          -27.9617284589      -24.7347054754       -0.7430483061  MEMB      67              0.0000000000
      7479        67  SOPE      H18R          -28.8622804291      -24.6689019022       -1.3903467645  MEMB      67              0.0000000000
      7480        67  SOPE      H18S          -27.1699121511      -25.3974405359       -1.1530843288  MEMB      67              0.0000000000
      7481        67  SOPE      H18T          -27.4833439614      -23.7357129615       -0.6565401219  MEMB      67              0.0000000000
      7482        67  SOPE      C33           -22.2002451796      -26.5930472456       12.4092559148  MEMB      67              0.0000000000
      7483        67  SOPE      H3X           -21.5019667237      -26.2116376968       11.6338496270  MEMB      67              0.0000000000
      7484        67  SOPE      H3Y           -23.2604838694      -26.4115098580       12.1312999510  MEMB      67              0.0000000000
      7485        67  SOPE      C34           -21.8615941272      -28.0398718008       12.6954404294  MEMB      67              0.0000000000
      7486        67  SOPE      H4X           -20.7900536838      -28.0857755033       12.9852932441  MEMB      67              0.0000000000
      7487        67  SOPE      H4Y           -22.0515803451      -28.4103551031       11.6654068326  MEMB      67              0.0000000000
      7488        67  SOPE      C35           -22.8702961268      -28.7173232183       13.6936454256  MEMB      67              0.0000000000
      7489        67  SOPE      H5X           -23.8621632402      -28.2558528904       13.4998261987  MEMB      67              0.0000000000
      7490        67  SOPE      H5Y           -22.6693744711      -28.3558206208       14.7247939554  MEMB      67              0.0000000000
      7491        67  SOPE      C36           -22.7884608307      -30.2938102979       13.7855297279  MEMB      67              0.0000000000
      7492        67  SOPE      H6X           -23.5909587915      -30.5428000892       14.5123872061  MEMB      67              0.0000000000
      7493        67  SOPE      H6Y           -21.8595064511      -30.4691663803       14.3691525628  MEMB      67              0.0000000000
      7494        67  SOPE      C37           -22.9781402681      -31.1840512054       12.5651137142  MEMB      67              0.0000000000
      7495        67  SOPE      H7X           -22.8482794133      -32.2641559561       12.7905699222  MEMB      67              0.0000000000
      7496        67  SOPE      H7Y           -22.1221281773      -30.9756370558       11.8882618387  MEMB      67              0.0000000000
      7497        67  SOPE      C38           -24.2090172579      -30.9261231105       11.7331570643  MEMB      67              0.0000000000
      7498        67  SOPE      H8X           -24.4620113949      -29.8456150209       11.6800789184  MEMB      67              0.0000000000
      7499        67  SOPE      H8Y           -25.0543008518      -31.3899345687       12.2851492812  MEMB      67              0.0000000000
      7500        67  SOPE      C39           -24.2619362617      -31.4218150483       10.3282475998  MEMB      67              0.0000000000
      7501        67  SOPE      H9X           -25.3433645801      -31.4908913879       10.0831722436  MEMB      67              0.0000000000
      7502        67  SOPE      H9Y           -23.9495116501      -32.4877821845       10.3076058961  MEMB      67              0.0000000000
      7503        67  SOPE      C310          -23.5297795616      -30.4297070471        9.3291577415  MEMB      67              0.0000000000
      7504        67  SOPE      H10X          -22.5052519656      -30.1869826091        9.6837697589  MEMB      67              0.0000000000
      7505        67  SOPE      H10Y          -24.1461351804      -29.5124048509        9.4431023819  MEMB      67              0.0000000000
      7506        67  SOPE      C311          -23.6151183942      -30.9393313392        7.9011469957  MEMB      67              0.0000000000
      7507        67  SOPE      H11X          -24.6926105708      -31.1136035370        7.6938768115  MEMB      67              0.0000000000
      7508        67  SOPE      H11Y          -23.0843417828      -31.9080798402        7.7823083713  MEMB      67              0.0000000000
      7509        67  SOPE      C312          -23.1472345365      -29.9433603645        6.8511645921  MEMB      67              0.0000000000
      7510        67  SOPE      H12X          -22.0566546091      -29.8026303605        7.0097577595  MEMB      67              0.0000000000
      7511        67  SOPE      H12Y          -23.6112860784      -29.0012476474        7.2136573211  MEMB      67              0.0000000000
      7512        67  SOPE      C313          -23.7113591533      -30.2119855928        5.3642649037  MEMB      67              0.0000000000
      7513        67  SOPE      H13X          -24.8220671925      -30.1948702942        5.3831285258  MEMB      67              0.0000000000
      7514        67  SOPE      H13Y          -23.3094672112      -31.2049113260        5.0694726562  MEMB      67              0.0000000000
      7515        67  SOPE      C314          -23.3002553595      -28.9675154948        4.5371887020  MEMB      67              0.0000000000
      7516        67  SOPE      H14X          -22.6097143368      -28.3559539774        5.1564370438  MEMB      67              0.0000000000
      7517        67  SOPE      H14Y          -24.2256675289      -28.4029102338        4.2939749105  MEMB      67              0.0000000000
      7518        67  SOPE      C315          -22.6772156051      -29.3689295971        3.1760686095  MEMB      67              0.0000000000
      7519        67  SOPE      H15X          -21.6471270849      -29.7656375859        3.3020114539  MEMB      67              0.0000000000
      7520        67  SOPE      H15Y          -22.5516361662      -28.3800234010        2.6855422019  MEMB      67              0.0000000000
      7521        67  SOPE      C316          -23.5947935976      -30.2215642827        2.2353746618  MEMB      67              0.0000000000
      7522        67  SOPE      H16X          -23.6672486470      -31.2429043128        2.6665769952  MEMB      67              0.0000000000
      7523        67  SOPE      H16Y          -23.1817160133      -30.1985822808        1.2042782367  MEMB      67              0.0000000000
      7524        67  SOPE      C317          -25.0687097010      -29.7420253916        2.1785042857  MEMB      67              0.0000000000
      7525        67  SOPE      H17X          -25.0548242456      -28.6845225077        1.8381868711  MEMB      67              0.0000000000
      7526        67  SOPE      H17Y          -25.3851283629      -29.6751902273        3.2413919426  MEMB      67              0.0000000000
      7527        67  SOPE      C318          -25.8704463925      -30.6087558872        1.1557898413  MEMB      67              0.0000000000
      7528        67  SOPE      H18X          -26.9445332302      -30.5875974570        1.4390055297  MEMB      67              0.0000000000
      7529        67  SOPE      H18Y          -25.6157011172      -31.6900686982        1.1420528019  MEMB      67              0.0000000000
      7530        67  SOPE      H18Z          -25.8222777361      -30.2211833577        0.1157003210  MEMB      67              0.0000000000
      7531        68  CHL1      C3            -28.9627983775      -19.0491725177       17.3295600000  MEMB      68              0.0000000000
      7532        68  CHL1      H3            -29.2539284382      -17.9858014803       17.1924300000  MEMB      68              0.0000000000
      7533        68  CHL1      O3            -28.9087052225      -19.4995002823       18.6704400000  MEMB      68              0.0000000000
      7534        68  CHL1      H3'           -29.7759137068      -19.4346912953       19.0770600000  MEMB      68              0.0000000000
      7535        68  CHL1      C4            -29.9018575384      -20.0041775201       16.5871400000  MEMB      68              0.0000000000
      7536        68  CHL1      H4A           -29.7217749459      -21.0815206838       16.7901900000  MEMB      68              0.0000000000
      7537        68  CHL1      H4B           -30.9002534345      -19.7105380057       16.9761200000  MEMB      68              0.0000000000
      7538        68  CHL1      C5            -29.7758268261      -19.8274483857       15.0810200000  MEMB      68              0.0000000000
      7539        68  CHL1      C6            -30.8575971719      -19.5000695288       14.2819800000  MEMB      68              0.0000000000
      7540        68  CHL1      H6            -31.8513916331      -19.3746558476       14.7365600000  MEMB      68              0.0000000000
      7541        68  CHL1      C7            -30.9465497697      -19.3720055657       12.8020700000  MEMB      68              0.0000000000
      7542        68  CHL1      H7A           -31.8306435214      -19.8353014167       12.3141700000  MEMB      68              0.0000000000
      7543        68  CHL1      H7B           -31.0852106295      -18.2899897094       12.5915000000  MEMB      68              0.0000000000
      7544        68  CHL1      C8            -29.6422166733      -19.8139501389       12.1766100000  MEMB      68              0.0000000000
      7545        68  CHL1      H8            -29.6490458848      -20.9204703147       12.0772500000  MEMB      68              0.0000000000
      7546        68  CHL1      C14           -29.5456881865      -19.2832616407       10.7562000000  MEMB      68              0.0000000000
      7547        68  CHL1      H14           -29.4764793178      -18.1760422724       10.8160500000  MEMB      68              0.0000000000
      7548        68  CHL1      C15           -30.7434592240      -19.4720005257        9.8435200000  MEMB      68              0.0000000000
      7549        68  CHL1      H15A          -30.9998461134      -20.5435223277        9.7005800000  MEMB      68              0.0000000000
      7550        68  CHL1      H15B          -31.5762507538      -18.7931548879       10.1262400000  MEMB      68              0.0000000000
      7551        68  CHL1      C16           -30.0903033411      -19.1575243754        8.4706500000  MEMB      68              0.0000000000
      7552        68  CHL1      H16A          -30.3691622578      -19.9964553347        7.7977800000  MEMB      68              0.0000000000
      7553        68  CHL1      H16B          -30.5303548565      -18.2144282528        8.0817600000  MEMB      68              0.0000000000
      7554        68  CHL1      C17           -28.5513578379      -18.9381857758        8.6750200000  MEMB      68              0.0000000000
      7555        68  CHL1      H17           -28.4070538484      -17.8692532893        8.9412700000  MEMB      68              0.0000000000
      7556        68  CHL1      C13           -28.3440143187      -19.7270326276        9.9772700000  MEMB      68              0.0000000000
      7557        68  CHL1      C18           -28.4531834672      -21.2525260263        9.6664600000  MEMB      68              0.0000000000
      7558        68  CHL1      H18A          -27.6212668398      -21.5664513663        9.0003700000  MEMB      68              0.0000000000
      7559        68  CHL1      H18B          -28.4470977926      -21.9270268899       10.5492500000  MEMB      68              0.0000000000
      7560        68  CHL1      H18C          -29.3219717044      -21.5318725913        9.0328200000  MEMB      68              0.0000000000
      7561        68  CHL1      C12           -27.0448842702      -19.4133020545       10.6934400000  MEMB      68              0.0000000000
      7562        68  CHL1      H12A          -26.1543416002      -19.9113870522       10.2539400000  MEMB      68              0.0000000000
      7563        68  CHL1      H12B          -27.0015750799      -18.3068800945       10.7843900000  MEMB      68              0.0000000000
      7564        68  CHL1      C11           -27.1256173694      -19.9052533854       12.1521100000  MEMB      68              0.0000000000
      7565        68  CHL1      H11A          -27.0674567625      -21.0146804690       12.1416000000  MEMB      68              0.0000000000
      7566        68  CHL1      H11B          -26.2525726343      -19.4679562888       12.6820800000  MEMB      68              0.0000000000
      7567        68  CHL1      C9            -28.3788767932      -19.4557795382       12.9748400000  MEMB      68              0.0000000000
      7568        68  CHL1      H9            -28.3052795622      -18.3549209935       13.1052800000  MEMB      68              0.0000000000
      7569        68  CHL1      C10           -28.3764843750      -19.8695081688       14.4927100000  MEMB      68              0.0000000000
      7570        68  CHL1      C19           -27.8704100525      -21.3082520626       14.5222100000  MEMB      68              0.0000000000
      7571        68  CHL1      H19A          -28.4129142541      -21.9027074204       13.7563000000  MEMB      68              0.0000000000
      7572        68  CHL1      H19B          -26.7596469748      -21.3269248834       14.5090500000  MEMB      68              0.0000000000
      7573        68  CHL1      H19C          -27.9727398019      -21.7706332328       15.5272200000  MEMB      68              0.0000000000
      7574        68  CHL1      C1            -27.3391479388      -18.9100658171       15.2524100000  MEMB      68              0.0000000000
      7575        68  CHL1      H1A           -26.3623736958      -19.2123846241       14.8178700000  MEMB      68              0.0000000000
      7576        68  CHL1      H1B           -27.5153240053      -17.8174370931       15.1552600000  MEMB      68              0.0000000000
      7577        68  CHL1      C2            -27.4655129408      -19.1166514290       16.7889300000  MEMB      68              0.0000000000
      7578        68  CHL1      H2A           -26.8621995765      -18.3598377950       17.3344100000  MEMB      68              0.0000000000
      7579        68  CHL1      H2B           -27.1241713128      -20.1398832373       17.0550400000  MEMB      68              0.0000000000
      7580        68  CHL1      C20           -27.7230982772      -19.0964572978        7.3567300000  MEMB      68              0.0000000000
      7581        68  CHL1      H20           -27.9671830474      -20.1326177104        7.0387500000  MEMB      68              0.0000000000
      7582        68  CHL1      C21           -26.2607495769      -18.9718411073        7.5477900000  MEMB      68              0.0000000000
      7583        68  CHL1      H21A          -25.8455622614      -18.7926209347        6.5329900000  MEMB      68              0.0000000000
      7584        68  CHL1      H21B          -25.8006692444      -19.8643708202        8.0232200000  MEMB      68              0.0000000000
      7585        68  CHL1      H21C          -26.0680511352      -18.0431589053        8.1263600000  MEMB      68              0.0000000000
      7586        68  CHL1      C22           -28.3321592878      -18.3133301958        6.1378700000  MEMB      68              0.0000000000
      7587        68  CHL1      H22A          -28.9020695146      -17.4875209591        6.6149000000  MEMB      68              0.0000000000
      7588        68  CHL1      H22B          -27.6090031879      -17.8369674886        5.4418600000  MEMB      68              0.0000000000
      7589        68  CHL1      C23           -29.2980103442      -19.2093241829        5.3417500000  MEMB      68              0.0000000000
      7590        68  CHL1      H23A          -28.7201969836      -20.0070426991        4.8278600000  MEMB      68              0.0000000000
      7591        68  CHL1      H23B          -30.1333465562      -19.7717311075        5.8110400000  MEMB      68              0.0000000000
      7592        68  CHL1      C24           -30.0324340283      -18.3804231395        4.2761800000  MEMB      68              0.0000000000
      7593        68  CHL1      H24A          -30.5384056976      -17.4840915314        4.6943800000  MEMB      68              0.0000000000
      7594        68  CHL1      H24B          -29.2685549737      -18.0184011331        3.5552400000  MEMB      68              0.0000000000
      7595        68  CHL1      C25           -31.2782950741      -19.0394767056        3.5509100000  MEMB      68              0.0000000000
      7596        68  CHL1      H25           -30.9090308145      -19.8530570556        2.8905700000  MEMB      68              0.0000000000
      7597        68  CHL1      C26           -32.3913885004      -19.6896809105        4.4522400000  MEMB      68              0.0000000000
      7598        68  CHL1      H26A          -31.9602919342      -20.2380910411        5.3169400000  MEMB      68              0.0000000000
      7599        68  CHL1      H26B          -33.0132164751      -18.8989265201        4.9238000000  MEMB      68              0.0000000000
      7600        68  CHL1      H26C          -32.9977082583      -20.4380160424        3.8984400000  MEMB      68              0.0000000000
      7601        68  CHL1      C27           -31.8904415527      -18.0665301336        2.5253100000  MEMB      68              0.0000000000
      7602        68  CHL1      H27A          -32.6249965149      -18.5201974836        1.8260600000  MEMB      68              0.0000000000
      7603        68  CHL1      H27B          -32.4192901670      -17.2304450522        3.0308800000  MEMB      68              0.0000000000
      7604        68  CHL1      H27C          -31.1077941594      -17.7069680176        1.8235200000  MEMB      68              0.0000000000
      7605        69  SAPC      N             -24.7722790606       26.9420363807       20.4746878912  MEMB      69              0.0000000000
      7606        69  SAPC      C12           -24.2069014745       26.6828133567       19.1360834394  MEMB      69              0.0000000000
      7607        69  SAPC      H12A          -23.9060018442       27.6329097621       18.7199388481  MEMB      69              0.0000000000
      7608        69  SAPC      H12B          -24.9556110517       26.2058495420       18.5209903055  MEMB      69              0.0000000000
      7609        69  SAPC      C13           -23.8665686933       27.8475356871       21.2340436813  MEMB      69              0.0000000000
      7610        69  SAPC      H13A          -22.9677806347       27.2495914322       21.2663349746  MEMB      69              0.0000000000
      7611        69  SAPC      H13B          -23.6964446672       28.7800573888       20.7164906795  MEMB      69              0.0000000000
      7612        69  SAPC      H13C          -24.1338126950       28.1057942315       22.2480865956  MEMB      69              0.0000000000
      7613        69  SAPC      C14           -26.0792681578       27.6343783376       20.2687510797  MEMB      69              0.0000000000
      7614        69  SAPC      H14A          -26.5777767389       27.1003814734       19.4733036700  MEMB      69              0.0000000000
      7615        69  SAPC      H14B          -26.6453859864       27.6816388340       21.1872700386  MEMB      69              0.0000000000
      7616        69  SAPC      H14C          -25.8289650980       28.6311492816       19.9367927299  MEMB      69              0.0000000000
      7617        69  SAPC      C15           -25.0037062013       25.6255977119       21.2345047554  MEMB      69              0.0000000000
      7618        69  SAPC      H15A          -25.2493618578       25.8663891399       22.2582590324  MEMB      69              0.0000000000
      7619        69  SAPC      H15B          -25.7371291553       24.9500184699       20.8196754071  MEMB      69              0.0000000000
      7620        69  SAPC      H15C          -24.0796898989       25.0756677544       21.3353551987  MEMB      69              0.0000000000
      7621        69  SAPC      C11           -22.9847016859       25.7153023574       18.9811449954  MEMB      69              0.0000000000
      7622        69  SAPC      H11A          -22.4958632223       25.9653338820       18.0153074666  MEMB      69              0.0000000000
      7623        69  SAPC      H11B          -23.4011826559       24.6872456091       19.0441039295  MEMB      69              0.0000000000
      7624        69  SAPC      P             -20.4995211107       25.7796179078       19.8068954233  MEMB      69              0.0000000000
      7625        69  SAPC      O13           -19.8246584776       26.1276112264       21.0257169252  MEMB      69              0.0000000000
      7626        69  SAPC      O14           -20.1138341242       24.5627900567       19.0353251520  MEMB      69              0.0000000000
      7627        69  SAPC      O12           -22.1047935010       25.8883986646       20.0559694591  MEMB      69              0.0000000000
      7628        69  SAPC      O11           -20.3853176846       26.9714239305       18.7468771822  MEMB      69              0.0000000000
      7629        69  SAPC      C1            -20.3286772289       28.3210339809       19.1476796184  MEMB      69              0.0000000000
      7630        69  SAPC      HA            -21.3581436150       28.5824582247       19.4735281719  MEMB      69              0.0000000000
      7631        69  SAPC      HB            -19.6485343579       28.4541396613       20.0160169377  MEMB      69              0.0000000000
      7632        69  SAPC      C2            -19.9493091670       29.2399526508       18.0362070459  MEMB      69              0.0000000000
      7633        69  SAPC      HS            -19.7577092800       30.2681943554       18.4108123927  MEMB      69              0.0000000000
      7634        69  SAPC      O21           -20.9610107949       29.2177507489       17.0329035198  MEMB      69              0.0000000000
      7635        69  SAPC      C21           -21.6894798174       30.2893985878       16.8187091100  MEMB      69              0.0000000000
      7636        69  SAPC      O22           -21.6804265060       31.2969166552       17.5465132128  MEMB      69              0.0000000000
      7637        69  SAPC      C22           -22.3962223040       30.1355663898       15.4556622114  MEMB      69              0.0000000000
      7638        69  SAPC      H2R           -23.0778838381       31.0002654140       15.3074916083  MEMB      69              0.0000000000
      7639        69  SAPC      H2S           -21.6072392273       30.2716592837       14.6853987687  MEMB      69              0.0000000000
      7640        69  SAPC      C3            -18.6632656610       28.7554895395       17.3973745950  MEMB      69              0.0000000000
      7641        69  SAPC      HX            -17.8019413987       28.6856537612       18.0956328560  MEMB      69              0.0000000000
      7642        69  SAPC      HY            -18.2348302223       29.4548672141       16.6479514989  MEMB      69              0.0000000000
      7643        69  SAPC      O31           -18.8293065831       27.4533181486       16.8374657189  MEMB      69              0.0000000000
      7644        69  SAPC      C31           -19.2274688571       27.3801677445       15.5441562665  MEMB      69              0.0000000000
      7645        69  SAPC      O32           -19.2355506598       28.2878692749       14.6996256287  MEMB      69              0.0000000000
      7646        69  SAPC      C32           -19.6536128538       25.9828890889       15.0921864651  MEMB      69              0.0000000000
      7647        69  SAPC      H2X           -20.0500323118       25.4667232520       15.9926007621  MEMB      69              0.0000000000
      7648        69  SAPC      H2Y           -18.7390208265       25.4239498505       14.7999038601  MEMB      69              0.0000000000
      7649        69  SAPC      C23           -23.2830729908       28.8556128141       15.2686387042  MEMB      69              0.0000000000
      7650        69  SAPC      H3R           -24.1597428730       28.8012874816       15.9489471108  MEMB      69              0.0000000000
      7651        69  SAPC      H3S           -22.6487039588       27.9569890421       15.4247544966  MEMB      69              0.0000000000
      7652        69  SAPC      C24           -23.7940683201       28.7086286598       13.8109362220  MEMB      69              0.0000000000
      7653        69  SAPC      H4R           -24.0474153139       27.6302287549       13.7261429758  MEMB      69              0.0000000000
      7654        69  SAPC      H4S           -23.0159804958       29.0180989286       13.0807802857  MEMB      69              0.0000000000
      7655        69  SAPC      C25           -25.1472661103       29.4109164650       13.5602583027  MEMB      69              0.0000000000
      7656        69  SAPC      H5R           -26.0481030028       28.8800495448       13.9018332021  MEMB      69              0.0000000000
      7657        69  SAPC      C26           -25.1977986515       30.5808624204       12.8560766035  MEMB      69              0.0000000000
      7658        69  SAPC      H6R           -26.2207268863       30.9842771141       12.8265103125  MEMB      69              0.0000000000
      7659        69  SAPC      C27           -24.0181859195       31.3592905558       12.2801455418  MEMB      69              0.0000000000
      7660        69  SAPC      H7R           -23.1086180995       31.2643045590       12.9110061053  MEMB      69              0.0000000000
      7661        69  SAPC      H7S           -24.2358725935       32.4476613703       12.2313314218  MEMB      69              0.0000000000
      7662        69  SAPC      C28           -23.8568958925       30.8088961108       10.9013005167  MEMB      69              0.0000000000
      7663        69  SAPC      H8R           -24.6780473110       31.0210477569       10.2007992558  MEMB      69              0.0000000000
      7664        69  SAPC      C29           -22.8267138834       30.2704411511       10.2978301801  MEMB      69              0.0000000000
      7665        69  SAPC      H9R           -23.0817814074       29.9344184044        9.2819419823  MEMB      69              0.0000000000
      7666        69  SAPC      C210          -21.4542934991       30.0282409570       10.9611279668  MEMB      69              0.0000000000
      7667        69  SAPC      H10R          -21.2562054088       30.6096189571       11.8869151544  MEMB      69              0.0000000000
      7668        69  SAPC      H10S          -20.7129844991       30.4088375895       10.2263300766  MEMB      69              0.0000000000
      7669        69  SAPC      C211          -21.1647244467       28.5465958427       11.0714605124  MEMB      69              0.0000000000
      7670        69  SAPC      H11R          -21.1980237832       28.2167449520       12.1203124077  MEMB      69              0.0000000000
      7671        69  SAPC      C212          -20.7828609132       27.7228961742       10.0772860352  MEMB      69              0.0000000000
      7672        69  SAPC      H12R          -20.6167785354       26.6749731840       10.3675869029  MEMB      69              0.0000000000
      7673        69  SAPC      C213          -20.5317678332       28.0365744676        8.6328561428  MEMB      69              0.0000000000
      7674        69  SAPC      H13R          -21.3922048574       28.6151061500        8.2337691533  MEMB      69              0.0000000000
      7675        69  SAPC      H13S          -20.4248012499       27.0899056492        8.0612817225  MEMB      69              0.0000000000
      7676        69  SAPC      C214          -19.2886321537       28.8450904230        8.3057970129  MEMB      69              0.0000000000
      7677        69  SAPC      H14R          -19.1342028776       29.6931982398        8.9890717608  MEMB      69              0.0000000000
      7678        69  SAPC      C215          -18.2953343439       28.5214573227        7.4996681947  MEMB      69              0.0000000000
      7679        69  SAPC      H15R          -17.4977855625       29.2707786669        7.3881618952  MEMB      69              0.0000000000
      7680        69  SAPC      C216          -18.1115332320       27.2988670797        6.6208320236  MEMB      69              0.0000000000
      7681        69  SAPC      H16R          -18.5865477352       26.4361075324        7.1349605375  MEMB      69              0.0000000000
      7682        69  SAPC      H16S          -17.0597155501       27.0188028619        6.3982013158  MEMB      69              0.0000000000
      7683        69  SAPC      C217          -18.9497898055       27.4828884901        5.3279715027  MEMB      69              0.0000000000
      7684        69  SAPC      H17R          -19.9969658362       27.8051051159        5.5121442344  MEMB      69              0.0000000000
      7685        69  SAPC      H17S          -19.0296403487       26.4724071058        4.8731393276  MEMB      69              0.0000000000
      7686        69  SAPC      C218          -18.2184590510       28.4335002641        4.2894390257  MEMB      69              0.0000000000
      7687        69  SAPC      H18R          -17.2552079187       27.8959867295        4.1569727626  MEMB      69              0.0000000000
      7688        69  SAPC      H18S          -18.0290434622       29.3829036679        4.8344856169  MEMB      69              0.0000000000
      7689        69  SAPC      C219          -18.9317372958       28.5674176894        2.9512629918  MEMB      69              0.0000000000
      7690        69  SAPC      H19R          -19.4492620674       27.6069464120        2.7415392737  MEMB      69              0.0000000000
      7691        69  SAPC      H19S          -18.0869094543       28.6823288392        2.2389548137  MEMB      69              0.0000000000
      7692        69  SAPC      C220          -19.7225884737       29.9203869279        2.9097968202  MEMB      69              0.0000000000
      7693        69  SAPC      H20R          -20.6636459477       29.8881567488        3.4994518722  MEMB      69              0.0000000000
      7694        69  SAPC      H20S          -20.0919547036       30.0797470236        1.8741843906  MEMB      69              0.0000000000
      7695        69  SAPC      H20T          -19.0304623141       30.6921755035        3.3093277655  MEMB      69              0.0000000000
      7696        69  SAPC      C33           -20.7540427094       26.0788732578       14.0601439517  MEMB      69              0.0000000000
      7697        69  SAPC      H3X           -20.2899518178       26.5487679633       13.1667574107  MEMB      69              0.0000000000
      7698        69  SAPC      H3Y           -21.5240671147       26.8052668873       14.3973915472  MEMB      69              0.0000000000
      7699        69  SAPC      C34           -21.3082024900       24.6552721202       13.7237851570  MEMB      69              0.0000000000
      7700        69  SAPC      H4X           -21.2385254960       24.0330702599       14.6415709649  MEMB      69              0.0000000000
      7701        69  SAPC      H4Y           -20.6687922316       24.1152087089       12.9931645225  MEMB      69              0.0000000000
      7702        69  SAPC      C35           -22.6891222359       24.5038455347       13.1015201887  MEMB      69              0.0000000000
      7703        69  SAPC      H5X           -23.4374151825       24.8670975791       13.8380165826  MEMB      69              0.0000000000
      7704        69  SAPC      H5Y           -23.0121287112       23.4557488948       12.9240907007  MEMB      69              0.0000000000
      7705        69  SAPC      C36           -22.7478891290       25.3382971392       11.8431785148  MEMB      69              0.0000000000
      7706        69  SAPC      H6X           -22.0182755887       24.8010011069       11.2002960269  MEMB      69              0.0000000000
      7707        69  SAPC      H6Y           -22.4039098358       26.3747665893       12.0474582240  MEMB      69              0.0000000000
      7708        69  SAPC      C37           -24.2374048107       25.4630635152       11.3133078666  MEMB      69              0.0000000000
      7709        69  SAPC      H7X           -24.9566351181       25.6758986356       12.1328991017  MEMB      69              0.0000000000
      7710        69  SAPC      H7Y           -24.5024471236       24.5257812530       10.7789150454  MEMB      69              0.0000000000
      7711        69  SAPC      C38           -24.2358283546       26.4568585101       10.2039736763  MEMB      69              0.0000000000
      7712        69  SAPC      H8X           -23.4494080245       26.0774027554        9.5170403799  MEMB      69              0.0000000000
      7713        69  SAPC      H8Y           -23.9494734114       27.4674067014       10.5660711148  MEMB      69              0.0000000000
      7714        69  SAPC      C39           -25.5722833931       26.5657673111        9.4966146135  MEMB      69              0.0000000000
      7715        69  SAPC      H9X           -26.3864692046       26.9437476612       10.1512540910  MEMB      69              0.0000000000
      7716        69  SAPC      H9Y           -25.7798492278       25.4848580549        9.3453778694  MEMB      69              0.0000000000
      7717        69  SAPC      C310          -25.5113089366       27.2949815664        8.2111050513  MEMB      69              0.0000000000
      7718        69  SAPC      H10X          -25.5925739666       28.3974184071        8.3222350614  MEMB      69              0.0000000000
      7719        69  SAPC      H10Y          -26.3549097375       26.9703802943        7.5651227629  MEMB      69              0.0000000000
      7720        69  SAPC      C311          -24.2518374941       26.9894689906        7.3395626037  MEMB      69              0.0000000000
      7721        69  SAPC      H11X          -23.9257839364       25.9350370996        7.4667782661  MEMB      69              0.0000000000
      7722        69  SAPC      H11Y          -23.4138591807       27.6151929819        7.7145062415  MEMB      69              0.0000000000
      7723        69  SAPC      C312          -24.6520699403       27.3442846196        5.9347738191  MEMB      69              0.0000000000
      7724        69  SAPC      H12X          -24.7933508951       28.4367889593        5.7905707565  MEMB      69              0.0000000000
      7725        69  SAPC      H12Y          -25.5612179193       26.7757513554        5.6440155616  MEMB      69              0.0000000000
      7726        69  SAPC      C313          -23.4567033295       26.9681581682        5.0262925784  MEMB      69              0.0000000000
      7727        69  SAPC      H13X          -23.0893048434       25.9389451814        5.2264431992  MEMB      69              0.0000000000
      7728        69  SAPC      H13Y          -22.6056512848       27.5777283314        5.3983889293  MEMB      69              0.0000000000
      7729        69  SAPC      C314          -23.5629009716       27.1733914621        3.5633544969  MEMB      69              0.0000000000
      7730        69  SAPC      H14X          -23.6414680733       28.2695199670        3.4001044894  MEMB      69              0.0000000000
      7731        69  SAPC      H14Y          -24.5268755319       26.6920607311        3.2924394675  MEMB      69              0.0000000000
      7732        69  SAPC      C315          -22.4443910895       26.6074371275        2.6310435043  MEMB      69              0.0000000000
      7733        69  SAPC      H15X          -21.4556190156       26.7629941654        3.1131773178  MEMB      69              0.0000000000
      7734        69  SAPC      H15Y          -22.3169744967       27.0813621468        1.6343084813  MEMB      69              0.0000000000
      7735        69  SAPC      C316          -22.7128051146       25.1118559682        2.4456761170  MEMB      69              0.0000000000
      7736        69  SAPC      H16X          -23.7635461490       25.1095903903        2.0847616552  MEMB      69              0.0000000000
      7737        69  SAPC      H16Y          -22.6354315500       24.5993465185        3.4283609978  MEMB      69              0.0000000000
      7738        69  SAPC      C317          -21.8089949376       24.4591698682        1.4830353557  MEMB      69              0.0000000000
      7739        69  SAPC      H17X          -22.1296649861       24.8471384426        0.4925958179  MEMB      69              0.0000000000
      7740        69  SAPC      H17Y          -21.9807205632       23.3667938588        1.3755821077  MEMB      69              0.0000000000
      7741        69  SAPC      C318          -20.3091071188       24.6556465877        1.5709348302  MEMB      69              0.0000000000
      7742        69  SAPC      H18X          -19.8606176566       24.1806344955        0.6723025262  MEMB      69              0.0000000000
      7743        69  SAPC      H18Y          -19.7922706147       24.0850208017        2.3719275401  MEMB      69              0.0000000000
      7744        69  SAPC      H18Z          -19.9841450031       25.7178879171        1.5900020901  MEMB      69              0.0000000000
      7745        70  SAPE      N              19.8047361499      -27.1634807722       19.6319304090  MEMB      70              0.0000000000
      7746        70  SAPE      HN1            20.7010156180      -26.6557857565       19.4886503282  MEMB      70              0.0000000000
      7747        70  SAPE      HN2            19.3763394243      -27.4484992069       18.7281380422  MEMB      70              0.0000000000
      7748        70  SAPE      HN3            19.0497804737      -26.6071467968       20.0815235644  MEMB      70              0.0000000000
      7749        70  SAPE      C12            19.9780558791      -28.3880856662       20.4852811896  MEMB      70              0.0000000000
      7750        70  SAPE      H12A           20.3202475065      -28.0211952428       21.4765516458  MEMB      70              0.0000000000
      7751        70  SAPE      H12B           20.7278434228      -29.0354443191       19.9822241848  MEMB      70              0.0000000000
      7752        70  SAPE      C11            18.6382076261      -29.1253727281       20.7207519932  MEMB      70              0.0000000000
      7753        70  SAPE      H11A           17.8650575215      -28.3336337884       20.8192881133  MEMB      70              0.0000000000
      7754        70  SAPE      H11B           18.5530577146      -29.6478799954       21.6975102882  MEMB      70              0.0000000000
      7755        70  SAPE      P              17.7900296253      -31.4630740644       19.8471881006  MEMB      70              0.0000000000
      7756        70  SAPE      O13            17.5114368467      -31.6519899225       21.3154396387  MEMB      70              0.0000000000
      7757        70  SAPE      O14            16.6200643709      -31.7227860922       18.9788245287  MEMB      70              0.0000000000
      7758        70  SAPE      O12            18.2711315858      -29.9408796855       19.6045999108  MEMB      70              0.0000000000
      7759        70  SAPE      O11            19.0218155141      -32.3743390958       19.4159842132  MEMB      70              0.0000000000
      7760        70  SAPE      C1             20.2264063830      -32.1831690491       20.1543825449  MEMB      70              0.0000000000
      7761        70  SAPE      HA             20.5183711785      -31.1160912719       20.2564731872  MEMB      70              0.0000000000
      7762        70  SAPE      HB             20.1377801699      -32.5379104976       21.2034891981  MEMB      70              0.0000000000
      7763        70  SAPE      C2             21.3718032721      -32.9122619100       19.5814837149  MEMB      70              0.0000000000
      7764        70  SAPE      HS             22.2253648616      -32.6830725170       20.2547041436  MEMB      70              0.0000000000
      7765        70  SAPE      O21            21.6693818854      -32.4664473588       18.2497723419  MEMB      70              0.0000000000
      7766        70  SAPE      C21            22.4971510911      -31.3212913815       18.2610051581  MEMB      70              0.0000000000
      7767        70  SAPE      O22            22.9668350035      -30.7760349214       19.2696035408  MEMB      70              0.0000000000
      7768        70  SAPE      C22            22.7357195127      -30.8741857880       16.8064737443  MEMB      70              0.0000000000
      7769        70  SAPE      H2R            23.8281645177      -30.7326800254       16.6620409679  MEMB      70              0.0000000000
      7770        70  SAPE      H2S            22.5463861530      -31.7187989613       16.1099808442  MEMB      70              0.0000000000
      7771        70  SAPE      C3             21.1019093370      -34.4592991723       19.5395384625  MEMB      70              0.0000000000
      7772        70  SAPE      HX             20.9752771360      -34.7978097180       20.5901076738  MEMB      70              0.0000000000
      7773        70  SAPE      HY             22.0182954493      -35.0019481296       19.2231689842  MEMB      70              0.0000000000
      7774        70  SAPE      O31            19.9980667528      -34.8315478107       18.6482811894  MEMB      70              0.0000000000
      7775        70  SAPE      C31            20.1467503640      -35.1362843618       17.3581328674  MEMB      70              0.0000000000
      7776        70  SAPE      O32            21.1525580376      -35.1500026429       16.7449205115  MEMB      70              0.0000000000
      7777        70  SAPE      C32            18.7617482059      -35.6420464288       16.8415625357  MEMB      70              0.0000000000
      7778        70  SAPE      H2X            18.6689297538      -36.6830070528       17.2185321029  MEMB      70              0.0000000000
      7779        70  SAPE      H2Y            18.7964435599      -35.7108833670       15.7332402981  MEMB      70              0.0000000000
      7780        70  SAPE      C23            21.9732829421      -29.6178156861       16.4370642208  MEMB      70              0.0000000000
      7781        70  SAPE      H3R            22.2738671988      -29.0756471772       15.5150968778  MEMB      70              0.0000000000
      7782        70  SAPE      H3S            22.2701846208      -28.9750854844       17.2932583619  MEMB      70              0.0000000000
      7783        70  SAPE      C24            20.4386176108      -29.8472618770       16.5301678265  MEMB      70              0.0000000000
      7784        70  SAPE      H4R            19.9209387821      -28.8669785009       16.4568585177  MEMB      70              0.0000000000
      7785        70  SAPE      H4S            20.1586109201      -30.2986725055       17.5059473266  MEMB      70              0.0000000000
      7786        70  SAPE      C25            20.0336600586      -30.7022919029       15.3460345500  MEMB      70              0.0000000000
      7787        70  SAPE      H5R            20.6313363018      -31.5903763021       15.0928764596  MEMB      70              0.0000000000
      7788        70  SAPE      C26            18.9137487226      -30.4936938397       14.5680687880  MEMB      70              0.0000000000
      7789        70  SAPE      H6R            18.8124686262      -31.1644956920       13.7021777046  MEMB      70              0.0000000000
      7790        70  SAPE      C27            17.8744360444      -29.4523930030       14.7529651790  MEMB      70              0.0000000000
      7791        70  SAPE      H7R            17.7223028632      -29.2664204788       15.8376728823  MEMB      70              0.0000000000
      7792        70  SAPE      H7S            16.8857982577      -29.7624084058       14.3519578356  MEMB      70              0.0000000000
      7793        70  SAPE      C28            18.1552870606      -28.1156691416       14.2026014418  MEMB      70              0.0000000000
      7794        70  SAPE      H8R            17.7349967726      -27.3403620129       14.8600628322  MEMB      70              0.0000000000
      7795        70  SAPE      C29            18.6396465270      -27.6875676353       13.0540705402  MEMB      70              0.0000000000
      7796        70  SAPE      H9R            18.7042531964      -26.5984972394       12.9135305369  MEMB      70              0.0000000000
      7797        70  SAPE      C210           19.1388662643      -28.4614877672       11.8728161109  MEMB      70              0.0000000000
      7798        70  SAPE      H10R           19.4998664285      -29.4816707401       12.1242645583  MEMB      70              0.0000000000
      7799        70  SAPE      H10S           20.0408242346      -27.9135879615       11.5255424069  MEMB      70              0.0000000000
      7800        70  SAPE      C211           18.0371540025      -28.6034538491       10.8489647722  MEMB      70              0.0000000000
      7801        70  SAPE      H11R           17.1384960325      -29.1870495610       11.0976207603  MEMB      70              0.0000000000
      7802        70  SAPE      C212           18.1187953011      -28.1330971439        9.6017658077  MEMB      70              0.0000000000
      7803        70  SAPE      H12R           17.2281149691      -28.0978405640        8.9572153856  MEMB      70              0.0000000000
      7804        70  SAPE      C213           19.3014126655      -27.2993906802        9.0454848005  MEMB      70              0.0000000000
      7805        70  SAPE      H13R           19.5667012874      -26.3998127788        9.6410548112  MEMB      70              0.0000000000
      7806        70  SAPE      H13S           19.0327904653      -26.8995806811        8.0443284454  MEMB      70              0.0000000000
      7807        70  SAPE      C214           20.5045351774      -28.1705079674        8.9096069344  MEMB      70              0.0000000000
      7808        70  SAPE      H14R           21.2842790526      -28.1526799902        9.6852885506  MEMB      70              0.0000000000
      7809        70  SAPE      C215           20.8718893934      -28.9296138460        7.8938576623  MEMB      70              0.0000000000
      7810        70  SAPE      H15R           21.8025886727      -29.5159570782        7.8945755789  MEMB      70              0.0000000000
      7811        70  SAPE      C216           20.1396169206      -28.9938339128        6.6055620676  MEMB      70              0.0000000000
      7812        70  SAPE      H16R           19.0646420647      -28.7768493818        6.7835153396  MEMB      70              0.0000000000
      7813        70  SAPE      H16S           20.2641475145      -30.0396450115        6.2518783162  MEMB      70              0.0000000000
      7814        70  SAPE      C217           20.8306821625      -28.0339758962        5.6785504475  MEMB      70              0.0000000000
      7815        70  SAPE      H17R           21.8002277957      -28.5651091833        5.5680977989  MEMB      70              0.0000000000
      7816        70  SAPE      H17S           21.0185676486      -27.0668855442        6.1921228544  MEMB      70              0.0000000000
      7817        70  SAPE      C218           19.9856368848      -27.7567851500        4.3679646829  MEMB      70              0.0000000000
      7818        70  SAPE      H18R           20.5761568713      -26.9275018089        3.9231099862  MEMB      70              0.0000000000
      7819        70  SAPE      H18S           19.0336762654      -27.3478263582        4.7690187816  MEMB      70              0.0000000000
      7820        70  SAPE      C219           19.8025522256      -28.9422478451        3.4450149851  MEMB      70              0.0000000000
      7821        70  SAPE      H19R           19.2400489628      -29.7584641603        3.9467132721  MEMB      70              0.0000000000
      7822        70  SAPE      H19S           20.8314447212      -29.2798604083        3.1965819269  MEMB      70              0.0000000000
      7823        70  SAPE      C220           19.0650620884      -28.6387794296        2.0376118534  MEMB      70              0.0000000000
      7824        70  SAPE      H20R           18.0761255276      -28.1370756211        2.1055766838  MEMB      70              0.0000000000
      7825        70  SAPE      H20S           18.8731751012      -29.5290080567        1.4012208255  MEMB      70              0.0000000000
      7826        70  SAPE      H20T           19.7239317784      -28.0044433288        1.4068743396  MEMB      70              0.0000000000
      7827        70  SAPE      C33            17.5694279232      -34.6662729932       17.2329914662  MEMB      70              0.0000000000
      7828        70  SAPE      H3X            17.8371133471      -33.6177642110       16.9814068757  MEMB      70              0.0000000000
      7829        70  SAPE      H3Y            17.4884978363      -34.6634186606       18.3410362783  MEMB      70              0.0000000000
      7830        70  SAPE      C34            16.1785855115      -34.9778543015       16.5574759090  MEMB      70              0.0000000000
      7831        70  SAPE      H4X            15.4604313985      -34.2598954502       17.0081539223  MEMB      70              0.0000000000
      7832        70  SAPE      H4Y            15.9588555126      -36.0555269432       16.7145141292  MEMB      70              0.0000000000
      7833        70  SAPE      C35            16.1598970993      -34.7360485739       15.0028130902  MEMB      70              0.0000000000
      7834        70  SAPE      H5X            15.0825710926      -34.6754778626       14.7381979256  MEMB      70              0.0000000000
      7835        70  SAPE      H5Y            16.5701951988      -35.5807524996       14.4091366108  MEMB      70              0.0000000000
      7836        70  SAPE      C36            16.7240896157      -33.5208851689       14.3741904416  MEMB      70              0.0000000000
      7837        70  SAPE      H6X            17.7863510882      -33.4641532192       14.6946638122  MEMB      70              0.0000000000
      7838        70  SAPE      H6Y            16.2575274865      -32.6278501691       14.8423031670  MEMB      70              0.0000000000
      7839        70  SAPE      C37            16.6707581389      -33.4251244855       12.8495015164  MEMB      70              0.0000000000
      7840        70  SAPE      H7X            16.8662310083      -32.3732947090       12.5498926173  MEMB      70              0.0000000000
      7841        70  SAPE      H7Y            15.6140411242      -33.6574658153       12.5971379751  MEMB      70              0.0000000000
      7842        70  SAPE      C38            17.5281821161      -34.3733884317       11.9856942387  MEMB      70              0.0000000000
      7843        70  SAPE      H8X            17.3564552432      -35.4073630673       12.3541060801  MEMB      70              0.0000000000
      7844        70  SAPE      H8Y            18.5966552324      -34.0689820884       11.9904943680  MEMB      70              0.0000000000
      7845        70  SAPE      C39            17.1153014670      -34.4344837751       10.5126488414  MEMB      70              0.0000000000
      7846        70  SAPE      H9X            17.2079515953      -33.4253988203       10.0571440812  MEMB      70              0.0000000000
      7847        70  SAPE      H9Y            16.0546295553      -34.7639252427       10.4849948887  MEMB      70              0.0000000000
      7848        70  SAPE      C310           18.0546257685      -35.4552598104        9.8103640093  MEMB      70              0.0000000000
      7849        70  SAPE      H10X           17.9845083034      -36.5070527671       10.1612712053  MEMB      70              0.0000000000
      7850        70  SAPE      H10Y           19.1041870324      -35.1621380045       10.0267467565  MEMB      70              0.0000000000
      7851        70  SAPE      C311           17.8612242426      -35.5637627868        8.3375457830  MEMB      70              0.0000000000
      7852        70  SAPE      H11X           16.7717695195      -35.7795793292        8.3086935923  MEMB      70              0.0000000000
      7853        70  SAPE      H11Y           18.4671685880      -36.2979028679        7.7646667833  MEMB      70              0.0000000000
      7854        70  SAPE      C312           18.0814387143      -34.1777729047        7.6357835400  MEMB      70              0.0000000000
      7855        70  SAPE      H12X           19.0587586872      -33.7253292383        7.9086594201  MEMB      70              0.0000000000
      7856        70  SAPE      H12Y           17.3707287535      -33.4030140298        7.9948947862  MEMB      70              0.0000000000
      7857        70  SAPE      C313           18.2032718460      -34.2583581137        6.1386121218  MEMB      70              0.0000000000
      7858        70  SAPE      H13X           17.1794951680      -34.3585073992        5.7188830151  MEMB      70              0.0000000000
      7859        70  SAPE      H13Y           18.8664382414      -35.0944425681        5.8295911988  MEMB      70              0.0000000000
      7860        70  SAPE      C314           18.7493811590      -32.9825316102        5.4716087167  MEMB      70              0.0000000000
      7861        70  SAPE      H14X           19.6409527900      -32.8110805143        6.1119408150  MEMB      70              0.0000000000
      7862        70  SAPE      H14Y           18.1209306228      -32.0874110323        5.6668770929  MEMB      70              0.0000000000
      7863        70  SAPE      C315           18.9461148180      -33.0197510925        3.9780819509  MEMB      70              0.0000000000
      7864        70  SAPE      H15X           19.5351513263      -32.1179625262        3.7058058440  MEMB      70              0.0000000000
      7865        70  SAPE      H15Y           17.9165126701      -32.8968645851        3.5791602110  MEMB      70              0.0000000000
      7866        70  SAPE      C316           19.8356460611      -34.0729446847        3.3878353868  MEMB      70              0.0000000000
      7867        70  SAPE      H16X           19.5261983152      -35.0737990672        3.7577727594  MEMB      70              0.0000000000
      7868        70  SAPE      H16Y           20.8920362558      -33.9644153967        3.7143046625  MEMB      70              0.0000000000
      7869        70  SAPE      C317           19.8945361572      -34.1757985901        1.9097796600  MEMB      70              0.0000000000
      7870        70  SAPE      H17X           20.7636439898      -34.8408903209        1.7184029034  MEMB      70              0.0000000000
      7871        70  SAPE      H17Y           20.0882874486      -33.1718000898        1.4753050639  MEMB      70              0.0000000000
      7872        70  SAPE      C318           18.6802856012      -34.8317084773        1.2196669736  MEMB      70              0.0000000000
      7873        70  SAPE      H18X           18.7971929300      -34.9969382843        0.1272596440  MEMB      70              0.0000000000
      7874        70  SAPE      H18Y           17.6951043967      -34.3935172315        1.4874867148  MEMB      70              0.0000000000
      7875        70  SAPE      H18Z           18.6781236492      -35.8895284037        1.5592742972  MEMB      70              0.0000000000
      7876        71  SAPE      N             -36.1049956923        9.4563162452       22.2751721889  MEMB      71              0.0000000000
      7877        71  SAPE      HN1           -36.6072836545        9.4833280136       23.1854341647  MEMB      71              0.0000000000
      7878        71  SAPE      HN2           -36.4765198011       10.1321078522       21.5774075048  MEMB      71              0.0000000000
      7879        71  SAPE      HN3           -36.3550746729        8.5240696355       21.8879037965  MEMB      71              0.0000000000
      7880        71  SAPE      C12           -34.6781381310        9.7293538106       22.3713940498  MEMB      71              0.0000000000
      7881        71  SAPE      H12A          -34.1217881324        8.9551643343       22.9418557461  MEMB      71              0.0000000000
      7882        71  SAPE      H12B          -34.4660419426       10.7168166426       22.8342691996  MEMB      71              0.0000000000
      7883        71  SAPE      C11           -34.1363453408        9.6546267952       20.8889947209  MEMB      71              0.0000000000
      7884        71  SAPE      H11A          -33.1544967126       10.1722261582       20.8401543301  MEMB      71              0.0000000000
      7885        71  SAPE      H11B          -34.8686433698       10.1890819773       20.2467966714  MEMB      71              0.0000000000
      7886        71  SAPE      P             -34.3645086768        7.7414986727       18.8684922030  MEMB      71              0.0000000000
      7887        71  SAPE      O13           -33.2892819257        6.9158646097       18.2775183961  MEMB      71              0.0000000000
      7888        71  SAPE      O14           -35.6684929967        7.0642357150       19.1530188909  MEMB      71              0.0000000000
      7889        71  SAPE      O12           -33.9862449107        8.3174425788       20.2805649899  MEMB      71              0.0000000000
      7890        71  SAPE      O11           -34.5906059143        8.9972009333       17.8848445631  MEMB      71              0.0000000000
      7891        71  SAPE      C1            -33.5110667897        9.7878398671       17.5363924631  MEMB      71              0.0000000000
      7892        71  SAPE      HA            -33.7158964828       10.7408439251       18.0694488028  MEMB      71              0.0000000000
      7893        71  SAPE      HB            -32.5221052543        9.3847966396       17.8427128627  MEMB      71              0.0000000000
      7894        71  SAPE      C2            -33.5446869252       10.1721369405       15.9902812418  MEMB      71              0.0000000000
      7895        71  SAPE      HS            -32.6787732013       10.8022192836       15.6944594915  MEMB      71              0.0000000000
      7896        71  SAPE      O21           -34.7673204988       10.7298266705       15.5539149716  MEMB      71              0.0000000000
      7897        71  SAPE      C21           -35.0178969174       12.0204416002       15.8940348724  MEMB      71              0.0000000000
      7898        71  SAPE      O22           -34.2255896009       12.7215355281       16.5046100123  MEMB      71              0.0000000000
      7899        71  SAPE      C22           -36.4635041114       12.4664292061       15.4848552229  MEMB      71              0.0000000000
      7900        71  SAPE      H2R           -37.0215582057       11.5282921062       15.2779850200  MEMB      71              0.0000000000
      7901        71  SAPE      H2S           -36.8558612255       13.0529525776       16.3429737146  MEMB      71              0.0000000000
      7902        71  SAPE      C3            -33.3614167348        8.8494547164       15.1539840264  MEMB      71              0.0000000000
      7903        71  SAPE      HX            -34.2163560114        8.1611427233       15.3261075089  MEMB      71              0.0000000000
      7904        71  SAPE      HY            -32.4143730681        8.3340573306       15.4219296718  MEMB      71              0.0000000000
      7905        71  SAPE      O31           -33.3337642177        8.9779832363       13.6676045599  MEMB      71              0.0000000000
      7906        71  SAPE      C31           -33.6914950662        7.9998138190       12.8650257042  MEMB      71              0.0000000000
      7907        71  SAPE      O32           -34.2967276163        6.9878434285       13.1871324029  MEMB      71              0.0000000000
      7908        71  SAPE      C32           -33.4135008110        8.4668939309       11.4138311215  MEMB      71              0.0000000000
      7909        71  SAPE      H2X           -32.3067179265        8.5070523861       11.3258553740  MEMB      71              0.0000000000
      7910        71  SAPE      H2Y           -33.9185111683        9.4410908479       11.2399761479  MEMB      71              0.0000000000
      7911        71  SAPE      C23           -36.2982643129       13.3794229013       14.2309243272  MEMB      71              0.0000000000
      7912        71  SAPE      H3R           -35.2192592107       13.4441519679       13.9742544280  MEMB      71              0.0000000000
      7913        71  SAPE      H3S           -36.6079994574       14.4282427913       14.4267872141  MEMB      71              0.0000000000
      7914        71  SAPE      C24           -37.0631695766       12.8205684429       13.0255658683  MEMB      71              0.0000000000
      7915        71  SAPE      H4R           -38.1139511518       12.8569490305       13.3845306619  MEMB      71              0.0000000000
      7916        71  SAPE      H4S           -36.7805819721       11.7494284524       12.9411624071  MEMB      71              0.0000000000
      7917        71  SAPE      C25           -36.9432130943       13.6810517832       11.8122557468  MEMB      71              0.0000000000
      7918        71  SAPE      H5R           -37.5758765985       14.5777840995       11.8871462385  MEMB      71              0.0000000000
      7919        71  SAPE      C26           -35.9924470172       13.4153628601       10.8892095890  MEMB      71              0.0000000000
      7920        71  SAPE      H6R           -35.7886163991       14.0925697458       10.0466869884  MEMB      71              0.0000000000
      7921        71  SAPE      C27           -35.0186833254       12.2899610632       10.8650234067  MEMB      71              0.0000000000
      7922        71  SAPE      H7R           -35.2706884680       11.5473401547       10.0780494904  MEMB      71              0.0000000000
      7923        71  SAPE      H7S           -35.0356420672       11.6429267164       11.7680075894  MEMB      71              0.0000000000
      7924        71  SAPE      C28           -33.6088810998       12.6695537065       10.5402673222  MEMB      71              0.0000000000
      7925        71  SAPE      H8R           -33.2883041350       13.4662159291       11.2276968709  MEMB      71              0.0000000000
      7926        71  SAPE      C29           -32.7769410695       12.3473294418        9.5232323532  MEMB      71              0.0000000000
      7927        71  SAPE      H9R           -31.8340936984       12.9131808626        9.4940599926  MEMB      71              0.0000000000
      7928        71  SAPE      C210          -32.9805968393       11.4101154766        8.3973605099  MEMB      71              0.0000000000
      7929        71  SAPE      H10R          -33.6286285696       10.5577602826        8.6937847154  MEMB      71              0.0000000000
      7930        71  SAPE      H10S          -31.9917442829       11.0517572754        8.0394903623  MEMB      71              0.0000000000
      7931        71  SAPE      C211          -33.6756709724       12.1548677872        7.2892640172  MEMB      71              0.0000000000
      7932        71  SAPE      H11R          -33.5038867397       13.2407883798        7.3248593590  MEMB      71              0.0000000000
      7933        71  SAPE      C212          -34.4155987959       11.6796131548        6.2951476739  MEMB      71              0.0000000000
      7934        71  SAPE      H12R          -34.6981851470       12.4062020820        5.5191239226  MEMB      71              0.0000000000
      7935        71  SAPE      C213          -34.7450417298       10.2320771780        6.0779534472  MEMB      71              0.0000000000
      7936        71  SAPE      H13R          -35.3065961907       10.2317636546        5.1193197205  MEMB      71              0.0000000000
      7937        71  SAPE      H13S          -35.4611408516        9.8403449877        6.8316565855  MEMB      71              0.0000000000
      7938        71  SAPE      C214          -33.5052990305        9.4054893468        5.9789731114  MEMB      71              0.0000000000
      7939        71  SAPE      H14R          -32.7395339939        9.5652451519        6.7523311980  MEMB      71              0.0000000000
      7940        71  SAPE      C215          -33.1150364497        8.6747128620        4.9465642429  MEMB      71              0.0000000000
      7941        71  SAPE      H15R          -32.1937589755        8.0741135315        4.9235732667  MEMB      71              0.0000000000
      7942        71  SAPE      C216          -33.8641782400        8.4250840002        3.6655244044  MEMB      71              0.0000000000
      7943        71  SAPE      H16R          -34.9075198655        8.7777588784        3.8117427025  MEMB      71              0.0000000000
      7944        71  SAPE      H16S          -33.8017881445        7.3158439446        3.6693945355  MEMB      71              0.0000000000
      7945        71  SAPE      C217          -33.3007026139        9.0840668221        2.4596031395  MEMB      71              0.0000000000
      7946        71  SAPE      H17R          -33.6049820122        8.4394484074        1.6074276946  MEMB      71              0.0000000000
      7947        71  SAPE      H17S          -32.1994364155        8.9908087189        2.3463040629  MEMB      71              0.0000000000
      7948        71  SAPE      C218          -33.7360252646       10.5202638120        2.3761759541  MEMB      71              0.0000000000
      7949        71  SAPE      H18R          -33.3918523690       11.0668489311        3.2801173171  MEMB      71              0.0000000000
      7950        71  SAPE      H18S          -34.8430568363       10.6016533006        2.3294994405  MEMB      71              0.0000000000
      7951        71  SAPE      C219          -33.0276858833       11.1995613049        1.1706373377  MEMB      71              0.0000000000
      7952        71  SAPE      H19R          -32.9621341987       10.5643024526        0.2615331173  MEMB      71              0.0000000000
      7953        71  SAPE      H19S          -31.9486585933       11.2566509161        1.4290206337  MEMB      71              0.0000000000
      7954        71  SAPE      C220          -33.5627561926       12.5861563300        0.8916043521  MEMB      71              0.0000000000
      7955        71  SAPE      H20R          -32.8346988517       13.3018815306        0.4534356988  MEMB      71              0.0000000000
      7956        71  SAPE      H20S          -33.9312871899       12.9787822402        1.8633808220  MEMB      71              0.0000000000
      7957        71  SAPE      H20T          -34.4334692175       12.4179507533        0.2223607607  MEMB      71              0.0000000000
      7958        71  SAPE      C33           -33.9975659613        7.3998871256       10.4067816314  MEMB      71              0.0000000000
      7959        71  SAPE      H3X           -35.1084923769        7.4076969870       10.3966566435  MEMB      71              0.0000000000
      7960        71  SAPE      H3Y           -33.5531251185        6.4039551774       10.6187086863  MEMB      71              0.0000000000
      7961        71  SAPE      C34           -33.5058117970        7.7250175082        9.0153423005  MEMB      71              0.0000000000
      7962        71  SAPE      H4X           -32.4623444127        8.1058495571        8.9938047429  MEMB      71              0.0000000000
      7963        71  SAPE      H4Y           -34.1554526725        8.5662455817        8.6918870639  MEMB      71              0.0000000000
      7964        71  SAPE      C35           -33.6175787455        6.5672915689        7.9927353836  MEMB      71              0.0000000000
      7965        71  SAPE      H5X           -32.9368396731        5.7372983851        8.2791388165  MEMB      71              0.0000000000
      7966        71  SAPE      H5Y           -33.3395657351        6.8923340176        6.9673684114  MEMB      71              0.0000000000
      7967        71  SAPE      C36           -35.0330495388        5.9033326761        7.9161448178  MEMB      71              0.0000000000
      7968        71  SAPE      H6X           -35.3181588327        5.4703516295        8.8987740427  MEMB      71              0.0000000000
      7969        71  SAPE      H6Y           -34.9477950561        4.9726517203        7.3154069710  MEMB      71              0.0000000000
      7970        71  SAPE      C37           -36.1947894806        6.8649691182        7.4404477043  MEMB      71              0.0000000000
      7971        71  SAPE      H7X           -36.0391917056        7.8728602041        7.8812032982  MEMB      71              0.0000000000
      7972        71  SAPE      H7Y           -37.0865684520        6.3451884434        7.8513966598  MEMB      71              0.0000000000
      7973        71  SAPE      C38           -36.2034598877        6.9962706070        5.9204619256  MEMB      71              0.0000000000
      7974        71  SAPE      H8X           -35.2283372003        7.4050108626        5.5793051488  MEMB      71              0.0000000000
      7975        71  SAPE      H8Y           -37.0261489107        7.7222498676        5.7459406707  MEMB      71              0.0000000000
      7976        71  SAPE      C39           -36.6107939089        5.8520868470        5.0356717071  MEMB      71              0.0000000000
      7977        71  SAPE      H9X           -37.6127577212        5.5951505133        5.4411017128  MEMB      71              0.0000000000
      7978        71  SAPE      H9Y           -35.9474746435        4.9749520245        5.1936695357  MEMB      71              0.0000000000
      7979        71  SAPE      C310          -36.7701082484        6.2088830880        3.5806534077  MEMB      71              0.0000000000
      7980        71  SAPE      H10X          -35.7881315118        6.3675546828        3.0858138354  MEMB      71              0.0000000000
      7981        71  SAPE      H10Y          -37.1683071871        7.2455338846        3.6140291036  MEMB      71              0.0000000000
      7982        71  SAPE      C311          -37.7320403091        5.2644825545        2.7901443635  MEMB      71              0.0000000000
      7983        71  SAPE      H11X          -38.7673796316        5.4542198312        3.1456624349  MEMB      71              0.0000000000
      7984        71  SAPE      H11Y          -37.4244400805        4.2030262099        2.9042198402  MEMB      71              0.0000000000
      7985        71  SAPE      C312          -37.7773527156        5.4802495712        1.3009402622  MEMB      71              0.0000000000
      7986        71  SAPE      H12X          -37.6450140716        6.5737998697        1.1561807401  MEMB      71              0.0000000000
      7987        71  SAPE      H12Y          -38.7705406411        5.2226592107        0.8748562749  MEMB      71              0.0000000000
      7988        71  SAPE      C313          -36.6999233791        4.6409994491        0.5773231657  MEMB      71              0.0000000000
      7989        71  SAPE      H13X          -37.0126526861        3.5902660705        0.3970999884  MEMB      71              0.0000000000
      7990        71  SAPE      H13Y          -35.8100462388        4.6108670811        1.2418033762  MEMB      71              0.0000000000
      7991        71  SAPE      C314          -36.2075695575        5.3123173792       -0.7238732612  MEMB      71              0.0000000000
      7992        71  SAPE      H14X          -37.1697369984        5.5658140081       -1.2181357659  MEMB      71              0.0000000000
      7993        71  SAPE      H14Y          -35.6179907321        4.6589821278       -1.4020115442  MEMB      71              0.0000000000
      7994        71  SAPE      C315          -35.3086492681        6.5949204335       -0.4117313821  MEMB      71              0.0000000000
      7995        71  SAPE      H15X          -34.3811630468        6.1970010843        0.0527607143  MEMB      71              0.0000000000
      7996        71  SAPE      H15Y          -35.9065070719        7.2511822951        0.2562570805  MEMB      71              0.0000000000
      7997        71  SAPE      C316          -34.9602771802        7.3137328159       -1.7066360143  MEMB      71              0.0000000000
      7998        71  SAPE      H16X          -35.8451325509        7.3125001173       -2.3784614530  MEMB      71              0.0000000000
      7999        71  SAPE      H16Y          -34.0412075093        6.8609415638       -2.1363014055  MEMB      71              0.0000000000
      8000        71  SAPE      C317          -34.6309075736        8.8486044489       -1.4109652410  MEMB      71              0.0000000000
      8001        71  SAPE      H17X          -33.7284668175        8.9710316697       -0.7746200226  MEMB      71              0.0000000000
      8002        71  SAPE      H17Y          -35.5483276079        9.2283847132       -0.9125390086  MEMB      71              0.0000000000
      8003        71  SAPE      C318          -34.3719665935        9.6635447729       -2.7068481744  MEMB      71              0.0000000000
      8004        71  SAPE      H18X          -33.3549977859        9.6833068793       -3.1537320378  MEMB      71              0.0000000000
      8005        71  SAPE      H18Y          -34.6006074726       10.7235252689       -2.4650103828  MEMB      71              0.0000000000
      8006        71  SAPE      H18Z          -35.0237201027        9.3396224019       -3.5462614745  MEMB      71              0.0000000000
      8007        72  CHL1      C3             18.8702655186       31.0560271931       17.3489500000  MEMB      72              0.0000000000
      8008        72  CHL1      H3             19.5169993232       31.9370653826       17.5485100000  MEMB      72              0.0000000000
      8009        72  CHL1      O3             18.6180366814       30.5566298069       18.6510500000  MEMB      72              0.0000000000
      8010        72  CHL1      H3'            19.1224536386       31.0933587096       19.2667500000  MEMB      72              0.0000000000
      8011        72  CHL1      C4             17.5960842002       31.3114774981       16.5807300000  MEMB      72              0.0000000000
      8012        72  CHL1      H4A            16.8953719301       30.4621903286       16.7291800000  MEMB      72              0.0000000000
      8013        72  CHL1      H4B            17.0527346119       32.1565610408       17.0550000000  MEMB      72              0.0000000000
      8014        72  CHL1      C5             17.8172228091       31.6291756815       15.1004700000  MEMB      72              0.0000000000
      8015        72  CHL1      C6             17.3837712849       32.8318132454       14.6021500000  MEMB      72              0.0000000000
      8016        72  CHL1      H6             16.7854572344       33.4771292109       15.2621400000  MEMB      72              0.0000000000
      8017        72  CHL1      C7             17.5547856097       33.1996192509       13.2044700000  MEMB      72              0.0000000000
      8018        72  CHL1      H7A            16.7636074207       33.8302240408       12.7454600000  MEMB      72              0.0000000000
      8019        72  CHL1      H7B            18.4477167715       33.8536209713       13.1081900000  MEMB      72              0.0000000000
      8020        72  CHL1      C8             17.8537309612       32.0172454711       12.2401200000  MEMB      72              0.0000000000
      8021        72  CHL1      H8             16.9108158777       31.4356253062       12.1568600000  MEMB      72              0.0000000000
      8022        72  CHL1      C14            18.4678843653       32.5574187231       10.9081700000  MEMB      72              0.0000000000
      8023        72  CHL1      H14            19.4543069204       33.0341720128       11.0925800000  MEMB      72              0.0000000000
      8024        72  CHL1      C15            17.6874854986       33.6230324953       10.0979400000  MEMB      72              0.0000000000
      8025        72  CHL1      H15A           16.6358854689       33.2773356488       10.0033100000  MEMB      72              0.0000000000
      8026        72  CHL1      H15B           17.7131456797       34.6233290733       10.5807200000  MEMB      72              0.0000000000
      8027        72  CHL1      C16            18.4518570511       33.6363306204        8.7576100000  MEMB      72              0.0000000000
      8028        72  CHL1      H16A           17.7034125266       33.7559951824        7.9453100000  MEMB      72              0.0000000000
      8029        72  CHL1      H16B           19.1956941111       34.4607462924        8.7946000000  MEMB      72              0.0000000000
      8030        72  CHL1      C17            19.3420792392       32.3469575218        8.7397400000  MEMB      72              0.0000000000
      8031        72  CHL1      H17            20.3184221133       32.6836468474        9.1492700000  MEMB      72              0.0000000000
      8032        72  CHL1      C13            18.8066930088       31.4512678405        9.9251200000  MEMB      72              0.0000000000
      8033        72  CHL1      C18            17.6630678618       30.5326848994        9.4776700000  MEMB      72              0.0000000000
      8034        72  CHL1      H18A           16.9832478861       30.3104982017       10.3278500000  MEMB      72              0.0000000000
      8035        72  CHL1      H18B           17.0969151481       31.0123572038        8.6508100000  MEMB      72              0.0000000000
      8036        72  CHL1      H18C           18.0131312519       29.5473299835        9.1023400000  MEMB      72              0.0000000000
      8037        72  CHL1      C12            19.9676667835       30.6040217155       10.5375800000  MEMB      72              0.0000000000
      8038        72  CHL1      H12A           20.2625883805       29.7317803446        9.9158600000  MEMB      72              0.0000000000
      8039        72  CHL1      H12B           20.8082427162       31.3007462608       10.7433400000  MEMB      72              0.0000000000
      8040        72  CHL1      C11            19.4539633131       30.0311056498       11.8698100000  MEMB      72              0.0000000000
      8041        72  CHL1      H11A           18.6913962410       29.2441124196       11.6869100000  MEMB      72              0.0000000000
      8042        72  CHL1      H11B           20.3165851135       29.5681742236       12.3950700000  MEMB      72              0.0000000000
      8043        72  CHL1      C9             18.9242486220       31.1146251244       12.8513000000  MEMB      72              0.0000000000
      8044        72  CHL1      H9             19.7540814631       31.8280909146       13.0427800000  MEMB      72              0.0000000000
      8045        72  CHL1      C10            18.6071105138       30.6308672594       14.3269300000  MEMB      72              0.0000000000
      8046        72  CHL1      C19            17.6393205091       29.3521901336       14.2356600000  MEMB      72              0.0000000000
      8047        72  CHL1      H19A           18.0841004265       28.5414357881       13.6198900000  MEMB      72              0.0000000000
      8048        72  CHL1      H19B           17.5058587861       28.9379581805       15.2578800000  MEMB      72              0.0000000000
      8049        72  CHL1      H19C           16.6595422121       29.7052270585       13.8487100000  MEMB      72              0.0000000000
      8050        72  CHL1      C1             19.9655835111       30.4253062205       15.0951000000  MEMB      72              0.0000000000
      8051        72  CHL1      H1A            20.5369524004       29.6394218303       14.5563600000  MEMB      72              0.0000000000
      8052        72  CHL1      H1B            20.5220111894       31.3829725650       15.1822100000  MEMB      72              0.0000000000
      8053        72  CHL1      C2             19.7778710131       30.0030279815       16.6059800000  MEMB      72              0.0000000000
      8054        72  CHL1      H2A            20.7042673238       29.7107328374       17.1451200000  MEMB      72              0.0000000000
      8055        72  CHL1      H2B            19.1410299725       29.0938418717       16.5598500000  MEMB      72              0.0000000000
      8056        72  CHL1      C20            19.5468079707       31.7245019637        7.3238900000  MEMB      72              0.0000000000
      8057        72  CHL1      H20            18.5314319440       31.3967179118        7.0142400000  MEMB      72              0.0000000000
      8058        72  CHL1      C21            20.2998122867       30.3855323050        7.3852800000  MEMB      72              0.0000000000
      8059        72  CHL1      H21A           19.6638988406       29.6931633098        7.9773700000  MEMB      72              0.0000000000
      8060        72  CHL1      H21B           21.2453198903       30.4904945556        7.9591500000  MEMB      72              0.0000000000
      8061        72  CHL1      H21C           20.5296110775       29.9299732856        6.3983800000  MEMB      72              0.0000000000
      8062        72  CHL1      C22            20.1642163787       32.7855706814        6.3661500000  MEMB      72              0.0000000000
      8063        72  CHL1      H22A           19.5451882511       33.6992486939        6.4939000000  MEMB      72              0.0000000000
      8064        72  CHL1      H22B           21.1433301005       33.0741312132        6.8047800000  MEMB      72              0.0000000000
      8065        72  CHL1      C23            20.2726857278       32.1534471710        4.9037200000  MEMB      72              0.0000000000
      8066        72  CHL1      H23A           21.0724926688       31.3841174579        4.8510000000  MEMB      72              0.0000000000
      8067        72  CHL1      H23B           19.3276888409       31.5822718563        4.7810100000  MEMB      72              0.0000000000
      8068        72  CHL1      C24            20.3891687178       33.1576723488        3.7913500000  MEMB      72              0.0000000000
      8069        72  CHL1      H24A           19.5823260440       33.9073640767        3.6454100000  MEMB      72              0.0000000000
      8070        72  CHL1      H24B           21.2821551699       33.7678426986        4.0455100000  MEMB      72              0.0000000000
      8071        72  CHL1      C25            20.4862164319       32.4896621005        2.4327500000  MEMB      72              0.0000000000
      8072        72  CHL1      H25            19.6378131043       31.7941393822        2.2572800000  MEMB      72              0.0000000000
      8073        72  CHL1      C26            20.4646345242       33.6378493650        1.4287900000  MEMB      72              0.0000000000
      8074        72  CHL1      H26A           20.7910083507       33.2578610843        0.4371300000  MEMB      72              0.0000000000
      8075        72  CHL1      H26B           19.4702833051       34.1323009795        1.3957300000  MEMB      72              0.0000000000
      8076        72  CHL1      H26C           21.2080564634       34.3950092516        1.7579700000  MEMB      72              0.0000000000
      8077        72  CHL1      C27            21.7458375011       31.6639746838        2.2491800000  MEMB      72              0.0000000000
      8078        72  CHL1      H27A           21.6861579737       30.7518523157        2.8806900000  MEMB      72              0.0000000000
      8079        72  CHL1      H27B           21.6590061135       31.3495703758        1.1871400000  MEMB      72              0.0000000000
      8080        72  CHL1      H27C           22.7965884641       31.9911339364        2.4015600000  MEMB      72              0.0000000000
      8081        73  SAPI      C12             6.8598819796       33.8928848283       23.8937622534  MEMB      73              0.0000000000
      8082        73  SAPI      H2              7.6365454416       33.4703786115       23.2210042817  MEMB      73              0.0000000000
      8083        73  SAPI      O2              5.7562636754       33.0235820660       23.6548279571  MEMB      73              0.0000000000
      8084        73  SAPI      HO2             5.1203267855       33.5519562250       24.1426855534  MEMB      73              0.0000000000
      8085        73  SAPI      C13             7.2123375321       33.9800137520       25.3279713410  MEMB      73              0.0000000000
      8086        73  SAPI      H3              8.2017568248       34.4852686208       25.3185924668  MEMB      73              0.0000000000
      8087        73  SAPI      O3              7.6173138408       32.7251218805       25.9172548223  MEMB      73              0.0000000000
      8088        73  SAPI      HO3             7.7361760158       32.1182031245       25.1830059190  MEMB      73              0.0000000000
      8089        73  SAPI      C14             6.0772823795       34.6299208244       26.1436322211  MEMB      73              0.0000000000
      8090        73  SAPI      H4              5.1425743099       34.0295561471       26.1579115497  MEMB      73              0.0000000000
      8091        73  SAPI      O4              6.4140768746       34.6169055813       27.5120344674  MEMB      73              0.0000000000
      8092        73  SAPI      HO4             7.2733023737       35.0230032921       27.6477401429  MEMB      73              0.0000000000
      8093        73  SAPI      C15             5.7036350362       36.0595286222       25.6516503635  MEMB      73              0.0000000000
      8094        73  SAPI      H5              6.5157132179       36.7940075765       25.8397750853  MEMB      73              0.0000000000
      8095        73  SAPI      O5              4.6160557013       36.5302618083       26.3956986505  MEMB      73              0.0000000000
      8096        73  SAPI      HO5             4.5463600259       37.4334599396       26.0779317237  MEMB      73              0.0000000000
      8097        73  SAPI      C16             5.3822727523       35.9178984576       24.1599681541  MEMB      73              0.0000000000
      8098        73  SAPI      H6              4.4899520657       35.3088717814       23.9007940215  MEMB      73              0.0000000000
      8099        73  SAPI      O6              5.1755724016       37.2784193052       23.7034309518  MEMB      73              0.0000000000
      8100        73  SAPI      HO6             6.0127468053       37.7154403980       23.5309439980  MEMB      73              0.0000000000
      8101        73  SAPI      C11             6.5544190859       35.2981839637       23.4599297257  MEMB      73              0.0000000000
      8102        73  SAPI      H1              7.5178087283       35.8137184289       23.6609906466  MEMB      73              0.0000000000
      8103        73  SAPI      P               7.5421284633       35.7048771798       21.0270633838  MEMB      73              0.0000000000
      8104        73  SAPI      O13             8.6044706062       34.7114205079       21.1741261708  MEMB      73              0.0000000000
      8105        73  SAPI      O14             7.7638443213       37.1595742944       21.2618845750  MEMB      73              0.0000000000
      8106        73  SAPI      O12             6.2947116259       35.2851173624       22.0127922201  MEMB      73              0.0000000000
      8107        73  SAPI      O11             7.0772298140       35.5588984295       19.5387765430  MEMB      73              0.0000000000
      8108        73  SAPI      C1              5.7460573173       35.8171319075       19.0280092913  MEMB      73              0.0000000000
      8109        73  SAPI      HA              5.0529141510       36.0630597190       19.8607116248  MEMB      73              0.0000000000
      8110        73  SAPI      HB              5.7680697934       36.6889244345       18.3396676991  MEMB      73              0.0000000000
      8111        73  SAPI      C2              5.1873098080       34.6810985249       18.1600506387  MEMB      73              0.0000000000
      8112        73  SAPI      HS              5.1727712934       33.7872917630       18.8197619634  MEMB      73              0.0000000000
      8113        73  SAPI      O21             6.0145169907       34.6686628843       17.0291561293  MEMB      73              0.0000000000
      8114        73  SAPI      C21             7.0936404907       33.9229636088       17.0354310242  MEMB      73              0.0000000000
      8115        73  SAPI      O22             7.3111007366       33.0747467765       17.9197493382  MEMB      73              0.0000000000
      8116        73  SAPI      C22             8.0420285847       34.1720715418       15.8809404056  MEMB      73              0.0000000000
      8117        73  SAPI      H2R             8.1922542877       35.2673650305       15.9908737196  MEMB      73              0.0000000000
      8118        73  SAPI      H2S             8.9397845363       33.5559683428       16.1017842891  MEMB      73              0.0000000000
      8119        73  SAPI      C3              3.7101942052       35.0921809915       17.7972971735  MEMB      73              0.0000000000
      8120        73  SAPI      HX              3.8075935601       36.0597662481       17.2600699662  MEMB      73              0.0000000000
      8121        73  SAPI      HY              3.0481741538       35.1866422788       18.6844994011  MEMB      73              0.0000000000
      8122        73  SAPI      O31             3.2500155672       34.1246887234       16.9110580045  MEMB      73              0.0000000000
      8123        73  SAPI      C31             1.9943734736       33.8859185712       16.6952624379  MEMB      73              0.0000000000
      8124        73  SAPI      O32             1.0434421768       34.2246232380       17.4537061288  MEMB      73              0.0000000000
      8125        73  SAPI      C32             1.7116508227       33.1538565323       15.3492415130  MEMB      73              0.0000000000
      8126        73  SAPI      H2X             1.0360684939       33.8818422761       14.8512997366  MEMB      73              0.0000000000
      8127        73  SAPI      H2Y             1.1481241268       32.2106419617       15.5138768621  MEMB      73              0.0000000000
      8128        73  SAPI      C23             7.5298492560       33.8290114214       14.4998035943  MEMB      73              0.0000000000
      8129        73  SAPI      H3R             6.6011391488       34.3766556851       14.2316547121  MEMB      73              0.0000000000
      8130        73  SAPI      H3S             7.2345330646       32.7585285123       14.5340894725  MEMB      73              0.0000000000
      8131        73  SAPI      C24             8.5522611676       34.1300745738       13.3505691860  MEMB      73              0.0000000000
      8132        73  SAPI      H4R             9.3007669773       33.3135644563       13.4364236455  MEMB      73              0.0000000000
      8133        73  SAPI      H4S             9.1080381639       35.0603787749       13.5954511086  MEMB      73              0.0000000000
      8134        73  SAPI      C25             7.8547456649       34.0852284096       12.0208513322  MEMB      73              0.0000000000
      8135        73  SAPI      H5R             7.1270728058       33.2732180347       11.8754837319  MEMB      73              0.0000000000
      8136        73  SAPI      C26             8.0227372173       34.8898511053       10.9664259645  MEMB      73              0.0000000000
      8137        73  SAPI      H6R             7.6632346557       34.6920315209        9.9458250851  MEMB      73              0.0000000000
      8138        73  SAPI      C27             9.0054208604       35.9913329551       11.0508208396  MEMB      73              0.0000000000
      8139        73  SAPI      H7R             9.4775370629       36.1639796870       10.0600528054  MEMB      73              0.0000000000
      8140        73  SAPI      H7S             9.8610943139       35.5293556725       11.5881469059  MEMB      73              0.0000000000
      8141        73  SAPI      C28             8.4598708901       37.2143777438       11.7609468648  MEMB      73              0.0000000000
      8142        73  SAPI      H8R             8.9028180532       37.4370674890       12.7428880857  MEMB      73              0.0000000000
      8143        73  SAPI      C29             7.6047896367       38.1306890193       11.3003654695  MEMB      73              0.0000000000
      8144        73  SAPI      H9R             7.5704215994       39.0745826374       11.8641766361  MEMB      73              0.0000000000
      8145        73  SAPI      C210            6.9792933467       38.1587191067        9.9491633699  MEMB      73              0.0000000000
      8146        73  SAPI      H10R            5.8880750051       38.2827128828       10.1170599462  MEMB      73              0.0000000000
      8147        73  SAPI      H10S            7.1004989992       37.1621600938        9.4732432785  MEMB      73              0.0000000000
      8148        73  SAPI      C211            7.3957214580       39.3235113932        9.1022468019  MEMB      73              0.0000000000
      8149        73  SAPI      H11R            7.8096367633       40.1839363846        9.6484539504  MEMB      73              0.0000000000
      8150        73  SAPI      C212            7.2761694689       39.4899172601        7.8093830735  MEMB      73              0.0000000000
      8151        73  SAPI      H12R            7.5357642081       40.4782465776        7.4021786861  MEMB      73              0.0000000000
      8152        73  SAPI      C213            6.7174907897       38.4789548878        6.8820939206  MEMB      73              0.0000000000
      8153        73  SAPI      H13R            6.7530656478       37.5257467919        7.4516981679  MEMB      73              0.0000000000
      8154        73  SAPI      H13S            7.3227459293       38.2697601416        5.9742258238  MEMB      73              0.0000000000
      8155        73  SAPI      C214            5.3660818924       38.6199729446        6.3907331558  MEMB      73              0.0000000000
      8156        73  SAPI      H14R            4.7993045179       39.2545607791        7.0879144360  MEMB      73              0.0000000000
      8157        73  SAPI      C215            4.7799640068       38.2069397219        5.2650527402  MEMB      73              0.0000000000
      8158        73  SAPI      H15R            3.7153630477       38.4837305937        5.2684677755  MEMB      73              0.0000000000
      8159        73  SAPI      C216            5.3533269831       37.4376707971        4.1423887790  MEMB      73              0.0000000000
      8160        73  SAPI      H16R            5.3249074201       36.3323872933        4.2513011702  MEMB      73              0.0000000000
      8161        73  SAPI      H16S            6.4515775948       37.6015619013        4.1785395482  MEMB      73              0.0000000000
      8162        73  SAPI      C217            4.8538932857       37.7766339778        2.6607928124  MEMB      73              0.0000000000
      8163        73  SAPI      H17R            4.9837710650       38.8764709199        2.5724106484  MEMB      73              0.0000000000
      8164        73  SAPI      H17S            3.8386349345       37.3304369439        2.5938677539  MEMB      73              0.0000000000
      8165        73  SAPI      C218            5.6121962026       37.0551494620        1.5260851393  MEMB      73              0.0000000000
      8166        73  SAPI      H18R            5.4386332834       35.9705830624        1.6931538475  MEMB      73              0.0000000000
      8167        73  SAPI      H18S            6.6676575126       37.2115602193        1.8356921214  MEMB      73              0.0000000000
      8168        73  SAPI      C219            5.3214327331       37.4834576876        0.0777561153  MEMB      73              0.0000000000
      8169        73  SAPI      H19R            5.9839999440       36.8042672704       -0.5001944184  MEMB      73              0.0000000000
      8170        73  SAPI      H19S            5.6092928630       38.5555490223        0.0321763435  MEMB      73              0.0000000000
      8171        73  SAPI      C220            3.9290020496       37.3461055880       -0.3912576565  MEMB      73              0.0000000000
      8172        73  SAPI      H20R            3.6154900012       36.2813182975       -0.3437260017  MEMB      73              0.0000000000
      8173        73  SAPI      H20S            3.8490287009       37.8068904275       -1.3990300233  MEMB      73              0.0000000000
      8174        73  SAPI      H20T            3.1994535212       37.8630567266        0.2681678747  MEMB      73              0.0000000000
      8175        73  SAPI      C33             2.8679770748       32.7742515297       14.4442248637  MEMB      73              0.0000000000
      8176        73  SAPI      H3X             2.9070699753       31.7264483790       14.0769354561  MEMB      73              0.0000000000
      8177        73  SAPI      H3Y             3.8673321031       32.9683804630       14.8891121138  MEMB      73              0.0000000000
      8178        73  SAPI      C34             2.8852835847       33.6619034178       13.1422545922  MEMB      73              0.0000000000
      8179        73  SAPI      H4X             2.7302106037       34.7385299326       13.3684163382  MEMB      73              0.0000000000
      8180        73  SAPI      H4Y             2.0904610927       33.3031316791       12.4538797310  MEMB      73              0.0000000000
      8181        73  SAPI      C35             4.1996797116       33.3492790294       12.3562786812  MEMB      73              0.0000000000
      8182        73  SAPI      H5X             4.5011944585       32.2985125145       12.5545195597  MEMB      73              0.0000000000
      8183        73  SAPI      H5Y             5.0370036139       33.9812020326       12.7221797039  MEMB      73              0.0000000000
      8184        73  SAPI      C36             4.1933381717       33.5410595515       10.8282958962  MEMB      73              0.0000000000
      8185        73  SAPI      H6X             3.3160069544       33.0158852231       10.3937810595  MEMB      73              0.0000000000
      8186        73  SAPI      H6Y             5.1368725885       33.1208638735       10.4190288736  MEMB      73              0.0000000000
      8187        73  SAPI      C37             4.2430152691       34.9827182780       10.3818420519  MEMB      73              0.0000000000
      8188        73  SAPI      H7X             5.1828811653       35.4657152878       10.7248969010  MEMB      73              0.0000000000
      8189        73  SAPI      H7Y             3.3603930309       35.5756444666       10.7039250338  MEMB      73              0.0000000000
      8190        73  SAPI      C38             4.3499319970       35.2894459953        8.9294048690  MEMB      73              0.0000000000
      8191        73  SAPI      H8X             4.4109393282       36.3881418656        8.7762171993  MEMB      73              0.0000000000
      8192        73  SAPI      H8Y             3.4336256899       35.0683558610        8.3413380262  MEMB      73              0.0000000000
      8193        73  SAPI      C39             5.4333979497       34.6303311815        8.2667065391  MEMB      73              0.0000000000
      8194        73  SAPI      H9X             5.5050787136       33.5416761389        8.4765003846  MEMB      73              0.0000000000
      8195        73  SAPI      H9Y             6.3875804704       35.1355193304        8.5287024279  MEMB      73              0.0000000000
      8196        73  SAPI      C310            5.5839239612       34.6854457731        6.7317724480  MEMB      73              0.0000000000
      8197        73  SAPI      H10X            6.5340558563       34.1168470462        6.6408548528  MEMB      73              0.0000000000
      8198        73  SAPI      H10Y            5.7707703598       35.7446229661        6.4532889621  MEMB      73              0.0000000000
      8199        73  SAPI      C311            4.5117516229       34.0258207244        5.9059807608  MEMB      73              0.0000000000
      8200        73  SAPI      H11X            4.7515691857       34.3524007254        4.8714977153  MEMB      73              0.0000000000
      8201        73  SAPI      H11Y            3.5213035507       34.4924874717        6.0945430870  MEMB      73              0.0000000000
      8202        73  SAPI      C312            4.5676251782       32.4694255997        6.0497980335  MEMB      73              0.0000000000
      8203        73  SAPI      H12X            4.3162062395       32.2332539287        7.1058916167  MEMB      73              0.0000000000
      8204        73  SAPI      H12Y            5.5901307788       32.0549852637        5.9192504312  MEMB      73              0.0000000000
      8205        73  SAPI      C313            3.6527419659       31.6940695842        5.0450678287  MEMB      73              0.0000000000
      8206        73  SAPI      H13X            2.6273270991       32.1215753568        5.0542233328  MEMB      73              0.0000000000
      8207        73  SAPI      H13Y            3.5156306270       30.5969712084        5.1541421268  MEMB      73              0.0000000000
      8208        73  SAPI      C314            4.1424722334       31.9018310242        3.5788150898  MEMB      73              0.0000000000
      8209        73  SAPI      H14X            4.3694617848       30.9876928623        2.9896223218  MEMB      73              0.0000000000
      8210        73  SAPI      H14Y            5.0551546346       32.5340895359        3.6185734272  MEMB      73              0.0000000000
      8211        73  SAPI      C315            3.1255979845       32.7523620218        2.7144506367  MEMB      73              0.0000000000
      8212        73  SAPI      H15X            3.1288429826       33.8322481599        2.9755183834  MEMB      73              0.0000000000
      8213        73  SAPI      H15Y            2.0927787728       32.4020440823        2.9263064118  MEMB      73              0.0000000000
      8214        73  SAPI      C316            3.3561112293       32.5892311156        1.2285925171  MEMB      73              0.0000000000
      8215        73  SAPI      H16X            2.8299610386       31.6169110139        1.1186795356  MEMB      73              0.0000000000
      8216        73  SAPI      H16Y            4.4233536367       32.4385140983        0.9591512792  MEMB      73              0.0000000000
      8217        73  SAPI      C317            2.6125413257       33.5553919616        0.2741396715  MEMB      73              0.0000000000
      8218        73  SAPI      H17X            2.8015990829       34.6069180082        0.5788871242  MEMB      73              0.0000000000
      8219        73  SAPI      H17Y            1.5223916377       33.4571302687        0.4645058401  MEMB      73              0.0000000000
      8220        73  SAPI      C318            2.9074722010       33.4171769860       -1.2303364979  MEMB      73              0.0000000000
      8221        73  SAPI      H18X            3.9633740307       33.6403128588       -1.4941599347  MEMB      73              0.0000000000
      8222        73  SAPI      H18Y            2.2355231183       34.1318928231       -1.7518606644  MEMB      73              0.0000000000
      8223        73  SAPI      H18Z            2.7014941923       32.3604454406       -1.5045846373  MEMB      73              0.0000000000
      8224        74  OSM       N              30.6862916768      -23.2763703245       21.2964938972  MEMB      74              0.0000000000
      8225        74  OSM       C15            31.1755093117      -22.1107992428       20.3700031373  MEMB      74              0.0000000000
      8226        74  OSM       H15A           30.6507929513      -21.9828540857       19.4347476476  MEMB      74              0.0000000000
      8227        74  OSM       H15B           32.1559487286      -22.3510364777       19.9860440996  MEMB      74              0.0000000000
      8228        74  OSM       H15C           31.3598921248      -21.1834211306       20.8918968364  MEMB      74              0.0000000000
      8229        74  OSM       C14            30.1866258273      -24.3441273292       20.4480245478  MEMB      74              0.0000000000
      8230        74  OSM       H14A           29.4863199669      -23.9843004186       19.7087707077  MEMB      74              0.0000000000
      8231        74  OSM       H14B           29.6675797693      -25.0687462346       21.0578759334  MEMB      74              0.0000000000
      8232        74  OSM       H14C           31.0683421187      -24.7899338138       20.0118677609  MEMB      74              0.0000000000
      8233        74  OSM       C13            31.8825475249      -23.8304033940       21.9972090805  MEMB      74              0.0000000000
      8234        74  OSM       H13A           32.3618616836      -23.0560245235       22.5777219644  MEMB      74              0.0000000000
      8235        74  OSM       H13B           32.5401967895      -24.1306144973       21.1948558064  MEMB      74              0.0000000000
      8236        74  OSM       H13C           31.7050274845      -24.6624929589       22.6624260786  MEMB      74              0.0000000000
      8237        74  OSM       C12            29.6464155901      -22.8529235469       22.3363470298  MEMB      74              0.0000000000
      8238        74  OSM       H12A           30.2288559875      -22.2527093684       23.0196523950  MEMB      74              0.0000000000
      8239        74  OSM       H12B           29.4142875067      -23.6478610590       23.0295938091  MEMB      74              0.0000000000
      8240        74  OSM       C11            28.3145985446      -22.2274792242       21.8667482509  MEMB      74              0.0000000000
      8241        74  OSM       H11A           27.9298762616      -21.6633680362       22.7431547955  MEMB      74              0.0000000000
      8242        74  OSM       H11B           27.6994540552      -23.1020428336       21.5649922473  MEMB      74              0.0000000000
      8243        74  OSM       P              27.1830932493      -20.2979468818       20.6128879592  MEMB      74              0.0000000000
      8244        74  OSM       O13            25.9756746461      -20.9331364751       21.2187006568  MEMB      74              0.0000000000
      8245        74  OSM       O14            27.4373380158      -18.9252294132       21.0038935062  MEMB      74              0.0000000000
      8246        74  OSM       O11            26.9301197790      -20.3031570047       19.0549683872  MEMB      74              0.0000000000
      8247        74  OSM       O12            28.4375075319      -21.2507591599       20.7947235493  MEMB      74              0.0000000000
      8248        74  OSM       C1S            28.0301278387      -20.1883821371       18.1727158670  MEMB      74              0.0000000000
      8249        74  OSM       H1S            28.5458159438      -21.1670133235       18.0694305410  MEMB      74              0.0000000000
      8250        74  OSM       H1T            28.8370088606      -19.5537704228       18.5976065262  MEMB      74              0.0000000000
      8251        74  OSM       NF             28.7215263908      -20.2511075356       15.7300126915  MEMB      74              0.0000000000
      8252        74  OSM       HNF            28.9994744435      -19.4973181327       15.1396270167  MEMB      74              0.0000000000
      8253        74  OSM       C2S            27.6224461645      -20.0030769670       16.6910499408  MEMB      74              0.0000000000
      8254        74  OSM       H2S            26.7790363490      -20.6910999823       16.4683276719  MEMB      74              0.0000000000
      8255        74  OSM       C3S            27.1460247821      -18.5767992703       16.4914691386  MEMB      74              0.0000000000
      8256        74  OSM       H3S            27.9483744954      -17.8702706965       16.7937491109  MEMB      74              0.0000000000
      8257        74  OSM       O3             25.9427155641      -18.3927515562       17.2520737118  MEMB      74              0.0000000000
      8258        74  OSM       HO3            25.7630876416      -19.2770163792       17.5798076220  MEMB      74              0.0000000000
      8259        74  OSM       C4S            26.7816850813      -18.3506775958       15.0644743566  MEMB      74              0.0000000000
      8260        74  OSM       H4S            26.0665421895      -19.0695019826       14.6380211770  MEMB      74              0.0000000000
      8261        74  OSM       C5S            27.0370387794      -17.2617871508       14.3357212806  MEMB      74              0.0000000000
      8262        74  OSM       H5S            27.7805633750      -16.4926046476       14.5917084006  MEMB      74              0.0000000000
      8263        74  OSM       C6S            26.5628402837      -17.2122580323       12.8742840498  MEMB      74              0.0000000000
      8264        74  OSM       H6S            25.8575994885      -16.3538316057       12.8820943397  MEMB      74              0.0000000000
      8265        74  OSM       H6T            26.0082310902      -18.1249176030       12.5680458303  MEMB      74              0.0000000000
      8266        74  OSM       C7S            27.6286132512      -16.8759948952       11.7934824851  MEMB      74              0.0000000000
      8267        74  OSM       H7S            28.0074147111      -15.8638409453       12.0511149369  MEMB      74              0.0000000000
      8268        74  OSM       H7T            26.9933268236      -16.7312069668       10.8936107410  MEMB      74              0.0000000000
      8269        74  OSM       C8S            28.8318786625      -17.9243800071       11.7018746557  MEMB      74              0.0000000000
      8270        74  OSM       H8S            29.4093886590      -17.8351380290       12.6467766562  MEMB      74              0.0000000000
      8271        74  OSM       H8T            29.5453232746      -17.5366416052       10.9436025870  MEMB      74              0.0000000000
      8272        74  OSM       C9S            28.4450324415      -19.3354547451       11.2710551459  MEMB      74              0.0000000000
      8273        74  OSM       H9S            27.8879909054      -19.8317872411       12.0942691635  MEMB      74              0.0000000000
      8274        74  OSM       H9T            29.3842748396      -19.9147533870       11.1423790782  MEMB      74              0.0000000000
      8275        74  OSM       C10S           27.6906775971      -19.4970063044        9.9232434455  MEMB      74              0.0000000000
      8276        74  OSM       H10S           26.7200901994      -18.9881849555       10.1059514287  MEMB      74              0.0000000000
      8277        74  OSM       H10T           27.3651366718      -20.5432357390        9.7395376447  MEMB      74              0.0000000000
      8278        74  OSM       C11S           28.3581017481      -18.7935460743        8.7423040888  MEMB      74              0.0000000000
      8279        74  OSM       H11S           29.2343750823      -19.4132123865        8.4551109450  MEMB      74              0.0000000000
      8280        74  OSM       H11T           28.7908068166      -17.8467699748        9.1305077223  MEMB      74              0.0000000000
      8281        74  OSM       C12S           27.4499838792      -18.5701151651        7.5573584803  MEMB      74              0.0000000000
      8282        74  OSM       H12S           26.6555018888      -17.8019338147        7.6714495992  MEMB      74              0.0000000000
      8283        74  OSM       H12T           27.0337481290      -19.5810846066        7.3598504228  MEMB      74              0.0000000000
      8284        74  OSM       C13S           28.2141534790      -18.2086664808        6.2620152356  MEMB      74              0.0000000000
      8285        74  OSM       H13S           29.1155460160      -18.8394891409        6.1074993052  MEMB      74              0.0000000000
      8286        74  OSM       H13T           28.4107372852      -17.1185886336        6.1759566082  MEMB      74              0.0000000000
      8287        74  OSM       C14S           27.2904452634      -18.5843629369        5.0380653921  MEMB      74              0.0000000000
      8288        74  OSM       H14S           26.3845061650      -17.9581972313        5.1847333809  MEMB      74              0.0000000000
      8289        74  OSM       H14T           26.9737700002      -19.6486317016        5.0750702577  MEMB      74              0.0000000000
      8290        74  OSM       C15S           27.9274435080      -18.3602562321        3.6749957457  MEMB      74              0.0000000000
      8291        74  OSM       H15S           28.2838901995      -17.3081978898        3.6540118712  MEMB      74              0.0000000000
      8292        74  OSM       H15T           27.1541541461      -18.5798806308        2.9081127811  MEMB      74              0.0000000000
      8293        74  OSM       C16S           29.0487661514      -19.3053080907        3.3321507084  MEMB      74              0.0000000000
      8294        74  OSM       H16S           28.4754646693      -20.2553295679        3.2764210570  MEMB      74              0.0000000000
      8295        74  OSM       H16T           29.7140277031      -19.4230808041        4.2141256530  MEMB      74              0.0000000000
      8296        74  OSM       C17S           29.7067863820      -18.8920960873        2.0295361958  MEMB      74              0.0000000000
      8297        74  OSM       H17S           30.0675985723      -17.8612012526        2.2329854641  MEMB      74              0.0000000000
      8298        74  OSM       H17T           28.9508578103      -18.9267690580        1.2160924000  MEMB      74              0.0000000000
      8299        74  OSM       C18S           30.8941221118      -19.8463922854        1.5886272174  MEMB      74              0.0000000000
      8300        74  OSM       H18S           31.6511183513      -19.8498616249        2.4018085810  MEMB      74              0.0000000000
      8301        74  OSM       H18T           31.2623561799      -19.4310111798        0.6262425249  MEMB      74              0.0000000000
      8302        74  OSM       H18U           30.5429131988      -20.8945684785        1.4777218027  MEMB      74              0.0000000000
      8303        74  OSM       C1F            29.2115898418      -21.5306829067       15.5200198318  MEMB      74              0.0000000000
      8304        74  OSM       OF             28.6994517861      -22.5232878573       16.0351071964  MEMB      74              0.0000000000
      8305        74  OSM       C2F            30.3896812402      -21.5144546207       14.5703682811  MEMB      74              0.0000000000
      8306        74  OSM       H2F            30.1401749842      -21.1148059199       13.5642132119  MEMB      74              0.0000000000
      8307        74  OSM       H2G            30.5923312749      -22.5864517340       14.3604249657  MEMB      74              0.0000000000
      8308        74  OSM       C3F            31.6117064794      -20.7592063623       15.0858802307  MEMB      74              0.0000000000
      8309        74  OSM       H3F            31.8759758247      -21.1870281838       16.0765627426  MEMB      74              0.0000000000
      8310        74  OSM       H3G            31.4011053188      -19.6687334436       15.0569489762  MEMB      74              0.0000000000
      8311        74  OSM       C4F            32.7511352848      -20.9602600057       14.1651858830  MEMB      74              0.0000000000
      8312        74  OSM       H4F            33.1074442566      -22.0113312088       14.2163146195  MEMB      74              0.0000000000
      8313        74  OSM       H4G            33.5896458573      -20.4215243475       14.6560877803  MEMB      74              0.0000000000
      8314        74  OSM       C5F            32.6798637783      -20.3750101347       12.7659590454  MEMB      74              0.0000000000
      8315        74  OSM       H5F            32.0399870987      -19.4714644710       12.6738496913  MEMB      74              0.0000000000
      8316        74  OSM       H5G            32.0996751740      -21.1477022266       12.2176440503  MEMB      74              0.0000000000
      8317        74  OSM       C6F            34.0603561063      -20.2953146935       12.0831842752  MEMB      74              0.0000000000
      8318        74  OSM       H6F            34.4828130501      -21.2759772498       12.3900270576  MEMB      74              0.0000000000
      8319        74  OSM       H6G            34.6597072047      -19.6762597162       12.7845189424  MEMB      74              0.0000000000
      8320        74  OSM       C7F            34.1223986329      -19.8504687755       10.5937433691  MEMB      74              0.0000000000
      8321        74  OSM       H7F            35.1857227957      -19.9357928613       10.2832880557  MEMB      74              0.0000000000
      8322        74  OSM       H7G            33.7910031723      -18.7907136215       10.5561046380  MEMB      74              0.0000000000
      8323        74  OSM       C8F            33.2731160905      -20.5668925587        9.5917217408  MEMB      74              0.0000000000
      8324        74  OSM       H8F            33.2798376488      -20.0772753412        8.5944493548  MEMB      74              0.0000000000
      8325        74  OSM       H8G            32.2544676608      -20.2587532152        9.9106675334  MEMB      74              0.0000000000
      8326        74  OSM       C9F            33.4121978249      -22.0990900402        9.5040655152  MEMB      74              0.0000000000
      8327        74  OSM       H9F            34.4205348545      -22.4000631546        9.1836413854  MEMB      74              0.0000000000
      8328        74  OSM       C10F           32.5337241439      -23.1585263953        9.6917581682  MEMB      74              0.0000000000
      8329        74  OSM       H10F           32.9452103434      -24.1747004528        9.6019264540  MEMB      74              0.0000000000
      8330        74  OSM       C11F           31.0180570188      -23.0315620617       10.0372995913  MEMB      74              0.0000000000
      8331        74  OSM       H11F           30.9453083222      -22.2809138007       10.8531148501  MEMB      74              0.0000000000
      8332        74  OSM       H11G           30.5379657972      -23.9435173952       10.4522333777  MEMB      74              0.0000000000
      8333        74  OSM       C12F           30.2412315819      -22.3002200947        8.9039586840  MEMB      74              0.0000000000
      8334        74  OSM       H12F           30.7830108275      -21.3772423700        8.6057838028  MEMB      74              0.0000000000
      8335        74  OSM       H12G           29.2900094831      -21.8914693241        9.3069720867  MEMB      74              0.0000000000
      8336        74  OSM       C13F           29.8518203604      -23.1846722518        7.6605077905  MEMB      74              0.0000000000
      8337        74  OSM       H13F           29.1861767142      -23.9994626634        8.0173776632  MEMB      74              0.0000000000
      8338        74  OSM       H13G           30.8120851449      -23.5571789622        7.2440336391  MEMB      74              0.0000000000
      8339        74  OSM       C14F           29.1980752301      -22.4030038605        6.5324254863  MEMB      74              0.0000000000
      8340        74  OSM       H14F           29.7844960264      -21.5017745225        6.2527509714  MEMB      74              0.0000000000
      8341        74  OSM       H14G           28.1962866914      -22.1334551213        6.9300228704  MEMB      74              0.0000000000
      8342        74  OSM       C15F           28.8846873442      -23.2746976224        5.3643860874  MEMB      74              0.0000000000
      8343        74  OSM       H15F           28.2131741184      -22.7059464644        4.6862178191  MEMB      74              0.0000000000
      8344        74  OSM       H15G           28.3625627802      -24.2223671171        5.6166348019  MEMB      74              0.0000000000
      8345        74  OSM       C16F           30.0548239828      -23.8276295645        4.4618147900  MEMB      74              0.0000000000
      8346        74  OSM       H16F           30.5796519682      -24.5726282520        5.0973096672  MEMB      74              0.0000000000
      8347        74  OSM       H16G           30.7227754809      -22.9560883759        4.2927660387  MEMB      74              0.0000000000
      8348        74  OSM       C17F           29.5545567187      -24.3748519455        3.1468838848  MEMB      74              0.0000000000
      8349        74  OSM       H17F           28.8198045322      -23.6645568117        2.7110605927  MEMB      74              0.0000000000
      8350        74  OSM       H17G           28.9684945859      -25.2796592284        3.4155385243  MEMB      74              0.0000000000
      8351        74  OSM       C18F           30.5563091531      -24.7160327277        2.0982170016  MEMB      74              0.0000000000
      8352        74  OSM       H18F           29.9993320017      -24.9154336852        1.1578256435  MEMB      74              0.0000000000
      8353        74  OSM       H18G           31.2604828690      -25.5473454967        2.3158828135  MEMB      74              0.0000000000
      8354        74  OSM       H18H           31.2562120317      -23.8624878120        1.9720486493  MEMB      74              0.0000000000
      8355        75  SOPE      N              37.3202087206       -1.2107503040       23.2319150048  MEMB      75              0.0000000000
      8356        75  SOPE      HN1            36.6199218036       -1.3605177100       23.9860821895  MEMB      75              0.0000000000
      8357        75  SOPE      HN2            37.1065746538       -1.7110444336       22.3455368934  MEMB      75              0.0000000000
      8358        75  SOPE      HN3            38.1435038649       -1.7137261603       23.6202452484  MEMB      75              0.0000000000
      8359        75  SOPE      C12            37.4867336932        0.2742817912       22.9636374721  MEMB      75              0.0000000000
      8360        75  SOPE      H12A           38.2760612436        0.3818570690       22.1892277005  MEMB      75              0.0000000000
      8361        75  SOPE      H12B           37.8419425077        0.7621521820       23.8964450908  MEMB      75              0.0000000000
      8362        75  SOPE      C11            36.1506057578        0.8505604300       22.4416615836  MEMB      75              0.0000000000
      8363        75  SOPE      H11A           36.1731204183        1.9564463898       22.5457305157  MEMB      75              0.0000000000
      8364        75  SOPE      H11B           35.3215231619        0.5110676474       23.0986908781  MEMB      75              0.0000000000
      8365        75  SOPE      P              36.1511141011        1.4865608281       19.8584909501  MEMB      75              0.0000000000
      8366        75  SOPE      O13            37.3649280294        2.2428411385       20.2126079745  MEMB      75              0.0000000000
      8367        75  SOPE      O14            34.9287161391        2.2183898547       19.5906934934  MEMB      75              0.0000000000
      8368        75  SOPE      O12            35.8485698365        0.4697075900       21.0717703745  MEMB      75              0.0000000000
      8369        75  SOPE      O11            36.5576277620        0.5573202115       18.6292231434  MEMB      75              0.0000000000
      8370        75  SOPE      C1             36.3267134225       -0.8884920456       18.6461315751  MEMB      75              0.0000000000
      8371        75  SOPE      HA             35.2798968759       -1.1585879706       18.9021478278  MEMB      75              0.0000000000
      8372        75  SOPE      HB             37.0849021828       -1.2500463827       19.3732831507  MEMB      75              0.0000000000
      8373        75  SOPE      C2             36.7348926736       -1.5245684720       17.3385178233  MEMB      75              0.0000000000
      8374        75  SOPE      HS             36.7487690554       -2.6305522056       17.4430574246  MEMB      75              0.0000000000
      8375        75  SOPE      O21            37.9717093768       -0.9740447847       16.8903109446  MEMB      75              0.0000000000
      8376        75  SOPE      C21            38.5367222912       -1.6166214029       15.8540398532  MEMB      75              0.0000000000
      8377        75  SOPE      O22            38.0278812053       -2.6306992888       15.2704241736  MEMB      75              0.0000000000
      8378        75  SOPE      C22            39.8480271927       -0.8671102756       15.5462374062  MEMB      75              0.0000000000
      8379        75  SOPE      H2R            40.4146676447       -0.9756613519       16.4956876850  MEMB      75              0.0000000000
      8380        75  SOPE      H2S            39.6152177554        0.1940775497       15.3138565852  MEMB      75              0.0000000000
      8381        75  SOPE      C3             35.4575227766       -1.1997083562       16.3222321881  MEMB      75              0.0000000000
      8382        75  SOPE      HX             34.4930216488       -1.5219039462       16.7697234996  MEMB      75              0.0000000000
      8383        75  SOPE      HY             35.5229549766       -1.8245759464       15.4059461019  MEMB      75              0.0000000000
      8384        75  SOPE      O31            35.2735206931        0.1763438133       16.0825283395  MEMB      75              0.0000000000
      8385        75  SOPE      C31            35.5941523782        0.6867801526       14.9386143867  MEMB      75              0.0000000000
      8386        75  SOPE      O32            36.1087889136        0.1459403102       13.9894394008  MEMB      75              0.0000000000
      8387        75  SOPE      C32            35.3017584606        2.1611401528       14.9226316547  MEMB      75              0.0000000000
      8388        75  SOPE      H2X            34.9546675194        2.5075415419       15.9195543047  MEMB      75              0.0000000000
      8389        75  SOPE      H2Y            34.5145041609        2.3485475418       14.1614284756  MEMB      75              0.0000000000
      8390        75  SOPE      C23            40.6828614249       -1.3877525864       14.3407214471  MEMB      75              0.0000000000
      8391        75  SOPE      H3R            40.7085231613       -2.4952920029       14.2569456504  MEMB      75              0.0000000000
      8392        75  SOPE      H3S            41.6733659500       -0.9097999300       14.4981476780  MEMB      75              0.0000000000
      8393        75  SOPE      C24            40.3293913884       -0.8128715976       12.8837382595  MEMB      75              0.0000000000
      8394        75  SOPE      H4R            39.3083296416       -1.0057357243       12.4906003955  MEMB      75              0.0000000000
      8395        75  SOPE      H4S            40.4504149578        0.2888756420       12.9600768553  MEMB      75              0.0000000000
      8396        75  SOPE      C25            41.3025435251       -1.3101420269       11.8039016584  MEMB      75              0.0000000000
      8397        75  SOPE      H5R            42.3794899799       -1.1251250706       12.0045904883  MEMB      75              0.0000000000
      8398        75  SOPE      H5S            41.3343435438       -2.4189369169       11.7415848463  MEMB      75              0.0000000000
      8399        75  SOPE      C26            40.8370024695       -0.7495755837       10.4558367739  MEMB      75              0.0000000000
      8400        75  SOPE      H6R            39.8455216287       -0.2486746819       10.4362157331  MEMB      75              0.0000000000
      8401        75  SOPE      H6S            41.5879064789        0.0497857078       10.2783932661  MEMB      75              0.0000000000
      8402        75  SOPE      C27            40.8960396109       -1.7122357452        9.2913106911  MEMB      75              0.0000000000
      8403        75  SOPE      H7R            41.0643670222       -1.1125618018        8.3713222671  MEMB      75              0.0000000000
      8404        75  SOPE      H7S            41.8329250768       -2.2977529245        9.4085133834  MEMB      75              0.0000000000
      8405        75  SOPE      C28            39.7111014637       -2.7112668863        9.2343851365  MEMB      75              0.0000000000
      8406        75  SOPE      H8R            39.9233985293       -3.3980898350        8.3873165326  MEMB      75              0.0000000000
      8407        75  SOPE      H8S            39.7201099186       -3.3047246101       10.1735597799  MEMB      75              0.0000000000
      8408        75  SOPE      C29            38.4538596376       -2.0274161352        8.8359807246  MEMB      75              0.0000000000
      8409        75  SOPE      H91            38.0894255268       -1.3080636515        9.5841252913  MEMB      75              0.0000000000
      8410        75  SOPE      C210           37.8314100910       -2.1912213595        7.6302592856  MEMB      75              0.0000000000
      8411        75  SOPE      H101           36.9271316216       -1.5997496949        7.4242457147  MEMB      75              0.0000000000
      8412        75  SOPE      C211           38.2483237520       -3.1194561162        6.5069229703  MEMB      75              0.0000000000
      8413        75  SOPE      H11R           37.2742609001       -3.3497577948        6.0247568215  MEMB      75              0.0000000000
      8414        75  SOPE      H11S           38.6481378735       -4.0903439952        6.8700289936  MEMB      75              0.0000000000
      8415        75  SOPE      C212           39.0945086926       -2.3943931300        5.4858007390  MEMB      75              0.0000000000
      8416        75  SOPE      H12R           39.4729385900       -3.0462382988        4.6695842700  MEMB      75              0.0000000000
      8417        75  SOPE      H12S           40.0212903782       -2.0363677934        5.9830076735  MEMB      75              0.0000000000
      8418        75  SOPE      C213           38.3615336708       -1.1436337537        4.7137248714  MEMB      75              0.0000000000
      8419        75  SOPE      H13R           38.2137842760       -0.2489864795        5.3556725198  MEMB      75              0.0000000000
      8420        75  SOPE      H13S           37.3575734485       -1.4522528990        4.3515932658  MEMB      75              0.0000000000
      8421        75  SOPE      C214           39.2052810077       -0.7599533729        3.4702506507  MEMB      75              0.0000000000
      8422        75  SOPE      H14R           38.7833688002        0.1265411921        2.9502133630  MEMB      75              0.0000000000
      8423        75  SOPE      H14S           39.1739012998       -1.4972161422        2.6397199356  MEMB      75              0.0000000000
      8424        75  SOPE      C215           40.6420838192       -0.3232917574        3.6829338014  MEMB      75              0.0000000000
      8425        75  SOPE      H15R           41.2567298373       -1.0658957631        4.2352650319  MEMB      75              0.0000000000
      8426        75  SOPE      H15S           40.5900319140        0.5873887886        4.3171827400  MEMB      75              0.0000000000
      8427        75  SOPE      C216           41.4111703421        0.1463405373        2.3985184201  MEMB      75              0.0000000000
      8428        75  SOPE      H16R           42.4832413654        0.2317208500        2.6772559183  MEMB      75              0.0000000000
      8429        75  SOPE      H16S           40.9939543327        1.1099389136        2.0355711066  MEMB      75              0.0000000000
      8430        75  SOPE      C217           41.3210421748       -0.8163883659        1.1393062216  MEMB      75              0.0000000000
      8431        75  SOPE      H17R           41.9667042051       -0.3019217394        0.3958247995  MEMB      75              0.0000000000
      8432        75  SOPE      H17S           40.2952397527       -0.8134809631        0.7126431446  MEMB      75              0.0000000000
      8433        75  SOPE      C218           41.9801871944       -2.2197309160        1.2567038900  MEMB      75              0.0000000000
      8434        75  SOPE      H18R           41.9545171702       -2.7589687082        0.2856804908  MEMB      75              0.0000000000
      8435        75  SOPE      H18S           41.3353223048       -2.8688682186        1.8868562203  MEMB      75              0.0000000000
      8436        75  SOPE      H18T           43.0129798858       -2.0599213932        1.6336935390  MEMB      75              0.0000000000
      8437        75  SOPE      C33            36.5001037325        2.9961362914       14.5505015773  MEMB      75              0.0000000000
      8438        75  SOPE      H3X            36.1234909856        4.0321461284       14.4120548020  MEMB      75              0.0000000000
      8439        75  SOPE      H3Y            36.7984453421        2.7444011032       13.5103366052  MEMB      75              0.0000000000
      8440        75  SOPE      C34            37.7990911469        2.8777359396       15.5211140119  MEMB      75              0.0000000000
      8441        75  SOPE      H4X            37.9719908132        1.7954099249       15.7027644060  MEMB      75              0.0000000000
      8442        75  SOPE      H4Y            37.5933331388        3.3991436037       16.4803420295  MEMB      75              0.0000000000
      8443        75  SOPE      C35            39.0932788782        3.4462847443       14.8928322164  MEMB      75              0.0000000000
      8444        75  SOPE      H5X            39.9169363020        3.1901493805       15.5930492688  MEMB      75              0.0000000000
      8445        75  SOPE      H5Y            38.8676657566        4.5257710940       14.7581889953  MEMB      75              0.0000000000
      8446        75  SOPE      C36            39.5121306956        2.7847265819       13.4905254747  MEMB      75              0.0000000000
      8447        75  SOPE      H6X            39.0612198868        1.7699499394       13.5255797368  MEMB      75              0.0000000000
      8448        75  SOPE      H6Y            40.6111954594        2.6231365298       13.4742059116  MEMB      75              0.0000000000
      8449        75  SOPE      C37            38.9600571769        3.5311601441       12.2458740899  MEMB      75              0.0000000000
      8450        75  SOPE      H7X            39.7074156497        4.3257516264       12.0351608444  MEMB      75              0.0000000000
      8451        75  SOPE      H7Y            37.9771004516        3.9664017271       12.5263775890  MEMB      75              0.0000000000
      8452        75  SOPE      C38            38.9219449598        2.5785076495       11.0194042349  MEMB      75              0.0000000000
      8453        75  SOPE      H8X            38.1969131249        1.7414930608       11.1091605846  MEMB      75              0.0000000000
      8454        75  SOPE      H8Y            39.9097199950        2.0786522143       11.1130312913  MEMB      75              0.0000000000
      8455        75  SOPE      C39            38.9179293928        3.0887635612        9.6672037214  MEMB      75              0.0000000000
      8456        75  SOPE      H9X            39.6572615204        3.9149202268        9.5952731675  MEMB      75              0.0000000000
      8457        75  SOPE      H9Y            37.9875635651        3.5161355922        9.2358183211  MEMB      75              0.0000000000
      8458        75  SOPE      C310           39.5327012563        2.0836147050        8.6513526381  MEMB      75              0.0000000000
      8459        75  SOPE      H10X           38.7491546797        1.3257683585        8.4367719876  MEMB      75              0.0000000000
      8460        75  SOPE      H10Y           40.3875294259        1.5188526567        9.0810427981  MEMB      75              0.0000000000
      8461        75  SOPE      C311           39.7874440860        2.6932494183        7.2520092395  MEMB      75              0.0000000000
      8462        75  SOPE      H11X           39.9633667017        1.8301773217        6.5748984814  MEMB      75              0.0000000000
      8463        75  SOPE      H11Y           40.6679618981        3.3603401632        7.3703278044  MEMB      75              0.0000000000
      8464        75  SOPE      C312           38.6415202641        3.5085788744        6.6512714666  MEMB      75              0.0000000000
      8465        75  SOPE      H12X           38.2775536961        4.3395873304        7.2925787793  MEMB      75              0.0000000000
      8466        75  SOPE      H12Y           37.7664460126        2.8387704531        6.5101230339  MEMB      75              0.0000000000
      8467        75  SOPE      C313           39.0621422095        4.3107763299        5.4277450269  MEMB      75              0.0000000000
      8468        75  SOPE      H13X           40.0908560082        4.6804940942        5.6261832130  MEMB      75              0.0000000000
      8469        75  SOPE      H13Y           38.3599548495        5.1713509494        5.4019628460  MEMB      75              0.0000000000
      8470        75  SOPE      C314           39.0743501587        3.4811490113        4.0280061094  MEMB      75              0.0000000000
      8471        75  SOPE      H14X           38.1900697038        2.8229895555        4.1665546611  MEMB      75              0.0000000000
      8472        75  SOPE      H14Y           40.0453854812        2.9508343923        3.9271222862  MEMB      75              0.0000000000
      8473        75  SOPE      C315           38.7136945607        4.4152513437        2.8689922732  MEMB      75              0.0000000000
      8474        75  SOPE      H15X           39.4226934841        5.2600648618        3.0029018730  MEMB      75              0.0000000000
      8475        75  SOPE      H15Y           37.6578384964        4.7589910384        2.8324937486  MEMB      75              0.0000000000
      8476        75  SOPE      C316           39.2983821030        3.8082622791        1.5351157933  MEMB      75              0.0000000000
      8477        75  SOPE      H16X           40.1906777888        3.2280657028        1.8537093721  MEMB      75              0.0000000000
      8478        75  SOPE      H16Y           39.6197613071        4.4892547972        0.7182394895  MEMB      75              0.0000000000
      8479        75  SOPE      C317           38.3573590703        2.7771174338        0.9953373443  MEMB      75              0.0000000000
      8480        75  SOPE      H17X           38.1195985370        1.9037070109        1.6394999377  MEMB      75              0.0000000000
      8481        75  SOPE      H17Y           38.9814047259        2.4047963325        0.1549403032  MEMB      75              0.0000000000
      8482        75  SOPE      C318           37.1369228309        3.4468265052        0.4471440067  MEMB      75              0.0000000000
      8483        75  SOPE      H18X           36.6488653236        2.6142678601       -0.1032800626  MEMB      75              0.0000000000
      8484        75  SOPE      H18Y           37.4695892831        4.2132978674       -0.2850954738  MEMB      75              0.0000000000
      8485        75  SOPE      H18Z           36.4506451613        3.7947723988        1.2485670867  MEMB      75              0.0000000000
      8486        76  SLPC      N             -17.0705658423      -30.7574137217       18.2656900568  MEMB      76              0.0000000000
      8487        76  SLPC      C13           -16.3599145882      -32.0579874648       18.5293984951  MEMB      76              0.0000000000
      8488        76  SLPC      H13A          -15.5643018254      -32.0476981283       17.7991283355  MEMB      76              0.0000000000
      8489        76  SLPC      H13B          -15.8926431126      -32.0977103258       19.5022702675  MEMB      76              0.0000000000
      8490        76  SLPC      H13C          -17.0049722085      -32.9108073856       18.3777451950  MEMB      76              0.0000000000
      8491        76  SLPC      C14           -16.1980468533      -29.5564789572       18.4305012044  MEMB      76              0.0000000000
      8492        76  SLPC      H14A          -15.9701932794      -29.3271912909       19.4609914907  MEMB      76              0.0000000000
      8493        76  SLPC      H14B          -15.3911228144      -29.5392787889       17.7128816191  MEMB      76              0.0000000000
      8494        76  SLPC      H14C          -16.7993002124      -28.7204546413       18.1049897502  MEMB      76              0.0000000000
      8495        76  SLPC      C15           -18.3065080696      -30.7488149277       19.2111627619  MEMB      76              0.0000000000
      8496        76  SLPC      H15A          -17.9133200492      -30.4131388638       20.1593845062  MEMB      76              0.0000000000
      8497        76  SLPC      H15B          -18.9596699517      -29.9317415092       18.9425167402  MEMB      76              0.0000000000
      8498        76  SLPC      H15C          -18.7854855111      -31.7167909738       19.2094198090  MEMB      76              0.0000000000
      8499        76  SLPC      C12           -17.5633770730      -30.7479514333       16.8124312739  MEMB      76              0.0000000000
      8500        76  SLPC      H12A          -16.7653060040      -31.1443585434       16.2022312178  MEMB      76              0.0000000000
      8501        76  SLPC      H12B          -17.5902907336      -29.7187820051       16.4861094181  MEMB      76              0.0000000000
      8502        76  SLPC      C11           -18.8595091170      -31.5873433057       16.3419731535  MEMB      76              0.0000000000
      8503        76  SLPC      H11A          -18.8511602843      -31.6262241402       15.2316850652  MEMB      76              0.0000000000
      8504        76  SLPC      H11B          -19.8384045514      -31.1506963741       16.6342471822  MEMB      76              0.0000000000
      8505        76  SLPC      P             -18.4055840807      -34.0825583403       15.8634073985  MEMB      76              0.0000000000
      8506        76  SLPC      O13           -18.0218031923      -35.2448877246       16.6650694030  MEMB      76              0.0000000000
      8507        76  SLPC      O14           -19.3658820827      -34.2523708958       14.7698883434  MEMB      76              0.0000000000
      8508        76  SLPC      O12           -18.8959275059      -32.9261401563       16.8630619041  MEMB      76              0.0000000000
      8509        76  SLPC      O11           -17.1304225424      -33.3185284539       15.2474159890  MEMB      76              0.0000000000
      8510        76  SLPC      C1            -15.9856268913      -33.9813071997       14.8948631982  MEMB      76              0.0000000000
      8511        76  SLPC      HA            -15.5754176649      -34.6921464682       15.6437001275  MEMB      76              0.0000000000
      8512        76  SLPC      HB            -16.2980341399      -34.6855544981       14.0943892419  MEMB      76              0.0000000000
      8513        76  SLPC      C2            -14.8061754740      -33.0656183909       14.5297120030  MEMB      76              0.0000000000
      8514        76  SLPC      HS            -14.6843123679      -32.4331516850       15.4349502380  MEMB      76              0.0000000000
      8515        76  SLPC      O21           -15.1913598157      -32.4238359802       13.3418224473  MEMB      76              0.0000000000
      8516        76  SLPC      C21           -14.2893769207      -31.5370211921       12.8087088666  MEMB      76              0.0000000000
      8517        76  SLPC      O22           -13.2295867065      -31.1596180899       13.3122085447  MEMB      76              0.0000000000
      8518        76  SLPC      C22           -14.9671414348      -31.0901810361       11.5293669978  MEMB      76              0.0000000000
      8519        76  SLPC      H2R           -15.3989055933      -31.9914915830       11.0440425382  MEMB      76              0.0000000000
      8520        76  SLPC      H2S           -15.7017937787      -30.2715913840       11.6859493108  MEMB      76              0.0000000000
      8521        76  SLPC      C3            -13.5919681597      -34.0621339956       14.4151503132  MEMB      76              0.0000000000
      8522        76  SLPC      HX            -13.2443336892      -34.4255542589       15.4058053563  MEMB      76              0.0000000000
      8523        76  SLPC      HY            -12.8174527872      -33.4946495442       13.8562157460  MEMB      76              0.0000000000
      8524        76  SLPC      O31           -13.8913583368      -35.1363628182       13.4976737289  MEMB      76              0.0000000000
      8525        76  SLPC      C31           -13.1540544306      -36.2552655029       13.6200063122  MEMB      76              0.0000000000
      8526        76  SLPC      O32           -12.3963891144      -36.5291142309       14.4877771512  MEMB      76              0.0000000000
      8527        76  SLPC      C32           -13.3791887727      -37.2274994666       12.4905250858  MEMB      76              0.0000000000
      8528        76  SLPC      H2X           -12.3776385211      -37.7057986539       12.4410446408  MEMB      76              0.0000000000
      8529        76  SLPC      H2Y           -13.7365335664      -36.7787332642       11.5390869047  MEMB      76              0.0000000000
      8530        76  SLPC      C23           -13.9900891137      -30.4788701077       10.4828433771  MEMB      76              0.0000000000
      8531        76  SLPC      H3R           -13.4634176508      -29.6278605305       10.9652549357  MEMB      76              0.0000000000
      8532        76  SLPC      H3S           -14.7766935868      -30.1998978009        9.7495298244  MEMB      76              0.0000000000
      8533        76  SLPC      C24           -12.9059193128      -31.3528171872        9.7447081604  MEMB      76              0.0000000000
      8534        76  SLPC      H4R           -12.1319587766      -31.5528818183       10.5162518739  MEMB      76              0.0000000000
      8535        76  SLPC      H4S           -12.4644204081      -30.7089063365        8.9542780410  MEMB      76              0.0000000000
      8536        76  SLPC      C25           -13.4513590770      -32.7006861718        9.1564371852  MEMB      76              0.0000000000
      8537        76  SLPC      H5R           -14.3479500454      -32.4883890408        8.5356507716  MEMB      76              0.0000000000
      8538        76  SLPC      H5S           -13.6375942664      -33.4177696270        9.9843433699  MEMB      76              0.0000000000
      8539        76  SLPC      C26           -12.4908163887      -33.3141291773        8.1079977077  MEMB      76              0.0000000000
      8540        76  SLPC      H6R           -11.5239578399      -33.5250043556        8.6130097957  MEMB      76              0.0000000000
      8541        76  SLPC      H6S           -12.3249755849      -32.4544790577        7.4240241112  MEMB      76              0.0000000000
      8542        76  SLPC      C27           -13.0658742001      -34.4900942241        7.2257645428  MEMB      76              0.0000000000
      8543        76  SLPC      H7R           -12.2306347757      -34.7941468405        6.5592448105  MEMB      76              0.0000000000
      8544        76  SLPC      H7S           -13.9047415952      -34.0978943733        6.6119226655  MEMB      76              0.0000000000
      8545        76  SLPC      C28           -13.5660749146      -35.6786934318        8.0956624041  MEMB      76              0.0000000000
      8546        76  SLPC      H8R           -14.4225871622      -35.3515046674        8.7230812006  MEMB      76              0.0000000000
      8547        76  SLPC      H8S           -12.6745042585      -35.7287856257        8.7566568331  MEMB      76              0.0000000000
      8548        76  SLPC      C29           -13.9794865332      -37.0237791582        7.5577474191  MEMB      76              0.0000000000
      8549        76  SLPC      H9R           -13.1624698601      -37.7433945823        7.7147089279  MEMB      76              0.0000000000
      8550        76  SLPC      C210          -15.1466462530      -37.3519270907        7.0764729925  MEMB      76              0.0000000000
      8551        76  SLPC      H10R          -15.2275594015      -38.3365038999        6.5926733890  MEMB      76              0.0000000000
      8552        76  SLPC      C211          -16.4046607119      -36.5086004538        6.8869729036  MEMB      76              0.0000000000
      8553        76  SLPC      H11R          -16.8461047977      -36.1761219061        7.8507704256  MEMB      76              0.0000000000
      8554        76  SLPC      H11S          -17.1622245723      -37.1861833867        6.4383092463  MEMB      76              0.0000000000
      8555        76  SLPC      C212          -16.4820768537      -35.3802880362        5.8892682939  MEMB      76              0.0000000000
      8556        76  SLPC      H12R          -16.7864920149      -34.4486422299        6.3886347605  MEMB      76              0.0000000000
      8557        76  SLPC      C213          -16.3870769866      -35.4617956060        4.5403228582  MEMB      76              0.0000000000
      8558        76  SLPC      H13R          -16.3869881438      -34.5343859216        3.9487899006  MEMB      76              0.0000000000
      8559        76  SLPC      C214          -16.2159300456      -36.7765534635        3.7906346138  MEMB      76              0.0000000000
      8560        76  SLPC      H14R          -16.7185585410      -36.7460033576        2.8003050635  MEMB      76              0.0000000000
      8561        76  SLPC      H14S          -16.6276623931      -37.6280989975        4.3734451576  MEMB      76              0.0000000000
      8562        76  SLPC      C215          -14.7055073674      -37.0090559009        3.5377052264  MEMB      76              0.0000000000
      8563        76  SLPC      H15R          -14.5236943535      -38.0535232248        3.2055101442  MEMB      76              0.0000000000
      8564        76  SLPC      H15S          -14.0840427360      -37.0020677947        4.4586034722  MEMB      76              0.0000000000
      8565        76  SLPC      C216          -13.9720843970      -36.1006133740        2.5579987793  MEMB      76              0.0000000000
      8566        76  SLPC      H16R          -13.7466557897      -35.0993212514        2.9833423449  MEMB      76              0.0000000000
      8567        76  SLPC      H16S          -14.5769486606      -35.9021850700        1.6474573379  MEMB      76              0.0000000000
      8568        76  SLPC      C217          -12.6117884504      -36.6615337824        2.1779276959  MEMB      76              0.0000000000
      8569        76  SLPC      H17R          -12.7925012685      -37.5488733476        1.5342716247  MEMB      76              0.0000000000
      8570        76  SLPC      H17S          -12.1463015612      -36.9703769724        3.1382712354  MEMB      76              0.0000000000
      8571        76  SLPC      C218          -11.6637241521      -35.7112692510        1.4490096972  MEMB      76              0.0000000000
      8572        76  SLPC      H18R          -10.6643755841      -36.1952079291        1.4112407956  MEMB      76              0.0000000000
      8573        76  SLPC      H18S          -11.6105468021      -34.7839085487        2.0585144625  MEMB      76              0.0000000000
      8574        76  SLPC      H18T          -11.9986245114      -35.5136459128        0.4082858969  MEMB      76              0.0000000000
      8575        76  SLPC      C33           -14.4934269529      -38.2381160506       12.8752384275  MEMB      76              0.0000000000
      8576        76  SLPC      H3X           -14.1916243981      -38.7262610211       13.8265275101  MEMB      76              0.0000000000
      8577        76  SLPC      H3Y           -14.4993771035      -39.0982896538       12.1721121731  MEMB      76              0.0000000000
      8578        76  SLPC      C34           -15.9376623429      -37.6971621928       12.8753324741  MEMB      76              0.0000000000
      8579        76  SLPC      H4X           -16.0592856802      -37.0944736805       13.8006949454  MEMB      76              0.0000000000
      8580        76  SLPC      H4Y           -16.6847593860      -38.5153752487       12.7935151804  MEMB      76              0.0000000000
      8581        76  SLPC      C35           -16.2822140700      -36.7246948484       11.7826937469  MEMB      76              0.0000000000
      8582        76  SLPC      H5X           -15.8854848070      -37.0293576554       10.7906715850  MEMB      76              0.0000000000
      8583        76  SLPC      H5Y           -15.8272143499      -35.7488877903       12.0567318808  MEMB      76              0.0000000000
      8584        76  SLPC      C36           -17.7846331564      -36.3682724928       11.7521339801  MEMB      76              0.0000000000
      8585        76  SLPC      H6X           -18.0147119492      -36.2087111904       12.8272736665  MEMB      76              0.0000000000
      8586        76  SLPC      H6Y           -18.3964352139      -37.2361861170       11.4254147409  MEMB      76              0.0000000000
      8587        76  SLPC      C37           -18.1466159051      -35.1299735764       10.9179712424  MEMB      76              0.0000000000
      8588        76  SLPC      H7X           -19.2144264742      -35.3103694513       10.6698611727  MEMB      76              0.0000000000
      8589        76  SLPC      H7Y           -17.6242523908      -35.1023439155        9.9378211762  MEMB      76              0.0000000000
      8590        76  SLPC      C38           -18.0211355597      -33.6941511850       11.6198913551  MEMB      76              0.0000000000
      8591        76  SLPC      H8X           -16.9337779465      -33.6922084742       11.8478625038  MEMB      76              0.0000000000
      8592        76  SLPC      H8Y           -18.6770973952      -33.8168067378       12.5081426733  MEMB      76              0.0000000000
      8593        76  SLPC      C39           -18.3635656370      -32.4734442046       10.7645637743  MEMB      76              0.0000000000
      8594        76  SLPC      H9X           -18.1651270100      -31.6288999856       11.4586013522  MEMB      76              0.0000000000
      8595        76  SLPC      H9Y           -19.4498818096      -32.4621826431       10.5319462339  MEMB      76              0.0000000000
      8596        76  SLPC      C310          -17.6230278622      -32.3182360800        9.4604731366  MEMB      76              0.0000000000
      8597        76  SLPC      H10X          -18.1985327900      -32.8982830935        8.7077043792  MEMB      76              0.0000000000
      8598        76  SLPC      H10Y          -16.5850160757      -32.7119168494        9.5036876010  MEMB      76              0.0000000000
      8599        76  SLPC      C311          -17.5752128623      -30.8336797704        8.8921470235  MEMB      76              0.0000000000
      8600        76  SLPC      H11X          -16.8247310683      -30.1835218580        9.3905372367  MEMB      76              0.0000000000
      8601        76  SLPC      H11Y          -18.5298756064      -30.3393707360        9.1725010355  MEMB      76              0.0000000000
      8602        76  SLPC      C312          -17.3928933480      -30.8000842808        7.3446496762  MEMB      76              0.0000000000
      8603        76  SLPC      H12X          -17.4473146456      -29.7197784014        7.0910770504  MEMB      76              0.0000000000
      8604        76  SLPC      H12Y          -18.2120450860      -31.3156621092        6.7992225020  MEMB      76              0.0000000000
      8605        76  SLPC      C313          -15.9601120457      -31.2297785822        6.8384019070  MEMB      76              0.0000000000
      8606        76  SLPC      H13X          -15.7648899053      -32.3196605866        6.9298703477  MEMB      76              0.0000000000
      8607        76  SLPC      H13Y          -15.2614093626      -30.6438904126        7.4731229232  MEMB      76              0.0000000000
      8608        76  SLPC      C314          -15.7745986428      -30.7957135263        5.3629507033  MEMB      76              0.0000000000
      8609        76  SLPC      H14X          -16.0309726524      -29.7160707769        5.3085025992  MEMB      76              0.0000000000
      8610        76  SLPC      H14Y          -16.5331588383      -31.3692176674        4.7884940000  MEMB      76              0.0000000000
      8611        76  SLPC      C315          -14.3458537599      -30.9369688696        4.9175742533  MEMB      76              0.0000000000
      8612        76  SLPC      H15X          -13.9812762289      -31.9817463950        5.0167926147  MEMB      76              0.0000000000
      8613        76  SLPC      H15Y          -13.6273213607      -30.3623894522        5.5403832140  MEMB      76              0.0000000000
      8614        76  SLPC      C316          -14.0187627712      -30.6349042789        3.4363825790  MEMB      76              0.0000000000
      8615        76  SLPC      H16X          -14.2779674472      -29.5975804272        3.1345660902  MEMB      76              0.0000000000
      8616        76  SLPC      H16Y          -14.6345860758      -31.3365656321        2.8340919308  MEMB      76              0.0000000000
      8617        76  SLPC      C317          -12.5756462324      -30.8480665623        3.0983161077  MEMB      76              0.0000000000
      8618        76  SLPC      H17X          -12.2278496219      -31.8574796094        3.4056333314  MEMB      76              0.0000000000
      8619        76  SLPC      H17Y          -12.0041577157      -30.0908087291        3.6764877883  MEMB      76              0.0000000000
      8620        76  SLPC      C318          -12.2246033207      -30.6901044581        1.6610576840  MEMB      76              0.0000000000
      8621        76  SLPC      H18X          -11.1347921112      -30.8828109931        1.5636068586  MEMB      76              0.0000000000
      8622        76  SLPC      H18Y          -12.4465772128      -29.6747618890        1.2684660790  MEMB      76              0.0000000000
      8623        76  SLPC      H18Z          -12.7222689224      -31.4416597625        1.0115848681  MEMB      76              0.0000000000
      8624        77  SAPE      N             -35.6903436227       15.9377373388       19.4668300329  MEMB      77              0.0000000000
      8625        77  SAPE      HN1           -35.5479916001       14.9344837681       19.2326970599  MEMB      77              0.0000000000
      8626        77  SAPE      HN2           -36.5378661211       16.1043990881       20.0460788768  MEMB      77              0.0000000000
      8627        77  SAPE      HN3           -35.8923817775       16.2830026102       18.5068443538  MEMB      77              0.0000000000
      8628        77  SAPE      C12           -34.4755707249       16.5736075682       20.0417021812  MEMB      77              0.0000000000
      8629        77  SAPE      H12A          -34.4659333625       16.1707279368       21.0770359715  MEMB      77              0.0000000000
      8630        77  SAPE      H12B          -34.5418724460       17.6824266940       20.0628036660  MEMB      77              0.0000000000
      8631        77  SAPE      C11           -33.2696668294       16.0647897503       19.2950654399  MEMB      77              0.0000000000
      8632        77  SAPE      H11A          -32.9822992993       16.3349773106       18.2564415073  MEMB      77              0.0000000000
      8633        77  SAPE      H11B          -33.4427775750       14.9690519195       19.2341373900  MEMB      77              0.0000000000
      8634        77  SAPE      P             -31.2055608890       17.4285625133       20.2771350938  MEMB      77              0.0000000000
      8635        77  SAPE      O13           -31.9380500089       18.2012986207       21.3197223712  MEMB      77              0.0000000000
      8636        77  SAPE      O14           -29.7609241955       17.0368209527       20.6188908743  MEMB      77              0.0000000000
      8637        77  SAPE      O12           -32.0113462299       16.0926416266       20.0729780718  MEMB      77              0.0000000000
      8638        77  SAPE      O11           -31.3083414946       18.1630824290       18.9076759202  MEMB      77              0.0000000000
      8639        77  SAPE      C1            -32.1006517195       19.3766820202       18.8696829507  MEMB      77              0.0000000000
      8640        77  SAPE      HA            -33.1305534783       19.2327851811       19.2607291890  MEMB      77              0.0000000000
      8641        77  SAPE      HB            -31.6613967886       20.2251784924       19.4366307880  MEMB      77              0.0000000000
      8642        77  SAPE      C2            -32.3549867663       19.7290903685       17.3547270598  MEMB      77              0.0000000000
      8643        77  SAPE      HS            -33.0470331874       20.5942822134       17.4374073115  MEMB      77              0.0000000000
      8644        77  SAPE      O21           -32.7123851627       18.6391339772       16.5726238087  MEMB      77              0.0000000000
      8645        77  SAPE      C21           -34.0008774947       18.3065259083       16.7041518461  MEMB      77              0.0000000000
      8646        77  SAPE      O22           -34.8223946398       18.8857079099       17.4471998082  MEMB      77              0.0000000000
      8647        77  SAPE      C22           -34.4195949571       17.1177467609       15.8344807015  MEMB      77              0.0000000000
      8648        77  SAPE      H2R           -34.0759539331       16.1536723814       16.2666757886  MEMB      77              0.0000000000
      8649        77  SAPE      H2S           -35.5191801523       17.2094245561       15.7047556661  MEMB      77              0.0000000000
      8650        77  SAPE      C3            -31.0249949447       20.2349834397       16.7244817680  MEMB      77              0.0000000000
      8651        77  SAPE      HX            -30.2842706762       19.4107927243       16.6447432813  MEMB      77              0.0000000000
      8652        77  SAPE      HY            -30.5877704160       21.0897134115       17.2835817239  MEMB      77              0.0000000000
      8653        77  SAPE      O31           -31.2894856065       20.8040617294       15.4430082813  MEMB      77              0.0000000000
      8654        77  SAPE      C31           -30.9855437439       20.3136782569       14.2480561775  MEMB      77              0.0000000000
      8655        77  SAPE      O32           -30.5045980289       19.2019233750       14.0480063681  MEMB      77              0.0000000000
      8656        77  SAPE      C32           -31.3935409099       21.2313007510       13.0962281581  MEMB      77              0.0000000000
      8657        77  SAPE      H2X           -30.5272361932       21.9113641319       12.9501078855  MEMB      77              0.0000000000
      8658        77  SAPE      H2Y           -32.2101856518       21.9339169208       13.3677851976  MEMB      77              0.0000000000
      8659        77  SAPE      C23           -33.7630710323       17.1959215771       14.4472537781  MEMB      77              0.0000000000
      8660        77  SAPE      H3R           -32.6863812399       16.9454380595       14.5582411451  MEMB      77              0.0000000000
      8661        77  SAPE      H3S           -33.9205204861       18.2344223090       14.0852498501  MEMB      77              0.0000000000
      8662        77  SAPE      C24           -34.3833509481       16.2208717767       13.3806843611  MEMB      77              0.0000000000
      8663        77  SAPE      H4R           -33.9650266304       15.2174721851       13.6098463887  MEMB      77              0.0000000000
      8664        77  SAPE      H4S           -33.9374445148       16.4687712969       12.3937523438  MEMB      77              0.0000000000
      8665        77  SAPE      C25           -35.9279333327       16.3446981801       13.3327060691  MEMB      77              0.0000000000
      8666        77  SAPE      H5R           -36.5080165534       16.0579788393       14.2222539473  MEMB      77              0.0000000000
      8667        77  SAPE      C26           -36.7655838199       16.6548588656       12.2729696886  MEMB      77              0.0000000000
      8668        77  SAPE      H6R           -37.8521595900       16.6368020637       12.4433408573  MEMB      77              0.0000000000
      8669        77  SAPE      C27           -36.2849468605       17.0095987255       10.8555023804  MEMB      77              0.0000000000
      8670        77  SAPE      H7R           -35.1769698732       17.0912965827       10.8496895708  MEMB      77              0.0000000000
      8671        77  SAPE      H7S           -36.7664309851       17.9722506425       10.5801930917  MEMB      77              0.0000000000
      8672        77  SAPE      C28           -36.6702637172       15.9185637908        9.8624363253  MEMB      77              0.0000000000
      8673        77  SAPE      H8R           -37.0656940297       15.0212489464       10.3608949298  MEMB      77              0.0000000000
      8674        77  SAPE      C29           -36.2230965679       15.8673422334        8.5698314261  MEMB      77              0.0000000000
      8675        77  SAPE      H9R           -36.5055704533       15.0631376658        7.8745156752  MEMB      77              0.0000000000
      8676        77  SAPE      C210          -35.2921272524       16.8632232555        7.8912771660  MEMB      77              0.0000000000
      8677        77  SAPE      H10R          -34.8102396946       17.6052495186        8.5632161019  MEMB      77              0.0000000000
      8678        77  SAPE      H10S          -35.9506594579       17.4122499921        7.1847173245  MEMB      77              0.0000000000
      8679        77  SAPE      C211          -34.0497864573       16.2232128372        7.1461798141  MEMB      77              0.0000000000
      8680        77  SAPE      H11R          -33.7583829241       15.1843408577        7.3602573249  MEMB      77              0.0000000000
      8681        77  SAPE      C212          -33.3019213506       16.9156224416        6.2237051980  MEMB      77              0.0000000000
      8682        77  SAPE      H12R          -32.5661049414       16.3250448832        5.6582029713  MEMB      77              0.0000000000
      8683        77  SAPE      C213          -33.4535587431       18.3471690656        5.7287499438  MEMB      77              0.0000000000
      8684        77  SAPE      H13R          -32.4223569643       18.6165470629        5.4150949146  MEMB      77              0.0000000000
      8685        77  SAPE      H13S          -33.5372445523       18.9098541381        6.6830582362  MEMB      77              0.0000000000
      8686        77  SAPE      C214          -34.4633077613       18.7965054151        4.7102160246  MEMB      77              0.0000000000
      8687        77  SAPE      H14R          -34.8192991813       19.8305038677        4.8290330520  MEMB      77              0.0000000000
      8688        77  SAPE      C215          -35.0413770542       18.0990296185        3.7200576139  MEMB      77              0.0000000000
      8689        77  SAPE      H15R          -35.8418205724       18.5775057462        3.1366616765  MEMB      77              0.0000000000
      8690        77  SAPE      C216          -34.7977941596       16.6508713352        3.2926352885  MEMB      77              0.0000000000
      8691        77  SAPE      H16R          -35.5536855573       16.4287539889        2.5093007632  MEMB      77              0.0000000000
      8692        77  SAPE      H16S          -34.9807387653       15.9844899008        4.1625710999  MEMB      77              0.0000000000
      8693        77  SAPE      C217          -33.3621523328       16.4818181099        2.8316535931  MEMB      77              0.0000000000
      8694        77  SAPE      H17R          -32.5657313047       16.7572092054        3.5556671390  MEMB      77              0.0000000000
      8695        77  SAPE      H17S          -33.1847874150       17.1593037056        1.9691714590  MEMB      77              0.0000000000
      8696        77  SAPE      C218          -33.0137935155       14.9929232001        2.5683850850  MEMB      77              0.0000000000
      8697        77  SAPE      H18R          -33.8651954059       14.5925163532        1.9775296007  MEMB      77              0.0000000000
      8698        77  SAPE      H18S          -33.0901492489       14.5009659003        3.5615964161  MEMB      77              0.0000000000
      8699        77  SAPE      C219          -31.6418575229       14.7865889585        1.9508276813  MEMB      77              0.0000000000
      8700        77  SAPE      H19R          -31.2704064392       13.7760256477        2.2248832022  MEMB      77              0.0000000000
      8701        77  SAPE      H19S          -30.9803456861       15.4835528320        2.5084702031  MEMB      77              0.0000000000
      8702        77  SAPE      C220          -31.6098647815       14.9841748216        0.5023236963  MEMB      77              0.0000000000
      8703        77  SAPE      H20R          -30.5653065237       14.9471294052        0.1256975914  MEMB      77              0.0000000000
      8704        77  SAPE      H20S          -32.0332691668       15.9428451133        0.1335403268  MEMB      77              0.0000000000
      8705        77  SAPE      H20T          -32.1331608384       14.1652953385       -0.0361168827  MEMB      77              0.0000000000
      8706        77  SAPE      C33           -31.8172558398       20.3252069627       11.8869756581  MEMB      77              0.0000000000
      8707        77  SAPE      H3X           -32.6612973684       19.7250430584       12.2891181107  MEMB      77              0.0000000000
      8708        77  SAPE      H3Y           -30.9962502579       19.6305656137       11.6081495033  MEMB      77              0.0000000000
      8709        77  SAPE      C34           -32.4770332369       20.9478964443       10.6066598610  MEMB      77              0.0000000000
      8710        77  SAPE      H4X           -33.1757937996       21.6968363141       11.0369434527  MEMB      77              0.0000000000
      8711        77  SAPE      H4Y           -33.0328394444       20.1884802331       10.0161622520  MEMB      77              0.0000000000
      8712        77  SAPE      C35           -31.5007996994       21.6676888857        9.7325624661  MEMB      77              0.0000000000
      8713        77  SAPE      H5X           -30.7665929725       22.2980708571       10.2783459037  MEMB      77              0.0000000000
      8714        77  SAPE      H5Y           -31.9547544582       22.3522652465        8.9844969168  MEMB      77              0.0000000000
      8715        77  SAPE      C36           -30.7237712216       20.8546934203        8.7326670591  MEMB      77              0.0000000000
      8716        77  SAPE      H6X           -31.4353243598       20.0801408836        8.3747820052  MEMB      77              0.0000000000
      8717        77  SAPE      H6Y           -29.8539091410       20.3098603033        9.1578939791  MEMB      77              0.0000000000
      8718        77  SAPE      C37           -30.4187351150       21.7085585715        7.4568967213  MEMB      77              0.0000000000
      8719        77  SAPE      H7X           -29.9214173756       22.6799597377        7.6651647929  MEMB      77              0.0000000000
      8720        77  SAPE      H7Y           -31.4284582985       21.9167976586        7.0428714180  MEMB      77              0.0000000000
      8721        77  SAPE      C38           -29.5436915440       20.8735756082        6.4685276058  MEMB      77              0.0000000000
      8722        77  SAPE      H8X           -30.0808941373       19.9030138244        6.4073376870  MEMB      77              0.0000000000
      8723        77  SAPE      H8Y           -28.5080550913       20.8049353938        6.8648439061  MEMB      77              0.0000000000
      8724        77  SAPE      C39           -29.5844376480       21.2745854947        5.0104859688  MEMB      77              0.0000000000
      8725        77  SAPE      H9X           -29.3640527214       22.3122557062        4.6803466897  MEMB      77              0.0000000000
      8726        77  SAPE      H9Y           -30.6400017202       21.0735133732        4.7282168485  MEMB      77              0.0000000000
      8727        77  SAPE      C310          -28.6846750843       20.3309566548        4.1000486482  MEMB      77              0.0000000000
      8728        77  SAPE      H10X          -28.9581950280       19.3224533299        4.4774446490  MEMB      77              0.0000000000
      8729        77  SAPE      H10Y          -27.6263258152       20.5071323126        4.3884569477  MEMB      77              0.0000000000
      8730        77  SAPE      C311          -29.1763424292       20.6354035233        2.6549355635  MEMB      77              0.0000000000
      8731        77  SAPE      H11X          -29.1538208040       21.7356355705        2.5022824124  MEMB      77              0.0000000000
      8732        77  SAPE      H11Y          -30.1980845282       20.2112993266        2.5524680891  MEMB      77              0.0000000000
      8733        77  SAPE      C312          -28.3340258492       19.8372747844        1.4952131970  MEMB      77              0.0000000000
      8734        77  SAPE      H12X          -28.5508200403       18.7584649911        1.6484802148  MEMB      77              0.0000000000
      8735        77  SAPE      H12Y          -27.2501076237       19.9361060840        1.7180924332  MEMB      77              0.0000000000
      8736        77  SAPE      C313          -28.4975795265       20.3660543461        0.1129768197  MEMB      77              0.0000000000
      8737        77  SAPE      H13X          -27.9648082403       19.7879706064       -0.6720667050  MEMB      77              0.0000000000
      8738        77  SAPE      H13Y          -28.1335516753       21.4154181501        0.0876718543  MEMB      77              0.0000000000
      8739        77  SAPE      C314          -29.9741079923       20.3485974987       -0.3613994746  MEMB      77              0.0000000000
      8740        77  SAPE      H14X          -30.0268550578       20.9287261088       -1.3074387238  MEMB      77              0.0000000000
      8741        77  SAPE      H14Y          -30.5717712535       20.8327800492        0.4402780920  MEMB      77              0.0000000000
      8742        77  SAPE      C315          -30.5045012936       18.8980167253       -0.6634735426  MEMB      77              0.0000000000
      8743        77  SAPE      H15X          -30.6239028058       18.4090307716        0.3269580481  MEMB      77              0.0000000000
      8744        77  SAPE      H15Y          -29.8596652189       18.3516233176       -1.3845583036  MEMB      77              0.0000000000
      8745        77  SAPE      C316          -31.8770183649       18.8358126997       -1.2953276455  MEMB      77              0.0000000000
      8746        77  SAPE      H16X          -32.1370427625       17.7593183511       -1.3840321389  MEMB      77              0.0000000000
      8747        77  SAPE      H16Y          -31.8901595443       19.2584620194       -2.3227101958  MEMB      77              0.0000000000
      8748        77  SAPE      C317          -32.9809180135       19.4507470251       -0.3977490475  MEMB      77              0.0000000000
      8749        77  SAPE      H17X          -32.5455434828       20.4211645268       -0.0767192276  MEMB      77              0.0000000000
      8750        77  SAPE      H17Y          -33.1727058680       18.8821820625        0.5372751654  MEMB      77              0.0000000000
      8751        77  SAPE      C318          -34.2840684076       19.4641438861       -1.1539477535  MEMB      77              0.0000000000
      8752        77  SAPE      H18X          -34.8352408176       18.5046337937       -1.2532975690  MEMB      77              0.0000000000
      8753        77  SAPE      H18Y          -33.8955826356       19.7865237038       -2.1436312305  MEMB      77              0.0000000000
      8754        77  SAPE      H18Z          -34.9776958187       20.2369500445       -0.7590143578  MEMB      77              0.0000000000
      8755        78  SAPS      N             -35.9725119640      -14.7416026380       20.0992822962  MEMB      78              0.0000000000
      8756        78  SAPS      HN1           -35.4399108711      -15.5938731839       20.3668097844  MEMB      78              0.0000000000
      8757        78  SAPS      HN2           -37.0084395513      -14.8068517736       20.1640636043  MEMB      78              0.0000000000
      8758        78  SAPS      HN3           -35.8989363133      -14.7121024101       19.0623077109  MEMB      78              0.0000000000
      8759        78  SAPS      C12           -35.4835742568      -13.4576710644       20.7699106624  MEMB      78              0.0000000000
      8760        78  SAPS      H12A          -36.2412145195      -12.7714500768       20.4213679883  MEMB      78              0.0000000000
      8761        78  SAPS      C13           -35.4281850145      -13.6026764186       22.2942171183  MEMB      78              0.0000000000
      8762        78  SAPS      O13A          -35.6141749218      -14.7249640117       22.8718492252  MEMB      78              0.0000000000
      8763        78  SAPS      O13B          -35.5083674047      -12.5810940576       23.0054278659  MEMB      78              0.0000000000
      8764        78  SAPS      C11           -34.0564247635      -13.0024776985       20.2813863573  MEMB      78              0.0000000000
      8765        78  SAPS      H11A          -33.2674502232      -13.6785357338       20.6748145051  MEMB      78              0.0000000000
      8766        78  SAPS      H11B          -33.9766814814      -11.9839946587       20.7180262255  MEMB      78              0.0000000000
      8767        78  SAPS      P             -32.8135541999      -12.0819206147       18.1479394886  MEMB      78              0.0000000000
      8768        78  SAPS      O13           -33.1764077906      -10.6724862500       18.3776918088  MEMB      78              0.0000000000
      8769        78  SAPS      O14           -31.5135236813      -12.6183580510       18.6244681375  MEMB      78              0.0000000000
      8770        78  SAPS      O12           -33.8936827434      -12.9687762966       18.9073980852  MEMB      78              0.0000000000
      8771        78  SAPS      O11           -33.1293991571      -12.3218722919       16.6204289570  MEMB      78              0.0000000000
      8772        78  SAPS      C1            -32.8115060673      -13.6052336159       15.9828706104  MEMB      78              0.0000000000
      8773        78  SAPS      HA            -31.7477278141      -13.9073936488       16.0896224818  MEMB      78              0.0000000000
      8774        78  SAPS      HB            -33.3815874154      -14.5031528907       16.3039145291  MEMB      78              0.0000000000
      8775        78  SAPS      C2            -33.2581883275      -13.4902792939       14.4913221183  MEMB      78              0.0000000000
      8776        78  SAPS      HS            -32.7283049985      -14.2728528750       13.9072642749  MEMB      78              0.0000000000
      8777        78  SAPS      O21           -32.8976324522      -12.1635251998       13.9345024242  MEMB      78              0.0000000000
      8778        78  SAPS      C21           -31.5126737456      -12.2585541378       13.6069641917  MEMB      78              0.0000000000
      8779        78  SAPS      O22           -30.7771092847      -13.1564576370       13.9458820453  MEMB      78              0.0000000000
      8780        78  SAPS      C22           -31.0680450081      -11.1200713533       12.6390268750  MEMB      78              0.0000000000
      8781        78  SAPS      H2R           -31.9297499289      -10.9065367323       11.9710533554  MEMB      78              0.0000000000
      8782        78  SAPS      H2S           -30.9652313104      -10.2395720949       13.3087065736  MEMB      78              0.0000000000
      8783        78  SAPS      C3            -34.8077747851      -13.6244429308       14.2669134197  MEMB      78              0.0000000000
      8784        78  SAPS      HX            -35.3056034139      -12.8283216681       14.8607807512  MEMB      78              0.0000000000
      8785        78  SAPS      HY            -34.9691705532      -14.6387648966       14.6904972608  MEMB      78              0.0000000000
      8786        78  SAPS      O31           -35.1644784518      -13.6816984186       12.9320435200  MEMB      78              0.0000000000
      8787        78  SAPS      C31           -36.4473051838      -13.7631123185       12.6432736733  MEMB      78              0.0000000000
      8788        78  SAPS      O32           -37.3235494617      -13.9546698957       13.4706527795  MEMB      78              0.0000000000
      8789        78  SAPS      C32           -36.6179078568      -13.5811682477       11.1456834439  MEMB      78              0.0000000000
      8790        78  SAPS      H2X           -37.6398098036      -13.9064806000       10.8554951628  MEMB      78              0.0000000000
      8791        78  SAPS      H2Y           -35.8842412293      -14.2101025877       10.5975085042  MEMB      78              0.0000000000
      8792        78  SAPS      C23           -29.8169893287      -11.5175002923       11.8938790380  MEMB      78              0.0000000000
      8793        78  SAPS      H3R           -29.1137649105      -12.0897475360       12.5360079686  MEMB      78              0.0000000000
      8794        78  SAPS      H3S           -29.3614618298      -10.5779406796       11.5143484159  MEMB      78              0.0000000000
      8795        78  SAPS      C24           -30.0347261325      -12.4841518804       10.7060487902  MEMB      78              0.0000000000
      8796        78  SAPS      H4R           -30.4773294446      -13.4360077419       11.0699088361  MEMB      78              0.0000000000
      8797        78  SAPS      H4S           -29.0527451800      -12.6594690890       10.2168668548  MEMB      78              0.0000000000
      8798        78  SAPS      C25           -30.8845066584      -12.0104018370        9.5844035851  MEMB      78              0.0000000000
      8799        78  SAPS      H5R           -30.4091150665      -11.1436798329        9.1019142006  MEMB      78              0.0000000000
      8800        78  SAPS      C26           -32.0853639435      -12.3804962503        9.1494862974  MEMB      78              0.0000000000
      8801        78  SAPS      H6R           -32.5916480500      -11.9465984162        8.2746099814  MEMB      78              0.0000000000
      8802        78  SAPS      C27           -32.9531489022      -13.4638735816        9.7395855373  MEMB      78              0.0000000000
      8803        78  SAPS      H7R           -33.9767714699      -13.1127090715        9.4881867438  MEMB      78              0.0000000000
      8804        78  SAPS      H7S           -32.8653095343      -13.5791443650       10.8410926764  MEMB      78              0.0000000000
      8805        78  SAPS      C28           -32.5512473789      -14.8062402203        9.1373897281  MEMB      78              0.0000000000
      8806        78  SAPS      H8R           -31.6159856166      -15.2252512602        9.5370338876  MEMB      78              0.0000000000
      8807        78  SAPS      C29           -33.2843106226      -15.5962720944        8.3097129122  MEMB      78              0.0000000000
      8808        78  SAPS      H9R           -32.7445708437      -16.5176239620        8.0455329755  MEMB      78              0.0000000000
      8809        78  SAPS      C210          -34.6840078397      -15.3312167565        7.7856268162  MEMB      78              0.0000000000
      8810        78  SAPS      H10R          -35.1000574205      -14.4670874151        8.3464344830  MEMB      78              0.0000000000
      8811        78  SAPS      H10S          -35.4059900808      -16.1755838484        7.7959712677  MEMB      78              0.0000000000
      8812        78  SAPS      C211          -34.6619694634      -14.9399940969        6.2690792453  MEMB      78              0.0000000000
      8813        78  SAPS      H11R          -34.9991696006      -13.9226131208        6.0216282421  MEMB      78              0.0000000000
      8814        78  SAPS      C212          -34.3397498081      -15.6686410653        5.1819777362  MEMB      78              0.0000000000
      8815        78  SAPS      H12R          -34.5668814577      -15.1703139218        4.2279960772  MEMB      78              0.0000000000
      8816        78  SAPS      C213          -33.8972959558      -17.1275307142        5.3228532332  MEMB      78              0.0000000000
      8817        78  SAPS      H13R          -34.7601503145      -17.6460933904        4.8528563979  MEMB      78              0.0000000000
      8818        78  SAPS      H13S          -33.7458907922      -17.4844604833        6.3640054552  MEMB      78              0.0000000000
      8819        78  SAPS      C214          -32.6049886975      -17.3802547835        4.5272203287  MEMB      78              0.0000000000
      8820        78  SAPS      H14R          -31.7431104813      -17.3325350591        5.2090478037  MEMB      78              0.0000000000
      8821        78  SAPS      C215          -32.5115068536      -17.6444637525        3.2102414024  MEMB      78              0.0000000000
      8822        78  SAPS      H15R          -31.6190926509      -18.0815115667        2.7384519567  MEMB      78              0.0000000000
      8823        78  SAPS      C216          -33.7061506227      -17.7626754141        2.3139870845  MEMB      78              0.0000000000
      8824        78  SAPS      H16R          -34.6622350951      -17.5285769946        2.8291785711  MEMB      78              0.0000000000
      8825        78  SAPS      H16S          -33.8005705948      -18.8062777920        1.9447992721  MEMB      78              0.0000000000
      8826        78  SAPS      C217          -33.5419605391      -16.8199585044        1.0502892840  MEMB      78              0.0000000000
      8827        78  SAPS      H17R          -34.4513182452      -17.0278703379        0.4468317004  MEMB      78              0.0000000000
      8828        78  SAPS      H17S          -32.6694585698      -17.2489504253        0.5126786843  MEMB      78              0.0000000000
      8829        78  SAPS      C218          -33.3528262622      -15.2998135119        1.3166386987  MEMB      78              0.0000000000
      8830        78  SAPS      H18R          -32.5798367994      -14.9403212388        0.6041968955  MEMB      78              0.0000000000
      8831        78  SAPS      H18S          -33.0139997128      -15.0814429197        2.3519318683  MEMB      78              0.0000000000
      8832        78  SAPS      C219          -34.5568215336      -14.4748941018        1.0522065867  MEMB      78              0.0000000000
      8833        78  SAPS      H19R          -34.4712108685      -13.3700109035        1.1311057495  MEMB      78              0.0000000000
      8834        78  SAPS      H19S          -35.3857739442      -14.6981421935        1.7574158431  MEMB      78              0.0000000000
      8835        78  SAPS      C220          -35.0229985979      -14.6203185425       -0.4016417370  MEMB      78              0.0000000000
      8836        78  SAPS      H20R          -34.6148049892      -15.4845994428       -0.9679622045  MEMB      78              0.0000000000
      8837        78  SAPS      H20S          -34.8651338137      -13.6278599862       -0.8753780513  MEMB      78              0.0000000000
      8838        78  SAPS      H20T          -36.1238181238      -14.7308791102       -0.3001904116  MEMB      78              0.0000000000
      8839        78  SAPS      C33           -36.6196408502      -12.1148289906       10.7255622019  MEMB      78              0.0000000000
      8840        78  SAPS      H3X           -35.6458682022      -11.6264640554       10.9437082739  MEMB      78              0.0000000000
      8841        78  SAPS      H3Y           -37.3704208508      -11.5620954845       11.3298275031  MEMB      78              0.0000000000
      8842        78  SAPS      C34           -37.0217944969      -11.9917911008        9.2640093955  MEMB      78              0.0000000000
      8843        78  SAPS      H4X           -38.0955173954      -12.2755608260        9.2942684833  MEMB      78              0.0000000000
      8844        78  SAPS      H4Y           -36.5339110041      -12.7243936047        8.5860835231  MEMB      78              0.0000000000
      8845        78  SAPS      C35           -36.9305193824      -10.6459137670        8.6826990613  MEMB      78              0.0000000000
      8846        78  SAPS      H5X           -37.4402074781       -9.8387373977        9.2510334989  MEMB      78              0.0000000000
      8847        78  SAPS      H5Y           -37.5466151337      -10.6866887283        7.7590734790  MEMB      78              0.0000000000
      8848        78  SAPS      C36           -35.5277290682      -10.1232735900        8.3242581515  MEMB      78              0.0000000000
      8849        78  SAPS      H6X           -34.8136669732      -10.0185353939        9.1689277092  MEMB      78              0.0000000000
      8850        78  SAPS      H6Y           -35.7133528433       -9.0702095971        8.0227274926  MEMB      78              0.0000000000
      8851        78  SAPS      C37           -34.8644205158      -10.9281717101        7.1590870306  MEMB      78              0.0000000000
      8852        78  SAPS      H7X           -35.6328208413      -11.2205829149        6.4118400970  MEMB      78              0.0000000000
      8853        78  SAPS      H7Y           -34.5470880325      -11.9295701656        7.5207809935  MEMB      78              0.0000000000
      8854        78  SAPS      C38           -33.6908225732      -10.1560359906        6.4424665197  MEMB      78              0.0000000000
      8855        78  SAPS      H8X           -32.9445910514       -9.8103445421        7.1894316001  MEMB      78              0.0000000000
      8856        78  SAPS      H8Y           -34.0992860452       -9.2411180973        5.9624624282  MEMB      78              0.0000000000
      8857        78  SAPS      C39           -32.9647198015      -11.1098342069        5.4286385227  MEMB      78              0.0000000000
      8858        78  SAPS      H9X           -33.7365074648      -11.5812857300        4.7833490734  MEMB      78              0.0000000000
      8859        78  SAPS      H9Y           -32.5816901309      -12.0253330196        5.9281096328  MEMB      78              0.0000000000
      8860        78  SAPS      C310          -31.9001711091      -10.4990928585        4.5920919703  MEMB      78              0.0000000000
      8861        78  SAPS      H10X          -31.2872901714       -9.8480236657        5.2514911341  MEMB      78              0.0000000000
      8862        78  SAPS      H10Y          -32.4371239375       -9.8765573716        3.8447954829  MEMB      78              0.0000000000
      8863        78  SAPS      C311          -31.0474995129      -11.5865944602        3.9619363664  MEMB      78              0.0000000000
      8864        78  SAPS      H11X          -31.7934724278      -12.2050226612        3.4184368014  MEMB      78              0.0000000000
      8865        78  SAPS      H11Y          -30.4362849334      -12.1776062340        4.6770889311  MEMB      78              0.0000000000
      8866        78  SAPS      C312          -30.2761530765      -10.9728497894        2.8117441000  MEMB      78              0.0000000000
      8867        78  SAPS      H12X          -29.5396589595      -10.1877817804        3.0866362495  MEMB      78              0.0000000000
      8868        78  SAPS      H12Y          -30.9317219736      -10.3413855870        2.1747166737  MEMB      78              0.0000000000
      8869        78  SAPS      C313          -29.5873298282      -12.0908549899        2.0390527401  MEMB      78              0.0000000000
      8870        78  SAPS      H13X          -30.3215537574      -12.8992904052        1.8349242465  MEMB      78              0.0000000000
      8871        78  SAPS      H13Y          -28.7773731096      -12.4447790430        2.7121257053  MEMB      78              0.0000000000
      8872        78  SAPS      C314          -28.9786387809      -11.6234391188        0.6519955452  MEMB      78              0.0000000000
      8873        78  SAPS      H14X          -28.3015310992      -12.4211529809        0.2785000785  MEMB      78              0.0000000000
      8874        78  SAPS      H14Y          -28.4478654846      -10.6760964798        0.8868203225  MEMB      78              0.0000000000
      8875        78  SAPS      C315          -29.8822901459      -11.2553381886       -0.4472562143  MEMB      78              0.0000000000
      8876        78  SAPS      H15X          -29.4192873186      -10.8436409391       -1.3694575801  MEMB      78              0.0000000000
      8877        78  SAPS      H15Y          -30.6010601819      -10.4497852456       -0.1850084870  MEMB      78              0.0000000000
      8878        78  SAPS      C316          -30.7147910674      -12.4857739033       -1.0221848822  MEMB      78              0.0000000000
      8879        78  SAPS      H16X          -31.1286236179      -13.0277107768       -0.1450495999  MEMB      78              0.0000000000
      8880        78  SAPS      H16Y          -29.9871159266      -13.0806051251       -1.6146251033  MEMB      78              0.0000000000
      8881        78  SAPS      C317          -31.7869189361      -12.0540213845       -2.1019534489  MEMB      78              0.0000000000
      8882        78  SAPS      H17X          -31.3699323123      -11.3722988756       -2.8737680098  MEMB      78              0.0000000000
      8883        78  SAPS      H17Y          -32.5838684075      -11.4876112843       -1.5743425396  MEMB      78              0.0000000000
      8884        78  SAPS      C318          -32.2462500104      -13.3222605586       -2.7733924597  MEMB      78              0.0000000000
      8885        78  SAPS      H18X          -32.2846746598      -14.2741462698       -2.2017644826  MEMB      78              0.0000000000
      8886        78  SAPS      H18Y          -31.5610277123      -13.6029731171       -3.6016380910  MEMB      78              0.0000000000
      8887        78  SAPS      H18Z          -33.2094093158      -12.9921340613       -3.2179830781  MEMB      78              0.0000000000
      8888        79  SAPS      N              35.3522624462       13.9985799950       19.0516059854  MEMB      79              0.0000000000
      8889        79  SAPS      HN1            35.0797659302       13.0535619547       19.3896689935  MEMB      79              0.0000000000
      8890        79  SAPS      HN2            34.8114728778       14.2148258992       18.1899887643  MEMB      79              0.0000000000
      8891        79  SAPS      HN3            36.3625022623       14.0018109170       18.8046136879  MEMB      79              0.0000000000
      8892        79  SAPS      C12            34.9861897205       14.9004050505       20.1484370013  MEMB      79              0.0000000000
      8893        79  SAPS      H12A           35.5969608745       14.6069810981       20.9894251103  MEMB      79              0.0000000000
      8894        79  SAPS      C13            35.3893137265       16.3610375169       19.8239002358  MEMB      79              0.0000000000
      8895        79  SAPS      O13A           35.9349668579       16.6633045187       18.7426201686  MEMB      79              0.0000000000
      8896        79  SAPS      O13B           35.2438943754       17.1126139701       20.8156129821  MEMB      79              0.0000000000
      8897        79  SAPS      C11            33.4079785090       14.8441429829       20.4432196017  MEMB      79              0.0000000000
      8898        79  SAPS      H11A           32.8553424759       15.0747155162       19.5074040630  MEMB      79              0.0000000000
      8899        79  SAPS      H11B           33.0169148488       15.5497988764       21.2070520922  MEMB      79              0.0000000000
      8900        79  SAPS      P              32.2215328629       12.4225746651       20.1661360263  MEMB      79              0.0000000000
      8901        79  SAPS      O13            32.7294203622       12.2090366350       18.8019319146  MEMB      79              0.0000000000
      8902        79  SAPS      O14            32.0428590291       11.2730647446       21.0813434289  MEMB      79              0.0000000000
      8903        79  SAPS      O12            33.0337043007       13.5623820995       20.8960452482  MEMB      79              0.0000000000
      8904        79  SAPS      O11            30.8328523170       13.1505024714       20.0291474160  MEMB      79              0.0000000000
      8905        79  SAPS      C1             29.6571265969       12.2616325661       19.8313125736  MEMB      79              0.0000000000
      8906        79  SAPS      HA             29.9593825691       11.1964384524       19.7400773504  MEMB      79              0.0000000000
      8907        79  SAPS      HB             29.0084205929       12.3254551492       20.7309947368  MEMB      79              0.0000000000
      8908        79  SAPS      C2             28.9882089337       12.3623076322       18.5048594748  MEMB      79              0.0000000000
      8909        79  SAPS      HS             28.0212721588       11.8303728499       18.6329195405  MEMB      79              0.0000000000
      8910        79  SAPS      O21            29.6826331710       11.6185044686       17.4560310736  MEMB      79              0.0000000000
      8911        79  SAPS      C21            29.0235480261       11.4000475335       16.2606295985  MEMB      79              0.0000000000
      8912        79  SAPS      O22            27.8271411300       11.5982985266       16.0943593401  MEMB      79              0.0000000000
      8913        79  SAPS      C22            30.0728217098       11.1786908783       15.1923344598  MEMB      79              0.0000000000
      8914        79  SAPS      H2R            30.6305352887       12.1090113601       14.9519588797  MEMB      79              0.0000000000
      8915        79  SAPS      H2S            30.8173008179       10.4425922112       15.5641282343  MEMB      79              0.0000000000
      8916        79  SAPS      C3             28.9044018588       13.8364798448       18.1174960145  MEMB      79              0.0000000000
      8917        79  SAPS      HX             28.5436186078       14.3909196684       19.0101061091  MEMB      79              0.0000000000
      8918        79  SAPS      HY             28.0517169841       13.9106109800       17.4091499316  MEMB      79              0.0000000000
      8919        79  SAPS      O31            30.0814786679       14.3169132490       17.3837941261  MEMB      79              0.0000000000
      8920        79  SAPS      C31            30.4547563988       15.5448348014       17.5664311523  MEMB      79              0.0000000000
      8921        79  SAPS      O32            29.8244205089       16.3952816218       18.1502016412  MEMB      79              0.0000000000
      8922        79  SAPS      C32            31.8719340285       15.6927619440       16.8237174483  MEMB      79              0.0000000000
      8923        79  SAPS      H2X            32.5294472978       14.8287057987       17.0590982102  MEMB      79              0.0000000000
      8924        79  SAPS      H2Y            32.3430370913       16.6589293911       17.1046144923  MEMB      79              0.0000000000
      8925        79  SAPS      C23            29.4556992158       10.4816590117       13.9860596065  MEMB      79              0.0000000000
      8926        79  SAPS      H3R            28.5530136136       11.0559933530       13.6866935964  MEMB      79              0.0000000000
      8927        79  SAPS      H3S            28.9497006945        9.5168995421       14.2040623673  MEMB      79              0.0000000000
      8928        79  SAPS      C24            30.4956456170       10.2636273320       12.7877907506  MEMB      79              0.0000000000
      8929        79  SAPS      H4R            31.2744504436        9.5521470367       13.1364737116  MEMB      79              0.0000000000
      8930        79  SAPS      H4S            30.8521441668       11.2706516027       12.4826154526  MEMB      79              0.0000000000
      8931        79  SAPS      C25            29.7734284563        9.5726913857       11.7022015118  MEMB      79              0.0000000000
      8932        79  SAPS      H5R            29.6134774149        8.5058470072       11.9172792167  MEMB      79              0.0000000000
      8933        79  SAPS      C26            29.2544949987       10.0672210751       10.5467306372  MEMB      79              0.0000000000
      8934        79  SAPS      H6R            28.6523836216        9.4073981454        9.9047830066  MEMB      79              0.0000000000
      8935        79  SAPS      C27            29.3226613041       11.4885979826        9.9867842760  MEMB      79              0.0000000000
      8936        79  SAPS      H7R            29.7296546316       11.3982462596        8.9569718771  MEMB      79              0.0000000000
      8937        79  SAPS      H7S            29.9768824186       12.1339983432       10.6111037965  MEMB      79              0.0000000000
      8938        79  SAPS      C28            27.9813883139       12.1710313761       10.0739401980  MEMB      79              0.0000000000
      8939        79  SAPS      H8R            27.8038287652       12.8037988060       10.9560272822  MEMB      79              0.0000000000
      8940        79  SAPS      C29            27.0709101858       12.2011990153        9.0398643072  MEMB      79              0.0000000000
      8941        79  SAPS      H9R            26.1649849055       12.8176120111        9.1364808360  MEMB      79              0.0000000000
      8942        79  SAPS      C210           27.3178306493       11.5165465836        7.6995955053  MEMB      79              0.0000000000
      8943        79  SAPS      H10R           26.7499048489       10.5620772863        7.6718617975  MEMB      79              0.0000000000
      8944        79  SAPS      H10S           28.3831655963       11.2434386884        7.5421340967  MEMB      79              0.0000000000
      8945        79  SAPS      C211           26.9981369063       12.2203024071        6.4027047770  MEMB      79              0.0000000000
      8946        79  SAPS      H11R           25.9163313099       12.4010411103        6.3188600977  MEMB      79              0.0000000000
      8947        79  SAPS      C212           27.7425745810       12.3705155414        5.2987389584  MEMB      79              0.0000000000
      8948        79  SAPS      H12R           27.2276429172       12.9265052771        4.5014180682  MEMB      79              0.0000000000
      8949        79  SAPS      C213           29.1520811295       11.9476808201        4.9235746201  MEMB      79              0.0000000000
      8950        79  SAPS      H13R           29.9410077954       11.9491328840        5.7058242978  MEMB      79              0.0000000000
      8951        79  SAPS      H13S           29.5685691785       12.6278265408        4.1501023505  MEMB      79              0.0000000000
      8952        79  SAPS      C214           29.2544401665       10.4906315941        4.4843163359  MEMB      79              0.0000000000
      8953        79  SAPS      H14R           28.9044132930        9.7087533839        5.1743514248  MEMB      79              0.0000000000
      8954        79  SAPS      C215           29.7713543787        9.9660680056        3.3596712922  MEMB      79              0.0000000000
      8955        79  SAPS      H15R           29.8836642585        8.8721276076        3.3335833180  MEMB      79              0.0000000000
      8956        79  SAPS      C216           30.3878600662       10.7327240242        2.2652327193  MEMB      79              0.0000000000
      8957        79  SAPS      H16R           31.3349180058       10.3122315980        1.8644968246  MEMB      79              0.0000000000
      8958        79  SAPS      H16S           30.6621310409       11.7485606164        2.6218440093  MEMB      79              0.0000000000
      8959        79  SAPS      C217           29.4556174376       10.8978697157        1.0291845636  MEMB      79              0.0000000000
      8960        79  SAPS      H17R           29.9031217421       11.6771964647        0.3759532275  MEMB      79              0.0000000000
      8961        79  SAPS      H17S           28.4550020430       11.2706747703        1.3359524441  MEMB      79              0.0000000000
      8962        79  SAPS      C218           29.2413658928        9.5528133466        0.2414117415  MEMB      79              0.0000000000
      8963        79  SAPS      H18R           28.8692262439        8.7734319819        0.9402657396  MEMB      79              0.0000000000
      8964        79  SAPS      H18S           30.1405209872        9.2138065008       -0.3161859278  MEMB      79              0.0000000000
      8965        79  SAPS      C219           28.1373359660        9.6880397696       -0.8275730970  MEMB      79              0.0000000000
      8966        79  SAPS      H19R           27.1643202970       10.0313599663       -0.4156349231  MEMB      79              0.0000000000
      8967        79  SAPS      H19S           27.9203591401        8.6690723998       -1.2135105638  MEMB      79              0.0000000000
      8968        79  SAPS      C220           28.4687638494       10.4424393321       -2.1019563971  MEMB      79              0.0000000000
      8969        79  SAPS      H20R           27.6772054502       10.6934138564       -2.8400409777  MEMB      79              0.0000000000
      8970        79  SAPS      H20S           29.2552054789        9.8965124176       -2.6656905182  MEMB      79              0.0000000000
      8971        79  SAPS      H20T           28.9565225700       11.4098419054       -1.8558991793  MEMB      79              0.0000000000
      8972        79  SAPS      C33            31.9608567936       15.6272336735       15.2355557488  MEMB      79              0.0000000000
      8973        79  SAPS      H3X            31.3363942315       16.4076980768       14.7505372880  MEMB      79              0.0000000000
      8974        79  SAPS      H3Y            31.5339748907       14.6310636045       14.9911429593  MEMB      79              0.0000000000
      8975        79  SAPS      C34            33.3867648151       15.7457513351       14.7105900262  MEMB      79              0.0000000000
      8976        79  SAPS      H4X            34.1657494179       15.1790652543       15.2640982073  MEMB      79              0.0000000000
      8977        79  SAPS      H4Y            33.7409270303       16.7962805416       14.7832434175  MEMB      79              0.0000000000
      8978        79  SAPS      C35            33.2940579557       15.1686386009       13.2671060342  MEMB      79              0.0000000000
      8979        79  SAPS      H5X            32.3453933104       15.5732263192       12.8539897847  MEMB      79              0.0000000000
      8980        79  SAPS      H5Y            33.0108824533       14.0950420542       13.3061319762  MEMB      79              0.0000000000
      8981        79  SAPS      C36            34.4754601736       15.5341346335       12.3268444637  MEMB      79              0.0000000000
      8982        79  SAPS      H6X            35.3451191440       15.0832885752       12.8510126985  MEMB      79              0.0000000000
      8983        79  SAPS      H6Y            34.7033372313       16.6202731668       12.2749163052  MEMB      79              0.0000000000
      8984        79  SAPS      C37            34.3510777703       14.8719279976       10.9002162097  MEMB      79              0.0000000000
      8985        79  SAPS      H7X            34.1614744110       13.7775267586       10.8745764862  MEMB      79              0.0000000000
      8986        79  SAPS      H7Y            35.3610694058       15.0720370576       10.4828507319  MEMB      79              0.0000000000
      8987        79  SAPS      C38            33.2535257725       15.5517454040       10.0005596610  MEMB      79              0.0000000000
      8988        79  SAPS      H8X            33.4874722426       16.6347961183        9.9193721262  MEMB      79              0.0000000000
      8989        79  SAPS      H8Y            32.2542233722       15.6444022657       10.4771414238  MEMB      79              0.0000000000
      8990        79  SAPS      C39            33.0964051582       14.9612338535        8.5726853154  MEMB      79              0.0000000000
      8991        79  SAPS      H9X            34.1539247283       14.9526563376        8.2322450804  MEMB      79              0.0000000000
      8992        79  SAPS      H9Y            32.5337182508       15.7749462466        8.0671393698  MEMB      79              0.0000000000
      8993        79  SAPS      C310           32.4415414615       13.6590822775        8.4648212898  MEMB      79              0.0000000000
      8994        79  SAPS      H10X           31.4447908155       13.6084997513        8.9529303196  MEMB      79              0.0000000000
      8995        79  SAPS      H10Y           33.1465331610       12.8777563422        8.8209634672  MEMB      79              0.0000000000
      8996        79  SAPS      C311           32.1154573608       13.2031329723        7.0425967630  MEMB      79              0.0000000000
      8997        79  SAPS      H11X           31.1701463268       13.6939240543        6.7266350504  MEMB      79              0.0000000000
      8998        79  SAPS      H11Y           31.9121408122       12.1110577512        7.0614374432  MEMB      79              0.0000000000
      8999        79  SAPS      C312           33.2167692946       13.4119850956        6.0022478671  MEMB      79              0.0000000000
      9000        79  SAPS      H12X           34.0693271720       12.7313740039        6.2125686011  MEMB      79              0.0000000000
      9001        79  SAPS      H12Y           33.6927867773       14.4017975649        6.1695794067  MEMB      79              0.0000000000
      9002        79  SAPS      C313           32.7490699388       13.0731378012        4.5623791274  MEMB      79              0.0000000000
      9003        79  SAPS      H13X           31.9988189092       13.7925641715        4.1701159730  MEMB      79              0.0000000000
      9004        79  SAPS      H13Y           32.2629113003       12.0777315928        4.6468605222  MEMB      79              0.0000000000
      9005        79  SAPS      C314           33.9452716846       12.9653895977        3.5725571024  MEMB      79              0.0000000000
      9006        79  SAPS      H14X           34.7163207656       12.3735278723        4.1106127836  MEMB      79              0.0000000000
      9007        79  SAPS      H14Y           34.2628198276       14.0025543406        3.3321959459  MEMB      79              0.0000000000
      9008        79  SAPS      C315           33.6268325126       12.1131398456        2.3818639541  MEMB      79              0.0000000000
      9009        79  SAPS      H15X           32.7892525260       12.4779666562        1.7496605267  MEMB      79              0.0000000000
      9010        79  SAPS      H15Y           33.2706870638       11.1325057215        2.7637514910  MEMB      79              0.0000000000
      9011        79  SAPS      C316           34.8726132014       11.9294979083        1.4962667575  MEMB      79              0.0000000000
      9012        79  SAPS      H16X           35.6407633156       11.5247240362        2.1893933389  MEMB      79              0.0000000000
      9013        79  SAPS      H16Y           35.3098281180       12.8920129261        1.1546102791  MEMB      79              0.0000000000
      9014        79  SAPS      C317           34.5848511894       11.0416898012        0.2759092662  MEMB      79              0.0000000000
      9015        79  SAPS      H17X           33.6328013677       10.5069665379        0.4808318785  MEMB      79              0.0000000000
      9016        79  SAPS      H17Y           35.4695476160       10.4295983976       -0.0015385398  MEMB      79              0.0000000000
      9017        79  SAPS      C318           34.1957300848       11.8700179799       -0.9919142455  MEMB      79              0.0000000000
      9018        79  SAPS      H18X           34.2324056858       11.2345746153       -1.9025135242  MEMB      79              0.0000000000
      9019        79  SAPS      H18Y           34.9063634047       12.6995844331       -1.1947456832  MEMB      79              0.0000000000
      9020        79  SAPS      H18Z           33.1421102662       12.2202176338       -1.0314952193  MEMB      79              0.0000000000
      9021        80  SAPC      N              -7.1142112634      -36.4440700181       19.1565964396  MEMB      80              0.0000000000
      9022        80  SAPC      C12            -5.7125870042      -36.4902553699       18.5171977028  MEMB      80              0.0000000000
      9023        80  SAPC      H12A           -5.3453952784      -35.5131591485       18.2399733850  MEMB      80              0.0000000000
      9024        80  SAPC      H12B           -5.7228147061      -36.9022908101       17.5189381799  MEMB      80              0.0000000000
      9025        80  SAPC      C13            -7.6850399146      -37.7803639636       19.4712972042  MEMB      80              0.0000000000
      9026        80  SAPC      H13A           -7.1459609235      -38.1999286579       20.3078134492  MEMB      80              0.0000000000
      9027        80  SAPC      H13B           -8.7340343411      -37.7089968607       19.7181114543  MEMB      80              0.0000000000
      9028        80  SAPC      H13C           -7.6154611926      -38.3626668823       18.5643891736  MEMB      80              0.0000000000
      9029        80  SAPC      C14            -7.1413286548      -35.5999149172       20.4235892202  MEMB      80              0.0000000000
      9030        80  SAPC      H14A           -6.4537415557      -36.0480033521       21.1256152788  MEMB      80              0.0000000000
      9031        80  SAPC      H14B           -6.8645736083      -34.5642303621       20.2925767221  MEMB      80              0.0000000000
      9032        80  SAPC      H14C           -8.1368659146      -35.5460695761       20.8388076260  MEMB      80              0.0000000000
      9033        80  SAPC      C15            -7.9973362645      -35.9150151125       18.0320212871  MEMB      80              0.0000000000
      9034        80  SAPC      H15A           -7.4151860710      -35.1310438362       17.5706211808  MEMB      80              0.0000000000
      9035        80  SAPC      H15B           -8.0992556374      -36.7238953781       17.3236956050  MEMB      80              0.0000000000
      9036        80  SAPC      H15C           -9.0150835362      -35.6496799183       18.2773530923  MEMB      80              0.0000000000
      9037        80  SAPC      C11            -4.5843932316      -37.2285719546       19.3522571983  MEMB      80              0.0000000000
      9038        80  SAPC      H11A           -3.6919090126      -37.0722637946       18.7093258063  MEMB      80              0.0000000000
      9039        80  SAPC      H11B           -4.7680628609      -38.3115087622       19.5190933015  MEMB      80              0.0000000000
      9040        80  SAPC      P              -3.0462649981      -35.9092487842       21.0863298359  MEMB      80              0.0000000000
      9041        80  SAPC      O13            -3.3547066991      -34.7627337710       22.0245388492  MEMB      80              0.0000000000
      9042        80  SAPC      O14            -2.1536036144      -36.9520145215       21.6148699275  MEMB      80              0.0000000000
      9043        80  SAPC      O12            -4.3873291136      -36.6494294924       20.6214188073  MEMB      80              0.0000000000
      9044        80  SAPC      O11            -2.4983680186      -35.3779104915       19.6998835373  MEMB      80              0.0000000000
      9045        80  SAPC      C1             -1.8107244095      -34.1299376954       19.8001838630  MEMB      80              0.0000000000
      9046        80  SAPC      HA             -2.4877055988      -33.4149792322       20.3148214244  MEMB      80              0.0000000000
      9047        80  SAPC      HB             -0.7830207508      -34.1882792166       20.2182062705  MEMB      80              0.0000000000
      9048        80  SAPC      C2             -1.5541024923      -33.6914419371       18.3689193597  MEMB      80              0.0000000000
      9049        80  SAPC      HS             -1.1739633588      -32.6505065843       18.2897412931  MEMB      80              0.0000000000
      9050        80  SAPC      O21            -2.8620563184      -33.6998276836       17.6880140348  MEMB      80              0.0000000000
      9051        80  SAPC      C21            -3.7123520398      -32.6507339481       17.6808611540  MEMB      80              0.0000000000
      9052        80  SAPC      O22            -3.4677044585      -31.5231112475       18.0189693324  MEMB      80              0.0000000000
      9053        80  SAPC      C22            -5.1072064700      -33.0961275644       17.2389328707  MEMB      80              0.0000000000
      9054        80  SAPC      H2R            -5.1121344022      -34.0768058261       16.7168536704  MEMB      80              0.0000000000
      9055        80  SAPC      H2S            -5.8324973987      -33.1768909978       18.0766387977  MEMB      80              0.0000000000
      9056        80  SAPC      C3             -0.5258431933      -34.6016612061       17.5994689403  MEMB      80              0.0000000000
      9057        80  SAPC      HX              0.4351505046      -34.8265069935       18.1096224245  MEMB      80              0.0000000000
      9058        80  SAPC      HY             -0.1665975029      -34.1268347019       16.6614903868  MEMB      80              0.0000000000
      9059        80  SAPC      O31            -1.0565733697      -35.9047766252       17.3082679695  MEMB      80              0.0000000000
      9060        80  SAPC      C31            -1.7354656077      -36.1834781277       16.2103705756  MEMB      80              0.0000000000
      9061        80  SAPC      O32            -1.9571635772      -35.4642178528       15.2850744618  MEMB      80              0.0000000000
      9062        80  SAPC      C32            -2.2293958053      -37.6750297297       16.3235119459  MEMB      80              0.0000000000
      9063        80  SAPC      H2X            -3.2851977768      -37.6520805481       16.6685863948  MEMB      80              0.0000000000
      9064        80  SAPC      H2Y            -1.4506889147      -38.3011620996       16.8092021972  MEMB      80              0.0000000000
      9065        80  SAPC      C23            -5.6760158638      -32.0574805071       16.2126738878  MEMB      80              0.0000000000
      9066        80  SAPC      H3R            -5.3537086573      -31.0129835451       16.4113316988  MEMB      80              0.0000000000
      9067        80  SAPC      H3S            -6.7754088526      -32.0548226555       16.0525206168  MEMB      80              0.0000000000
      9068        80  SAPC      C24            -5.0655620026      -32.3092496917       14.8279663323  MEMB      80              0.0000000000
      9069        80  SAPC      H4R            -3.9877235145      -32.0636309686       14.9386779356  MEMB      80              0.0000000000
      9070        80  SAPC      H4S            -5.2985026177      -31.5283184855       14.0728462253  MEMB      80              0.0000000000
      9071        80  SAPC      C25            -5.3719217209      -33.6376984191       14.2583040834  MEMB      80              0.0000000000
      9072        80  SAPC      H5R            -4.7046816290      -34.4490265381       14.5847049436  MEMB      80              0.0000000000
      9073        80  SAPC      C26            -6.4051663256      -33.9477308982       13.4635738961  MEMB      80              0.0000000000
      9074        80  SAPC      H6R            -6.5217488281      -34.9951153571       13.1483056275  MEMB      80              0.0000000000
      9075        80  SAPC      C27            -7.5072139252      -33.0666611899       12.9792909226  MEMB      80              0.0000000000
      9076        80  SAPC      H7R            -7.5475814064      -32.3062523537       13.7882840546  MEMB      80              0.0000000000
      9077        80  SAPC      H7S            -8.4722812664      -33.6159001597       12.9431968967  MEMB      80              0.0000000000
      9078        80  SAPC      C28            -7.1888542994      -32.3009615761       11.7317534555  MEMB      80              0.0000000000
      9079        80  SAPC      H8R            -6.7324631971      -31.3254754343       11.9556597695  MEMB      80              0.0000000000
      9080        80  SAPC      C29            -7.3069061895      -32.7481673395       10.4794952033  MEMB      80              0.0000000000
      9081        80  SAPC      H9R            -6.9831726529      -32.0841086011        9.6644971741  MEMB      80              0.0000000000
      9082        80  SAPC      C210           -7.8171824686      -34.0754455898        9.9537416506  MEMB      80              0.0000000000
      9083        80  SAPC      H10R           -8.5518336731      -33.8345524876        9.1558828075  MEMB      80              0.0000000000
      9084        80  SAPC      H10S           -8.4467368930      -34.6033607208       10.7015977340  MEMB      80              0.0000000000
      9085        80  SAPC      C211           -6.7608721043      -35.0265805389        9.6990128327  MEMB      80              0.0000000000
      9086        80  SAPC      H11R           -6.3727660499      -35.5919893022       10.5590635068  MEMB      80              0.0000000000
      9087        80  SAPC      C212           -6.1901819492      -35.2942228246        8.5266255666  MEMB      80              0.0000000000
      9088        80  SAPC      H12R           -5.3576991482      -36.0070770388        8.4327566005  MEMB      80              0.0000000000
      9089        80  SAPC      C213           -6.5306813047      -34.5913385272        7.2440047556  MEMB      80              0.0000000000
      9090        80  SAPC      H13R           -7.6369056262      -34.5533946178        7.1483548834  MEMB      80              0.0000000000
      9091        80  SAPC      H13S           -6.1282613569      -35.2961185822        6.4852793691  MEMB      80              0.0000000000
      9092        80  SAPC      C214           -5.9358777144      -33.2205104158        6.9252440921  MEMB      80              0.0000000000
      9093        80  SAPC      H14R           -5.3289303571      -32.7161851336        7.6915800671  MEMB      80              0.0000000000
      9094        80  SAPC      C215           -6.0786574542      -32.6571733148        5.7170744903  MEMB      80              0.0000000000
      9095        80  SAPC      H15R           -5.3955378243      -31.8447313653        5.4284817794  MEMB      80              0.0000000000
      9096        80  SAPC      C216           -6.8246422307      -33.2005187406        4.4915965793  MEMB      80              0.0000000000
      9097        80  SAPC      H16R           -7.2685252187      -32.4200750134        3.8372288141  MEMB      80              0.0000000000
      9098        80  SAPC      H16S           -7.7167459036      -33.8271879956        4.7055076645  MEMB      80              0.0000000000
      9099        80  SAPC      C217           -5.7505214692      -34.0204525316        3.6937589025  MEMB      80              0.0000000000
      9100        80  SAPC      H17R           -5.7473757620      -35.0730360994        4.0492581031  MEMB      80              0.0000000000
      9101        80  SAPC      H17S           -4.7500683384      -33.5440626513        3.7741776006  MEMB      80              0.0000000000
      9102        80  SAPC      C218           -5.9024475818      -34.0300292950        2.2429032095  MEMB      80              0.0000000000
      9103        80  SAPC      H18R           -5.0625116068      -34.4992356915        1.6873197405  MEMB      80              0.0000000000
      9104        80  SAPC      H18S           -5.8142486777      -32.9719171609        1.9158850523  MEMB      80              0.0000000000
      9105        80  SAPC      C219           -7.2015681735      -34.6628536395        1.7411736544  MEMB      80              0.0000000000
      9106        80  SAPC      H19R           -7.1550846786      -34.6076012308        0.6325223491  MEMB      80              0.0000000000
      9107        80  SAPC      H19S           -8.0943613808      -34.1033586510        2.0936028248  MEMB      80              0.0000000000
      9108        80  SAPC      C220           -7.3391212884      -36.1808708177        2.1420098062  MEMB      80              0.0000000000
      9109        80  SAPC      H20R           -8.3578458013      -36.5703437246        1.9302724353  MEMB      80              0.0000000000
      9110        80  SAPC      H20S           -7.0277434116      -36.3049593859        3.2012391120  MEMB      80              0.0000000000
      9111        80  SAPC      H20T           -6.6336028860      -36.7731902269        1.5209440016  MEMB      80              0.0000000000
      9112        80  SAPC      C33            -2.2855373681      -38.1931484585       14.8608774304  MEMB      80              0.0000000000
      9113        80  SAPC      H3X            -2.3390687837      -39.3028528636       14.8642571954  MEMB      80              0.0000000000
      9114        80  SAPC      H3Y            -1.3923981080      -37.8724517632       14.2831433109  MEMB      80              0.0000000000
      9115        80  SAPC      C34            -3.6067022789      -37.7873383658       14.0741039977  MEMB      80              0.0000000000
      9116        80  SAPC      H4X            -3.6182253961      -36.6983560523       13.8543187925  MEMB      80              0.0000000000
      9117        80  SAPC      H4Y            -4.5287729253      -37.9563675447       14.6703723344  MEMB      80              0.0000000000
      9118        80  SAPC      C35            -3.6399204757      -38.5196903585       12.6842487034  MEMB      80              0.0000000000
      9119        80  SAPC      H5X            -4.6118234503      -38.2120342358       12.2425776742  MEMB      80              0.0000000000
      9120        80  SAPC      H5Y            -3.7485331762      -39.6231813831       12.7537611329  MEMB      80              0.0000000000
      9121        80  SAPC      C36            -2.6447866237      -37.9536815658       11.5914020892  MEMB      80              0.0000000000
      9122        80  SAPC      H6X            -2.3978678019      -38.8145191332       10.9338988675  MEMB      80              0.0000000000
      9123        80  SAPC      H6Y            -1.6918963963      -37.6362331535       12.0663211655  MEMB      80              0.0000000000
      9124        80  SAPC      C37            -3.2236651689      -36.8315068535       10.7256284610  MEMB      80              0.0000000000
      9125        80  SAPC      H7X            -3.8664886990      -36.1689936496       11.3438311860  MEMB      80              0.0000000000
      9126        80  SAPC      H7Y            -3.9142769911      -37.1431711266        9.9130755733  MEMB      80              0.0000000000
      9127        80  SAPC      C38            -2.0648503789      -36.0401668487       10.0584104733  MEMB      80              0.0000000000
      9128        80  SAPC      H8X            -1.4768664975      -36.7863693653        9.4824091617  MEMB      80              0.0000000000
      9129        80  SAPC      H8Y            -1.4055927727      -35.5673493875       10.8174526139  MEMB      80              0.0000000000
      9130        80  SAPC      C39            -2.3810347628      -34.8837457927        9.0909542376  MEMB      80              0.0000000000
      9131        80  SAPC      H9X            -2.6762663657      -34.0236173859        9.7291848802  MEMB      80              0.0000000000
      9132        80  SAPC      H9Y            -3.3419037779      -35.1654435637        8.6096042334  MEMB      80              0.0000000000
      9133        80  SAPC      C310           -1.2692963037      -34.3574647487        8.1037642718  MEMB      80              0.0000000000
      9134        80  SAPC      H10X           -0.2850066465      -34.0613780033        8.5254607450  MEMB      80              0.0000000000
      9135        80  SAPC      H10Y           -1.6400011907      -33.4334973284        7.6106285746  MEMB      80              0.0000000000
      9136        80  SAPC      C311           -0.9976617562      -35.3798929880        6.9850974073  MEMB      80              0.0000000000
      9137        80  SAPC      H11X           -0.8707851459      -36.3675225462        7.4778557645  MEMB      80              0.0000000000
      9138        80  SAPC      H11Y           -0.0584230362      -35.1213414486        6.4509595162  MEMB      80              0.0000000000
      9139        80  SAPC      C312           -2.1030906826      -35.4748867436        5.9228293054  MEMB      80              0.0000000000
      9140        80  SAPC      H12X           -2.2169379978      -34.4289807625        5.5658413421  MEMB      80              0.0000000000
      9141        80  SAPC      H12Y           -3.0206365812      -35.7655881062        6.4777383687  MEMB      80              0.0000000000
      9142        80  SAPC      C313           -1.7947890190      -36.4502822150        4.8139239600  MEMB      80              0.0000000000
      9143        80  SAPC      H13X           -2.7643586899      -36.8102520805        4.4081195305  MEMB      80              0.0000000000
      9144        80  SAPC      H13Y           -1.4461637721      -37.3560799091        5.3545826764  MEMB      80              0.0000000000
      9145        80  SAPC      C314           -0.9479422216      -36.0479822386        3.5936272729  MEMB      80              0.0000000000
      9146        80  SAPC      H14X            0.1478322131      -36.1094350946        3.7663201094  MEMB      80              0.0000000000
      9147        80  SAPC      H14Y           -1.1235568995      -34.9971929220        3.2784732042  MEMB      80              0.0000000000
      9148        80  SAPC      C315           -1.2817546825      -36.8995813834        2.3059751053  MEMB      80              0.0000000000
      9149        80  SAPC      H15X           -2.3875379261      -36.9629909568        2.2191219095  MEMB      80              0.0000000000
      9150        80  SAPC      H15Y           -0.8280299241      -37.9124534932        2.3564311354  MEMB      80              0.0000000000
      9151        80  SAPC      C316           -0.9784943937      -36.3369512471        0.9588742015  MEMB      80              0.0000000000
      9152        80  SAPC      H16X           -1.4576189975      -37.0073418230        0.2136641395  MEMB      80              0.0000000000
      9153        80  SAPC      H16Y            0.1223400186      -36.3277039422        0.8092108904  MEMB      80              0.0000000000
      9154        80  SAPC      C317           -1.4117045584      -34.9206192314        0.6539261053  MEMB      80              0.0000000000
      9155        80  SAPC      H17X           -0.8252084197      -34.3576316276        1.4111500865  MEMB      80              0.0000000000
      9156        80  SAPC      H17Y           -2.4579826782      -34.5999119256        0.8456820612  MEMB      80              0.0000000000
      9157        80  SAPC      C318           -1.2584043351      -34.2410659449       -0.7570718182  MEMB      80              0.0000000000
      9158        80  SAPC      H18X           -0.2258283686      -34.0124043883       -1.0973984096  MEMB      80              0.0000000000
      9159        80  SAPC      H18Y           -1.8343334204      -33.2976429784       -0.6449118067  MEMB      80              0.0000000000
      9160        80  SAPC      H18Z           -1.6726686041      -34.8652638175       -1.5774887217  MEMB      80              0.0000000000
      9161        81  OSM       N             -12.3066872240       33.5297392536       21.4364110557  MEMB      81              0.0000000000
      9162        81  OSM       C15           -12.7935143593       32.2123096923       21.8570199385  MEMB      81              0.0000000000
      9163        81  OSM       H15A          -12.6083285942       32.0726613855       22.9118206716  MEMB      81              0.0000000000
      9164        81  OSM       H15B          -12.1844692244       31.5440145812       21.2663883931  MEMB      81              0.0000000000
      9165        81  OSM       H15C          -13.8675891809       32.1389365276       21.7711140735  MEMB      81              0.0000000000
      9166        81  OSM       C14           -10.8411592094       33.5758752168       21.5294499695  MEMB      81              0.0000000000
      9167        81  OSM       H14A          -10.4405375350       32.6503115452       21.1431419022  MEMB      81              0.0000000000
      9168        81  OSM       H14B          -10.5286497279       33.4415913268       22.5544892824  MEMB      81              0.0000000000
      9169        81  OSM       H14C          -10.5011549190       34.5397718248       21.1805943500  MEMB      81              0.0000000000
      9170        81  OSM       C13           -12.8777933821       33.7575221830       19.9905452063  MEMB      81              0.0000000000
      9171        81  OSM       H13A          -13.9302233409       33.7517743037       20.2329457479  MEMB      81              0.0000000000
      9172        81  OSM       H13B          -12.4950246871       32.9840523615       19.3412128395  MEMB      81              0.0000000000
      9173        81  OSM       H13C          -12.5713305355       34.7287548450       19.6311184081  MEMB      81              0.0000000000
      9174        81  OSM       C12           -12.8253181311       34.6659350334       22.4699131877  MEMB      81              0.0000000000
      9175        81  OSM       H12A          -12.4901140574       34.4393566370       23.4712625510  MEMB      81              0.0000000000
      9176        81  OSM       H12B          -13.8986447208       34.5487488077       22.4446623689  MEMB      81              0.0000000000
      9177        81  OSM       C11           -12.3774808950       36.1143841903       22.2903016203  MEMB      81              0.0000000000
      9178        81  OSM       H11A          -11.2984199194       36.1244414715       22.5545879549  MEMB      81              0.0000000000
      9179        81  OSM       H11B          -12.7286112845       36.7875724717       23.1013786507  MEMB      81              0.0000000000
      9180        81  OSM       P             -13.5602963311       37.4221887305       20.3055022050  MEMB      81              0.0000000000
      9181        81  OSM       O13           -14.6714464232       36.7224384548       19.6445286550  MEMB      81              0.0000000000
      9182        81  OSM       O14           -13.9483308524       38.4476061892       21.3283380302  MEMB      81              0.0000000000
      9183        81  OSM       O11           -12.6027022171       38.0380047317       19.2237022083  MEMB      81              0.0000000000
      9184        81  OSM       O12           -12.5958610740       36.4101954288       20.9242879254  MEMB      81              0.0000000000
      9185        81  OSM       C1S           -11.9261628440       37.1466542681       18.3577244465  MEMB      81              0.0000000000
      9186        81  OSM       H1S           -12.2245117410       36.0813000422       18.4593575712  MEMB      81              0.0000000000
      9187        81  OSM       H1T           -10.8376675245       37.1975467946       18.5743084406  MEMB      81              0.0000000000
      9188        81  OSM       NF            -11.6059568239       36.5319002651       16.0463183947  MEMB      81              0.0000000000
      9189        81  OSM       HNF           -10.8104592840       36.7267917744       15.4778027777  MEMB      81              0.0000000000
      9190        81  OSM       C2S           -12.1301469415       37.6058742578       16.8659607166  MEMB      81              0.0000000000
      9191        81  OSM       H2S           -13.2389614436       37.6235341347       16.7985848340  MEMB      81              0.0000000000
      9192        81  OSM       C3S           -11.4134212718       38.9764963656       16.5609746965  MEMB      81              0.0000000000
      9193        81  OSM       H3S           -10.3211092550       38.7837414915       16.4975649082  MEMB      81              0.0000000000
      9194        81  OSM       O3            -11.5083442305       40.0011792958       17.5592971344  MEMB      81              0.0000000000
      9195        81  OSM       HO3           -12.1132816047       39.6351255255       18.2086472572  MEMB      81              0.0000000000
      9196        81  OSM       C4S           -11.9630263897       39.4839684676       15.1766176184  MEMB      81              0.0000000000
      9197        81  OSM       H4S           -13.0531717007       39.5356856458       15.0391100533  MEMB      81              0.0000000000
      9198        81  OSM       C5S           -11.0998849811       39.7650159715       14.1419274474  MEMB      81              0.0000000000
      9199        81  OSM       H5S           -10.0939170648       39.3213701609       14.1071851732  MEMB      81              0.0000000000
      9200        81  OSM       C6S           -11.5737806347       40.2795621911       12.7462459840  MEMB      81              0.0000000000
      9201        81  OSM       H6S           -11.2127745803       39.6069119225       11.9390665381  MEMB      81              0.0000000000
      9202        81  OSM       H6T           -10.9426439403       41.1934780685       12.7189523261  MEMB      81              0.0000000000
      9203        81  OSM       C7S           -13.0319240193       40.6499164342       12.5030697980  MEMB      81              0.0000000000
      9204        81  OSM       H7S           -13.3153620550       41.4982739060       13.1620640168  MEMB      81              0.0000000000
      9205        81  OSM       H7T           -13.5894968575       39.7117073551       12.7109087784  MEMB      81              0.0000000000
      9206        81  OSM       C8S           -13.4022393991       41.1014280743       11.0836491631  MEMB      81              0.0000000000
      9207        81  OSM       H8S           -12.9101900083       42.0599914480       10.8127885714  MEMB      81              0.0000000000
      9208        81  OSM       H8T           -14.4737757922       41.3779428303       10.9853107600  MEMB      81              0.0000000000
      9209        81  OSM       C9S           -13.0261611479       40.0727450921        9.9319732679  MEMB      81              0.0000000000
      9210        81  OSM       H9S           -11.9201563832       40.0625945459        9.8272303170  MEMB      81              0.0000000000
      9211        81  OSM       H9T           -13.3705906832       40.5917787919        9.0120315716  MEMB      81              0.0000000000
      9212        81  OSM       C10S          -13.4270505214       38.6128408093       10.0135218916  MEMB      81              0.0000000000
      9213        81  OSM       H10S          -14.5179610519       38.5232665765       10.2038157807  MEMB      81              0.0000000000
      9214        81  OSM       H10T          -12.8542133173       38.0905650892       10.8093896799  MEMB      81              0.0000000000
      9215        81  OSM       C11S          -13.1681330813       37.7585333061        8.7959106795  MEMB      81              0.0000000000
      9216        81  OSM       H11S          -13.4991595069       36.7238095082        9.0284815718  MEMB      81              0.0000000000
      9217        81  OSM       H11T          -12.0582104272       37.7125580051        8.8126104503  MEMB      81              0.0000000000
      9218        81  OSM       C12S          -13.7743512168       37.9765352789        7.4982228741  MEMB      81              0.0000000000
      9219        81  OSM       H12S          -13.7068556943       39.0319999528        7.1579883044  MEMB      81              0.0000000000
      9220        81  OSM       H12T          -14.8661696628       37.7719604469        7.5182894604  MEMB      81              0.0000000000
      9221        81  OSM       C13S          -13.2428726385       37.0420727718        6.3410582213  MEMB      81              0.0000000000
      9222        81  OSM       H13S          -14.0023978436       36.9066561364        5.5416182935  MEMB      81              0.0000000000
      9223        81  OSM       H13T          -13.1512261603       36.0319002130        6.7943500460  MEMB      81              0.0000000000
      9224        81  OSM       C14S          -11.8553219303       37.6072447440        5.8820506355  MEMB      81              0.0000000000
      9225        81  OSM       H14S          -11.2369448330       37.9575753075        6.7359822855  MEMB      81              0.0000000000
      9226        81  OSM       H14T          -11.9532684934       38.6086183093        5.4109043643  MEMB      81              0.0000000000
      9227        81  OSM       C15S          -11.1505848131       36.5246976511        5.2603216694  MEMB      81              0.0000000000
      9228        81  OSM       H15S          -11.4773556121       35.4847314499        5.4748256358  MEMB      81              0.0000000000
      9229        81  OSM       H15T          -10.0875647938       36.5757672997        5.5792277595  MEMB      81              0.0000000000
      9230        81  OSM       C16S          -11.0995158502       36.7306387847        3.7088991466  MEMB      81              0.0000000000
      9231        81  OSM       H16S          -11.8149722879       37.5438398750        3.4616202358  MEMB      81              0.0000000000
      9232        81  OSM       H16T          -11.4857804787       35.8289549207        3.1872810651  MEMB      81              0.0000000000
      9233        81  OSM       C17S           -9.7295635341       37.0891869094        3.2026177458  MEMB      81              0.0000000000
      9234        81  OSM       H17S           -9.1259050840       36.1651703664        3.0756893019  MEMB      81              0.0000000000
      9235        81  OSM       H17T           -9.1560114812       37.7957897791        3.8398567087  MEMB      81              0.0000000000
      9236        81  OSM       C18S           -9.6716721217       37.6559380983        1.7760904262  MEMB      81              0.0000000000
      9237        81  OSM       H18S          -10.4287225933       38.4566234398        1.6343211367  MEMB      81              0.0000000000
      9238        81  OSM       H18T           -9.7937819529       36.7942356174        1.0855248718  MEMB      81              0.0000000000
      9239        81  OSM       H18U           -8.6567154366       38.0487933917        1.5528212651  MEMB      81              0.0000000000
      9240        81  OSM       C1F           -12.1453561678       35.2680688830       15.8335484173  MEMB      81              0.0000000000
      9241        81  OSM       OF            -13.0564200714       34.7935095597       16.5655453214  MEMB      81              0.0000000000
      9242        81  OSM       C2F           -11.6094844918       34.4376463581       14.6954624030  MEMB      81              0.0000000000
      9243        81  OSM       H2F           -12.1501813514       33.4673706759       14.6723768417  MEMB      81              0.0000000000
      9244        81  OSM       H2G           -10.5567123344       34.2342300075       14.9863467564  MEMB      81              0.0000000000
      9245        81  OSM       C3F           -11.6301338551       35.2323117366       13.3735706843  MEMB      81              0.0000000000
      9246        81  OSM       H3F           -10.8955104515       36.0449646614       13.5586239143  MEMB      81              0.0000000000
      9247        81  OSM       H3G           -12.6585723078       35.6496671117       13.3240741873  MEMB      81              0.0000000000
      9248        81  OSM       C4F           -11.2528035086       34.2862718222       12.2168657255  MEMB      81              0.0000000000
      9249        81  OSM       H4F           -11.8102367776       33.3488792723       12.4287242169  MEMB      81              0.0000000000
      9250        81  OSM       H4G           -10.1771669408       34.0288712412       12.3220892268  MEMB      81              0.0000000000
      9251        81  OSM       C5F           -11.5427541967       34.7978504842       10.8088529131  MEMB      81              0.0000000000
      9252        81  OSM       H5F           -10.9953040420       35.7333445113       10.5649873473  MEMB      81              0.0000000000
      9253        81  OSM       H5G           -12.6430518172       34.9418904521       10.7548286093  MEMB      81              0.0000000000
      9254        81  OSM       C6F           -11.3163382596       33.6272527591        9.7326585690  MEMB      81              0.0000000000
      9255        81  OSM       H6F           -11.9739671096       32.7470197453        9.8970810302  MEMB      81              0.0000000000
      9256        81  OSM       H6G           -10.2491537078       33.3285918874        9.8116498755  MEMB      81              0.0000000000
      9257        81  OSM       C7F           -11.5113322577       33.9703421627        8.2655939681  MEMB      81              0.0000000000
      9258        81  OSM       H7F           -10.8667534045       34.8347646628        7.9979877441  MEMB      81              0.0000000000
      9259        81  OSM       H7G           -12.5760840579       34.2868265681        8.2440951488  MEMB      81              0.0000000000
      9260        81  OSM       C8F           -11.1155060688       32.7709578363        7.2640704167  MEMB      81              0.0000000000
      9261        81  OSM       H8F           -10.0246957044       32.7020948040        7.4633482557  MEMB      81              0.0000000000
      9262        81  OSM       H8G           -11.3697125451       33.0842245300        6.2289067922  MEMB      81              0.0000000000
      9263        81  OSM       C9F           -11.7422080393       31.3737253236        7.3616169261  MEMB      81              0.0000000000
      9264        81  OSM       H9F           -11.0010402951       30.6103838950        7.6408666697  MEMB      81              0.0000000000
      9265        81  OSM       C10F          -13.0022217675       31.0832936953        7.0321983787  MEMB      81              0.0000000000
      9266        81  OSM       H10F          -13.2863371096       30.0640645019        7.3329485672  MEMB      81              0.0000000000
      9267        81  OSM       C11F          -14.1538706853       31.9927468632        6.5081768026  MEMB      81              0.0000000000
      9268        81  OSM       H11F          -13.9669401609       33.0253445872        6.8730327701  MEMB      81              0.0000000000
      9269        81  OSM       H11G          -15.1246467279       31.7442619059        6.9879366452  MEMB      81              0.0000000000
      9270        81  OSM       C12F          -14.3271683408       32.0752112030        4.9443218833  MEMB      81              0.0000000000
      9271        81  OSM       H12F          -15.2652332141       32.6602107620        4.8341827974  MEMB      81              0.0000000000
      9272        81  OSM       H12G          -14.5860359388       31.0241472217        4.6941752289  MEMB      81              0.0000000000
      9273        81  OSM       C13F          -13.1944669473       32.5465930437        4.0578539139  MEMB      81              0.0000000000
      9274        81  OSM       H13F          -12.2784917173       31.9506235389        4.2581807393  MEMB      81              0.0000000000
      9275        81  OSM       H13G          -12.8492209394       33.5975864915        4.1605141588  MEMB      81              0.0000000000
      9276        81  OSM       C14F          -13.7506575257       32.3341842671        2.6596240489  MEMB      81              0.0000000000
      9277        81  OSM       H14F          -14.5915487716       32.9596889035        2.2908881808  MEMB      81              0.0000000000
      9278        81  OSM       H14G          -14.1436981933       31.2952904234        2.6828654646  MEMB      81              0.0000000000
      9279        81  OSM       C15F          -12.6207952814       32.4865771616        1.5621367733  MEMB      81              0.0000000000
      9280        81  OSM       H15F          -11.9848379820       31.5909339669        1.7285754764  MEMB      81              0.0000000000
      9281        81  OSM       H15G          -12.0634704976       33.4034639746        1.8502843009  MEMB      81              0.0000000000
      9282        81  OSM       C16F          -13.1819907191       32.6180581372        0.1448338098  MEMB      81              0.0000000000
      9283        81  OSM       H16F          -13.7282177772       33.5810440568        0.0520159915  MEMB      81              0.0000000000
      9284        81  OSM       H16G          -13.8634577868       31.7973454208       -0.1655769580  MEMB      81              0.0000000000
      9285        81  OSM       C17F          -12.0397137447       32.6633594307       -0.9828692264  MEMB      81              0.0000000000
      9286        81  OSM       H17F          -11.2197018817       33.3873020716       -0.7884252728  MEMB      81              0.0000000000
      9287        81  OSM       H17G          -12.4791844522       32.8999826523       -1.9754403505  MEMB      81              0.0000000000
      9288        81  OSM       C18F          -11.3299301021       31.3384157191       -1.1336667000  MEMB      81              0.0000000000
      9289        81  OSM       H18F          -10.8055718675       31.1738034391       -0.1681242236  MEMB      81              0.0000000000
      9290        81  OSM       H18G          -10.5078881595       31.4413010698       -1.8739255865  MEMB      81              0.0000000000
      9291        81  OSM       H18H          -12.0194117604       30.4902499011       -1.3325407686  MEMB      81              0.0000000000
      9292        82  SAPE      N             -30.5848065629       21.5344523996       20.5929601096  MEMB      82              0.0000000000
      9293        82  SAPE      HN1           -30.8282409580       21.1999439772       19.6387882776  MEMB      82              0.0000000000
      9294        82  SAPE      HN2           -29.6514033476       21.1939051799       20.9001832796  MEMB      82              0.0000000000
      9295        82  SAPE      HN3           -31.2830219012       21.1003528031       21.2298690500  MEMB      82              0.0000000000
      9296        82  SAPE      C12           -30.6430723614       23.0634991008       20.6706043727  MEMB      82              0.0000000000
      9297        82  SAPE      H12A          -30.1932514514       23.2857062250       21.6618692789  MEMB      82              0.0000000000
      9298        82  SAPE      H12B          -31.7292269062       23.2906614272       20.6159556466  MEMB      82              0.0000000000
      9299        82  SAPE      C11           -29.7085435505       23.6588519759       19.6377731754  MEMB      82              0.0000000000
      9300        82  SAPE      H11A          -30.0611814864       23.4636787313       18.6024593176  MEMB      82              0.0000000000
      9301        82  SAPE      H11B          -28.7327507385       23.1358437699       19.7305734852  MEMB      82              0.0000000000
      9302        82  SAPE      P             -30.6283298118       26.0919123192       19.8752360642  MEMB      82              0.0000000000
      9303        82  SAPE      O13           -31.1030730849       26.3669195548       21.2560748561  MEMB      82              0.0000000000
      9304        82  SAPE      O14           -30.1138395127       27.2333029716       19.1149111624  MEMB      82              0.0000000000
      9305        82  SAPE      O12           -29.4420028209       25.0087647147       19.8853348776  MEMB      82              0.0000000000
      9306        82  SAPE      O11           -31.6747802666       25.3475913885       18.9671053509  MEMB      82              0.0000000000
      9307        82  SAPE      C1            -32.8457303159       26.0433539276       18.5267445922  MEMB      82              0.0000000000
      9308        82  SAPE      HA            -33.3551709005       26.5131706653       19.3951128504  MEMB      82              0.0000000000
      9309        82  SAPE      HB            -32.4737823394       26.8741103502       17.8897049671  MEMB      82              0.0000000000
      9310        82  SAPE      C2            -33.6788897415       25.0326599103       17.7715364650  MEMB      82              0.0000000000
      9311        82  SAPE      HS            -33.9342671397       24.3531607282       18.6125977294  MEMB      82              0.0000000000
      9312        82  SAPE      O21           -32.7126897003       24.4197087278       16.8337454118  MEMB      82              0.0000000000
      9313        82  SAPE      C21           -32.6760087847       23.0763941495       16.7364597784  MEMB      82              0.0000000000
      9314        82  SAPE      O22           -33.1588605787       22.2581483947       17.5313627305  MEMB      82              0.0000000000
      9315        82  SAPE      C22           -31.7494087990       22.7201726732       15.6025913088  MEMB      82              0.0000000000
      9316        82  SAPE      H2R           -31.8251424652       23.5542573353       14.8725997003  MEMB      82              0.0000000000
      9317        82  SAPE      H2S           -30.6809959573       22.5775930606       15.8718236546  MEMB      82              0.0000000000
      9318        82  SAPE      C3            -34.8958701622       25.6394866813       16.9700608924  MEMB      82              0.0000000000
      9319        82  SAPE      HX            -35.7499449332       25.8604316846       17.6453830996  MEMB      82              0.0000000000
      9320        82  SAPE      HY            -35.2136093606       24.8815038322       16.2225149861  MEMB      82              0.0000000000
      9321        82  SAPE      O31           -34.4901942636       26.7835319204       16.2204980166  MEMB      82              0.0000000000
      9322        82  SAPE      C31           -34.0406206087       26.7009551036       14.9383356861  MEMB      82              0.0000000000
      9323        82  SAPE      O32           -33.9600315270       25.6763072485       14.3094653628  MEMB      82              0.0000000000
      9324        82  SAPE      C32           -33.3146954913       27.9921290773       14.5908339651  MEMB      82              0.0000000000
      9325        82  SAPE      H2X           -33.9274066662       28.8495940101       14.9424867851  MEMB      82              0.0000000000
      9326        82  SAPE      H2Y           -33.1550627355       27.9965160237       13.4913708527  MEMB      82              0.0000000000
      9327        82  SAPE      C23           -32.1936042224       21.3905214950       14.9147582882  MEMB      82              0.0000000000
      9328        82  SAPE      H3R           -33.2533542521       21.4944878528       14.5978326666  MEMB      82              0.0000000000
      9329        82  SAPE      H3S           -32.2489424421       20.6175979974       15.7109035815  MEMB      82              0.0000000000
      9330        82  SAPE      C24           -31.3870382537       20.8730818541       13.6584021452  MEMB      82              0.0000000000
      9331        82  SAPE      H4R           -32.0438744849       20.2929699947       12.9754984790  MEMB      82              0.0000000000
      9332        82  SAPE      H4S           -30.6828716580       20.0631377271       13.9455613212  MEMB      82              0.0000000000
      9333        82  SAPE      C25           -30.5664655935       22.0003800707       13.0022346762  MEMB      82              0.0000000000
      9334        82  SAPE      H5R           -29.5549085007       22.0675151133       13.4291366108  MEMB      82              0.0000000000
      9335        82  SAPE      C26           -30.9085026309       22.7906510690       11.9279986270  MEMB      82              0.0000000000
      9336        82  SAPE      H6R           -30.1713141656       23.4961753062       11.5171594236  MEMB      82              0.0000000000
      9337        82  SAPE      C27           -32.2575425368       22.6754546673       11.2155080004  MEMB      82              0.0000000000
      9338        82  SAPE      H7R           -32.9104099285       21.9977828612       11.8061398504  MEMB      82              0.0000000000
      9339        82  SAPE      H7S           -32.1735153680       22.3041000581       10.1717857333  MEMB      82              0.0000000000
      9340        82  SAPE      C28           -32.8465548454       24.0989016171       11.3919568144  MEMB      82              0.0000000000
      9341        82  SAPE      H8R           -32.8930378090       24.4640325609       12.4285466082  MEMB      82              0.0000000000
      9342        82  SAPE      C29           -33.3887772726       24.8673090229       10.4215226279  MEMB      82              0.0000000000
      9343        82  SAPE      H9R           -33.8156440415       25.8358256330       10.7211235955  MEMB      82              0.0000000000
      9344        82  SAPE      C210          -33.5709389998       24.5330008273        8.9904384124  MEMB      82              0.0000000000
      9345        82  SAPE      H10R          -32.8199105619       23.8719289998        8.5074668501  MEMB      82              0.0000000000
      9346        82  SAPE      H10S          -33.5270573846       25.4459122191        8.3587830105  MEMB      82              0.0000000000
      9347        82  SAPE      C211          -34.9647445348       23.8905680312        8.7442779841  MEMB      82              0.0000000000
      9348        82  SAPE      H11R          -35.9029237870       24.4642050630        8.7718425305  MEMB      82              0.0000000000
      9349        82  SAPE      C212          -35.1600703397       22.5668923032        8.4445773013  MEMB      82              0.0000000000
      9350        82  SAPE      H12R          -36.2368650833       22.3559577021        8.3669890735  MEMB      82              0.0000000000
      9351        82  SAPE      C213          -34.1745373584       21.3760126379        8.2972252152  MEMB      82              0.0000000000
      9352        82  SAPE      H13R          -34.7283779148       20.4211421624        8.1715104933  MEMB      82              0.0000000000
      9353        82  SAPE      H13S          -33.5916718802       21.2057643864        9.2276036208  MEMB      82              0.0000000000
      9354        82  SAPE      C214          -33.0248195252       21.4902720473        7.3329796235  MEMB      82              0.0000000000
      9355        82  SAPE      H14R          -32.0220642554       21.0996223878        7.5607394453  MEMB      82              0.0000000000
      9356        82  SAPE      C215          -33.2278817004       21.6111818742        5.9736651008  MEMB      82              0.0000000000
      9357        82  SAPE      H15R          -32.3973904451       21.7375113817        5.2635061930  MEMB      82              0.0000000000
      9358        82  SAPE      C216          -34.5638389226       21.7288719933        5.2376057409  MEMB      82              0.0000000000
      9359        82  SAPE      H16R          -35.3993852898       21.4580690726        5.9179365203  MEMB      82              0.0000000000
      9360        82  SAPE      H16S          -34.6444214120       21.0696340077        4.3469695465  MEMB      82              0.0000000000
      9361        82  SAPE      C217          -34.9731148756       23.1652731406        4.8641162770  MEMB      82              0.0000000000
      9362        82  SAPE      H17R          -34.1452433430       23.6836365408        4.3347312948  MEMB      82              0.0000000000
      9363        82  SAPE      H17S          -35.3081963195       23.6808841834        5.7894202634  MEMB      82              0.0000000000
      9364        82  SAPE      C218          -36.0882660344       23.0950632637        3.7821613227  MEMB      82              0.0000000000
      9365        82  SAPE      H18R          -37.0931146925       23.3882474940        4.1545096454  MEMB      82              0.0000000000
      9366        82  SAPE      H18S          -36.0251387314       22.0775977853        3.3404593081  MEMB      82              0.0000000000
      9367        82  SAPE      C219          -35.7761729017       23.8659672694        2.4695611661  MEMB      82              0.0000000000
      9368        82  SAPE      H19R          -34.6792612620       23.8183241727        2.2997501207  MEMB      82              0.0000000000
      9369        82  SAPE      H19S          -35.9445506808       24.9018813295        2.8340504720  MEMB      82              0.0000000000
      9370        82  SAPE      C220          -36.6912690911       23.5063587240        1.2401290960  MEMB      82              0.0000000000
      9371        82  SAPE      H20R          -36.4346560498       22.5262185347        0.7842836508  MEMB      82              0.0000000000
      9372        82  SAPE      H20S          -36.6179254066       24.2675838493        0.4342272459  MEMB      82              0.0000000000
      9373        82  SAPE      H20T          -37.7814309578       23.4838129018        1.4531084656  MEMB      82              0.0000000000
      9374        82  SAPE      C33           -31.9956927747       28.0457359906       15.2671413076  MEMB      82              0.0000000000
      9375        82  SAPE      H3X           -32.0448840786       28.2406220143       16.3598077078  MEMB      82              0.0000000000
      9376        82  SAPE      H3Y           -31.5621805168       28.9851597234       14.8623309104  MEMB      82              0.0000000000
      9377        82  SAPE      C34           -31.0318463691       26.8488977048       14.9698397413  MEMB      82              0.0000000000
      9378        82  SAPE      H4X           -30.9339322930       26.7072679172       13.8722629598  MEMB      82              0.0000000000
      9379        82  SAPE      H4Y           -31.5378877742       25.9386933106       15.3568424744  MEMB      82              0.0000000000
      9380        82  SAPE      C35           -29.6238858212       27.0192651282       15.6687524999  MEMB      82              0.0000000000
      9381        82  SAPE      H5X           -29.8500388794       27.2670969233       16.7278820758  MEMB      82              0.0000000000
      9382        82  SAPE      H5Y           -29.1542592307       27.9288839170       15.2370517450  MEMB      82              0.0000000000
      9383        82  SAPE      C36           -28.8379406490       25.7202176442       15.6697472522  MEMB      82              0.0000000000
      9384        82  SAPE      H6X           -29.4636904416       24.9016060118       16.0852388132  MEMB      82              0.0000000000
      9385        82  SAPE      H6Y           -27.9221453124       25.9304007469       16.2625902790  MEMB      82              0.0000000000
      9386        82  SAPE      C37           -28.3186294547       25.1828060290       14.3576906436  MEMB      82              0.0000000000
      9387        82  SAPE      H7X           -29.1821889702       25.0376012518       13.6739499146  MEMB      82              0.0000000000
      9388        82  SAPE      H7Y           -27.8736471053       24.1898581278       14.5821146048  MEMB      82              0.0000000000
      9389        82  SAPE      C38           -27.3573336827       26.1985716643       13.7272727164  MEMB      82              0.0000000000
      9390        82  SAPE      H8X           -26.5274033475       26.2015678152       14.4658710611  MEMB      82              0.0000000000
      9391        82  SAPE      H8Y           -27.7206344499       27.2482222520       13.7510889764  MEMB      82              0.0000000000
      9392        82  SAPE      C39           -26.7169808095       25.7808030221       12.3794545176  MEMB      82              0.0000000000
      9393        82  SAPE      H9X           -25.9728780733       25.0051582324       12.6605360552  MEMB      82              0.0000000000
      9394        82  SAPE      H9Y           -25.9710523456       26.5910896258       12.2333476808  MEMB      82              0.0000000000
      9395        82  SAPE      C310          -27.6888477855       25.4030202519       11.2118041472  MEMB      82              0.0000000000
      9396        82  SAPE      H10X          -28.4770282338       26.1822223608       11.1347543413  MEMB      82              0.0000000000
      9397        82  SAPE      H10Y          -28.2073643142       24.4504078543       11.4526181686  MEMB      82              0.0000000000
      9398        82  SAPE      C311          -26.9675564632       25.3508540548        9.8848848787  MEMB      82              0.0000000000
      9399        82  SAPE      H11X          -26.1381918692       24.6323563270       10.0587697801  MEMB      82              0.0000000000
      9400        82  SAPE      H11Y          -26.6157284739       26.3917720293        9.7204827343  MEMB      82              0.0000000000
      9401        82  SAPE      C312          -27.7737978719       24.8057101824        8.5846623085  MEMB      82              0.0000000000
      9402        82  SAPE      H12X          -28.3644892111       23.9034724167        8.8518171392  MEMB      82              0.0000000000
      9403        82  SAPE      H12Y          -26.9879170683       24.5297755592        7.8494261003  MEMB      82              0.0000000000
      9404        82  SAPE      C313          -28.7160647490       25.8386552272        8.0661654335  MEMB      82              0.0000000000
      9405        82  SAPE      H13X          -28.3919993580       26.8819872301        8.2680583807  MEMB      82              0.0000000000
      9406        82  SAPE      H13Y          -29.6355999592       25.7879721039        8.6876208528  MEMB      82              0.0000000000
      9407        82  SAPE      C314          -29.1494593664       25.6311184637        6.6027626174  MEMB      82              0.0000000000
      9408        82  SAPE      H14X          -28.3602015989       25.2829640142        5.9026322008  MEMB      82              0.0000000000
      9409        82  SAPE      H14Y          -29.5748956854       26.5161488012        6.0831026356  MEMB      82              0.0000000000
      9410        82  SAPE      C315          -30.2730140093       24.4816553729        6.4619375491  MEMB      82              0.0000000000
      9411        82  SAPE      H15X          -31.1642276162       24.6978651202        7.0890836019  MEMB      82              0.0000000000
      9412        82  SAPE      H15Y          -29.7815651369       23.5591212167        6.8384074347  MEMB      82              0.0000000000
      9413        82  SAPE      C316          -30.5878635287       24.2809755232        5.0162548771  MEMB      82              0.0000000000
      9414        82  SAPE      H16X          -31.0016314624       23.2714340507        4.8066275468  MEMB      82              0.0000000000
      9415        82  SAPE      H16Y          -29.6610443415       24.3430391721        4.4067664603  MEMB      82              0.0000000000
      9416        82  SAPE      C317          -31.6019744730       25.3558225446        4.4723155138  MEMB      82              0.0000000000
      9417        82  SAPE      H17X          -31.2045526660       26.3764059935        4.6588280558  MEMB      82              0.0000000000
      9418        82  SAPE      H17Y          -32.5300607284       25.3043512157        5.0808613045  MEMB      82              0.0000000000
      9419        82  SAPE      C318          -32.0525081746       25.3365164574        3.0548007200  MEMB      82              0.0000000000
      9420        82  SAPE      H18X          -31.0997746859       25.5052893681        2.5087828106  MEMB      82              0.0000000000
      9421        82  SAPE      H18Y          -32.6781324795       26.2311547160        2.8485531818  MEMB      82              0.0000000000
      9422        82  SAPE      H18Z          -32.4745199217       24.3900142701        2.6543485539  MEMB      82              0.0000000000
      9423        83  OSM       N              13.9390942948      -34.6196282700       22.0075386647  MEMB      83              0.0000000000
      9424        83  OSM       C15            12.8931880274      -34.6572018986       20.9613622164  MEMB      83              0.0000000000
      9425        83  OSM       H15A           13.2520980121      -35.1132303219       20.0505265130  MEMB      83              0.0000000000
      9426        83  OSM       H15B           12.6482818369      -33.6178070316       20.7998714542  MEMB      83              0.0000000000
      9427        83  OSM       H15C           12.0574921612      -35.2866438118       21.2293457498  MEMB      83              0.0000000000
      9428        83  OSM       C14            15.0575797216      -33.8458635955       21.3311249457  MEMB      83              0.0000000000
      9429        83  OSM       H14A           15.3116679990      -34.1845429061       20.3375780525  MEMB      83              0.0000000000
      9430        83  OSM       H14B           15.9316191582      -33.9228621998       21.9608282381  MEMB      83              0.0000000000
      9431        83  OSM       H14C           14.8140703760      -32.8008886917       21.2081180216  MEMB      83              0.0000000000
      9432        83  OSM       C13            13.3233421269      -33.8042475407       23.1008965095  MEMB      83              0.0000000000
      9433        83  OSM       H13A           12.4379187183      -34.3303889616       23.4258588203  MEMB      83              0.0000000000
      9434        83  OSM       H13B           13.2353042697      -32.8083728541       22.6923836666  MEMB      83              0.0000000000
      9435        83  OSM       H13C           13.9795008381      -33.8910853171       23.9543102405  MEMB      83              0.0000000000
      9436        83  OSM       C12            14.4159689871      -35.9710919146       22.5183447515  MEMB      83              0.0000000000
      9437        83  OSM       H12A           13.5803222672      -36.6369467411       22.6756087285  MEMB      83              0.0000000000
      9438        83  OSM       H12B           15.0645397297      -35.8424337314       23.3722785155  MEMB      83              0.0000000000
      9439        83  OSM       C11            15.2739263742      -36.8761666754       21.5744153326  MEMB      83              0.0000000000
      9440        83  OSM       H11A           15.5020098616      -37.8368021602       22.0838056302  MEMB      83              0.0000000000
      9441        83  OSM       H11B           16.2199837636      -36.3287204720       21.3754202880  MEMB      83              0.0000000000
      9442        83  OSM       P              13.7394176660      -38.1868525327       19.9807219899  MEMB      83              0.0000000000
      9443        83  OSM       O13            14.2301980297      -39.4195457941       20.6996998852  MEMB      83              0.0000000000
      9444        83  OSM       O14            12.3368216270      -37.7340532119       20.0647701080  MEMB      83              0.0000000000
      9445        83  OSM       O11            14.0053043851      -38.4054206004       18.4679728979  MEMB      83              0.0000000000
      9446        83  OSM       O12            14.6837665829      -36.9397071450       20.2931527001  MEMB      83              0.0000000000
      9447        83  OSM       C1S            14.2861907547      -37.3319153314       17.5811458955  MEMB      83              0.0000000000
      9448        83  OSM       H1S            15.3887070906      -37.2144964104       17.6517962793  MEMB      83              0.0000000000
      9449        83  OSM       H1T            13.7994525061      -36.4057702178       17.9548597562  MEMB      83              0.0000000000
      9450        83  OSM       NF             14.5290002477      -36.9750315806       15.1465423133  MEMB      83              0.0000000000
      9451        83  OSM       HNF            14.0393359888      -36.3232481027       14.5725942636  MEMB      83              0.0000000000
      9452        83  OSM       C2S            13.8398354864      -37.7460704995       16.0649781895  MEMB      83              0.0000000000
      9453        83  OSM       H2S            13.9696275624      -38.8412779290       15.9308304700  MEMB      83              0.0000000000
      9454        83  OSM       C3S            12.3445510015      -37.5747668753       15.9620195188  MEMB      83              0.0000000000
      9455        83  OSM       H3S            12.1141972753      -36.5210662527       16.2284275482  MEMB      83              0.0000000000
      9456        83  OSM       O3             11.5999203504      -38.4656565735       16.8379860892  MEMB      83              0.0000000000
      9457        83  OSM       HO3            12.1828871355      -39.0115128119       17.3707061571  MEMB      83              0.0000000000
      9458        83  OSM       C4S            11.8555464214      -37.8423969184       14.5098681807  MEMB      83              0.0000000000
      9459        83  OSM       H4S            11.4842977243      -38.8483939104       14.2646245508  MEMB      83              0.0000000000
      9460        83  OSM       C5S            11.4092491254      -36.8830882580       13.7662156509  MEMB      83              0.0000000000
      9461        83  OSM       H5S            11.5678172036      -35.8824587219       14.1946971990  MEMB      83              0.0000000000
      9462        83  OSM       C6S            10.8807537458      -36.8965040914       12.3842517609  MEMB      83              0.0000000000
      9463        83  OSM       H6S            10.0367839880      -36.1938288874       12.5524280768  MEMB      83              0.0000000000
      9464        83  OSM       H6T            10.5256843418      -37.8744094940       11.9944469920  MEMB      83              0.0000000000
      9465        83  OSM       C7S            11.5508154017      -36.1500480876       11.2088729905  MEMB      83              0.0000000000
      9466        83  OSM       H7S            11.6215606300      -35.0664705322       11.4437682745  MEMB      83              0.0000000000
      9467        83  OSM       H7T            10.9134292815      -36.3318684959       10.3172450917  MEMB      83              0.0000000000
      9468        83  OSM       C8S            12.9283058941      -36.8533667011       10.8943155474  MEMB      83              0.0000000000
      9469        83  OSM       H8S            12.6296825522      -37.9154942013       10.7638152177  MEMB      83              0.0000000000
      9470        83  OSM       H8T            13.5246649618      -36.7489314473       11.8258570377  MEMB      83              0.0000000000
      9471        83  OSM       C9S            13.5753410601      -36.3075131697        9.5969078368  MEMB      83              0.0000000000
      9472        83  OSM       H9S            12.8888802362      -35.9655550221        8.7930683222  MEMB      83              0.0000000000
      9473        83  OSM       H9T            14.1691510517      -37.1391400469        9.1608946517  MEMB      83              0.0000000000
      9474        83  OSM       C10S           14.5152663836      -35.1256247497        9.7909116039  MEMB      83              0.0000000000
      9475        83  OSM       H10S           15.3202775721      -35.4375556492       10.4901807382  MEMB      83              0.0000000000
      9476        83  OSM       H10T           13.7832272497      -34.4333263867       10.2590594001  MEMB      83              0.0000000000
      9477        83  OSM       C11S           15.2335923987      -34.4417740596        8.6415598438  MEMB      83              0.0000000000
      9478        83  OSM       H11S           16.1380626423      -35.0626974262        8.4663205871  MEMB      83              0.0000000000
      9479        83  OSM       H11T           15.5338724548      -33.4030886430        8.8970695494  MEMB      83              0.0000000000
      9480        83  OSM       C12S           14.3428512203      -34.3132153288        7.4095037665  MEMB      83              0.0000000000
      9481        83  OSM       H12S           13.3271310145      -33.9507683127        7.6764595344  MEMB      83              0.0000000000
      9482        83  OSM       H12T           14.1941431446      -35.3202741491        6.9644873813  MEMB      83              0.0000000000
      9483        83  OSM       C13S           14.8323012526      -33.4497724191        6.2073136020  MEMB      83              0.0000000000
      9484        83  OSM       H13S           15.9029510716      -33.4660176118        6.5035664712  MEMB      83              0.0000000000
      9485        83  OSM       H13T           14.2776647700      -32.5059934176        6.3969995570  MEMB      83              0.0000000000
      9486        83  OSM       C14S           14.4850135062      -34.0079234459        4.8225906911  MEMB      83              0.0000000000
      9487        83  OSM       H14S           14.8403814305      -35.0602753476        4.7982851099  MEMB      83              0.0000000000
      9488        83  OSM       H14T           14.9797831534      -33.3891826721        4.0436911971  MEMB      83              0.0000000000
      9489        83  OSM       C15S           13.0073421165      -34.0237430022        4.5008143417  MEMB      83              0.0000000000
      9490        83  OSM       H15S           12.6719241974      -32.9648111034        4.5227108058  MEMB      83              0.0000000000
      9491        83  OSM       H15T           12.3641544006      -34.5876029562        5.2098226794  MEMB      83              0.0000000000
      9492        83  OSM       C16S           12.6251523292      -34.6341901376        3.1645491734  MEMB      83              0.0000000000
      9493        83  OSM       H16S           11.8305382601      -34.0287880942        2.6783411352  MEMB      83              0.0000000000
      9494        83  OSM       H16T           12.1600345440      -35.6118852359        3.4137450187  MEMB      83              0.0000000000
      9495        83  OSM       C17S           13.6327530940      -34.9659262265        2.0913823850  MEMB      83              0.0000000000
      9496        83  OSM       H17S           14.1632750023      -35.8941154639        2.3935945533  MEMB      83              0.0000000000
      9497        83  OSM       H17T           14.4739349691      -34.2439042814        2.0177714247  MEMB      83              0.0000000000
      9498        83  OSM       C18S           13.1030066790      -35.2323086231        0.6498028086  MEMB      83              0.0000000000
      9499        83  OSM       H18S           12.5334164406      -34.3366017508        0.3217827135  MEMB      83              0.0000000000
      9500        83  OSM       H18T           12.4111201184      -36.0931219244        0.5289118849  MEMB      83              0.0000000000
      9501        83  OSM       H18U           13.9858799593      -35.4356278810        0.0067509428  MEMB      83              0.0000000000
      9502        83  OSM       C1F            15.8726890438      -37.2767122679       14.9273023169  MEMB      83              0.0000000000
      9503        83  OSM       OF             16.3589716917      -38.1367321624       15.6356055033  MEMB      83              0.0000000000
      9504        83  OSM       C2F            16.6319022632      -36.5503238215       13.8440118012  MEMB      83              0.0000000000
      9505        83  OSM       H2F            17.4242108560      -35.8954092876       14.2655029034  MEMB      83              0.0000000000
      9506        83  OSM       H2G            16.0068305791      -35.9063235790       13.1891297741  MEMB      83              0.0000000000
      9507        83  OSM       C3F            17.4512047386      -37.5123092766       12.9496233223  MEMB      83              0.0000000000
      9508        83  OSM       H3F            18.2680049640      -37.8864959242       13.6031850596  MEMB      83              0.0000000000
      9509        83  OSM       H3G            18.0568432894      -36.9023499133       12.2457247168  MEMB      83              0.0000000000
      9510        83  OSM       C4F            16.5552416381      -38.5539602390       12.2906087228  MEMB      83              0.0000000000
      9511        83  OSM       H4F            15.5278002206      -38.1438713903       12.1880793748  MEMB      83              0.0000000000
      9512        83  OSM       H4G            16.5562825550      -39.3453619333       13.0703544785  MEMB      83              0.0000000000
      9513        83  OSM       C5F            16.9598364045      -39.1315293980       10.8805024142  MEMB      83              0.0000000000
      9514        83  OSM       H5F            17.8110121737      -39.8255871277       11.0481475911  MEMB      83              0.0000000000
      9515        83  OSM       H5G            17.3063587939      -38.2738313343       10.2651998863  MEMB      83              0.0000000000
      9516        83  OSM       C6F            15.8501657933      -39.7180915072       10.0514272445  MEMB      83              0.0000000000
      9517        83  OSM       H6F            16.2757863062      -39.9944666763        9.0631029759  MEMB      83              0.0000000000
      9518        83  OSM       H6G            15.1682252431      -38.8573688962        9.8828021438  MEMB      83              0.0000000000
      9519        83  OSM       C7F            15.0289763889      -40.8634936103       10.6218893433  MEMB      83              0.0000000000
      9520        83  OSM       H7F            14.4577384531      -40.4990656005       11.5023448622  MEMB      83              0.0000000000
      9521        83  OSM       H7G            15.6935109455      -41.7216574922       10.8591021994  MEMB      83              0.0000000000
      9522        83  OSM       C8F            13.7808054964      -41.2439452254        9.8422625650  MEMB      83              0.0000000000
      9523        83  OSM       H8F            13.1639532033      -40.3372322308        9.6642578939  MEMB      83              0.0000000000
      9524        83  OSM       H8G            13.0312550199      -41.9095154297       10.3213369590  MEMB      83              0.0000000000
      9525        83  OSM       C9F            14.0314763219      -41.8075915627        8.4472721435  MEMB      83              0.0000000000
      9526        83  OSM       H9F            14.4004486521      -42.8370807568        8.3289020957  MEMB      83              0.0000000000
      9527        83  OSM       C10F           14.1028913962      -41.1906462174        7.3122964301  MEMB      83              0.0000000000
      9528        83  OSM       H10F           14.3816473677      -41.7447097394        6.4038312584  MEMB      83              0.0000000000
      9529        83  OSM       C11F           13.9328078584      -39.6819076812        7.0653004232  MEMB      83              0.0000000000
      9530        83  OSM       H11F           14.8513651594      -39.1230138441        7.3449637632  MEMB      83              0.0000000000
      9531        83  OSM       H11G           13.0477459440      -39.4309360688        7.6881967020  MEMB      83              0.0000000000
      9532        83  OSM       C12F           13.5105364504      -39.1053901734        5.6912501777  MEMB      83              0.0000000000
      9533        83  OSM       H12F           13.3149142832      -38.0121730919        5.7217389578  MEMB      83              0.0000000000
      9534        83  OSM       H12G           12.5072247070      -39.5340401999        5.4816181694  MEMB      83              0.0000000000
      9535        83  OSM       C13F           14.6757863821      -39.2304580972        4.6761701121  MEMB      83              0.0000000000
      9536        83  OSM       H13F           14.8039542451      -40.2989240012        4.3999907341  MEMB      83              0.0000000000
      9537        83  OSM       H13G           15.5968761854      -38.8226178776        5.1447644164  MEMB      83              0.0000000000
      9538        83  OSM       C14F           14.3777597405      -38.4309771100        3.3861095087  MEMB      83              0.0000000000
      9539        83  OSM       H14F           14.1587929790      -37.3704379595        3.6343669683  MEMB      83              0.0000000000
      9540        83  OSM       H14G           13.5471436235      -38.8615564714        2.7869448282  MEMB      83              0.0000000000
      9541        83  OSM       C15F           15.6764616425      -38.3467689605        2.5392048410  MEMB      83              0.0000000000
      9542        83  OSM       H15F           15.4794342591      -37.9108563902        1.5364678221  MEMB      83              0.0000000000
      9543        83  OSM       H15G           15.8889016080      -39.4073974537        2.2857135225  MEMB      83              0.0000000000
      9544        83  OSM       C16F           16.9388662464      -37.6739784634        3.1277421007  MEMB      83              0.0000000000
      9545        83  OSM       H16F           17.4261165023      -38.2948919763        3.9096462024  MEMB      83              0.0000000000
      9546        83  OSM       H16G           16.7395580788      -36.7106583517        3.6440863699  MEMB      83              0.0000000000
      9547        83  OSM       C17F           18.0394168322      -37.4593627384        2.0250279914  MEMB      83              0.0000000000
      9548        83  OSM       H17F           17.6302539075      -37.0794940845        1.0645051151  MEMB      83              0.0000000000
      9549        83  OSM       H17G           18.5425161841      -38.4405604010        1.8891498678  MEMB      83              0.0000000000
      9550        83  OSM       C18F           19.1279193623      -36.4427170399        2.4308654354  MEMB      83              0.0000000000
      9551        83  OSM       H18F           18.7281208278      -35.4403087819        2.6947953989  MEMB      83              0.0000000000
      9552        83  OSM       H18G           19.9888035985      -36.4722969988        1.7292056533  MEMB      83              0.0000000000
      9553        83  OSM       H18H           19.5556702957      -36.9054778186        3.3458524676  MEMB      83              0.0000000000
      9554        84  CHL1      C3             26.2429097530      -29.3395101059       17.2849050000  MEMB      84              0.0000000000
      9555        84  CHL1      H3             26.3053076305      -30.2938046384       16.7194450000  MEMB      84              0.0000000000
      9556        84  CHL1      O3             26.4895260470      -29.5663338941       18.7150950000  MEMB      84              0.0000000000
      9557        84  CHL1      H3'            25.8415043280      -30.2007926506       19.0299350000  MEMB      84              0.0000000000
      9558        84  CHL1      C4             27.2743663399      -28.3225172266       16.6948450000  MEMB      84              0.0000000000
      9559        84  CHL1      H4A            27.0381829068      -27.3669589113       17.2100550000  MEMB      84              0.0000000000
      9560        84  CHL1      H4B            28.3110388672      -28.5880507488       16.9933750000  MEMB      84              0.0000000000
      9561        84  CHL1      C5             26.9851465276      -28.2499230240       15.2074350000  MEMB      84              0.0000000000
      9562        84  CHL1      C6             27.9645703352      -28.6347431426       14.3660450000  MEMB      84              0.0000000000
      9563        84  CHL1      H6             28.9517072090      -28.8282306362       14.8111750000  MEMB      84              0.0000000000
      9564        84  CHL1      C7             27.7827892507      -28.4048122621       12.8840450000  MEMB      84              0.0000000000
      9565        84  CHL1      H7A            28.6858304341      -27.8487006385       12.5530250000  MEMB      84              0.0000000000
      9566        84  CHL1      H7B            27.7563838910      -29.4306929913       12.4583750000  MEMB      84              0.0000000000
      9567        84  CHL1      C8             26.4698391457      -27.6782812430       12.4512350000  MEMB      84              0.0000000000
      9568        84  CHL1      H8             26.5794674880      -26.5728723046       12.4706750000  MEMB      84              0.0000000000
      9569        84  CHL1      C14            26.1741694583      -28.2729768287       11.0365850000  MEMB      84              0.0000000000
      9570        84  CHL1      H14            25.9842033635      -29.3431147191       11.2669050000  MEMB      84              0.0000000000
      9571        84  CHL1      C15            27.1534555354      -28.3924918666        9.8702950000  MEMB      84              0.0000000000
      9572        84  CHL1      H15A           27.7149675212      -27.4644355718        9.6300150000  MEMB      84              0.0000000000
      9573        84  CHL1      H15B           27.9023990567      -29.2111521872        9.9267850000  MEMB      84              0.0000000000
      9574        84  CHL1      C16            26.2843710121      -28.5611374342        8.6042550000  MEMB      84              0.0000000000
      9575        84  CHL1      H16A           26.4867798023      -27.7629384048        7.8584550000  MEMB      84              0.0000000000
      9576        84  CHL1      H16B           26.4712801657      -29.5046525823        8.0482250000  MEMB      84              0.0000000000
      9577        84  CHL1      C17            24.8199345483      -28.3926796879        9.0715350000  MEMB      84              0.0000000000
      9578        84  CHL1      H17            24.4126763127      -29.4035763252        9.2873050000  MEMB      84              0.0000000000
      9579        84  CHL1      C13            24.9393666132      -27.6233284153       10.4297650000  MEMB      84              0.0000000000
      9580        84  CHL1      C18            25.0363426140      -26.0462354569       10.2417750000  MEMB      84              0.0000000000
      9581        84  CHL1      H18A           25.7611503445      -25.9126021511        9.4104450000  MEMB      84              0.0000000000
      9582        84  CHL1      H18B           24.0770723378      -25.6507675793        9.8446150000  MEMB      84              0.0000000000
      9583        84  CHL1      H18C           25.4266533137      -25.4846612084       11.1173450000  MEMB      84              0.0000000000
      9584        84  CHL1      C12            23.6942105756      -27.9687897167       11.3337050000  MEMB      84              0.0000000000
      9585        84  CHL1      H12A           22.8222640781      -27.5050127909       10.8248350000  MEMB      84              0.0000000000
      9586        84  CHL1      H12B           23.4531660922      -29.0530044934       11.3602750000  MEMB      84              0.0000000000
      9587        84  CHL1      C11            23.9661104723      -27.5578747163       12.7746050000  MEMB      84              0.0000000000
      9588        84  CHL1      H11A           23.9991235796      -26.4498322523       12.8486350000  MEMB      84              0.0000000000
      9589        84  CHL1      H11B           23.0493374269      -27.8410596786       13.3346550000  MEMB      84              0.0000000000
      9590        84  CHL1      C9             25.2366676747      -28.0579081507       13.3382150000  MEMB      84              0.0000000000
      9591        84  CHL1      H9             25.2550659373      -29.1684107059       13.3658550000  MEMB      84              0.0000000000
      9592        84  CHL1      C10            25.5146132191      -27.7953685363       14.8378750000  MEMB      84              0.0000000000
      9593        84  CHL1      C19            25.4620787346      -26.3133063481       15.0772250000  MEMB      84              0.0000000000
      9594        84  CHL1      H19A           26.1863524929      -25.7780370895       14.4266550000  MEMB      84              0.0000000000
      9595        84  CHL1      H19B           24.4135004208      -26.0195318371       14.8570450000  MEMB      84              0.0000000000
      9596        84  CHL1      H19C           25.7236319965      -26.2259768246       16.1534550000  MEMB      84              0.0000000000
      9597        84  CHL1      C1             24.4383455597      -28.5814409975       15.6104450000  MEMB      84              0.0000000000
      9598        84  CHL1      H1A            23.4509194242      -28.0815624361       15.5133850000  MEMB      84              0.0000000000
      9599        84  CHL1      H1B            24.3834489498      -29.5948520692       15.1584250000  MEMB      84              0.0000000000
      9600        84  CHL1      C2             24.8194725525      -28.7591325873       17.1205050000  MEMB      84              0.0000000000
      9601        84  CHL1      H2A            24.0420131989      -29.3308828965       17.6709550000  MEMB      84              0.0000000000
      9602        84  CHL1      H2B            24.7975537003      -27.8258984778       17.7229250000  MEMB      84              0.0000000000
      9603        84  CHL1      C20            23.9121935520      -28.0826986965        7.8746350000  MEMB      84              0.0000000000
      9604        84  CHL1      H20            24.1135932476      -28.9698256031        7.2368450000  MEMB      84              0.0000000000
      9605        84  CHL1      C21            24.2520616593      -26.8048996368        7.1030150000  MEMB      84              0.0000000000
      9606        84  CHL1      H21A           23.3014842258      -26.2313372397        7.0614050000  MEMB      84              0.0000000000
      9607        84  CHL1      H21B           24.7251866365      -27.0755952166        6.1349150000  MEMB      84              0.0000000000
      9608        84  CHL1      H21C           24.9551290307      -26.1677897201        7.6810350000  MEMB      84              0.0000000000
      9609        84  CHL1      C22            22.4157916402      -28.2108044191        8.1903750000  MEMB      84              0.0000000000
      9610        84  CHL1      H22A           22.3706037225      -29.2358540558        8.6164550000  MEMB      84              0.0000000000
      9611        84  CHL1      H22B           22.0397102599      -27.3896028758        8.8372950000  MEMB      84              0.0000000000
      9612        84  CHL1      C23            21.5275051410      -28.2625886615        6.9095850000  MEMB      84              0.0000000000
      9613        84  CHL1      H23A           20.5031854088      -28.3768989026        7.3243350000  MEMB      84              0.0000000000
      9614        84  CHL1      H23B           21.6555922586      -27.3931219067        6.2299250000  MEMB      84              0.0000000000
      9615        84  CHL1      C24            21.8660577569      -29.4518053028        6.0379650000  MEMB      84              0.0000000000
      9616        84  CHL1      H24A           22.9472117520      -29.5670497225        5.8096350000  MEMB      84              0.0000000000
      9617        84  CHL1      H24B           21.6029568171      -30.3562228572        6.6271250000  MEMB      84              0.0000000000
      9618        84  CHL1      C25            21.1361958674      -29.5101055217        4.6720550000  MEMB      84              0.0000000000
      9619        84  CHL1      H25            20.0547216821      -29.2556611855        4.6727950000  MEMB      84              0.0000000000
      9620        84  CHL1      C26            21.9244883402      -28.6186467748        3.7013350000  MEMB      84              0.0000000000
      9621        84  CHL1      H26A           21.5770214945      -28.6931782898        2.6487050000  MEMB      84              0.0000000000
      9622        84  CHL1      H26B           21.9069010512      -27.5445443092        3.9847550000  MEMB      84              0.0000000000
      9623        84  CHL1      H26C           22.9719695333      -28.9770628639        3.6083650000  MEMB      84              0.0000000000
      9624        84  CHL1      C27            21.2006673686      -30.9045792550        4.0297550000  MEMB      84              0.0000000000
      9625        84  CHL1      H27A           20.5261730351      -31.5897840073        4.5864250000  MEMB      84              0.0000000000
      9626        84  CHL1      H27B           20.8394376582      -30.9137401952        2.9791650000  MEMB      84              0.0000000000
      9627        84  CHL1      H27C           22.2550522721      -31.2492513387        4.0914850000  MEMB      84              0.0000000000
      9628        85  SAPE      N             -20.8767135972       36.8436554055       20.2487151993  MEMB      85              0.0000000000
      9629        85  SAPE      HN1           -19.8650790170       36.8108282060       20.4877087705  MEMB      85              0.0000000000
      9630        85  SAPE      HN2           -21.2110082487       37.7748729159       19.9282766707  MEMB      85              0.0000000000
      9631        85  SAPE      HN3           -21.4601620106       36.4202319958       20.9983154732  MEMB      85              0.0000000000
      9632        85  SAPE      C12           -21.2009414700       35.9052141894       19.1058542935  MEMB      85              0.0000000000
      9633        85  SAPE      H12A          -20.2368199064       35.6449445458       18.6189761054  MEMB      85              0.0000000000
      9634        85  SAPE      H12B          -21.8608819881       36.5052536692       18.4434706386  MEMB      85              0.0000000000
      9635        85  SAPE      C11           -21.9026702635       34.6001797593       19.4733417688  MEMB      85              0.0000000000
      9636        85  SAPE      H11A          -22.0578378919       33.8787160447       18.6428394558  MEMB      85              0.0000000000
      9637        85  SAPE      H11B          -22.9083735641       34.9552610180       19.7844674439  MEMB      85              0.0000000000
      9638        85  SAPE      P             -19.8964286991       33.1975523774       20.2768568768  MEMB      85              0.0000000000
      9639        85  SAPE      O13           -18.6915511204       34.0562587619       20.3043395747  MEMB      85              0.0000000000
      9640        85  SAPE      O14           -19.8870398287       32.0884692934       21.2456711806  MEMB      85              0.0000000000
      9641        85  SAPE      O12           -21.1921094809       33.9726219598       20.5005132452  MEMB      85              0.0000000000
      9642        85  SAPE      O11           -20.0813383441       32.5390602702       18.8447078625  MEMB      85              0.0000000000
      9643        85  SAPE      C1            -19.0395193351       31.8938104396       18.1616513626  MEMB      85              0.0000000000
      9644        85  SAPE      HA            -18.2041763631       31.8960690674       18.8941252609  MEMB      85              0.0000000000
      9645        85  SAPE      HB            -19.4791517673       30.9106294057       17.8888887899  MEMB      85              0.0000000000
      9646        85  SAPE      C2            -18.5557534846       32.7997223691       17.0334642474  MEMB      85              0.0000000000
      9647        85  SAPE      HS            -18.1485372772       33.7518532836       17.4358852768  MEMB      85              0.0000000000
      9648        85  SAPE      O21           -19.6354614538       33.0589850853       16.1480434907  MEMB      85              0.0000000000
      9649        85  SAPE      C21           -19.4780780904       34.2133987718       15.4527322581  MEMB      85              0.0000000000
      9650        85  SAPE      O22           -18.4821575066       34.9125030821       15.5952542215  MEMB      85              0.0000000000
      9651        85  SAPE      C22           -20.7084173239       34.4431773588       14.4791525596  MEMB      85              0.0000000000
      9652        85  SAPE      H2R           -20.9350778226       33.4705461348       13.9923933039  MEMB      85              0.0000000000
      9653        85  SAPE      H2S           -21.5524185195       34.7761190098       15.1203490974  MEMB      85              0.0000000000
      9654        85  SAPE      C3            -17.3941625687       32.2088125872       16.2245773203  MEMB      85              0.0000000000
      9655        85  SAPE      HX            -16.5451130956       31.8244212372       16.8292911156  MEMB      85              0.0000000000
      9656        85  SAPE      HY            -16.8194668133       32.9241470865       15.5982051974  MEMB      85              0.0000000000
      9657        85  SAPE      O31           -17.8543506647       31.1086338140       15.3488158706  MEMB      85              0.0000000000
      9658        85  SAPE      C31           -17.8883493928       31.3297013496       14.0465864988  MEMB      85              0.0000000000
      9659        85  SAPE      O32           -17.5437799615       32.3729246001       13.4874987422  MEMB      85              0.0000000000
      9660        85  SAPE      C32           -18.3948717400       30.1506038589       13.2491426016  MEMB      85              0.0000000000
      9661        85  SAPE      H2X           -19.4673464364       30.0006797025       13.4974205279  MEMB      85              0.0000000000
      9662        85  SAPE      H2Y           -17.7047749364       29.3140190000       13.4904165684  MEMB      85              0.0000000000
      9663        85  SAPE      C23           -20.4640622650       35.5811417158       13.4122540546  MEMB      85              0.0000000000
      9664        85  SAPE      H3R           -19.8819665314       35.0599080063       12.6224435881  MEMB      85              0.0000000000
      9665        85  SAPE      H3S           -19.8798723236       36.3995952297       13.8846701651  MEMB      85              0.0000000000
      9666        85  SAPE      C24           -21.7676034144       36.1408272363       12.7462092752  MEMB      85              0.0000000000
      9667        85  SAPE      H4R           -21.3190846333       36.9794680295       12.1718976169  MEMB      85              0.0000000000
      9668        85  SAPE      H4S           -22.4250595450       36.6482055515       13.4842063535  MEMB      85              0.0000000000
      9669        85  SAPE      C25           -22.5129767807       35.0745626486       11.9231017954  MEMB      85              0.0000000000
      9670        85  SAPE      H5R           -22.7588977953       34.1757355378       12.5075954768  MEMB      85              0.0000000000
      9671        85  SAPE      C26           -22.8179417848       35.1758916789       10.6189941046  MEMB      85              0.0000000000
      9672        85  SAPE      H6R           -23.3648189083       34.2866001980       10.2724588780  MEMB      85              0.0000000000
      9673        85  SAPE      C27           -22.5492373929       36.3127474488        9.6155953103  MEMB      85              0.0000000000
      9674        85  SAPE      H7R           -22.2660431718       37.2007691559       10.2201932201  MEMB      85              0.0000000000
      9675        85  SAPE      H7S           -23.4730605253       36.5995501223        9.0691369407  MEMB      85              0.0000000000
      9676        85  SAPE      C28           -21.4808680762       36.1309076402        8.5733868683  MEMB      85              0.0000000000
      9677        85  SAPE      H8R           -20.5980472040       36.7671876993        8.7339333422  MEMB      85              0.0000000000
      9678        85  SAPE      C29           -21.5666494734       35.2304188556        7.5463712753  MEMB      85              0.0000000000
      9679        85  SAPE      H9R           -20.8443557488       35.1301218425        6.7228227652  MEMB      85              0.0000000000
      9680        85  SAPE      C210          -22.7297791921       34.3240832585        7.3571227968  MEMB      85              0.0000000000
      9681        85  SAPE      H10R          -23.6228776438       34.4321877493        8.0090500520  MEMB      85              0.0000000000
      9682        85  SAPE      H10S          -22.4782576060       33.2710932052        7.6066621962  MEMB      85              0.0000000000
      9683        85  SAPE      C211          -23.3447274642       34.2089811778        5.9671929699  MEMB      85              0.0000000000
      9684        85  SAPE      H11R          -24.2984977799       34.6978643077        5.7195744200  MEMB      85              0.0000000000
      9685        85  SAPE      C212          -22.8919997943       33.3741526791        4.9500574431  MEMB      85              0.0000000000
      9686        85  SAPE      H12R          -23.4302515604       33.3762729203        3.9907451767  MEMB      85              0.0000000000
      9687        85  SAPE      C213          -21.7368623149       32.3726814302        4.9392967351  MEMB      85              0.0000000000
      9688        85  SAPE      H13R          -21.1762647913       32.5762423181        5.8766413580  MEMB      85              0.0000000000
      9689        85  SAPE      H13S          -21.1107361560       32.5777457244        4.0447380032  MEMB      85              0.0000000000
      9690        85  SAPE      C214          -22.2285634790       30.9237234929        4.8605059083  MEMB      85              0.0000000000
      9691        85  SAPE      H14R          -22.4107274771       30.3745162253        5.7960210174  MEMB      85              0.0000000000
      9692        85  SAPE      C215          -22.5223114596       30.3520767078        3.6820851241  MEMB      85              0.0000000000
      9693        85  SAPE      H15R          -22.7744141112       29.2816556964        3.6567190171  MEMB      85              0.0000000000
      9694        85  SAPE      C216          -22.3399819412       30.9916753086        2.3202329645  MEMB      85              0.0000000000
      9695        85  SAPE      H16R          -22.6390341677       32.0604153621        2.2684275802  MEMB      85              0.0000000000
      9696        85  SAPE      H16S          -23.0481806951       30.6054402643        1.5562970332  MEMB      85              0.0000000000
      9697        85  SAPE      C217          -20.9129836598       30.8710737444        1.8742270193  MEMB      85              0.0000000000
      9698        85  SAPE      H17R          -20.3539988982       31.6038921579        2.4945757869  MEMB      85              0.0000000000
      9699        85  SAPE      H17S          -20.9759432496       31.2189289340        0.8209679088  MEMB      85              0.0000000000
      9700        85  SAPE      C218          -20.3066302312       29.5146066932        2.0500098135  MEMB      85              0.0000000000
      9701        85  SAPE      H18R          -20.9995925341       28.7180902766        1.7040541536  MEMB      85              0.0000000000
      9702        85  SAPE      H18S          -20.2126432386       29.3195810191        3.1397137822  MEMB      85              0.0000000000
      9703        85  SAPE      C219          -18.9795210320       29.2777134131        1.2869666507  MEMB      85              0.0000000000
      9704        85  SAPE      H19R          -19.0108375698       29.4325724716        0.1872576600  MEMB      85              0.0000000000
      9705        85  SAPE      H19S          -18.6496829734       28.2466416437        1.5368021909  MEMB      85              0.0000000000
      9706        85  SAPE      C220          -17.7437155163       30.0564852421        1.6825531797  MEMB      85              0.0000000000
      9707        85  SAPE      H20R          -17.9086136922       31.1542012388        1.6361954225  MEMB      85              0.0000000000
      9708        85  SAPE      H20S          -16.8691089461       29.7592761680        1.0652602547  MEMB      85              0.0000000000
      9709        85  SAPE      H20T          -17.5234197021       29.9566712638        2.7669102938  MEMB      85              0.0000000000
      9710        85  SAPE      C33           -18.1799108642       30.5132624781       11.7448922772  MEMB      85              0.0000000000
      9711        85  SAPE      H3X           -18.3882833949       29.5433694695       11.2446830248  MEMB      85              0.0000000000
      9712        85  SAPE      H3Y           -17.2049779390       31.0203407176       11.5814955354  MEMB      85              0.0000000000
      9713        85  SAPE      C34           -19.2654171941       31.4635043687       11.2979472246  MEMB      85              0.0000000000
      9714        85  SAPE      H4X           -19.0958712857       32.4344481755       11.8106291918  MEMB      85              0.0000000000
      9715        85  SAPE      H4Y           -20.2389563744       31.1415383343       11.7255914851  MEMB      85              0.0000000000
      9716        85  SAPE      C35           -19.4045028418       31.6964976244        9.7539140331  MEMB      85              0.0000000000
      9717        85  SAPE      H5X           -20.2719986333       32.3902109602        9.7308082308  MEMB      85              0.0000000000
      9718        85  SAPE      H5Y           -19.6506975020       30.7617735626        9.2061912244  MEMB      85              0.0000000000
      9719        85  SAPE      C36           -18.2049406298       32.3104538824        9.0959107873  MEMB      85              0.0000000000
      9720        85  SAPE      H6X           -17.3699187328       31.5832128274        9.1863535293  MEMB      85              0.0000000000
      9721        85  SAPE      H6Y           -17.9820114437       33.3099913960        9.5266641543  MEMB      85              0.0000000000
      9722        85  SAPE      C37           -18.4327884765       32.5941257178        7.5774572496  MEMB      85              0.0000000000
      9723        85  SAPE      H7X           -19.3439372980       33.2197579091        7.4647040718  MEMB      85              0.0000000000
      9724        85  SAPE      H7Y           -18.7142524477       31.6346098769        7.0932788614  MEMB      85              0.0000000000
      9725        85  SAPE      C38           -17.1200898211       33.2216871360        7.0290563244  MEMB      85              0.0000000000
      9726        85  SAPE      H8X           -16.3200514365       32.4521669254        6.9832502788  MEMB      85              0.0000000000
      9727        85  SAPE      H8Y           -16.6511964192       33.9649017613        7.7088305485  MEMB      85              0.0000000000
      9728        85  SAPE      C39           -17.2352388671       33.6940250496        5.6227341864  MEMB      85              0.0000000000
      9729        85  SAPE      H9X           -18.3132782438       33.8471055439        5.4020109757  MEMB      85              0.0000000000
      9730        85  SAPE      H9Y           -16.8407423839       32.9681374133        4.8799145832  MEMB      85              0.0000000000
      9731        85  SAPE      C310          -16.4596222182       34.9566202957        5.3480957042  MEMB      85              0.0000000000
      9732        85  SAPE      H10X          -16.2352393680       35.0427353696        4.2634032554  MEMB      85              0.0000000000
      9733        85  SAPE      H10Y          -15.5007462914       34.6943224105        5.8441572285  MEMB      85              0.0000000000
      9734        85  SAPE      C311          -17.0592451790       36.2218182613        5.9936483929  MEMB      85              0.0000000000
      9735        85  SAPE      H11X          -16.4035054939       37.1150881614        5.9136755711  MEMB      85              0.0000000000
      9736        85  SAPE      H11Y          -17.2090368094       35.9844755054        7.0686138801  MEMB      85              0.0000000000
      9737        85  SAPE      C312          -18.4204591304       36.7040181681        5.4145891035  MEMB      85              0.0000000000
      9738        85  SAPE      H12X          -18.9234958164       37.4775358130        6.0334149179  MEMB      85              0.0000000000
      9739        85  SAPE      H12Y          -19.1976994936       35.9102035073        5.4058230603  MEMB      85              0.0000000000
      9740        85  SAPE      C313          -18.2134800152       37.2977492487        4.0326361845  MEMB      85              0.0000000000
      9741        85  SAPE      H13X          -17.5555394577       36.6688053193        3.3955604108  MEMB      85              0.0000000000
      9742        85  SAPE      H13Y          -17.5404178819       38.1804129882        4.0796824968  MEMB      85              0.0000000000
      9743        85  SAPE      C314          -19.5381739125       37.8336884702        3.3778627964  MEMB      85              0.0000000000
      9744        85  SAPE      H14X          -19.3588426061       38.5692173901        2.5647482558  MEMB      85              0.0000000000
      9745        85  SAPE      H14Y          -20.1315014545       38.4200137696        4.1116935026  MEMB      85              0.0000000000
      9746        85  SAPE      C315          -20.4111605352       36.6824006450        2.8341843093  MEMB      85              0.0000000000
      9747        85  SAPE      H15X          -21.4597953023       36.9936147876        2.6396809076  MEMB      85              0.0000000000
      9748        85  SAPE      H15Y          -20.4350227205       35.8610874263        3.5819798732  MEMB      85              0.0000000000
      9749        85  SAPE      C316          -19.8493848038       36.0515794312        1.4895074192  MEMB      85              0.0000000000
      9750        85  SAPE      H16X          -18.7400881647       36.0674177341        1.5489307868  MEMB      85              0.0000000000
      9751        85  SAPE      H16Y          -20.0741169668       36.8508517022        0.7512791030  MEMB      85              0.0000000000
      9752        85  SAPE      C317          -20.4533083839       34.6546608073        1.0863633734  MEMB      85              0.0000000000
      9753        85  SAPE      H17X          -21.5548370985       34.7299064829        1.2100279143  MEMB      85              0.0000000000
      9754        85  SAPE      H17Y          -20.1125266024       33.8797672995        1.8058972767  MEMB      85              0.0000000000
      9755        85  SAPE      C318          -20.1817246666       34.1568314460       -0.3579617477  MEMB      85              0.0000000000
      9756        85  SAPE      H18X          -20.5991376116       34.8185211582       -1.1467916203  MEMB      85              0.0000000000
      9757        85  SAPE      H18Y          -20.5923720356       33.1521181116       -0.5951127053  MEMB      85              0.0000000000
      9758        85  SAPE      H18Z          -19.0811469045       34.1079146648       -0.5016857947  MEMB      85              0.0000000000
      9759        86  OSM       N             -29.2646568471      -26.9090916077       20.3365465047  MEMB      86              0.0000000000
      9760        86  OSM       C15           -29.0584243156      -26.6156620453       21.7540468234  MEMB      86              0.0000000000
      9761        86  OSM       H15A          -29.9968593350      -26.7048127824       22.2811064827  MEMB      86              0.0000000000
      9762        86  OSM       H15B          -28.5369492511      -25.6820885647       21.9053894448  MEMB      86              0.0000000000
      9763        86  OSM       H15C          -28.3554372145      -27.3402316023       22.1377239360  MEMB      86              0.0000000000
      9764        86  OSM       C14           -27.9946716239      -26.6116706757       19.6416415168  MEMB      86              0.0000000000
      9765        86  OSM       H14A          -28.1049040590      -26.8568778263       18.5956385190  MEMB      86              0.0000000000
      9766        86  OSM       H14B          -27.2605634355      -27.2365117628       20.1285284142  MEMB      86              0.0000000000
      9767        86  OSM       H14C          -27.7986702137      -25.5513436927       19.7023901801  MEMB      86              0.0000000000
      9768        86  OSM       C13           -29.5600823555      -28.4177263554       20.2443477158  MEMB      86              0.0000000000
      9769        86  OSM       H13A          -28.6866737257      -28.9900849791       20.5199615061  MEMB      86              0.0000000000
      9770        86  OSM       H13B          -29.9178440252      -28.6352573314       19.2488142194  MEMB      86              0.0000000000
      9771        86  OSM       H13C          -30.3749497741      -28.5577716764       20.9391702687  MEMB      86              0.0000000000
      9772        86  OSM       C12           -30.4007064851      -25.9942089597       19.8021454072  MEMB      86              0.0000000000
      9773        86  OSM       H12A          -30.5486647094      -26.3652677609       18.7987392572  MEMB      86              0.0000000000
      9774        86  OSM       H12B          -30.0443733440      -24.9795128764       19.7030571328  MEMB      86              0.0000000000
      9775        86  OSM       C11           -31.7104489786      -25.9953891722       20.6217356446  MEMB      86              0.0000000000
      9776        86  OSM       H11A          -32.5012636813      -25.6354788309       19.9293502806  MEMB      86              0.0000000000
      9777        86  OSM       H11B          -31.6372013408      -25.3781601415       21.5425961921  MEMB      86              0.0000000000
      9778        86  OSM       P             -33.5002601589      -27.5080818317       21.8153914208  MEMB      86              0.0000000000
      9779        86  OSM       O13           -33.2548188427      -28.4242217566       22.9578134559  MEMB      86              0.0000000000
      9780        86  OSM       O14           -34.0720236811      -26.1594432206       22.0416571625  MEMB      86              0.0000000000
      9781        86  OSM       O11           -34.4022626805      -28.2163434417       20.8469247535  MEMB      86              0.0000000000
      9782        86  OSM       O12           -32.1603920321      -27.3746070338       20.9377495930  MEMB      86              0.0000000000
      9783        86  OSM       C1S           -34.8179934266      -27.6486457893       19.6272120178  MEMB      86              0.0000000000
      9784        86  OSM       H1S           -34.7875631409      -26.5388227725       19.6682969536  MEMB      86              0.0000000000
      9785        86  OSM       H1T           -35.8888679161      -27.9192645397       19.5075693225  MEMB      86              0.0000000000
      9786        86  OSM       NF            -34.3451576492      -27.4916463929       17.1317308878  MEMB      86              0.0000000000
      9787        86  OSM       HNF           -34.6340981149      -28.2178061175       16.5126874648  MEMB      86              0.0000000000
      9788        86  OSM       C2S           -33.9282294627      -28.1222940371       18.3738256455  MEMB      86              0.0000000000
      9789        86  OSM       H2S           -32.8566287364      -27.9809667989       18.6307683359  MEMB      86              0.0000000000
      9790        86  OSM       C3S           -34.0169008387      -29.6197352801       18.0843124481  MEMB      86              0.0000000000
      9791        86  OSM       H3S           -35.0720706237      -29.9511044217       17.9788020767  MEMB      86              0.0000000000
      9792        86  OSM       O3            -33.5148389634      -30.3922313777       19.1844716822  MEMB      86              0.0000000000
      9793        86  OSM       HO3           -33.4077646472      -29.7832194627       19.9188011090  MEMB      86              0.0000000000
      9794        86  OSM       C4S           -33.1676955739      -30.0132701587       16.8417522268  MEMB      86              0.0000000000
      9795        86  OSM       H4S           -32.0707862394      -30.0874085228       16.8777143452  MEMB      86              0.0000000000
      9796        86  OSM       C5S           -33.8328072847      -30.3870473985       15.6870577973  MEMB      86              0.0000000000
      9797        86  OSM       H5S           -34.8469818813      -29.9981487539       15.5132537809  MEMB      86              0.0000000000
      9798        86  OSM       C6S           -33.1505082262      -30.7982892862       14.4757448932  MEMB      86              0.0000000000
      9799        86  OSM       H6S           -33.3820543348      -31.8558159554       14.2260556631  MEMB      86              0.0000000000
      9800        86  OSM       H6T           -32.0430776402      -30.7241991475       14.5250315211  MEMB      86              0.0000000000
      9801        86  OSM       C7S           -33.4184851735      -29.8186006215       13.2379029443  MEMB      86              0.0000000000
      9802        86  OSM       H7S           -33.1898977225      -28.8117603178       13.6481971571  MEMB      86              0.0000000000
      9803        86  OSM       H7T           -34.4882326891      -29.9295858440       12.9592569540  MEMB      86              0.0000000000
      9804        86  OSM       C8S           -32.5046405253      -30.0351294654       12.0156718563  MEMB      86              0.0000000000
      9805        86  OSM       H8S           -32.5664022151      -31.0995122109       11.7032680831  MEMB      86              0.0000000000
      9806        86  OSM       H8T           -31.4217909114      -29.9016229930       12.2252760492  MEMB      86              0.0000000000
      9807        86  OSM       C9S           -32.8874550104      -28.9187382571       10.9706936320  MEMB      86              0.0000000000
      9808        86  OSM       H9S           -32.4841460868      -27.9411946017       11.3113857711  MEMB      86              0.0000000000
      9809        86  OSM       H9T           -33.9906910974      -28.7887314789       10.9536792686  MEMB      86              0.0000000000
      9810        86  OSM       C10S          -32.5276640358      -29.2454787463        9.5850924320  MEMB      86              0.0000000000
      9811        86  OSM       H10S          -32.8147720636      -28.3614852956        8.9764501215  MEMB      86              0.0000000000
      9812        86  OSM       H10T          -32.9898178929      -30.1817467329        9.2054387160  MEMB      86              0.0000000000
      9813        86  OSM       C11S          -31.0078422441      -29.2190138834        9.2820333023  MEMB      86              0.0000000000
      9814        86  OSM       H11S          -30.4739449428      -29.9434915808        9.9334985801  MEMB      86              0.0000000000
      9815        86  OSM       H11T          -30.6016309245      -28.2492242731        9.6409499545  MEMB      86              0.0000000000
      9816        86  OSM       C12S          -30.4465346309      -29.3131625049        7.8831124314  MEMB      86              0.0000000000
      9817        86  OSM       H12S          -30.9055483187      -30.0946276605        7.2405092272  MEMB      86              0.0000000000
      9818        86  OSM       H12T          -29.3904502751      -29.6377705662        7.9998902472  MEMB      86              0.0000000000
      9819        86  OSM       C13S          -30.5995202908      -27.9702895487        7.0644873482  MEMB      86              0.0000000000
      9820        86  OSM       H13S          -30.1599313921      -27.0275086359        7.4546757600  MEMB      86              0.0000000000
      9821        86  OSM       H13T          -31.6987354440      -27.8088985839        7.0642750828  MEMB      86              0.0000000000
      9822        86  OSM       C14S          -30.2846564256      -28.1180503956        5.5853937233  MEMB      86              0.0000000000
      9823        86  OSM       H14S          -29.4512087340      -28.8436807710        5.4707368212  MEMB      86              0.0000000000
      9824        86  OSM       H14T          -29.8962291237      -27.1315585770        5.2533100437  MEMB      86              0.0000000000
      9825        86  OSM       C15S          -31.4129907349      -28.4675043527        4.6563349662  MEMB      86              0.0000000000
      9826        86  OSM       H15S          -32.1723478537      -27.6712870839        4.8103982717  MEMB      86              0.0000000000
      9827        86  OSM       H15T          -31.7826484508      -29.4219706329        5.0883861639  MEMB      86              0.0000000000
      9828        86  OSM       C16S          -30.8394310667      -28.3552703999        3.2100115729  MEMB      86              0.0000000000
      9829        86  OSM       H16S          -29.9164678439      -28.9510928935        3.0443154649  MEMB      86              0.0000000000
      9830        86  OSM       H16T          -30.5599782320      -27.3195254542        2.9211188562  MEMB      86              0.0000000000
      9831        86  OSM       C17S          -31.8810725881      -28.8448877355        2.2540615501  MEMB      86              0.0000000000
      9832        86  OSM       H17S          -31.3786325695      -29.1783173720        1.3209468608  MEMB      86              0.0000000000
      9833        86  OSM       H17T          -32.4550336629      -27.9281830682        2.0000080930  MEMB      86              0.0000000000
      9834        86  OSM       C18S          -32.9176853136      -29.8584329850        2.7441197157  MEMB      86              0.0000000000
      9835        86  OSM       H18S          -32.5588556161      -30.8542286648        3.0816878696  MEMB      86              0.0000000000
      9836        86  OSM       H18T          -33.6736249851      -29.9968092212        1.9417925148  MEMB      86              0.0000000000
      9837        86  OSM       H18U          -33.5290848845      -29.3033509186        3.4873517319  MEMB      86              0.0000000000
      9838        86  OSM       C1F           -34.2826042377      -26.1981483775       16.7538380264  MEMB      86              0.0000000000
      9839        86  OSM       OF            -33.9088236519      -25.3357405401       17.5679479828  MEMB      86              0.0000000000
      9840        86  OSM       C2F           -34.8267182463      -25.8817999023       15.3475608518  MEMB      86              0.0000000000
      9841        86  OSM       H2F           -35.8877679990      -25.5690249275       15.4508374936  MEMB      86              0.0000000000
      9842        86  OSM       H2G           -34.7302202320      -26.7736499685       14.6921124195  MEMB      86              0.0000000000
      9843        86  OSM       C3F           -34.1367774064      -24.7477210349       14.7117433552  MEMB      86              0.0000000000
      9844        86  OSM       H3F           -34.0092563560      -23.9000272094       15.4184783471  MEMB      86              0.0000000000
      9845        86  OSM       H3G           -34.6508662218      -24.3966431476       13.7915380655  MEMB      86              0.0000000000
      9846        86  OSM       C4F           -32.7089694060      -25.3394603476       14.2231968575  MEMB      86              0.0000000000
      9847        86  OSM       H4F           -32.9306632797      -26.2005945977       13.5571482136  MEMB      86              0.0000000000
      9848        86  OSM       H4G           -32.1328993472      -25.6963131765       15.1036061120  MEMB      86              0.0000000000
      9849        86  OSM       C5F           -31.6946252680      -24.3852717508       13.6202894604  MEMB      86              0.0000000000
      9850        86  OSM       H5F           -30.6437870098      -24.7241133398       13.4968128032  MEMB      86              0.0000000000
      9851        86  OSM       H5G           -31.7063701427      -23.5123832910       14.3074932640  MEMB      86              0.0000000000
      9852        86  OSM       C6F           -32.1547295217      -23.9771365052       12.1871241135  MEMB      86              0.0000000000
      9853        86  OSM       H6F           -31.5951842602      -23.0859052761       11.8308419205  MEMB      86              0.0000000000
      9854        86  OSM       H6G           -33.2060376676      -23.6239325622       12.2528442027  MEMB      86              0.0000000000
      9855        86  OSM       C7F           -32.2216656506      -25.0715542352       11.1078042400  MEMB      86              0.0000000000
      9856        86  OSM       H7F           -32.8716212994      -25.8960292504       11.4712869042  MEMB      86              0.0000000000
      9857        86  OSM       H7G           -31.1798291584      -25.4445345926       11.0088939131  MEMB      86              0.0000000000
      9858        86  OSM       C8F           -32.6683584123      -24.5452267670        9.7606042109  MEMB      86              0.0000000000
      9859        86  OSM       H8F           -33.7519572575      -24.3104162654        9.8313030243  MEMB      86              0.0000000000
      9860        86  OSM       H8G           -32.4939676638      -25.3546803747        9.0198661677  MEMB      86              0.0000000000
      9861        86  OSM       C9F           -32.0001449039      -23.2481147198        9.2351635836  MEMB      86              0.0000000000
      9862        86  OSM       H9F           -32.0107219419      -22.3152695228        9.8179912856  MEMB      86              0.0000000000
      9863        86  OSM       C10F          -31.3119959154      -23.1707666213        8.0687069077  MEMB      86              0.0000000000
      9864        86  OSM       H10F          -30.8924024043      -22.2045793991        7.7518108000  MEMB      86              0.0000000000
      9865        86  OSM       C11F          -31.0784028493      -24.2420200158        7.0405343997  MEMB      86              0.0000000000
      9866        86  OSM       H11F          -31.7331019675      -25.1302325304        7.1700290187  MEMB      86              0.0000000000
      9867        86  OSM       H11G          -30.0787470302      -24.7174611001        7.1352202227  MEMB      86              0.0000000000
      9868        86  OSM       C12F          -31.3579962270      -23.9330620546        5.4942753010  MEMB      86              0.0000000000
      9869        86  OSM       H12F          -30.6151774354      -24.5838238317        4.9853047071  MEMB      86              0.0000000000
      9870        86  OSM       H12G          -31.1871115589      -22.8740975579        5.2049414092  MEMB      86              0.0000000000
      9871        86  OSM       C13F          -32.8679632094      -24.3997343338        5.1807366797  MEMB      86              0.0000000000
      9872        86  OSM       H13F          -33.4674534736      -23.6031467938        5.6710224914  MEMB      86              0.0000000000
      9873        86  OSM       H13G          -33.0871191180      -25.3843820478        5.6463119939  MEMB      86              0.0000000000
      9874        86  OSM       C14F          -33.3068096512      -24.5687461195        3.7035706476  MEMB      86              0.0000000000
      9875        86  OSM       H14F          -34.3686232068      -24.8814396103        3.6081979388  MEMB      86              0.0000000000
      9876        86  OSM       H14G          -32.6615461443      -25.3875308717        3.3194521447  MEMB      86              0.0000000000
      9877        86  OSM       C15F          -33.1455504483      -23.3005649872        2.8059702332  MEMB      86              0.0000000000
      9878        86  OSM       H15F          -32.1571898860      -22.7981002360        2.8766365748  MEMB      86              0.0000000000
      9879        86  OSM       H15G          -33.8668607997      -22.5611149714        3.2149286504  MEMB      86              0.0000000000
      9880        86  OSM       C16F          -33.4637955463      -23.6281507305        1.3471347946  MEMB      86              0.0000000000
      9881        86  OSM       H16F          -33.2753128190      -24.6992495366        1.1201049530  MEMB      86              0.0000000000
      9882        86  OSM       H16G          -32.7696329907      -23.0451189305        0.7048469397  MEMB      86              0.0000000000
      9883        86  OSM       C17F          -34.9307638575      -23.2816615300        0.8996647708  MEMB      86              0.0000000000
      9884        86  OSM       H17F          -35.0255218955      -22.1858907556        1.0565996175  MEMB      86              0.0000000000
      9885        86  OSM       H17G          -35.6689345872      -23.7872062305        1.5583373473  MEMB      86              0.0000000000
      9886        86  OSM       C18F          -35.3468737933      -23.6921626436       -0.5127601999  MEMB      86              0.0000000000
      9887        86  OSM       H18F          -36.2423897452      -23.1158687741       -0.8293973359  MEMB      86              0.0000000000
      9888        86  OSM       H18G          -35.4907159786      -24.7753961639       -0.7133484946  MEMB      86              0.0000000000
      9889        86  OSM       H18H          -34.4437509321      -23.3980079470       -1.0890972778  MEMB      86              0.0000000000
      9890        87  SLPC      N              30.6949461849       28.8840947618       15.4421469959  MEMB      87              0.0000000000
      9891        87  SLPC      C13            30.9004366336       30.2309707971       14.8541901190  MEMB      87              0.0000000000
      9892        87  SLPC      H13A           30.2782399665       30.3827630273       13.9845751965  MEMB      87              0.0000000000
      9893        87  SLPC      H13B           30.9520664071       30.9740757883       15.6361935024  MEMB      87              0.0000000000
      9894        87  SLPC      H13C           31.9317713483       30.2586114328       14.5348391109  MEMB      87              0.0000000000
      9895        87  SLPC      C14            31.4131452235       28.7036081247       16.6983840005  MEMB      87              0.0000000000
      9896        87  SLPC      H14A           32.4757671493       28.8670160429       16.5957565349  MEMB      87              0.0000000000
      9897        87  SLPC      H14B           31.0961631769       29.3456290239       17.5069206575  MEMB      87              0.0000000000
      9898        87  SLPC      H14C           31.2124920896       27.6836960758       16.9915013283  MEMB      87              0.0000000000
      9899        87  SLPC      C15            31.1950783708       27.9092367746       14.4021730532  MEMB      87              0.0000000000
      9900        87  SLPC      H15A           31.0228228238       26.8962000871       14.7345653638  MEMB      87              0.0000000000
      9901        87  SLPC      H15B           30.5868102495       28.0691288644       13.5241956769  MEMB      87              0.0000000000
      9902        87  SLPC      H15C           32.2369782409       28.1065928339       14.1974895620  MEMB      87              0.0000000000
      9903        87  SLPC      C12            29.1665596745       28.7147181509       15.6076593546  MEMB      87              0.0000000000
      9904        87  SLPC      H12A           28.9045439525       27.6770238320       15.4629588543  MEMB      87              0.0000000000
      9905        87  SLPC      H12B           28.6398433727       29.3380167426       14.9002212073  MEMB      87              0.0000000000
      9906        87  SLPC      C11            28.5154567664       29.1788972193       17.0176271413  MEMB      87              0.0000000000
      9907        87  SLPC      H11A           29.0590977564       28.5847018745       17.7829423252  MEMB      87              0.0000000000
      9908        87  SLPC      H11B           27.4435833144       28.9157454235       16.8905074278  MEMB      87              0.0000000000
      9909        87  SLPC      P              28.6626959746       31.1041207836       18.7033662350  MEMB      87              0.0000000000
      9910        87  SLPC      O13            27.5860396046       30.3664467826       19.4295044520  MEMB      87              0.0000000000
      9911        87  SLPC      O14            30.0770006200       30.9901528475       19.1919244208  MEMB      87              0.0000000000
      9912        87  SLPC      O12            28.6554657426       30.5838946319       17.1954988857  MEMB      87              0.0000000000
      9913        87  SLPC      O11            28.1812524037       32.5957536410       18.4575253011  MEMB      87              0.0000000000
      9914        87  SLPC      C1             29.0652379357       33.4485077334       17.6894667736  MEMB      87              0.0000000000
      9915        87  SLPC      HA             29.2977582950       34.4156637737       18.1843049186  MEMB      87              0.0000000000
      9916        87  SLPC      HB             30.0705116820       32.9986183603       17.5433662950  MEMB      87              0.0000000000
      9917        87  SLPC      C2             28.3011562353       33.9213466696       16.4331869042  MEMB      87              0.0000000000
      9918        87  SLPC      HS             27.3503328150       34.3195494340       16.8475424266  MEMB      87              0.0000000000
      9919        87  SLPC      O21            28.0097504796       32.8109532088       15.6035170918  MEMB      87              0.0000000000
      9920        87  SLPC      C21            26.9877550651       32.9553193897       14.7642802289  MEMB      87              0.0000000000
      9921        87  SLPC      O22            26.2133329420       33.9229377246       14.7755403645  MEMB      87              0.0000000000
      9922        87  SLPC      C22            26.7727345448       31.7103778897       13.7970666397  MEMB      87              0.0000000000
      9923        87  SLPC      H2R            27.7753463409       31.3357623387       13.4991509599  MEMB      87              0.0000000000
      9924        87  SLPC      H2S            26.1562477798       30.8692728182       14.1802211120  MEMB      87              0.0000000000
      9925        87  SLPC      C3             28.9712585933       34.9671545305       15.6209510755  MEMB      87              0.0000000000
      9926        87  SLPC      HX             28.9622737069       35.9620695397       16.1153043150  MEMB      87              0.0000000000
      9927        87  SLPC      HY             28.4579550671       35.0547428214       14.6395393675  MEMB      87              0.0000000000
      9928        87  SLPC      O31            30.2595535830       34.5360960207       15.3387442669  MEMB      87              0.0000000000
      9929        87  SLPC      C31            30.7390142877       34.6208151396       14.1142070543  MEMB      87              0.0000000000
      9930        87  SLPC      O32            30.1748420795       35.2014667183       13.1901138639  MEMB      87              0.0000000000
      9931        87  SLPC      C32            32.0765202562       33.8769527828       14.1118689388  MEMB      87              0.0000000000
      9932        87  SLPC      H2X            31.8904835226       32.9185816119       14.6421860750  MEMB      87              0.0000000000
      9933        87  SLPC      H2Y            32.8218331777       34.5306455725       14.6133822304  MEMB      87              0.0000000000
      9934        87  SLPC      C23            26.0225781251       32.0927127849       12.4495037299  MEMB      87              0.0000000000
      9935        87  SLPC      H3R            26.6092270182       32.8130523883       11.8401802143  MEMB      87              0.0000000000
      9936        87  SLPC      H3S            25.0966283107       32.5396311682       12.8704574859  MEMB      87              0.0000000000
      9937        87  SLPC      C24            25.7715762852       30.7304201036       11.7155665595  MEMB      87              0.0000000000
      9938        87  SLPC      H4R            25.2363053953       31.0810397158       10.8073419200  MEMB      87              0.0000000000
      9939        87  SLPC      H4S            25.1724648924       30.0089818061       12.3113123746  MEMB      87              0.0000000000
      9940        87  SLPC      C25            26.9892240800       30.0444905047       11.0584783302  MEMB      87              0.0000000000
      9941        87  SLPC      H5R            27.7900786889       29.9343659748       11.8205973032  MEMB      87              0.0000000000
      9942        87  SLPC      H5S            27.3582229683       30.6396979737       10.1959884489  MEMB      87              0.0000000000
      9943        87  SLPC      C26            26.7466939665       28.7764863832       10.3117290453  MEMB      87              0.0000000000
      9944        87  SLPC      H6R            26.1551113004       28.1296273337       10.9943156041  MEMB      87              0.0000000000
      9945        87  SLPC      H6S            27.7186102659       28.3148518692       10.0349745023  MEMB      87              0.0000000000
      9946        87  SLPC      C27            25.8700132887       28.8481276925        9.0728579493  MEMB      87              0.0000000000
      9947        87  SLPC      H7R            26.1418793915       29.7292004290        8.4530832571  MEMB      87              0.0000000000
      9948        87  SLPC      H7S            24.8193428449       28.9146109481        9.4278123662  MEMB      87              0.0000000000
      9949        87  SLPC      C28            25.8407083912       27.5464667397        8.2723838115  MEMB      87              0.0000000000
      9950        87  SLPC      H8R            25.8933002161       26.7681984174        9.0634925853  MEMB      87              0.0000000000
      9951        87  SLPC      H8S            26.7624395289       27.3370764843        7.6885266175  MEMB      87              0.0000000000
      9952        87  SLPC      C29            24.7230300951       27.3428903572        7.3298056144  MEMB      87              0.0000000000
      9953        87  SLPC      H9R            24.1037917809       26.4613889528        7.5522882370  MEMB      87              0.0000000000
      9954        87  SLPC      C210           24.2958468375       28.0608080083        6.2831777350  MEMB      87              0.0000000000
      9955        87  SLPC      H10R           23.3310708474       27.8145103681        5.8156897377  MEMB      87              0.0000000000
      9956        87  SLPC      C211           24.9406425825       29.3100751214        5.7992225281  MEMB      87              0.0000000000
      9957        87  SLPC      H11R           26.0282620842       29.1823245001        5.6119141995  MEMB      87              0.0000000000
      9958        87  SLPC      H11S           24.9941715916       30.0380003992        6.6368270283  MEMB      87              0.0000000000
      9959        87  SLPC      C212           24.3371773844       29.9543813727        4.5322723531  MEMB      87              0.0000000000
      9960        87  SLPC      H12R           24.1868476490       29.4319524475        3.5759929264  MEMB      87              0.0000000000
      9961        87  SLPC      C213           23.9668043316       31.2489759377        4.4302541635  MEMB      87              0.0000000000
      9962        87  SLPC      H13R           23.5745451292       31.5442551633        3.4459056190  MEMB      87              0.0000000000
      9963        87  SLPC      C214           24.0839024394       32.3263632666        5.4785952319  MEMB      87              0.0000000000
      9964        87  SLPC      H14R           23.9470793721       31.9471481942        6.5138711624  MEMB      87              0.0000000000
      9965        87  SLPC      H14S           23.2993109767       33.0643864648        5.2064567818  MEMB      87              0.0000000000
      9966        87  SLPC      C215           25.4529806311       33.0611845272        5.4753760288  MEMB      87              0.0000000000
      9967        87  SLPC      H15R           26.3517100481       32.4366145002        5.6664751766  MEMB      87              0.0000000000
      9968        87  SLPC      H15S           25.3922531055       33.8283760191        6.2766572089  MEMB      87              0.0000000000
      9969        87  SLPC      C216           25.7848330130       33.7719716814        4.1377046677  MEMB      87              0.0000000000
      9970        87  SLPC      H16R           24.9662872012       34.5075125248        3.9851148384  MEMB      87              0.0000000000
      9971        87  SLPC      H16S           25.6048230564       32.9714065052        3.3886960194  MEMB      87              0.0000000000
      9972        87  SLPC      C217           27.2514474087       34.3342586783        4.0768720735  MEMB      87              0.0000000000
      9973        87  SLPC      H17R           27.9827468287       33.5735707718        4.4245445303  MEMB      87              0.0000000000
      9974        87  SLPC      H17S           27.2585248571       35.1646160515        4.8149626648  MEMB      87              0.0000000000
      9975        87  SLPC      C218           27.7015369242       34.9920250786        2.7574257868  MEMB      87              0.0000000000
      9976        87  SLPC      H18R           27.0494321265       35.8716420527        2.5693976984  MEMB      87              0.0000000000
      9977        87  SLPC      H18S           27.7841144658       34.2011385984        1.9815386379  MEMB      87              0.0000000000
      9978        87  SLPC      H18T           28.6911649353       35.4588555791        2.9498489573  MEMB      87              0.0000000000
      9979        87  SLPC      C33            32.3872091689       33.4650050822       12.6670169811  MEMB      87              0.0000000000
      9980        87  SLPC      H3X            32.2388706371       34.3339857339       11.9908595105  MEMB      87              0.0000000000
      9981        87  SLPC      H3Y            31.6361460890       32.6932200748       12.3939362358  MEMB      87              0.0000000000
      9982        87  SLPC      C34            33.7601754124       32.8436454792       12.3531391732  MEMB      87              0.0000000000
      9983        87  SLPC      H4X            34.5271686122       32.9957058805       13.1423925261  MEMB      87              0.0000000000
      9984        87  SLPC      H4Y            33.9135225687       33.0977748299       11.2825209232  MEMB      87              0.0000000000
      9985        87  SLPC      C35            33.6976110613       31.2812019367       12.3071233662  MEMB      87              0.0000000000
      9986        87  SLPC      H5X            33.0920864523       30.9905560203       13.1921015970  MEMB      87              0.0000000000
      9987        87  SLPC      H5Y            34.7262966469       30.9413862070       12.5534000019  MEMB      87              0.0000000000
      9988        87  SLPC      C36            33.1886813205       30.5197088216       11.1314768787  MEMB      87              0.0000000000
      9989        87  SLPC      H6X            33.6692869837       29.5180604758       11.1378058079  MEMB      87              0.0000000000
      9990        87  SLPC      H6Y            33.4476964433       31.0384338991       10.1837656793  MEMB      87              0.0000000000
      9991        87  SLPC      C37            31.6542089885       30.2789821997       11.1754627099  MEMB      87              0.0000000000
      9992        87  SLPC      H7X            31.0495642398       31.1940568932       10.9983640819  MEMB      87              0.0000000000
      9993        87  SLPC      H7Y            31.3433246705       29.9291256337       12.1830698082  MEMB      87              0.0000000000
      9994        87  SLPC      C38            31.0966623453       29.2233215222       10.1864297743  MEMB      87              0.0000000000
      9995        87  SLPC      H8X            30.0277175340       28.9927572588       10.3826909137  MEMB      87              0.0000000000
      9996        87  SLPC      H8Y            31.6015136217       28.2361969766       10.1154984669  MEMB      87              0.0000000000
      9997        87  SLPC      C39            31.0652344713       29.6590453111        8.7030644716  MEMB      87              0.0000000000
      9998        87  SLPC      H9X            32.0777794822       29.9529457563        8.3527844341  MEMB      87              0.0000000000
      9999        87  SLPC      H9Y            30.5083885314       30.6158359961        8.6092810293  MEMB      87              0.0000000000
     10000        87  SLPC      C310           30.3354554747       28.6820348752        7.8389084776  MEMB      87              0.0000000000
     10001        87  SLPC      H10X           29.2321003032       28.6071281569        7.9452912572  MEMB      87              0.0000000000
     10002        87  SLPC      H10Y           30.7326237079       27.6575575179        8.0032991241  MEMB      87              0.0000000000
     10003        87  SLPC      C311           30.6053974975       28.9264129392        6.3519906550  MEMB      87              0.0000000000
     10004        87  SLPC      H11X           31.0418317477       28.0043952341        5.9118430386  MEMB      87              0.0000000000
     10005        87  SLPC      H11Y           31.3758481223       29.7192839140        6.2420699591  MEMB      87              0.0000000000
     10006        87  SLPC      C312           29.3582394609       29.3229314633        5.6074581128  MEMB      87              0.0000000000
     10007        87  SLPC      H12X           28.7535108811       30.0419597060        6.2004356172  MEMB      87              0.0000000000
     10008        87  SLPC      H12Y           28.7262936973       28.4435855819        5.3590298606  MEMB      87              0.0000000000
     10009        87  SLPC      C313           29.7067270630       29.9193557377        4.2678153973  MEMB      87              0.0000000000
     10010        87  SLPC      H13X           30.5353167678       29.3584218784        3.7849969017  MEMB      87              0.0000000000
     10011        87  SLPC      H13Y           30.0319904728       30.9793739061        4.3377168838  MEMB      87              0.0000000000
     10012        87  SLPC      C314           28.5924522193       29.7464120804        3.1791362928  MEMB      87              0.0000000000
     10013        87  SLPC      H14X           27.6376670495       29.9102671803        3.7230647772  MEMB      87              0.0000000000
     10014        87  SLPC      H14Y           28.5914496313       28.6566265185        2.9630639922  MEMB      87              0.0000000000
     10015        87  SLPC      C315           28.7056896709       30.4743689386        1.8254388850  MEMB      87              0.0000000000
     10016        87  SLPC      H15X           28.7811767823       31.5689673428        2.0000157394  MEMB      87              0.0000000000
     10017        87  SLPC      H15Y           27.7216268553       30.4776553287        1.3097538181  MEMB      87              0.0000000000
     10018        87  SLPC      C316           29.7794915190       29.9502559812        0.9025740814  MEMB      87              0.0000000000
     10019        87  SLPC      H16X           29.2944600636       29.4229591227        0.0534433094  MEMB      87              0.0000000000
     10020        87  SLPC      H16Y           30.4043117996       29.2422460789        1.4879304024  MEMB      87              0.0000000000
     10021        87  SLPC      C317           30.6127666780       31.2670801029        0.4099043115  MEMB      87              0.0000000000
     10022        87  SLPC      H17X           30.7816784854       31.7895803430        1.3757115908  MEMB      87              0.0000000000
     10023        87  SLPC      H17Y           30.0507801023       31.9481982435       -0.2643136679  MEMB      87              0.0000000000
     10024        87  SLPC      C318           31.9886111325       31.0754891899       -0.3153343575  MEMB      87              0.0000000000
     10025        87  SLPC      H18X           32.5420844833       30.2829494368        0.2322679825  MEMB      87              0.0000000000
     10026        87  SLPC      H18Y           32.6165564044       31.9887853072       -0.3921197664  MEMB      87              0.0000000000
     10027        87  SLPC      H18Z           31.7381037189       30.5457459244       -1.2592295819  MEMB      87              0.0000000000
     10028        88  OSM       N              38.8631012248      -20.7640664969       22.2947324220  MEMB      88              0.0000000000
     10029        88  OSM       C15            39.7559664547      -19.7720165631       23.0198743022  MEMB      88              0.0000000000
     10030        88  OSM       H15A           40.7818179452      -19.9303422695       22.7216097736  MEMB      88              0.0000000000
     10031        88  OSM       H15B           39.8152739523      -19.9780271588       24.0783836891  MEMB      88              0.0000000000
     10032        88  OSM       H15C           39.3772568488      -18.7692843785       22.8875596302  MEMB      88              0.0000000000
     10033        88  OSM       C14            39.2361567686      -22.1793558965       22.5219810240  MEMB      88              0.0000000000
     10034        88  OSM       H14A           38.6355021888      -22.7668904274       21.8434405359  MEMB      88              0.0000000000
     10035        88  OSM       H14B           38.9622668012      -22.4071485362       23.5415372781  MEMB      88              0.0000000000
     10036        88  OSM       H14C           40.2632486685      -22.4633402724       22.3463811168  MEMB      88              0.0000000000
     10037        88  OSM       C13            37.4702135966      -20.6674867070       22.8153277561  MEMB      88              0.0000000000
     10038        88  OSM       H13A           37.1054851672      -19.6546962661       22.7279858730  MEMB      88              0.0000000000
     10039        88  OSM       H13B           37.5201528278      -20.8879961419       23.8713967813  MEMB      88              0.0000000000
     10040        88  OSM       H13C           36.8267071919      -21.3314010438       22.2571904598  MEMB      88              0.0000000000
     10041        88  OSM       C12            38.7903959623      -20.4266268772       20.7777678448  MEMB      88              0.0000000000
     10042        88  OSM       H12A           39.7879922489      -20.2817304257       20.3902024703  MEMB      88              0.0000000000
     10043        88  OSM       H12B           38.2658611428      -19.4830083285       20.7486613510  MEMB      88              0.0000000000
     10044        88  OSM       C11            38.0710677767      -21.4919904293       19.8549794286  MEMB      88              0.0000000000
     10045        88  OSM       H11A           38.8340956966      -22.2695410101       19.6369777691  MEMB      88              0.0000000000
     10046        88  OSM       H11B           37.9514813366      -21.0165144016       18.8580127735  MEMB      88              0.0000000000
     10047        88  OSM       P              35.5070296876      -21.1322786427       19.9825014557  MEMB      88              0.0000000000
     10048        88  OSM       O13            34.2913505987      -21.9515373665       20.2723413311  MEMB      88              0.0000000000
     10049        88  OSM       O14            35.6754582545      -19.8509824852       20.7832419010  MEMB      88              0.0000000000
     10050        88  OSM       O11            35.5536405043      -20.7705459375       18.4611316276  MEMB      88              0.0000000000
     10051        88  OSM       O12            36.8355916857      -21.9929241277       20.2161209089  MEMB      88              0.0000000000
     10052        88  OSM       C1S            35.4070884622      -21.7760522130       17.5180578450  MEMB      88              0.0000000000
     10053        88  OSM       H1S            34.4249259097      -22.2953554197       17.5166307384  MEMB      88              0.0000000000
     10054        88  OSM       H1T            36.2380751037      -22.4995987395       17.6604045027  MEMB      88              0.0000000000
     10055        88  OSM       NF             35.0750976196      -22.1211926508       15.0983751924  MEMB      88              0.0000000000
     10056        88  OSM       HNF            35.8770675373      -22.5821715384       14.7264188855  MEMB      88              0.0000000000
     10057        88  OSM       C2S            35.5137441226      -21.1568830088       16.0642085306  MEMB      88              0.0000000000
     10058        88  OSM       H2S            34.8459629017      -20.2690814130       16.0501567932  MEMB      88              0.0000000000
     10059        88  OSM       C3S            36.9657198277      -20.7635992078       15.7312362248  MEMB      88              0.0000000000
     10060        88  OSM       H3S            37.7425317293      -21.5317047787       15.9334687355  MEMB      88              0.0000000000
     10061        88  OSM       O3             37.3501517366      -19.6708852506       16.5926355881  MEMB      88              0.0000000000
     10062        88  OSM       HO3            36.5188715665      -19.3995463312       16.9888027250  MEMB      88              0.0000000000
     10063        88  OSM       C4S            37.1223049849      -20.3270251596       14.3126125031  MEMB      88              0.0000000000
     10064        88  OSM       H4S            36.2186650011      -19.8234864689       13.9386027108  MEMB      88              0.0000000000
     10065        88  OSM       C5S            38.1136487054      -20.7973839235       13.5003171538  MEMB      88              0.0000000000
     10066        88  OSM       H5S            38.9220319529      -21.4999351949       13.7511918737  MEMB      88              0.0000000000
     10067        88  OSM       C6S            38.0881452296      -20.3641818177       12.0253392480  MEMB      88              0.0000000000
     10068        88  OSM       H6S            39.0382333189      -20.7766762778       11.6234658210  MEMB      88              0.0000000000
     10069        88  OSM       H6T            38.1258171712      -19.2697574905       11.8378900562  MEMB      88              0.0000000000
     10070        88  OSM       C7S            36.8947446427      -21.0193830155       11.2986809198  MEMB      88              0.0000000000
     10071        88  OSM       H7S            35.9352662171      -20.7542392951       11.7920583297  MEMB      88              0.0000000000
     10072        88  OSM       H7T            37.0900539536      -22.1034104316       11.1535604466  MEMB      88              0.0000000000
     10073        88  OSM       C8S            36.7697525357      -20.3952776968        9.8343324145  MEMB      88              0.0000000000
     10074        88  OSM       H8S            37.1698079846      -19.3615097807        9.9091689459  MEMB      88              0.0000000000
     10075        88  OSM       H8T            35.7003409606      -20.3075680766        9.5462572764  MEMB      88              0.0000000000
     10076        88  OSM       C9S            37.4995721544      -21.3316918247        8.8006004546  MEMB      88              0.0000000000
     10077        88  OSM       H9S            37.0136997261      -22.3255182644        8.9033535129  MEMB      88              0.0000000000
     10078        88  OSM       H9T            38.5784265578      -21.2786460797        9.0605624029  MEMB      88              0.0000000000
     10079        88  OSM       C10S           37.4299501345      -20.9497423901        7.2715143309  MEMB      88              0.0000000000
     10080        88  OSM       H10S           37.5969578233      -19.8519652535        7.2352544946  MEMB      88              0.0000000000
     10081        88  OSM       H10T           36.4142847869      -21.1360063887        6.8615748354  MEMB      88              0.0000000000
     10082        88  OSM       C11S           38.3262072360      -21.7168974484        6.2595958733  MEMB      88              0.0000000000
     10083        88  OSM       H11S           37.8903396979      -22.7377472461        6.2126237827  MEMB      88              0.0000000000
     10084        88  OSM       H11T           39.3185302619      -21.9700584427        6.6903227256  MEMB      88              0.0000000000
     10085        88  OSM       C12S           38.4750017556      -21.0785427822        4.8871293733  MEMB      88              0.0000000000
     10086        88  OSM       H12S           39.2047825411      -20.2488674643        5.0028021021  MEMB      88              0.0000000000
     10087        88  OSM       H12T           37.4595187979      -20.7999180250        4.5328918167  MEMB      88              0.0000000000
     10088        88  OSM       C13S           39.0924765338      -22.1337047056        3.8705872731  MEMB      88              0.0000000000
     10089        88  OSM       H13S           38.2600285964      -22.7750832004        3.5100514159  MEMB      88              0.0000000000
     10090        88  OSM       H13T           39.7476934039      -22.8403419528        4.4234657824  MEMB      88              0.0000000000
     10091        88  OSM       C14S           39.8219582030      -21.3882246072        2.7570970969  MEMB      88              0.0000000000
     10092        88  OSM       H14S           40.5898396841      -20.6868983969        3.1480190039  MEMB      88              0.0000000000
     10093        88  OSM       H14T           39.1538384446      -20.6860651285        2.2140408780  MEMB      88              0.0000000000
     10094        88  OSM       C15S           40.5456434639      -22.3003312004        1.7704050525  MEMB      88              0.0000000000
     10095        88  OSM       H15S           40.4040839890      -23.3497147794        2.1066725118  MEMB      88              0.0000000000
     10096        88  OSM       H15T           41.6400563955      -22.1775596964        1.9170611797  MEMB      88              0.0000000000
     10097        88  OSM       C16S           39.9722717636      -22.2141199904        0.3585583744  MEMB      88              0.0000000000
     10098        88  OSM       H16S           38.8857500498      -21.9929928607        0.2885971636  MEMB      88              0.0000000000
     10099        88  OSM       H16T           40.2862349003      -23.0746640594       -0.2700998484  MEMB      88              0.0000000000
     10100        88  OSM       C17S           40.6151957703      -20.9396108280       -0.3544115185  MEMB      88              0.0000000000
     10101        88  OSM       H17S           41.6933717377      -20.8834970377       -0.0922876375  MEMB      88              0.0000000000
     10102        88  OSM       H17T           40.2069247046      -20.0609415963        0.1892578371  MEMB      88              0.0000000000
     10103        88  OSM       C18S           40.3827925182      -20.9185165836       -1.8735384718  MEMB      88              0.0000000000
     10104        88  OSM       H18S           40.8065903162      -19.9428917086       -2.1942753983  MEMB      88              0.0000000000
     10105        88  OSM       H18T           39.2855372491      -20.9892388190       -2.0327538415  MEMB      88              0.0000000000
     10106        88  OSM       H18U           40.8667198893      -21.7247007177       -2.4653178533  MEMB      88              0.0000000000
     10107        88  OSM       C1F            33.8280389366      -22.5847223871       14.9114685542  MEMB      88              0.0000000000
     10108        88  OSM       OF             32.7459709082      -22.0772026554       15.1669547803  MEMB      88              0.0000000000
     10109        88  OSM       C2F            33.7663767476      -23.9284461161       14.3693984613  MEMB      88              0.0000000000
     10110        88  OSM       H2F            33.9672263540      -24.6842294211       15.1585574765  MEMB      88              0.0000000000
     10111        88  OSM       H2G            34.6738960390      -24.0590874582       13.7419729224  MEMB      88              0.0000000000
     10112        88  OSM       C3F            32.5360037124      -24.1652861111       13.4758556819  MEMB      88              0.0000000000
     10113        88  OSM       H3F            31.6278314227      -24.2055169458       14.1145460468  MEMB      88              0.0000000000
     10114        88  OSM       H3G            32.7035518044      -25.1544430556       12.9985538604  MEMB      88              0.0000000000
     10115        88  OSM       C4F            32.3210640370      -23.1372058214       12.3312823193  MEMB      88              0.0000000000
     10116        88  OSM       H4F            32.0184603137      -22.1699118525       12.7863575913  MEMB      88              0.0000000000
     10117        88  OSM       H4G            31.4095340998      -23.4560675336       11.7819529369  MEMB      88              0.0000000000
     10118        88  OSM       C5F            33.4433513921      -23.1144243211       11.3954347151  MEMB      88              0.0000000000
     10119        88  OSM       H5F            33.5661570927      -24.0719995274       10.8456258682  MEMB      88              0.0000000000
     10120        88  OSM       H5G            34.3778373479      -22.9993444030       11.9851913869  MEMB      88              0.0000000000
     10121        88  OSM       C6F            33.4059901842      -21.9395865482       10.3727131518  MEMB      88              0.0000000000
     10122        88  OSM       H6F            34.1569237276      -22.2422811602        9.6119264227  MEMB      88              0.0000000000
     10123        88  OSM       H6G            33.7608831003      -20.9884892513       10.8241396963  MEMB      88              0.0000000000
     10124        88  OSM       C7F            32.0582738678      -21.7353943347        9.6498806629  MEMB      88              0.0000000000
     10125        88  OSM       H7F            31.2141695688      -21.4443610760       10.3110226056  MEMB      88              0.0000000000
     10126        88  OSM       H7G            31.8047881957      -22.6780455492        9.1193380414  MEMB      88              0.0000000000
     10127        88  OSM       C8F            32.1587706844      -20.6647672824        8.5816065188  MEMB      88              0.0000000000
     10128        88  OSM       H8F            33.0381834683      -21.0010513695        7.9918036666  MEMB      88              0.0000000000
     10129        88  OSM       H8G            32.3619299012      -19.6365431422        8.9501203404  MEMB      88              0.0000000000
     10130        88  OSM       C9F            30.9713706520      -20.4528538059        7.6702607852  MEMB      88              0.0000000000
     10131        88  OSM       H9F            30.0561587900      -20.1894471951        8.2207185463  MEMB      88              0.0000000000
     10132        88  OSM       C10F           30.9580357953      -20.5888508269        6.2772983015  MEMB      88              0.0000000000
     10133        88  OSM       H10F           29.9870243544      -20.7027995124        5.7731625896  MEMB      88              0.0000000000
     10134        88  OSM       C11F           32.1924791298      -20.9583255037        5.5368775964  MEMB      88              0.0000000000
     10135        88  OSM       H11F           33.0448693824      -20.3423879461        5.8951693440  MEMB      88              0.0000000000
     10136        88  OSM       H11G           32.1660167012      -20.8538170190        4.4311212370  MEMB      88              0.0000000000
     10137        88  OSM       C12F           32.5666974789      -22.4381147749        5.8044306409  MEMB      88              0.0000000000
     10138        88  OSM       H12F           31.6763006179      -23.0901178779        5.6763423554  MEMB      88              0.0000000000
     10139        88  OSM       H12G           33.1875210815      -22.6418036966        6.7029900788  MEMB      88              0.0000000000
     10140        88  OSM       C13F           33.5535858274      -22.9865393515        4.6760400903  MEMB      88              0.0000000000
     10141        88  OSM       H13F           32.9480221300      -23.1819518559        3.7653120077  MEMB      88              0.0000000000
     10142        88  OSM       H13G           33.9469933674      -23.9251449436        5.1216535601  MEMB      88              0.0000000000
     10143        88  OSM       C14F           34.7681538550      -22.0629578419        4.2857765954  MEMB      88              0.0000000000
     10144        88  OSM       H14F           35.5636122851      -22.0617711706        5.0613837343  MEMB      88              0.0000000000
     10145        88  OSM       H14G           34.3771975133      -21.0391915597        4.1030842100  MEMB      88              0.0000000000
     10146        88  OSM       C15F           35.3742290234      -22.5826800494        2.9044072264  MEMB      88              0.0000000000
     10147        88  OSM       H15F           35.7127193695      -23.6387279434        2.9715498316  MEMB      88              0.0000000000
     10148        88  OSM       H15G           36.2944560368      -21.9610008102        2.8724993213  MEMB      88              0.0000000000
     10149        88  OSM       C16F           34.5511273849      -22.5470858375        1.5959071245  MEMB      88              0.0000000000
     10150        88  OSM       H16F           34.3715571312      -21.5092021133        1.2425328727  MEMB      88              0.0000000000
     10151        88  OSM       H16G           33.6020820894      -23.1243572831        1.5761076371  MEMB      88              0.0000000000
     10152        88  OSM       C17F           35.3451883157      -23.1656724238        0.3701123887  MEMB      88              0.0000000000
     10153        88  OSM       H17F           35.2758049125      -24.2728927552        0.4298636568  MEMB      88              0.0000000000
     10154        88  OSM       H17G           36.4259420199      -22.9082086156        0.3722643108  MEMB      88              0.0000000000
     10155        88  OSM       C18F           34.7802775514      -22.7718954611       -0.9920768674  MEMB      88              0.0000000000
     10156        88  OSM       H18F           33.6761162523      -22.8187764440       -1.1058807051  MEMB      88              0.0000000000
     10157        88  OSM       H18G           35.2329784429      -23.2874698708       -1.8658994389  MEMB      88              0.0000000000
     10158        88  OSM       H18H           35.1547348486      -21.7359219287       -1.1365125632  MEMB      88              0.0000000000
     10159        89  CHL1      C3            -25.5445724929      -33.2877281638       17.3099700000  MEMB      89              0.0000000000
     10160        89  CHL1      H3            -26.2661417026      -32.4746525519       17.0806700000  MEMB      89              0.0000000000
     10161        89  CHL1      O3            -25.4198852495      -33.4940119679       18.6900300000  MEMB      89              0.0000000000
     10162        89  CHL1      H3'           -26.3228994227      -33.3721263699       18.9922100000  MEMB      89              0.0000000000
     10163        89  CHL1      C4            -26.0182417294      -34.6509878069       16.7478700000  MEMB      89              0.0000000000
     10164        89  CHL1      H4A           -25.2499326940      -35.3575118486       17.1284700000  MEMB      89              0.0000000000
     10165        89  CHL1      H4B           -26.9895317691      -34.9744935274       17.1794500000  MEMB      89              0.0000000000
     10166        89  CHL1      C5            -26.0617545434      -34.5132221210       15.2222500000  MEMB      89              0.0000000000
     10167        89  CHL1      C6            -27.1533553643      -34.8259266122       14.5597400000  MEMB      89              0.0000000000
     10168        89  CHL1      H6            -28.0190409259      -35.1712335234       15.1439900000  MEMB      89              0.0000000000
     10169        89  CHL1      C7            -27.2690950996      -34.8708081859       13.0997900000  MEMB      89              0.0000000000
     10170        89  CHL1      H7A           -27.9089454363      -35.7433390787       12.8475800000  MEMB      89              0.0000000000
     10171        89  CHL1      H7B           -27.8727802550      -33.9561057107       12.9176000000  MEMB      89              0.0000000000
     10172        89  CHL1      C8            -25.9266860542      -34.8145098899       12.3718400000  MEMB      89              0.0000000000
     10173        89  CHL1      H8            -25.4834985656      -35.8318460684       12.4259700000  MEMB      89              0.0000000000
     10174        89  CHL1      C14           -26.2136843004      -34.2730155287       11.0003100000  MEMB      89              0.0000000000
     10175        89  CHL1      H14           -26.4952240306      -33.2001342209       11.0634800000  MEMB      89              0.0000000000
     10176        89  CHL1      C15           -27.3025811617      -35.0337261596       10.0732200000  MEMB      89              0.0000000000
     10177        89  CHL1      H15A          -27.1902842895      -36.1097086824       10.3261500000  MEMB      89              0.0000000000
     10178        89  CHL1      H15B          -28.2871825323      -34.5597632404       10.2738200000  MEMB      89              0.0000000000
     10179        89  CHL1      C16           -26.8773981553      -34.7672511281        8.5790400000  MEMB      89              0.0000000000
     10180        89  CHL1      H16A          -26.7161930785      -35.7223325884        8.0348300000  MEMB      89              0.0000000000
     10181        89  CHL1      H16B          -27.7565572078      -34.2697526793        8.1165500000  MEMB      89              0.0000000000
     10182        89  CHL1      C17           -25.5405017822      -33.9729292042        8.6619900000  MEMB      89              0.0000000000
     10183        89  CHL1      H17           -25.7726446663      -32.8887996921        8.7334700000  MEMB      89              0.0000000000
     10184        89  CHL1      C13           -24.9108972660      -34.2486521719       10.0766200000  MEMB      89              0.0000000000
     10185        89  CHL1      C18           -24.2303464564      -35.7120620177        9.9850100000  MEMB      89              0.0000000000
     10186        89  CHL1      H18A          -24.1217957892      -36.1429090114       11.0032900000  MEMB      89              0.0000000000
     10187        89  CHL1      H18B          -24.8790425161      -36.4000549283        9.4017500000  MEMB      89              0.0000000000
     10188        89  CHL1      H18C          -23.1831377374      -35.6893057615        9.6146600000  MEMB      89              0.0000000000
     10189        89  CHL1      C12           -23.8667739815      -33.3183495928       10.6559300000  MEMB      89              0.0000000000
     10190        89  CHL1      H12A          -22.9065417341      -33.6623413370       10.2155500000  MEMB      89              0.0000000000
     10191        89  CHL1      H12B          -24.1527225290      -32.2568637064       10.4952500000  MEMB      89              0.0000000000
     10192        89  CHL1      C11           -23.6445086408      -33.5626477091       12.1769600000  MEMB      89              0.0000000000
     10193        89  CHL1      H11A          -23.0058281375      -34.4714886720       12.1975800000  MEMB      89              0.0000000000
     10194        89  CHL1      H11B          -23.1437776195      -32.6307076707       12.5161800000  MEMB      89              0.0000000000
     10195        89  CHL1      C9            -24.9555427102      -33.8231740675       13.0174700000  MEMB      89              0.0000000000
     10196        89  CHL1      H9            -25.4299984815      -32.8248913795       13.1299300000  MEMB      89              0.0000000000
     10197        89  CHL1      C10           -24.7159447332      -34.0818418435       14.5197600000  MEMB      89              0.0000000000
     10198        89  CHL1      C19           -23.6246281440      -35.1925952186       14.8562600000  MEMB      89              0.0000000000
     10199        89  CHL1      H19A          -23.8009677142      -36.1751413238       14.3685700000  MEMB      89              0.0000000000
     10200        89  CHL1      H19B          -22.6713450606      -34.8732511712       14.3834100000  MEMB      89              0.0000000000
     10201        89  CHL1      H19C          -23.5189119389      -35.2102217575       15.9620800000  MEMB      89              0.0000000000
     10202        89  CHL1      C1            -24.2922061769      -32.7553324737       15.2199100000  MEMB      89              0.0000000000
     10203        89  CHL1      H1A           -23.2637520500      -32.5741104966       14.8407500000  MEMB      89              0.0000000000
     10204        89  CHL1      H1B           -24.9140695525      -31.8545311823       15.0297600000  MEMB      89              0.0000000000
     10205        89  CHL1      C2            -24.1769481326      -32.9225507443       16.7223200000  MEMB      89              0.0000000000
     10206        89  CHL1      H2A           -23.7549803904      -31.9795879446       17.1310700000  MEMB      89              0.0000000000
     10207        89  CHL1      H2B           -23.4652215506      -33.6898804353       17.0951300000  MEMB      89              0.0000000000
     10208        89  CHL1      C20           -24.5901007053      -34.0971488890        7.3575900000  MEMB      89              0.0000000000
     10209        89  CHL1      H20           -24.2957205094      -35.1545140588        7.1854400000  MEMB      89              0.0000000000
     10210        89  CHL1      C21           -23.2857680506      -33.3639740422        7.5658900000  MEMB      89              0.0000000000
     10211        89  CHL1      H21A          -23.4760505557      -32.3412468108        7.9559600000  MEMB      89              0.0000000000
     10212        89  CHL1      H21B          -22.6596817774      -33.3488940492        6.6482200000  MEMB      89              0.0000000000
     10213        89  CHL1      H21C          -22.6450957805      -33.9352438597        8.2712300000  MEMB      89              0.0000000000
     10214        89  CHL1      C22           -25.3311434123      -33.6360584435        6.0638400000  MEMB      89              0.0000000000
     10215        89  CHL1      H22A          -26.2293960336      -34.2772277063        5.9359200000  MEMB      89              0.0000000000
     10216        89  CHL1      H22B          -25.7081892408      -32.6270765939        6.3360500000  MEMB      89              0.0000000000
     10217        89  CHL1      C23           -24.6041548149      -33.7626857254        4.7101200000  MEMB      89              0.0000000000
     10218        89  CHL1      H23A          -23.6895129371      -33.1359092377        4.7802000000  MEMB      89              0.0000000000
     10219        89  CHL1      H23B          -24.3569478847      -34.7973988666        4.3898300000  MEMB      89              0.0000000000
     10220        89  CHL1      C24           -25.3858118369      -33.0721327090        3.5849600000  MEMB      89              0.0000000000
     10221        89  CHL1      H24A          -26.3117536478      -33.6704853386        3.4473900000  MEMB      89              0.0000000000
     10222        89  CHL1      H24B          -25.6053316398      -32.0095282595        3.8236800000  MEMB      89              0.0000000000
     10223        89  CHL1      C25           -24.7657645053      -33.1772919645        2.1141600000  MEMB      89              0.0000000000
     10224        89  CHL1      H25           -23.6597620895      -33.1370233126        2.2113800000  MEMB      89              0.0000000000
     10225        89  CHL1      C26           -25.2136740255      -34.5168488058        1.5527600000  MEMB      89              0.0000000000
     10226        89  CHL1      H26A          -26.3069233877      -34.6048636589        1.3756300000  MEMB      89              0.0000000000
     10227        89  CHL1      H26B          -24.6018745799      -34.7616380774        0.6582800000  MEMB      89              0.0000000000
     10228        89  CHL1      H26C          -24.9559048005      -35.3611505888        2.2273200000  MEMB      89              0.0000000000
     10229        89  CHL1      C27           -25.2452431746      -32.0846091399        1.1532000000  MEMB      89              0.0000000000
     10230        89  CHL1      H27A          -26.2540944841      -32.3116361751        0.7470000000  MEMB      89              0.0000000000
     10231        89  CHL1      H27B          -25.1826852613      -31.0968574051        1.6579300000  MEMB      89              0.0000000000
     10232        89  CHL1      H27C          -24.6096029949      -31.9218600693        0.2566600000  MEMB      89              0.0000000000
     10233        90  SAPE      N              34.9478892337       20.7384941250       21.8204325475  MEMB      90              0.0000000000
     10234        90  SAPE      HN1            34.2254308832       19.9968344037       21.9183834088  MEMB      90              0.0000000000
     10235        90  SAPE      HN2            35.6147355960       20.5010768923       21.0584948715  MEMB      90              0.0000000000
     10236        90  SAPE      HN3            35.4922448988       20.8541226204       22.6990149066  MEMB      90              0.0000000000
     10237        90  SAPE      C12            34.2115818408       22.0532229861       21.7192320928  MEMB      90              0.0000000000
     10238        90  SAPE      H12A           33.7114084937       22.1415550510       22.7073338356  MEMB      90              0.0000000000
     10239        90  SAPE      H12B           33.6165843945       21.9315791022       20.7889085611  MEMB      90              0.0000000000
     10240        90  SAPE      C11            35.2667157327       23.1983022732       21.4855346782  MEMB      90              0.0000000000
     10241        90  SAPE      H11A           36.0298418955       23.1527868012       22.2916908461  MEMB      90              0.0000000000
     10242        90  SAPE      H11B           34.8407729494       24.2096132325       21.6591544625  MEMB      90              0.0000000000
     10243        90  SAPE      P              35.5303866924       23.9802477363       19.0042446705  MEMB      90              0.0000000000
     10244        90  SAPE      O13            34.0305841688       24.0879191393       18.9684986868  MEMB      90              0.0000000000
     10245        90  SAPE      O14            36.2672696427       25.2485480188       18.9889744832  MEMB      90              0.0000000000
     10246        90  SAPE      O12            35.8704247571       23.0450175649       20.2439478142  MEMB      90              0.0000000000
     10247        90  SAPE      O11            35.9322439305       23.1807617479       17.7691350149  MEMB      90              0.0000000000
     10248        90  SAPE      C1             36.7517440601       22.0905595903       17.7017610679  MEMB      90              0.0000000000
     10249        90  SAPE      HA             37.6706084336       22.1781612286       18.3200937994  MEMB      90              0.0000000000
     10250        90  SAPE      HB             36.2716106112       21.1502549927       18.0476224620  MEMB      90              0.0000000000
     10251        90  SAPE      C2             37.1544588094       21.8743290077       16.2513322729  MEMB      90              0.0000000000
     10252        90  SAPE      HS             37.9471573385       21.1061274348       16.1255686553  MEMB      90              0.0000000000
     10253        90  SAPE      O21            37.7323440081       23.1232013577       15.7969299039  MEMB      90              0.0000000000
     10254        90  SAPE      C21            38.5006574097       23.0753060442       14.7317089584  MEMB      90              0.0000000000
     10255        90  SAPE      O22            38.9253253833       22.1117393226       14.1863617907  MEMB      90              0.0000000000
     10256        90  SAPE      C22            38.7930763129       24.4772280472       14.2063301625  MEMB      90              0.0000000000
     10257        90  SAPE      H2R            38.2771714204       25.1364787550       14.9367767326  MEMB      90              0.0000000000
     10258        90  SAPE      H2S            39.8996318454       24.5469908363       14.2769634012  MEMB      90              0.0000000000
     10259        90  SAPE      C3             36.0164271737       21.5471623912       15.2088204745  MEMB      90              0.0000000000
     10260        90  SAPE      HX             35.6601041943       20.5151632796       15.4145698069  MEMB      90              0.0000000000
     10261        90  SAPE      HY             36.4809618054       21.4682235132       14.2026905861  MEMB      90              0.0000000000
     10262        90  SAPE      O31            34.9624378739       22.5022425314       15.0466934640  MEMB      90              0.0000000000
     10263        90  SAPE      C31            33.8541108549       22.1788808139       15.6041385515  MEMB      90              0.0000000000
     10264        90  SAPE      O32            33.6807656067       21.2341057161       16.3567452825  MEMB      90              0.0000000000
     10265        90  SAPE      C32            32.7225435386       23.1963007936       15.1089089815  MEMB      90              0.0000000000
     10266        90  SAPE      H2X            33.1970509158       24.1387327147       14.7610787610  MEMB      90              0.0000000000
     10267        90  SAPE      H2Y            32.1212001170       23.5332591071       15.9802102716  MEMB      90              0.0000000000
     10268        90  SAPE      C23            38.3098408753       24.7002458308       12.7097770143  MEMB      90              0.0000000000
     10269        90  SAPE      H3R            38.9138306224       23.9332848323       12.1794114161  MEMB      90              0.0000000000
     10270        90  SAPE      H3S            38.6362535495       25.6960931780       12.3409086148  MEMB      90              0.0000000000
     10271        90  SAPE      C24            36.7771832640       24.5411732530       12.5493164341  MEMB      90              0.0000000000
     10272        90  SAPE      H4R            36.5452180195       23.5290363867       12.9444015103  MEMB      90              0.0000000000
     10273        90  SAPE      H4S            36.5020319917       24.4999822406       11.4737164781  MEMB      90              0.0000000000
     10274        90  SAPE      C25            35.8794529234       25.5762791653       13.2475538829  MEMB      90              0.0000000000
     10275        90  SAPE      H5R            35.9980961598       25.6749166470       14.3366796528  MEMB      90              0.0000000000
     10276        90  SAPE      C26            35.0953178453       26.5141173925       12.6461253096  MEMB      90              0.0000000000
     10277        90  SAPE      H6R            34.6063715747       27.2956078334       13.2462951611  MEMB      90              0.0000000000
     10278        90  SAPE      C27            34.8969004757       26.6983056605       11.1332018745  MEMB      90              0.0000000000
     10279        90  SAPE      H7R            33.7987107529       26.8622524975       11.0954959247  MEMB      90              0.0000000000
     10280        90  SAPE      H7S            35.1381075016       25.7229086187       10.6591335988  MEMB      90              0.0000000000
     10281        90  SAPE      C28            35.7970254743       27.7046240209       10.5048389726  MEMB      90              0.0000000000
     10282        90  SAPE      H8R            35.5548259558       28.7357575686       10.8016605394  MEMB      90              0.0000000000
     10283        90  SAPE      C29            36.7683104285       27.4798617587        9.6628009794  MEMB      90              0.0000000000
     10284        90  SAPE      H9R            37.4036978409       28.2927429796        9.2813481755  MEMB      90              0.0000000000
     10285        90  SAPE      C210           37.2638310041       26.1923339057        9.0533198112  MEMB      90              0.0000000000
     10286        90  SAPE      H10R           36.7041253194       25.2675432996        9.3098600728  MEMB      90              0.0000000000
     10287        90  SAPE      H10S           38.3137787856       26.0525701473        9.3885762740  MEMB      90              0.0000000000
     10288        90  SAPE      C211           37.0539910629       26.3545603782        7.6033865426  MEMB      90              0.0000000000
     10289        90  SAPE      H11R           36.5745009736       27.2843460159        7.2634044094  MEMB      90              0.0000000000
     10290        90  SAPE      C212           37.3705857955       25.4923205019        6.6229607071  MEMB      90              0.0000000000
     10291        90  SAPE      H12R           37.0566810902       25.7817942523        5.6092202285  MEMB      90              0.0000000000
     10292        90  SAPE      C213           37.9467818930       24.1308452184        6.7195524869  MEMB      90              0.0000000000
     10293        90  SAPE      H13R           37.0688450901       23.4503937172        6.7426509778  MEMB      90              0.0000000000
     10294        90  SAPE      H13S           38.5139180484       24.0985224178        7.6743474306  MEMB      90              0.0000000000
     10295        90  SAPE      C214           39.0108263638       23.8080912127        5.6679098264  MEMB      90              0.0000000000
     10296        90  SAPE      H14R           40.0123926286       23.9792900887        6.0892836709  MEMB      90              0.0000000000
     10297        90  SAPE      C215           39.0447333536       23.3882393923        4.3890145061  MEMB      90              0.0000000000
     10298        90  SAPE      H15R           40.0295867492       23.2996956886        3.9071188535  MEMB      90              0.0000000000
     10299        90  SAPE      C216           37.7662621756       23.0835865879        3.5802363309  MEMB      90              0.0000000000
     10300        90  SAPE      H16R           37.7431217320       23.7227634252        2.6718089586  MEMB      90              0.0000000000
     10301        90  SAPE      H16S           36.8396632066       23.3327072305        4.1403016926  MEMB      90              0.0000000000
     10302        90  SAPE      C217           37.8110931076       21.6064206058        3.1366340309  MEMB      90              0.0000000000
     10303        90  SAPE      H17R           37.7286025979       20.8781920879        3.9716186925  MEMB      90              0.0000000000
     10304        90  SAPE      H17S           38.7110245600       21.4278005551        2.5101046317  MEMB      90              0.0000000000
     10305        90  SAPE      C218           36.6141409133       21.3222321542        2.3057305986  MEMB      90              0.0000000000
     10306        90  SAPE      H18R           36.3136470290       22.1609253776        1.6419384394  MEMB      90              0.0000000000
     10307        90  SAPE      H18S           35.7362486888       21.2908392733        2.9859070986  MEMB      90              0.0000000000
     10308        90  SAPE      C219           36.6090846578       19.9832118843        1.6205989518  MEMB      90              0.0000000000
     10309        90  SAPE      H19R           35.5760150064       19.6267793546        1.4204880798  MEMB      90              0.0000000000
     10310        90  SAPE      H19S           37.1113222613       19.2895005914        2.3283012067  MEMB      90              0.0000000000
     10311        90  SAPE      C220           37.3029356117       19.8972782907        0.2773998543  MEMB      90              0.0000000000
     10312        90  SAPE      H20R           38.4117035516       19.8960974781        0.3477776442  MEMB      90              0.0000000000
     10313        90  SAPE      H20S           36.8563634527       20.5876140665       -0.4698163185  MEMB      90              0.0000000000
     10314        90  SAPE      H20T           37.1183869765       18.9285133143       -0.2342225820  MEMB      90              0.0000000000
     10315        90  SAPE      C33            31.7506883342       22.6161682922       14.1289165379  MEMB      90              0.0000000000
     10316        90  SAPE      H3X            30.8397341442       23.2521236361       14.1355711571  MEMB      90              0.0000000000
     10317        90  SAPE      H3Y            31.3793227185       21.5968479471       14.3684885386  MEMB      90              0.0000000000
     10318        90  SAPE      C34            32.1817994135       22.5169094729       12.6730275861  MEMB      90              0.0000000000
     10319        90  SAPE      H4X            32.4432049825       23.5402596276       12.3284368816  MEMB      90              0.0000000000
     10320        90  SAPE      H4Y            31.4627081537       22.1361264435       11.9165669659  MEMB      90              0.0000000000
     10321        90  SAPE      C35            33.3742631957       21.5592569316       12.4718029698  MEMB      90              0.0000000000
     10322        90  SAPE      H5X            33.1026626778       20.5686930983       12.8952859392  MEMB      90              0.0000000000
     10323        90  SAPE      H5Y            34.3147646161       21.9841204774       12.8832263867  MEMB      90              0.0000000000
     10324        90  SAPE      C36            33.6136880854       21.3797356281       10.9997759715  MEMB      90              0.0000000000
     10325        90  SAPE      H6X            32.6203647610       21.5223225055       10.5230168415  MEMB      90              0.0000000000
     10326        90  SAPE      H6Y            33.9263072904       20.3332380416       10.7962254846  MEMB      90              0.0000000000
     10327        90  SAPE      C37            34.5800998795       22.3975127065       10.4531945036  MEMB      90              0.0000000000
     10328        90  SAPE      H7X            35.5639340848       22.2148346124       10.9359160751  MEMB      90              0.0000000000
     10329        90  SAPE      H7Y            34.1936610555       23.3925987412       10.7610743493  MEMB      90              0.0000000000
     10330        90  SAPE      C38            34.7809273033       22.3112773039        8.9702553563  MEMB      90              0.0000000000
     10331        90  SAPE      H8X            34.9581518435       21.2493419178        8.6960189043  MEMB      90              0.0000000000
     10332        90  SAPE      H8Y            35.6843511652       22.9374123624        8.8086965725  MEMB      90              0.0000000000
     10333        90  SAPE      C39            33.5957380077       22.8170636006        8.1290708525  MEMB      90              0.0000000000
     10334        90  SAPE      H9X            33.5083910755       23.8826038374        8.4312561629  MEMB      90              0.0000000000
     10335        90  SAPE      H9Y            32.7255295737       22.1760075811        8.3861810065  MEMB      90              0.0000000000
     10336        90  SAPE      C310           33.7580581254       22.8285540951        6.5853908896  MEMB      90              0.0000000000
     10337        90  SAPE      H10X           33.7303632576       21.7829437776        6.2108878198  MEMB      90              0.0000000000
     10338        90  SAPE      H10Y           34.7581510441       23.2499763317        6.3476130667  MEMB      90              0.0000000000
     10339        90  SAPE      C311           32.6631964924       23.6247300304        5.8385964032  MEMB      90              0.0000000000
     10340        90  SAPE      H11X           32.6826780582       24.6050293285        6.3610465590  MEMB      90              0.0000000000
     10341        90  SAPE      H11Y           31.6788291145       23.1220084430        5.9509024768  MEMB      90              0.0000000000
     10342        90  SAPE      C312           33.0900782243       23.7042068080        4.3797119640  MEMB      90              0.0000000000
     10343        90  SAPE      H12X           33.1650264936       22.6321474672        4.0979448970  MEMB      90              0.0000000000
     10344        90  SAPE      H12Y           34.1179284127       24.1258179491        4.3891463106  MEMB      90              0.0000000000
     10345        90  SAPE      C313           32.1903415722       24.5506093193        3.4815954561  MEMB      90              0.0000000000
     10346        90  SAPE      H13X           31.7859396466       25.4403249155        4.0099769466  MEMB      90              0.0000000000
     10347        90  SAPE      H13Y           31.2875090863       23.9651468544        3.2051042120  MEMB      90              0.0000000000
     10348        90  SAPE      C314           32.7754500516       25.0502682741        2.1659325731  MEMB      90              0.0000000000
     10349        90  SAPE      H14X           33.6286982637       25.6731970742        2.5098041655  MEMB      90              0.0000000000
     10350        90  SAPE      H14Y           32.1529803397       25.7854395174        1.6124194289  MEMB      90              0.0000000000
     10351        90  SAPE      C315           33.1630045356       23.8542794201        1.2367863403  MEMB      90              0.0000000000
     10352        90  SAPE      H15X           32.3713810857       23.1022523121        1.0315830064  MEMB      90              0.0000000000
     10353        90  SAPE      H15Y           33.8779023896       23.2751061904        1.8595229112  MEMB      90              0.0000000000
     10354        90  SAPE      C316           34.0091990384       24.1328675773       -0.0143996781  MEMB      90              0.0000000000
     10355        90  SAPE      H16X           33.5147841640       24.7564789770       -0.7896304071  MEMB      90              0.0000000000
     10356        90  SAPE      H16Y           34.1575554576       23.1440710408       -0.4987477903  MEMB      90              0.0000000000
     10357        90  SAPE      C317           35.3064531385       24.8169461668        0.2196562429  MEMB      90              0.0000000000
     10358        90  SAPE      H17X           36.0167848744       24.2543656853        0.8625045829  MEMB      90              0.0000000000
     10359        90  SAPE      H17Y           35.1256118959       25.7649070320        0.7701000905  MEMB      90              0.0000000000
     10360        90  SAPE      C318           35.8791146938       25.1609997944       -1.2046594900  MEMB      90              0.0000000000
     10361        90  SAPE      H18X           35.0784488905       25.7251547141       -1.7290486338  MEMB      90              0.0000000000
     10362        90  SAPE      H18Y           36.0101494821       24.1971296954       -1.7414137691  MEMB      90              0.0000000000
     10363        90  SAPE      H18Z           36.8220108201       25.7439744007       -1.1311177582  MEMB      90              0.0000000000
     10364        91  OSM       N             -29.5686527519       31.5227346220       22.4345969233  MEMB      91              0.0000000000
     10365        91  OSM       C15           -28.6183516175       30.6252574330       21.7020119649  MEMB      91              0.0000000000
     10366        91  OSM       H15A          -28.3663937390       29.7158751409       22.2273126127  MEMB      91              0.0000000000
     10367        91  OSM       H15B          -27.7027375250       31.1636627609       21.5066387245  MEMB      91              0.0000000000
     10368        91  OSM       H15C          -29.0647040314       30.2402536687       20.7970580448  MEMB      91              0.0000000000
     10369        91  OSM       C14           -30.9885916750       30.8554400032       22.5148120652  MEMB      91              0.0000000000
     10370        91  OSM       H14A          -31.7482917095       31.4464473240       23.0046751689  MEMB      91              0.0000000000
     10371        91  OSM       H14B          -30.8852178842       29.9386754194       23.0762891326  MEMB      91              0.0000000000
     10372        91  OSM       H14C          -31.3364638600       30.5695298383       21.5331601870  MEMB      91              0.0000000000
     10373        91  OSM       C13           -29.0964697583       31.7698455834       23.8077705302  MEMB      91              0.0000000000
     10374        91  OSM       H13A          -28.2386772955       32.4254945325       23.7810011256  MEMB      91              0.0000000000
     10375        91  OSM       H13B          -28.9572619243       30.7997019761       24.2614691721  MEMB      91              0.0000000000
     10376        91  OSM       H13C          -29.9463499453       32.2431619304       24.2768927306  MEMB      91              0.0000000000
     10377        91  OSM       C12           -29.8011283040       32.8139256122       21.7267616265  MEMB      91              0.0000000000
     10378        91  OSM       H12A          -30.5036057521       33.4014594357       22.2992381619  MEMB      91              0.0000000000
     10379        91  OSM       H12B          -30.1640148408       32.5839873846       20.7358823136  MEMB      91              0.0000000000
     10380        91  OSM       C11           -28.5855773803       33.8148302345       21.5246484824  MEMB      91              0.0000000000
     10381        91  OSM       H11A          -28.2648300320       34.2060203219       22.5137956982  MEMB      91              0.0000000000
     10382        91  OSM       H11B          -28.9736757881       34.6866582853       20.9557754404  MEMB      91              0.0000000000
     10383        91  OSM       P             -26.9609784115       33.4245250342       19.4050429817  MEMB      91              0.0000000000
     10384        91  OSM       O13           -27.1153049985       34.9282604942       19.3203548975  MEMB      91              0.0000000000
     10385        91  OSM       O14           -25.5384654983       32.9562184373       19.2407381291  MEMB      91              0.0000000000
     10386        91  OSM       O11           -27.9625509238       32.7020331105       18.4308506238  MEMB      91              0.0000000000
     10387        91  OSM       O12           -27.5224009879       33.1362931334       20.8924117755  MEMB      91              0.0000000000
     10388        91  OSM       C1S           -27.7937338713       31.3694768374       17.9579854202  MEMB      91              0.0000000000
     10389        91  OSM       H1S           -28.7469761452       30.8669179405       18.2283268829  MEMB      91              0.0000000000
     10390        91  OSM       H1T           -26.9050662418       30.8475093752       18.3728839944  MEMB      91              0.0000000000
     10391        91  OSM       NF            -26.5855311918       31.8771326840       15.9230465750  MEMB      91              0.0000000000
     10392        91  OSM       HNF           -26.7616183869       32.6815588168       15.3609959656  MEMB      91              0.0000000000
     10393        91  OSM       C2S           -27.8409193762       31.2948103092       16.4064620946  MEMB      91              0.0000000000
     10394        91  OSM       H2S           -27.8607936126       30.2238966955       16.1113854420  MEMB      91              0.0000000000
     10395        91  OSM       C3S           -29.1703746790       32.0522138592       16.0235610557  MEMB      91              0.0000000000
     10396        91  OSM       H3S           -29.1562547856       33.0705212634       16.4676011677  MEMB      91              0.0000000000
     10397        91  OSM       O3            -30.3776028800       31.4704820969       16.4678116692  MEMB      91              0.0000000000
     10398        91  OSM       HO3           -30.0883112636       30.8608029547       17.1506011993  MEMB      91              0.0000000000
     10399        91  OSM       C4S           -29.1629254416       32.1473022801       14.5445419171  MEMB      91              0.0000000000
     10400        91  OSM       H4S           -28.8122511161       31.2728613878       13.9767558618  MEMB      91              0.0000000000
     10401        91  OSM       C5S           -29.4537880519       33.2942384691       13.9363590773  MEMB      91              0.0000000000
     10402        91  OSM       H5S           -29.9091625682       34.1389720080       14.4740011110  MEMB      91              0.0000000000
     10403        91  OSM       C6S           -29.4199711577       33.5864020390       12.4781401443  MEMB      91              0.0000000000
     10404        91  OSM       H6S           -30.3249654057       34.2169556557       12.3450682907  MEMB      91              0.0000000000
     10405        91  OSM       H6T           -29.5782851285       32.6533751215       11.8961451230  MEMB      91              0.0000000000
     10406        91  OSM       C7S           -28.1376942123       34.2263539903       11.8097791354  MEMB      91              0.0000000000
     10407        91  OSM       H7S           -27.3445603414       33.5123028756       12.1186330409  MEMB      91              0.0000000000
     10408        91  OSM       H7T           -27.7179740824       35.1438100375       12.2750003288  MEMB      91              0.0000000000
     10409        91  OSM       C8S           -28.1171025131       34.1997941133       10.2463275063  MEMB      91              0.0000000000
     10410        91  OSM       H8S           -28.8348294563       33.4054894264        9.9492262626  MEMB      91              0.0000000000
     10411        91  OSM       H8T           -27.0828004641       33.9280869816        9.9451368182  MEMB      91              0.0000000000
     10412        91  OSM       C9S           -28.3530751731       35.5054291003        9.4674267591  MEMB      91              0.0000000000
     10413        91  OSM       H9S           -27.5890879557       36.2856969267        9.6719413647  MEMB      91              0.0000000000
     10414        91  OSM       H9T           -29.3182328372       35.9380081961        9.8075257394  MEMB      91              0.0000000000
     10415        91  OSM       C10S          -28.3854490728       35.0927544413        7.9406836914  MEMB      91              0.0000000000
     10416        91  OSM       H10S          -29.2194674904       34.3590316078        7.9210611283  MEMB      91              0.0000000000
     10417        91  OSM       H10T          -27.4780937425       34.5316770757        7.6304905162  MEMB      91              0.0000000000
     10418        91  OSM       C11S          -28.6682432069       36.1720463569        6.9358486742  MEMB      91              0.0000000000
     10419        91  OSM       H11S          -27.6894415246       36.4052171173        6.4647855673  MEMB      91              0.0000000000
     10420        91  OSM       H11T          -29.1609216526       37.0858164195        7.3315920513  MEMB      91              0.0000000000
     10421        91  OSM       C12S          -29.5521151884       35.6856773461        5.7464462926  MEMB      91              0.0000000000
     10422        91  OSM       H12S          -29.5074695703       36.4861283292        4.9772868231  MEMB      91              0.0000000000
     10423        91  OSM       H12T          -30.5401612953       35.8055658470        6.2401174560  MEMB      91              0.0000000000
     10424        91  OSM       C13S          -29.1457654466       34.2709776238        5.2662672309  MEMB      91              0.0000000000
     10425        91  OSM       H13S          -29.2070948144       33.4889268494        6.0530052860  MEMB      91              0.0000000000
     10426        91  OSM       H13T          -28.1344746948       34.4192985834        4.8308216561  MEMB      91              0.0000000000
     10427        91  OSM       C14S          -30.0525032918       33.7803353714        4.1613727226  MEMB      91              0.0000000000
     10428        91  OSM       H14S          -31.0742851251       33.8285306538        4.5949150629  MEMB      91              0.0000000000
     10429        91  OSM       H14T          -29.6800511452       32.7676809662        3.8965482122  MEMB      91              0.0000000000
     10430        91  OSM       C15S          -30.0889988640       34.6898919070        2.8471398647  MEMB      91              0.0000000000
     10431        91  OSM       H15S          -29.0635662984       35.0315814451        2.5901231943  MEMB      91              0.0000000000
     10432        91  OSM       H15T          -30.7883712874       35.4961144549        3.1556903009  MEMB      91              0.0000000000
     10433        91  OSM       C16S          -30.7430165493       33.8856230990        1.6476642064  MEMB      91              0.0000000000
     10434        91  OSM       H16S          -31.0851753139       34.5778021516        0.8488295348  MEMB      91              0.0000000000
     10435        91  OSM       H16T          -31.6328598400       33.3962650194        2.0982503631  MEMB      91              0.0000000000
     10436        91  OSM       C17S          -29.7214415880       32.8548276140        1.0620621302  MEMB      91              0.0000000000
     10437        91  OSM       H17S          -29.2878274351       32.2926723930        1.9166279852  MEMB      91              0.0000000000
     10438        91  OSM       H17T          -28.9446998550       33.4841950489        0.5774084481  MEMB      91              0.0000000000
     10439        91  OSM       C18S          -30.1935439450       31.9078245882        0.0172629254  MEMB      91              0.0000000000
     10440        91  OSM       H18S          -29.4754567973       31.3004939048       -0.5741946280  MEMB      91              0.0000000000
     10441        91  OSM       H18T          -30.8991037192       32.4093041280       -0.6791752435  MEMB      91              0.0000000000
     10442        91  OSM       H18U          -30.8938950952       31.1982714084        0.5075320408  MEMB      91              0.0000000000
     10443        91  OSM       C1F           -25.3917392270       31.2858003738       15.9880922016  MEMB      91              0.0000000000
     10444        91  OSM       OF            -25.3817527173       30.1136194605       16.2821720620  MEMB      91              0.0000000000
     10445        91  OSM       C2F           -24.1212868078       32.0474709627       15.5460758645  MEMB      91              0.0000000000
     10446        91  OSM       H2F           -23.5622618247       32.2024101603       16.4936022748  MEMB      91              0.0000000000
     10447        91  OSM       H2G           -24.4125049615       32.9901880698       15.0353927222  MEMB      91              0.0000000000
     10448        91  OSM       C3F           -23.2250406592       31.2346890219       14.5969106979  MEMB      91              0.0000000000
     10449        91  OSM       H3F           -23.3551078548       30.1947525502       14.9656054260  MEMB      91              0.0000000000
     10450        91  OSM       H3G           -22.1479141588       31.4219607262       14.7945190453  MEMB      91              0.0000000000
     10451        91  OSM       C4F           -23.4556197755       31.4334154252       13.0720874318  MEMB      91              0.0000000000
     10452        91  OSM       H4F           -22.6520185090       30.8285616176       12.6001780857  MEMB      91              0.0000000000
     10453        91  OSM       H4G           -23.3756333943       32.5238212937       12.8747602713  MEMB      91              0.0000000000
     10454        91  OSM       C5F           -24.8724453953       30.9842289719       12.5569895182  MEMB      91              0.0000000000
     10455        91  OSM       H5F           -24.7837892264       31.2056586170       11.4718951956  MEMB      91              0.0000000000
     10456        91  OSM       H5G           -25.5462354226       31.6615627855       13.1240408141  MEMB      91              0.0000000000
     10457        91  OSM       C6F           -25.1614860306       29.5114286829       12.9371685762  MEMB      91              0.0000000000
     10458        91  OSM       H6F           -25.3871158316       29.4069890797       14.0199911299  MEMB      91              0.0000000000
     10459        91  OSM       H6G           -24.3269261819       28.8020803433       12.7510075184  MEMB      91              0.0000000000
     10460        91  OSM       C7F           -26.3762335645       28.8307821408       12.1794101166  MEMB      91              0.0000000000
     10461        91  OSM       H7F           -27.3219819560       29.2445695576       12.5900937604  MEMB      91              0.0000000000
     10462        91  OSM       H7G           -26.4269659499       27.7368701409       12.3667705164  MEMB      91              0.0000000000
     10463        91  OSM       C8F           -26.4261105591       29.2491951124       10.6576227161  MEMB      91              0.0000000000
     10464        91  OSM       H8F           -26.3590305770       30.3580962641       10.6449922978  MEMB      91              0.0000000000
     10465        91  OSM       H8G           -27.5101390926       29.0426713550       10.5289719229  MEMB      91              0.0000000000
     10466        91  OSM       C9F           -25.6376482148       28.4866718696        9.6507670316  MEMB      91              0.0000000000
     10467        91  OSM       H9F           -26.0845989777       27.4969991995        9.4753158782  MEMB      91              0.0000000000
     10468        91  OSM       C10F          -24.7481656012       29.0304250946        8.8147160267  MEMB      91              0.0000000000
     10469        91  OSM       H10F          -24.2514631060       28.3306441339        8.1265354201  MEMB      91              0.0000000000
     10470        91  OSM       C11F          -24.2500106507       30.3995180505        8.6284466189  MEMB      91              0.0000000000
     10471        91  OSM       H11F          -23.1553545905       30.4177579693        8.8174346381  MEMB      91              0.0000000000
     10472        91  OSM       H11G          -24.6791209331       31.1419644062        9.3348168196  MEMB      91              0.0000000000
     10473        91  OSM       C12F          -24.6002024171       31.0226018409        7.2768788457  MEMB      91              0.0000000000
     10474        91  OSM       H12F          -23.9053904630       30.5662741773        6.5397747462  MEMB      91              0.0000000000
     10475        91  OSM       H12G          -24.2042505290       32.0604992108        7.2945478764  MEMB      91              0.0000000000
     10476        91  OSM       C13F          -26.0717148104       30.9645754821        6.8388954294  MEMB      91              0.0000000000
     10477        91  OSM       H13F          -26.6961599807       31.4800328887        7.5996139798  MEMB      91              0.0000000000
     10478        91  OSM       H13G          -26.4941806371       29.9415089697        6.7430915633  MEMB      91              0.0000000000
     10479        91  OSM       C14F          -26.3691442267       31.6435753313        5.4771703356  MEMB      91              0.0000000000
     10480        91  OSM       H14F          -26.1153218729       32.7241913417        5.5236912197  MEMB      91              0.0000000000
     10481        91  OSM       H14G          -27.4457369281       31.4864752414        5.2522510287  MEMB      91              0.0000000000
     10482        91  OSM       C15F          -25.6921816580       30.8790856251        4.3210482982  MEMB      91              0.0000000000
     10483        91  OSM       H15F          -25.8514067596       29.7978531734        4.5208102471  MEMB      91              0.0000000000
     10484        91  OSM       H15G          -24.6059582200       31.1029308600        4.3868756015  MEMB      91              0.0000000000
     10485        91  OSM       C16F          -26.1666934296       31.1309005862        2.9143520174  MEMB      91              0.0000000000
     10486        91  OSM       H16F          -27.2117315847       30.7690383334        2.8081829420  MEMB      91              0.0000000000
     10487        91  OSM       H16G          -25.4640758028       30.6152780398        2.2253073178  MEMB      91              0.0000000000
     10488        91  OSM       C17F          -26.1300357901       32.6062703173        2.5075463451  MEMB      91              0.0000000000
     10489        91  OSM       H17F          -25.1595790181       33.0765856140        2.7746391253  MEMB      91              0.0000000000
     10490        91  OSM       H17G          -26.8964930537       33.3101756951        2.8966238446  MEMB      91              0.0000000000
     10491        91  OSM       C18F          -26.0205882874       32.6773047476        0.9582396371  MEMB      91              0.0000000000
     10492        91  OSM       H18F          -25.7178291146       33.6985386705        0.6424235323  MEMB      91              0.0000000000
     10493        91  OSM       H18G          -26.9278268255       32.3455560185        0.4094383595  MEMB      91              0.0000000000
     10494        91  OSM       H18H          -25.1482756475       32.1185189811        0.5568048126  MEMB      91              0.0000000000
     10495        92  SAPS      N              23.4101234128       35.0211752020       22.0643787061  MEMB      92              0.0000000000
     10496        92  SAPS      HN1            24.0152230965       35.0171375280       22.9102144513  MEMB      92              0.0000000000
     10497        92  SAPS      HN2            22.8858373105       35.9148355898       22.1543518693  MEMB      92              0.0000000000
     10498        92  SAPS      HN3            22.7440042635       34.2393484329       21.9011848986  MEMB      92              0.0000000000
     10499        92  SAPS      C12            24.2541873971       35.1089234456       20.8228786283  MEMB      92              0.0000000000
     10500        92  SAPS      H12A           25.1884130481       35.5975954308       21.0570197735  MEMB      92              0.0000000000
     10501        92  SAPS      C13            24.5424785520       33.8900087122       19.9663026255  MEMB      92              0.0000000000
     10502        92  SAPS      O13A           23.9748751989       32.7846330170       20.2619542996  MEMB      92              0.0000000000
     10503        92  SAPS      O13B           25.5151885585       34.0758328791       19.2232754469  MEMB      92              0.0000000000
     10504        92  SAPS      C11            23.5735897085       36.0762304204       19.8881382661  MEMB      92              0.0000000000
     10505        92  SAPS      H11A           22.4821130703       35.9005219250       19.9982577109  MEMB      92              0.0000000000
     10506        92  SAPS      H11B           23.8866031293       35.9497861210       18.8296698398  MEMB      92              0.0000000000
     10507        92  SAPS      P              23.7168573874       38.7353395858       19.5592090323  MEMB      92              0.0000000000
     10508        92  SAPS      O13            22.2807501989       38.8138178545       19.1081907535  MEMB      92              0.0000000000
     10509        92  SAPS      O14            24.2877123928       39.8979816185       20.2934248056  MEMB      92              0.0000000000
     10510        92  SAPS      O12            23.7785981398       37.3874199395       20.4491187107  MEMB      92              0.0000000000
     10511        92  SAPS      O11            24.5698939682       38.3664492441       18.3631287739  MEMB      92              0.0000000000
     10512        92  SAPS      C1             25.9182360747       37.8846395136       18.4467801280  MEMB      92              0.0000000000
     10513        92  SAPS      HA             26.3068208512       37.9472365934       19.4857240461  MEMB      92              0.0000000000
     10514        92  SAPS      HB             25.9331191373       36.8453954130       18.0542610618  MEMB      92              0.0000000000
     10515        92  SAPS      C2             26.8971282687       38.8090754529       17.6960708910  MEMB      92              0.0000000000
     10516        92  SAPS      HS             27.0610935055       39.6684070993       18.3808961904  MEMB      92              0.0000000000
     10517        92  SAPS      O21            26.2935192969       39.1912666223       16.4430579307  MEMB      92              0.0000000000
     10518        92  SAPS      C21            26.7025776068       40.2842850747       15.8473608660  MEMB      92              0.0000000000
     10519        92  SAPS      O22            27.5530786823       41.0568790095       16.1842730292  MEMB      92              0.0000000000
     10520        92  SAPS      C22            26.0806590686       40.1507702040       14.4648428000  MEMB      92              0.0000000000
     10521        92  SAPS      H2R            26.4050212819       39.2714677646       13.8682377428  MEMB      92              0.0000000000
     10522        92  SAPS      H2S            24.9735330881       40.1864859124       14.5503853118  MEMB      92              0.0000000000
     10523        92  SAPS      C3             28.2202106846       37.9846455049       17.4407079596  MEMB      92              0.0000000000
     10524        92  SAPS      HX             28.6149827164       37.7378902384       18.4494637131  MEMB      92              0.0000000000
     10525        92  SAPS      HY             29.0530162025       38.6106929703       17.0549354965  MEMB      92              0.0000000000
     10526        92  SAPS      O31            28.0085381420       36.8353592636       16.6323461837  MEMB      92              0.0000000000
     10527        92  SAPS      C31            28.0125255519       37.0098275047       15.3008751027  MEMB      92              0.0000000000
     10528        92  SAPS      O32            28.1912805308       38.0389132920       14.7102974761  MEMB      92              0.0000000000
     10529        92  SAPS      C32            27.7855412709       35.5891523746       14.6306854252  MEMB      92              0.0000000000
     10530        92  SAPS      H2X            26.7270497250       35.3088581370       14.8187065966  MEMB      92              0.0000000000
     10531        92  SAPS      H2Y            28.5260588660       34.8737503820       15.0480039090  MEMB      92              0.0000000000
     10532        92  SAPS      C23            26.5033310273       41.3798104771       13.6960992177  MEMB      92              0.0000000000
     10533        92  SAPS      H3R            27.5938650159       41.4161208629       13.4869625393  MEMB      92              0.0000000000
     10534        92  SAPS      H3S            26.3700186631       42.3105863274       14.2878803913  MEMB      92              0.0000000000
     10535        92  SAPS      C24            25.7064288995       41.4940177718       12.3995634742  MEMB      92              0.0000000000
     10536        92  SAPS      H4R            26.0891826559       40.7142490155       11.7069002384  MEMB      92              0.0000000000
     10537        92  SAPS      H4S            26.0247227611       42.4762327351       11.9893631829  MEMB      92              0.0000000000
     10538        92  SAPS      C25            24.2329065002       41.4734643499       12.4240567132  MEMB      92              0.0000000000
     10539        92  SAPS      H5R            23.7847083715       42.1343575289       13.1805872112  MEMB      92              0.0000000000
     10540        92  SAPS      C26            23.4849965119       40.6123308459       11.7233722926  MEMB      92              0.0000000000
     10541        92  SAPS      H6R            22.3968326886       40.7374061228       11.8246436147  MEMB      92              0.0000000000
     10542        92  SAPS      C27            23.9805852001       39.5825362055       10.7797770858  MEMB      92              0.0000000000
     10543        92  SAPS      H7R            24.4955838423       40.1251953414        9.9584250796  MEMB      92              0.0000000000
     10544        92  SAPS      H7S            23.0320876065       39.1639428925       10.3804613268  MEMB      92              0.0000000000
     10545        92  SAPS      C28            24.8078197603       38.4485270627       11.2338719988  MEMB      92              0.0000000000
     10546        92  SAPS      H8R            24.4254625045       37.9647511531       12.1447857518  MEMB      92              0.0000000000
     10547        92  SAPS      C29            26.0057281111       38.0692006269       10.6614348765  MEMB      92              0.0000000000
     10548        92  SAPS      H9R            26.4820413443       37.1884625371       11.1168752670  MEMB      92              0.0000000000
     10549        92  SAPS      C210           26.8093736586       38.5447114045        9.5048422704  MEMB      92              0.0000000000
     10550        92  SAPS      H10R           27.6876414221       37.8999570355        9.2874515410  MEMB      92              0.0000000000
     10551        92  SAPS      H10S           27.2015332807       39.5382664798        9.8104240748  MEMB      92              0.0000000000
     10552        92  SAPS      C211           26.0870490332       38.5896887920        8.2496766289  MEMB      92              0.0000000000
     10553        92  SAPS      H11R           25.1615538146       37.9988204490        8.3155047249  MEMB      92              0.0000000000
     10554        92  SAPS      C212           26.5477544281       38.9776674587        7.0958659978  MEMB      92              0.0000000000
     10555        92  SAPS      H12R           25.8610268703       38.9212417903        6.2384159902  MEMB      92              0.0000000000
     10556        92  SAPS      C213           27.9851084696       39.4253941055        6.8127251431  MEMB      92              0.0000000000
     10557        92  SAPS      H13R           28.7062053211       38.9402899988        7.5048337403  MEMB      92              0.0000000000
     10558        92  SAPS      H13S           28.0752944149       40.5207260295        6.9753150355  MEMB      92              0.0000000000
     10559        92  SAPS      C214           28.2872995544       39.0889834865        5.4114367341  MEMB      92              0.0000000000
     10560        92  SAPS      H14R           28.3081667806       38.0136821699        5.1805868672  MEMB      92              0.0000000000
     10561        92  SAPS      C215           28.3150829977       40.0646377751        4.3935740798  MEMB      92              0.0000000000
     10562        92  SAPS      H15R           28.6657059793       39.6622200132        3.4317401170  MEMB      92              0.0000000000
     10563        92  SAPS      C216           28.1012189788       41.5211294583        4.5059319670  MEMB      92              0.0000000000
     10564        92  SAPS      H16R           29.0694623781       42.0536148292        4.6211946998  MEMB      92              0.0000000000
     10565        92  SAPS      H16S           27.3839435686       41.7519741396        5.3223558399  MEMB      92              0.0000000000
     10566        92  SAPS      C217           27.4203114040       42.1136235515        3.1902208406  MEMB      92              0.0000000000
     10567        92  SAPS      H17R           27.9993637023       42.0188902848        2.2467997035  MEMB      92              0.0000000000
     10568        92  SAPS      H17S           27.3570042538       43.2094624195        3.3618312083  MEMB      92              0.0000000000
     10569        92  SAPS      C218           25.9663435909       41.6144051479        2.9559322020  MEMB      92              0.0000000000
     10570        92  SAPS      H18R           25.4789599234       41.6575626266        3.9533869048  MEMB      92              0.0000000000
     10571        92  SAPS      H18S           26.0225193507       40.5530801927        2.6322739800  MEMB      92              0.0000000000
     10572        92  SAPS      C219           24.9361043035       42.3723097906        2.0634917117  MEMB      92              0.0000000000
     10573        92  SAPS      H19R           24.6390580551       43.3907622077        2.3933993799  MEMB      92              0.0000000000
     10574        92  SAPS      H19S           23.9959699962       41.7830531213        2.1204578396  MEMB      92              0.0000000000
     10575        92  SAPS      C220           25.4073671662       42.4740528280        0.6081495842  MEMB      92              0.0000000000
     10576        92  SAPS      H20R           24.6519154742       43.1017784883        0.0889436793  MEMB      92              0.0000000000
     10577        92  SAPS      H20S           25.4672649544       41.4186871067        0.2661899775  MEMB      92              0.0000000000
     10578        92  SAPS      H20T           26.3931546794       42.9438855326        0.4036974967  MEMB      92              0.0000000000
     10579        92  SAPS      C33            28.0036844450       35.7716421498       13.1161927949  MEMB      92              0.0000000000
     10580        92  SAPS      H3X            29.0928155723       35.8932352897       12.9336285732  MEMB      92              0.0000000000
     10581        92  SAPS      H3Y            27.5504999259       36.7016892793       12.7112762979  MEMB      92              0.0000000000
     10582        92  SAPS      C34            27.5883632019       34.5929631336       12.2174162239  MEMB      92              0.0000000000
     10583        92  SAPS      H4X            28.2338528270       33.7394165930       12.5159489486  MEMB      92              0.0000000000
     10584        92  SAPS      H4Y            27.8000113604       34.6679048291       11.1293400927  MEMB      92              0.0000000000
     10585        92  SAPS      C35            26.1167571300       34.0920329050       12.4378591803  MEMB      92              0.0000000000
     10586        92  SAPS      H5X            25.5941877737       34.7084487992       13.2002726024  MEMB      92              0.0000000000
     10587        92  SAPS      H5Y            26.1391151896       33.0641623879       12.8589331258  MEMB      92              0.0000000000
     10588        92  SAPS      C36            25.2830813611       34.1241804207       11.0874149458  MEMB      92              0.0000000000
     10589        92  SAPS      H6X            25.6803833106       33.4733134405       10.2794267922  MEMB      92              0.0000000000
     10590        92  SAPS      H6Y            25.3136427169       35.1156158457       10.5869718056  MEMB      92              0.0000000000
     10591        92  SAPS      C37            23.8676932683       33.9039665532       11.3099580000  MEMB      92              0.0000000000
     10592        92  SAPS      H7X            23.4178484147       34.4835544019       12.1442473631  MEMB      92              0.0000000000
     10593        92  SAPS      H7Y            23.6685963634       32.8412732762       11.5656225320  MEMB      92              0.0000000000
     10594        92  SAPS      C38            23.0668672293       34.4741636505       10.0931337261  MEMB      92              0.0000000000
     10595        92  SAPS      H8X            23.2905939085       35.5246436897        9.8089516245  MEMB      92              0.0000000000
     10596        92  SAPS      H8Y            22.0182865460       34.4557169001       10.4598207463  MEMB      92              0.0000000000
     10597        92  SAPS      C39            23.1065635267       33.7298742601        8.7791383558  MEMB      92              0.0000000000
     10598        92  SAPS      H9X            22.2066268167       33.0831735822        8.7003174476  MEMB      92              0.0000000000
     10599        92  SAPS      H9Y            24.0006423349       33.1234152034        8.5200021228  MEMB      92              0.0000000000
     10600        92  SAPS      C310           22.9402400945       34.7720271386        7.6953462171  MEMB      92              0.0000000000
     10601        92  SAPS      H10X           23.0702296362       34.2612349908        6.7173299804  MEMB      92              0.0000000000
     10602        92  SAPS      H10Y           23.7197402659       35.5628192759        7.7320751810  MEMB      92              0.0000000000
     10603        92  SAPS      C311           21.5549124030       35.4812532394        7.6706671343  MEMB      92              0.0000000000
     10604        92  SAPS      H11X           21.3861261528       36.1423410961        8.5474767589  MEMB      92              0.0000000000
     10605        92  SAPS      H11Y           20.7477540615       34.7200511074        7.6124623567  MEMB      92              0.0000000000
     10606        92  SAPS      C312           21.5761377972       36.4569656007        6.4540362841  MEMB      92              0.0000000000
     10607        92  SAPS      H12X           20.5999957940       36.9861041280        6.4155596155  MEMB      92              0.0000000000
     10608        92  SAPS      H12Y           21.7221222988       35.8184315288        5.5566602423  MEMB      92              0.0000000000
     10609        92  SAPS      C313           22.7307994592       37.4870461259        6.5958278641  MEMB      92              0.0000000000
     10610        92  SAPS      H13X           23.6573331425       36.8936518705        6.4417510233  MEMB      92              0.0000000000
     10611        92  SAPS      H13Y           22.6800884887       37.8777035860        7.6346421248  MEMB      92              0.0000000000
     10612        92  SAPS      C314           22.5517311964       38.6195038170        5.5872854438  MEMB      92              0.0000000000
     10613        92  SAPS      H14X           23.2090450814       39.4681942428        5.8736137530  MEMB      92              0.0000000000
     10614        92  SAPS      H14Y           21.5099900357       39.0036609527        5.6262624925  MEMB      92              0.0000000000
     10615        92  SAPS      C315           22.8139468424       38.2451130869        4.1076337224  MEMB      92              0.0000000000
     10616        92  SAPS      H15X           22.7261013011       39.0848622215        3.3855365843  MEMB      92              0.0000000000
     10617        92  SAPS      H15Y           22.1745617794       37.3759540817        3.8429260053  MEMB      92              0.0000000000
     10618        92  SAPS      C316           24.3135230135       37.8002308995        3.8446537755  MEMB      92              0.0000000000
     10619        92  SAPS      H16X           24.6113306842       36.9655189195        4.5146449141  MEMB      92              0.0000000000
     10620        92  SAPS      H16Y           25.0044901899       38.6281719565        4.1118596941  MEMB      92              0.0000000000
     10621        92  SAPS      C317           24.4647770058       37.3615616070        2.3746412545  MEMB      92              0.0000000000
     10622        92  SAPS      H17X           24.1159833619       38.1066608572        1.6279875144  MEMB      92              0.0000000000
     10623        92  SAPS      H17Y           23.8298657909       36.4949888504        2.0913380534  MEMB      92              0.0000000000
     10624        92  SAPS      C318           25.8796809494       37.0492539481        1.9892088975  MEMB      92              0.0000000000
     10625        92  SAPS      H18X           26.3779571669       36.3379894554        2.6821333392  MEMB      92              0.0000000000
     10626        92  SAPS      H18Y           26.4796740027       37.9811277024        2.0662846555  MEMB      92              0.0000000000
     10627        92  SAPS      H18Z           25.9570290013       36.6925421999        0.9398771872  MEMB      92              0.0000000000
     10628        93  SAPC      N              34.7287515767      -26.2454447259       19.8189332934  MEMB      93              0.0000000000
     10629        93  SAPC      C12            35.2020130327      -27.5899499849       19.2471214844  MEMB      93              0.0000000000
     10630        93  SAPC      H12A           35.8200418657      -28.2365182160       19.8524230063  MEMB      93              0.0000000000
     10631        93  SAPC      H12B           35.7628459658      -27.3224201390       18.3637788639  MEMB      93              0.0000000000
     10632        93  SAPC      C13            33.5081643980      -26.2694213873       20.6930247072  MEMB      93              0.0000000000
     10633        93  SAPC      H13A           32.6667732891      -26.6712226440       20.1480324502  MEMB      93              0.0000000000
     10634        93  SAPC      H13B           33.7477144717      -26.9760577581       21.4738454211  MEMB      93              0.0000000000
     10635        93  SAPC      H13C           33.3691004787      -25.2539164262       21.0333347209  MEMB      93              0.0000000000
     10636        93  SAPC      C14            35.7509041732      -25.5023981534       20.5823392960  MEMB      93              0.0000000000
     10637        93  SAPC      H14A           36.1876923219      -26.0045164753       21.4329233260  MEMB      93              0.0000000000
     10638        93  SAPC      H14B           36.5291015400      -25.1199791863       19.9384722304  MEMB      93              0.0000000000
     10639        93  SAPC      H14C           35.2201241575      -24.6796207343       21.0380913695  MEMB      93              0.0000000000
     10640        93  SAPC      C15            34.5037883640      -25.3834287273       18.6018452507  MEMB      93              0.0000000000
     10641        93  SAPC      H15A           34.1952741842      -24.4540873021       19.0574147635  MEMB      93              0.0000000000
     10642        93  SAPC      H15B           35.4564101790      -25.3292370454       18.0959053616  MEMB      93              0.0000000000
     10643        93  SAPC      H15C           33.7357446563      -25.7813995263       17.9552170153  MEMB      93              0.0000000000
     10644        93  SAPC      C11            34.1198378146      -28.5758896374       18.8381962630  MEMB      93              0.0000000000
     10645        93  SAPC      H11A           34.5374168959      -29.3076467247       18.1139862170  MEMB      93              0.0000000000
     10646        93  SAPC      H11B           33.3382433991      -28.1498995957       18.1733928775  MEMB      93              0.0000000000
     10647        93  SAPC      P              33.7880621344      -30.6645679778       20.5059585778  MEMB      93              0.0000000000
     10648        93  SAPC      O13            33.7998653035      -30.7554803131       21.9849580783  MEMB      93              0.0000000000
     10649        93  SAPC      O14            32.7757851962      -31.4812120047       19.8107909665  MEMB      93              0.0000000000
     10650        93  SAPC      O12            33.5767481315      -29.1881984632       19.9766164286  MEMB      93              0.0000000000
     10651        93  SAPC      O11            35.2450263518      -30.9084036186       19.9402156177  MEMB      93              0.0000000000
     10652        93  SAPC      C1             36.0449987388      -32.0117112406       20.3959224902  MEMB      93              0.0000000000
     10653        93  SAPC      HA             36.5950450182      -31.5800588873       21.2593148713  MEMB      93              0.0000000000
     10654        93  SAPC      HB             35.4601116490      -32.8845479465       20.7570100811  MEMB      93              0.0000000000
     10655        93  SAPC      C2             37.0307561432      -32.6399049202       19.3219420789  MEMB      93              0.0000000000
     10656        93  SAPC      HS             37.6736093147      -33.3909134477       19.8289400399  MEMB      93              0.0000000000
     10657        93  SAPC      O21            37.7031068445      -31.5832718594       18.5733060622  MEMB      93              0.0000000000
     10658        93  SAPC      C21            38.4740027237      -30.6816574304       19.2129472278  MEMB      93              0.0000000000
     10659        93  SAPC      O22            38.7291389759      -30.7260259799       20.3881738477  MEMB      93              0.0000000000
     10660        93  SAPC      C22            39.0879229074      -29.6448698341       18.1877251147  MEMB      93              0.0000000000
     10661        93  SAPC      H2R            38.9715114244      -28.5606007654       18.4001633985  MEMB      93              0.0000000000
     10662        93  SAPC      H2S            40.1544294304      -29.9403520339       18.2855791188  MEMB      93              0.0000000000
     10663        93  SAPC      C3             36.1568549448      -33.4499531741       18.3151044161  MEMB      93              0.0000000000
     10664        93  SAPC      HX             35.7991043222      -34.3596390746       18.8431264838  MEMB      93              0.0000000000
     10665        93  SAPC      HY             36.9515745904      -33.7571335464       17.6020950268  MEMB      93              0.0000000000
     10666        93  SAPC      O31            35.1813864090      -32.6442733456       17.6790417065  MEMB      93              0.0000000000
     10667        93  SAPC      C31            35.1813870939      -32.5665089190       16.4102948135  MEMB      93              0.0000000000
     10668        93  SAPC      O32            35.9370986291      -33.0761934183       15.6592863911  MEMB      93              0.0000000000
     10669        93  SAPC      C32            33.8990453380      -31.7845851300       15.9867152605  MEMB      93              0.0000000000
     10670        93  SAPC      H2X            33.9965683295      -30.6881485800       16.1371724616  MEMB      93              0.0000000000
     10671        93  SAPC      H2Y            33.0669799900      -32.2058400303       16.5904806654  MEMB      93              0.0000000000
     10672        93  SAPC      C23            38.8497060447      -30.0229327007       16.7130478134  MEMB      93              0.0000000000
     10673        93  SAPC      H3R            39.0290298028      -31.1160939490       16.6284166853  MEMB      93              0.0000000000
     10674        93  SAPC      H3S            39.6476040895      -29.5248121863       16.1218155233  MEMB      93              0.0000000000
     10675        93  SAPC      C24            37.4508029670      -29.7642548930       16.1438058491  MEMB      93              0.0000000000
     10676        93  SAPC      H4R            36.6657467579      -29.9970445179       16.8946830304  MEMB      93              0.0000000000
     10677        93  SAPC      H4S            37.3633645659      -30.4945919833       15.3111693015  MEMB      93              0.0000000000
     10678        93  SAPC      C25            37.1829433113      -28.3566674645       15.6095265418  MEMB      93              0.0000000000
     10679        93  SAPC      H5R            36.9519086071      -27.6749097701       16.4412891663  MEMB      93              0.0000000000
     10680        93  SAPC      C26            37.1588683936      -27.9436621322       14.3156030520  MEMB      93              0.0000000000
     10681        93  SAPC      H6R            37.2094652788      -26.8531794124       14.1803717849  MEMB      93              0.0000000000
     10682        93  SAPC      C27            37.3126820383      -28.7377061535       13.0259986934  MEMB      93              0.0000000000
     10683        93  SAPC      H7R            36.5535739962      -28.3868080104       12.2945980757  MEMB      93              0.0000000000
     10684        93  SAPC      H7S            37.1731254790      -29.8163729596       13.2525443073  MEMB      93              0.0000000000
     10685        93  SAPC      C28            38.7333290955      -28.5966087586       12.5058172284  MEMB      93              0.0000000000
     10686        93  SAPC      H8R            39.4060401973      -28.2400475359       13.2997465830  MEMB      93              0.0000000000
     10687        93  SAPC      C29            39.1451122744      -28.9929277230       11.2863038052  MEMB      93              0.0000000000
     10688        93  SAPC      H9R            40.1846910376      -28.8742393159       10.9469088731  MEMB      93              0.0000000000
     10689        93  SAPC      C210           38.2867568756      -29.6175850091       10.1687229249  MEMB      93              0.0000000000
     10690        93  SAPC      H10R           37.8349112705      -30.4816816051       10.7011636881  MEMB      93              0.0000000000
     10691        93  SAPC      H10S           38.9443076484      -30.1215844446        9.4284984630  MEMB      93              0.0000000000
     10692        93  SAPC      C211           37.2624128911      -28.7765418943        9.4716845355  MEMB      93              0.0000000000
     10693        93  SAPC      H11R           37.0656551949      -27.8077624365        9.9541290193  MEMB      93              0.0000000000
     10694        93  SAPC      C212           36.7140259410      -29.0555066945        8.2674412208  MEMB      93              0.0000000000
     10695        93  SAPC      H12R           35.8009607402      -28.5066873692        7.9933809904  MEMB      93              0.0000000000
     10696        93  SAPC      C213           37.1448303157      -30.2976785368        7.4610433539  MEMB      93              0.0000000000
     10697        93  SAPC      H13R           36.2429599860      -30.6460082160        6.9136692934  MEMB      93              0.0000000000
     10698        93  SAPC      H13S           37.4641996905      -31.1197369044        8.1367236894  MEMB      93              0.0000000000
     10699        93  SAPC      C214           38.1879886279      -29.9283029417        6.3980029761  MEMB      93              0.0000000000
     10700        93  SAPC      H14R           38.4797821439      -28.8701520585        6.3260797632  MEMB      93              0.0000000000
     10701        93  SAPC      C215           38.9355025136      -30.7384371468        5.6725172510  MEMB      93              0.0000000000
     10702        93  SAPC      H15R           39.5839187914      -30.2149271294        4.9545387963  MEMB      93              0.0000000000
     10703        93  SAPC      C216           39.0088609442      -32.2097968313        5.6018353162  MEMB      93              0.0000000000
     10704        93  SAPC      H16R           38.5329430212      -32.7274442199        6.4619892799  MEMB      93              0.0000000000
     10705        93  SAPC      H16S           40.0928088663      -32.4494019747        5.6461862350  MEMB      93              0.0000000000
     10706        93  SAPC      C217           38.3709716369      -32.7450293069        4.2916376610  MEMB      93              0.0000000000
     10707        93  SAPC      H17R           38.4040677089      -33.8552353569        4.3174818094  MEMB      93              0.0000000000
     10708        93  SAPC      H17S           38.8926610642      -32.3877255756        3.3781308327  MEMB      93              0.0000000000
     10709        93  SAPC      C218           36.8780511577      -32.3659208997        4.1084450151  MEMB      93              0.0000000000
     10710        93  SAPC      H18R           36.7028880255      -31.2711162296        4.0374406294  MEMB      93              0.0000000000
     10711        93  SAPC      H18S           36.3632283685      -32.7332432610        5.0218740376  MEMB      93              0.0000000000
     10712        93  SAPC      C219           36.3459800779      -33.0564756805        2.7888317544  MEMB      93              0.0000000000
     10713        93  SAPC      H19R           35.5446662718      -32.3670425097        2.4469271690  MEMB      93              0.0000000000
     10714        93  SAPC      H19S           35.8548990149      -34.0192742884        3.0460841820  MEMB      93              0.0000000000
     10715        93  SAPC      C220           37.2516688467      -33.2449739021        1.5888598651  MEMB      93              0.0000000000
     10716        93  SAPC      H20R           37.8482643063      -32.3442233460        1.3299322766  MEMB      93              0.0000000000
     10717        93  SAPC      H20S           36.6529525406      -33.5098191201        0.6912436340  MEMB      93              0.0000000000
     10718        93  SAPC      H20T           37.9278661737      -34.1117481880        1.7494237495  MEMB      93              0.0000000000
     10719        93  SAPC      C33            33.7259608430      -32.0992678461       14.5112647863  MEMB      93              0.0000000000
     10720        93  SAPC      H3X            33.8533670801      -33.1894386964       14.3391717044  MEMB      93              0.0000000000
     10721        93  SAPC      H3Y            34.5332280485      -31.5122173371       14.0234000468  MEMB      93              0.0000000000
     10722        93  SAPC      C34            32.4465966590      -31.5605105016       13.9205824309  MEMB      93              0.0000000000
     10723        93  SAPC      H4X            32.4905310935      -30.4749132950       14.1526803765  MEMB      93              0.0000000000
     10724        93  SAPC      H4Y            31.6004750586      -32.0493616431       14.4491883273  MEMB      93              0.0000000000
     10725        93  SAPC      C35            32.3057676188      -31.5465577994       12.4383779195  MEMB      93              0.0000000000
     10726        93  SAPC      H5X            32.1356243785      -32.5964030087       12.1171347898  MEMB      93              0.0000000000
     10727        93  SAPC      H5Y            33.3192974098      -31.2758907141       12.0725663422  MEMB      93              0.0000000000
     10728        93  SAPC      C36            31.1252145626      -30.5979418937       12.1152480794  MEMB      93              0.0000000000
     10729        93  SAPC      H6X            31.4154032154      -29.5700930716       12.4212514438  MEMB      93              0.0000000000
     10730        93  SAPC      H6Y            30.2940507262      -31.0062445794       12.7290695491  MEMB      93              0.0000000000
     10731        93  SAPC      C37            30.7610573933      -30.4669947396       10.5791409843  MEMB      93              0.0000000000
     10732        93  SAPC      H7X            29.9764598633      -29.6910913131       10.4499093533  MEMB      93              0.0000000000
     10733        93  SAPC      H7Y            30.3740002568      -31.4695653778       10.2974317563  MEMB      93              0.0000000000
     10734        93  SAPC      C38            32.0622947303      -30.3252275805        9.7783435828  MEMB      93              0.0000000000
     10735        93  SAPC      H8X            32.7374687860      -31.1691115869       10.0358718003  MEMB      93              0.0000000000
     10736        93  SAPC      H8Y            32.6926135157      -29.4558860854       10.0634127442  MEMB      93              0.0000000000
     10737        93  SAPC      C39            31.8092545009      -30.2684072194        8.2583977738  MEMB      93              0.0000000000
     10738        93  SAPC      H9X            31.4151765978      -29.2918880391        7.9042317354  MEMB      93              0.0000000000
     10739        93  SAPC      H9Y            31.0347444504      -31.0164318218        7.9846928642  MEMB      93              0.0000000000
     10740        93  SAPC      C310           33.1268191352      -30.4705749608        7.4620893008  MEMB      93              0.0000000000
     10741        93  SAPC      H10X           33.8311697512      -31.2298961108        7.8641368933  MEMB      93              0.0000000000
     10742        93  SAPC      H10Y           33.6312367289      -29.4864444249        7.3554541270  MEMB      93              0.0000000000
     10743        93  SAPC      C311           32.8509643287      -30.8331951848        5.9679425253  MEMB      93              0.0000000000
     10744        93  SAPC      H11X           31.9779949781      -31.5103226010        5.8507079736  MEMB      93              0.0000000000
     10745        93  SAPC      H11Y           33.6670262866      -31.3912925434        5.4610980315  MEMB      93              0.0000000000
     10746        93  SAPC      C312           32.3746091060      -29.6256824871        5.0784747555  MEMB      93              0.0000000000
     10747        93  SAPC      H12X           33.2434705384      -28.9548850239        4.9069193039  MEMB      93              0.0000000000
     10748        93  SAPC      H12Y           31.5892747392      -29.0219214867        5.5815094560  MEMB      93              0.0000000000
     10749        93  SAPC      C313           31.7568932451      -29.9374339676        3.7397621521  MEMB      93              0.0000000000
     10750        93  SAPC      H13X           31.2920847745      -28.9720492231        3.4459834604  MEMB      93              0.0000000000
     10751        93  SAPC      H13Y           30.9536748361      -30.7026767423        3.7994674964  MEMB      93              0.0000000000
     10752        93  SAPC      C314           32.8255065186      -30.3126633795        2.7253139644  MEMB      93              0.0000000000
     10753        93  SAPC      H14X           32.2719633453      -30.4397479719        1.7704538012  MEMB      93              0.0000000000
     10754        93  SAPC      H14Y           33.3259462621      -31.2867632497        2.9124253293  MEMB      93              0.0000000000
     10755        93  SAPC      C315           33.9683325671      -29.3396930596        2.5387036262  MEMB      93              0.0000000000
     10756        93  SAPC      H15X           34.6590612671      -29.7916949945        1.7951239773  MEMB      93              0.0000000000
     10757        93  SAPC      H15Y           34.6069743594      -29.1583470945        3.4295290467  MEMB      93              0.0000000000
     10758        93  SAPC      C316           33.4425640772      -28.0150509233        2.0727164585  MEMB      93              0.0000000000
     10759        93  SAPC      H16X           32.8007117472      -27.5898269298        2.8736729335  MEMB      93              0.0000000000
     10760        93  SAPC      H16Y           32.8039213277      -28.1890015592        1.1804181633  MEMB      93              0.0000000000
     10761        93  SAPC      C317           34.4214348694      -27.0236004584        1.5513931379  MEMB      93              0.0000000000
     10762        93  SAPC      H17X           34.9921891562      -26.7094224939        2.4513114046  MEMB      93              0.0000000000
     10763        93  SAPC      H17Y           33.8764325484      -26.2244711160        1.0048712538  MEMB      93              0.0000000000
     10764        93  SAPC      C318           35.5319191871      -27.5239204688        0.5541570938  MEMB      93              0.0000000000
     10765        93  SAPC      H18X           36.2391964574      -26.6894941651        0.3597030676  MEMB      93              0.0000000000
     10766        93  SAPC      H18Y           34.9169548114      -27.7345520351       -0.3468276565  MEMB      93              0.0000000000
     10767        93  SAPC      H18Z           36.1546737209      -28.4220134923        0.7539738016  MEMB      93              0.0000000000
     10768        94  SAPE      N             -34.0309030457       32.6311432211       19.3864022618  MEMB      94              0.0000000000
     10769        94  SAPE      HN1           -33.3156884912       33.0033475294       18.7294910919  MEMB      94              0.0000000000
     10770        94  SAPE      HN2           -34.9363970944       33.1055972069       19.1951590185  MEMB      94              0.0000000000
     10771        94  SAPE      HN3           -33.8552401248       32.8910070629       20.3779734130  MEMB      94              0.0000000000
     10772        94  SAPE      C12           -34.0010124308       31.1749423220       19.2116006648  MEMB      94              0.0000000000
     10773        94  SAPE      H12A          -32.9428781553       30.8374177625       19.2389846172  MEMB      94              0.0000000000
     10774        94  SAPE      H12B          -34.4882089196       30.8715987274       18.2603155804  MEMB      94              0.0000000000
     10775        94  SAPE      C11           -34.7889439610       30.4074390516       20.2860477922  MEMB      94              0.0000000000
     10776        94  SAPE      H11A          -34.0818698456       30.2923677039       21.1352389673  MEMB      94              0.0000000000
     10777        94  SAPE      H11B          -35.0987552019       29.3899104427       19.9651529524  MEMB      94              0.0000000000
     10778        94  SAPE      P             -37.3267174948       31.0565011278       20.2468426343  MEMB      94              0.0000000000
     10779        94  SAPE      O13           -37.7731365125       29.7886352375       20.7144909830  MEMB      94              0.0000000000
     10780        94  SAPE      O14           -38.1148980307       32.2562057884       20.7349420711  MEMB      94              0.0000000000
     10781        94  SAPE      O12           -35.8556768995       31.1408158354       20.7875198215  MEMB      94              0.0000000000
     10782        94  SAPE      O11           -37.3230260283       31.1563494135       18.6321537790  MEMB      94              0.0000000000
     10783        94  SAPE      C1            -37.3822497979       32.4057602472       17.9700329905  MEMB      94              0.0000000000
     10784        94  SAPE      HA            -37.0735908233       33.2633941823       18.6052610649  MEMB      94              0.0000000000
     10785        94  SAPE      HB            -36.6291016385       32.4171342646       17.1533570608  MEMB      94              0.0000000000
     10786        94  SAPE      C2            -38.8616552544       32.6535901324       17.5629922682  MEMB      94              0.0000000000
     10787        94  SAPE      HS            -39.5319297874       32.4691281773       18.4296104561  MEMB      94              0.0000000000
     10788        94  SAPE      O21           -39.1143977437       31.7462433901       16.4736100111  MEMB      94              0.0000000000
     10789        94  SAPE      C21           -39.7036183803       30.5985919462       16.8752566046  MEMB      94              0.0000000000
     10790        94  SAPE      O22           -40.0930750808       30.2644247818       17.9707894342  MEMB      94              0.0000000000
     10791        94  SAPE      C22           -39.8286012531       29.7741847781       15.6096146369  MEMB      94              0.0000000000
     10792        94  SAPE      H2R           -40.0678406039       28.7333395333       15.9157628611  MEMB      94              0.0000000000
     10793        94  SAPE      H2S           -40.6556278114       30.1556377417       14.9733423465  MEMB      94              0.0000000000
     10794        94  SAPE      C3            -39.1034902257       34.1105680052       17.2198929809  MEMB      94              0.0000000000
     10795        94  SAPE      HX            -38.7245154556       34.7144982652       18.0719302199  MEMB      94              0.0000000000
     10796        94  SAPE      HY            -40.1935654548       34.2904349708       17.1028244882  MEMB      94              0.0000000000
     10797        94  SAPE      O31           -38.4143202594       34.4864935778       15.9586457262  MEMB      94              0.0000000000
     10798        94  SAPE      C31           -38.9995030161       34.1918758881       14.8430005101  MEMB      94              0.0000000000
     10799        94  SAPE      O32           -40.1121241800       33.7037109394       14.7091241473  MEMB      94              0.0000000000
     10800        94  SAPE      C32           -38.0910271974       34.4211210026       13.5806243731  MEMB      94              0.0000000000
     10801        94  SAPE      H2X           -37.1189958612       33.8830981017       13.5833413775  MEMB      94              0.0000000000
     10802        94  SAPE      H2Y           -37.7441054925       35.4712389829       13.6865435881  MEMB      94              0.0000000000
     10803        94  SAPE      C23           -38.4229141581       29.5637922238       14.9882272459  MEMB      94              0.0000000000
     10804        94  SAPE      H3R           -37.6855208572       29.1322178603       15.6983793915  MEMB      94              0.0000000000
     10805        94  SAPE      H3S           -38.0629846696       30.5472781636       14.6173807391  MEMB      94              0.0000000000
     10806        94  SAPE      C24           -38.3755522298       28.5753023646       13.8599504897  MEMB      94              0.0000000000
     10807        94  SAPE      H4R           -38.7794307584       27.6196263974       14.2573004608  MEMB      94              0.0000000000
     10808        94  SAPE      H4S           -37.3721872576       28.3492423677       13.4398595980  MEMB      94              0.0000000000
     10809        94  SAPE      C25           -39.2302382632       29.0797938812       12.7529680404  MEMB      94              0.0000000000
     10810        94  SAPE      H5R           -40.2634492880       29.2899511714       13.0665115879  MEMB      94              0.0000000000
     10811        94  SAPE      C26           -38.8245947967       29.5093623150       11.5611346494  MEMB      94              0.0000000000
     10812        94  SAPE      H6R           -39.5672977503       29.9598672159       10.8862733374  MEMB      94              0.0000000000
     10813        94  SAPE      C27           -37.4176243530       29.5900240325       10.9967508421  MEMB      94              0.0000000000
     10814        94  SAPE      H7R           -36.6857889971       30.0572038831       11.6899183995  MEMB      94              0.0000000000
     10815        94  SAPE      H7S           -37.4784140531       30.4063309297       10.2455728057  MEMB      94              0.0000000000
     10816        94  SAPE      C28           -36.9596430264       28.2471130178       10.4722784858  MEMB      94              0.0000000000
     10817        94  SAPE      H8R           -37.1965323223       27.4297439104       11.1692656020  MEMB      94              0.0000000000
     10818        94  SAPE      C29           -36.1696317672       27.9292598518        9.3341811576  MEMB      94              0.0000000000
     10819        94  SAPE      H9R           -35.9283579091       26.9068841163        9.0077845454  MEMB      94              0.0000000000
     10820        94  SAPE      C210          -35.6957823983       29.0352301338        8.3749359180  MEMB      94              0.0000000000
     10821        94  SAPE      H10R          -34.6483218137       29.3093907433        8.6239008342  MEMB      94              0.0000000000
     10822        94  SAPE      H10S          -36.3164980650       29.9457841304        8.5160910931  MEMB      94              0.0000000000
     10823        94  SAPE      C211          -35.8360121372       28.6221189146        6.8865502787  MEMB      94              0.0000000000
     10824        94  SAPE      H11R          -34.8528189063       28.3351787302        6.4853074977  MEMB      94              0.0000000000
     10825        94  SAPE      C212          -37.0069745990       28.5815898900        6.1376516984  MEMB      94              0.0000000000
     10826        94  SAPE      H12R          -36.9413652471       28.5395932750        5.0404131383  MEMB      94              0.0000000000
     10827        94  SAPE      C213          -38.4495766051       28.9097852169        6.6065496851  MEMB      94              0.0000000000
     10828        94  SAPE      H13R          -38.3893904547       30.0044505335        6.7865669918  MEMB      94              0.0000000000
     10829        94  SAPE      H13S          -38.5512684279       28.4541483135        7.6147036018  MEMB      94              0.0000000000
     10830        94  SAPE      C214          -39.5505134308       28.4265824605        5.7047300246  MEMB      94              0.0000000000
     10831        94  SAPE      H14R          -40.2495483795       27.6718526440        6.0942596262  MEMB      94              0.0000000000
     10832        94  SAPE      C215          -39.8251689017       28.8451910984        4.5175894283  MEMB      94              0.0000000000
     10833        94  SAPE      H15R          -40.6807857425       28.3228806965        4.0646964319  MEMB      94              0.0000000000
     10834        94  SAPE      C216          -39.1098786390       29.8695894455        3.7022553603  MEMB      94              0.0000000000
     10835        94  SAPE      H16R          -38.2497611358       30.2351010034        4.3030210469  MEMB      94              0.0000000000
     10836        94  SAPE      H16S          -39.7494846887       30.7755793930        3.6358677776  MEMB      94              0.0000000000
     10837        94  SAPE      C217          -38.7063340660       29.2646208057        2.3416523629  MEMB      94              0.0000000000
     10838        94  SAPE      H17R          -39.6408444749       29.1133160644        1.7601723156  MEMB      94              0.0000000000
     10839        94  SAPE      H17S          -38.1951154467       28.3034086808        2.5631189131  MEMB      94              0.0000000000
     10840        94  SAPE      C218          -37.8331781658       30.2633472650        1.5725654545  MEMB      94              0.0000000000
     10841        94  SAPE      H18R          -36.9108587138       30.3954006910        2.1777174444  MEMB      94              0.0000000000
     10842        94  SAPE      H18S          -38.2302302468       31.2993706219        1.6302397802  MEMB      94              0.0000000000
     10843        94  SAPE      C219          -37.3242512211       29.7547130163        0.1438967708  MEMB      94              0.0000000000
     10844        94  SAPE      H19R          -36.9495041904       28.7100847903        0.1952465639  MEMB      94              0.0000000000
     10845        94  SAPE      H19S          -36.5177429596       30.4414089083       -0.1912353314  MEMB      94              0.0000000000
     10846        94  SAPE      C220          -38.4028043997       29.8283184695       -0.9682863542  MEMB      94              0.0000000000
     10847        94  SAPE      H20R          -39.2846234350       29.1948180323       -0.7329282763  MEMB      94              0.0000000000
     10848        94  SAPE      H20S          -37.9523522743       29.4015313865       -1.8898441196  MEMB      94              0.0000000000
     10849        94  SAPE      H20T          -38.7334854298       30.8838793717       -1.0720293716  MEMB      94              0.0000000000
     10850        94  SAPE      C33           -38.9123164394       34.2128438901       12.3013254306  MEMB      94              0.0000000000
     10851        94  SAPE      H3X           -39.8386071085       34.8201492257       12.3878515199  MEMB      94              0.0000000000
     10852        94  SAPE      H3Y           -39.3112942714       33.1760536384       12.2870560999  MEMB      94              0.0000000000
     10853        94  SAPE      C34           -38.2229459402       34.4960093690       10.9380092439  MEMB      94              0.0000000000
     10854        94  SAPE      H4X           -37.1768417062       34.1431600877       11.0624457566  MEMB      94              0.0000000000
     10855        94  SAPE      H4Y           -38.1669682931       35.5885340729       10.7441615578  MEMB      94              0.0000000000
     10856        94  SAPE      C35           -38.7397168878       33.6193985447        9.7793883010  MEMB      94              0.0000000000
     10857        94  SAPE      H5X           -39.7946168843       33.9099865377        9.5868652476  MEMB      94              0.0000000000
     10858        94  SAPE      H5Y           -38.9818020317       32.5575067392        9.9987090279  MEMB      94              0.0000000000
     10859        94  SAPE      C36           -37.9111052871       33.6457640938        8.4868890790  MEMB      94              0.0000000000
     10860        94  SAPE      H6X           -36.9070923963       33.2438232072        8.7412952635  MEMB      94              0.0000000000
     10861        94  SAPE      H6Y           -37.6808433309       34.6700679553        8.1234300315  MEMB      94              0.0000000000
     10862        94  SAPE      C37           -38.4531482987       32.7924427744        7.3639520865  MEMB      94              0.0000000000
     10863        94  SAPE      H7X           -39.5151883745       33.0163952310        7.1268083448  MEMB      94              0.0000000000
     10864        94  SAPE      H7Y           -38.3750564621       31.7341006658        7.6927906351  MEMB      94              0.0000000000
     10865        94  SAPE      C38           -37.7342811623       33.1607013627        5.9952244894  MEMB      94              0.0000000000
     10866        94  SAPE      H8X           -38.0205129345       34.1868885739        5.6800549033  MEMB      94              0.0000000000
     10867        94  SAPE      H8Y           -38.0888869641       32.5063168269        5.1703871035  MEMB      94              0.0000000000
     10868        94  SAPE      C39           -36.2076604818       33.0068802904        5.9545806978  MEMB      94              0.0000000000
     10869        94  SAPE      H9X           -36.0472174405       31.9670403153        6.3113881959  MEMB      94              0.0000000000
     10870        94  SAPE      H9Y           -35.8286287517       33.7916526402        6.6436298538  MEMB      94              0.0000000000
     10871        94  SAPE      C310          -35.4125429862       33.1815065838        4.5357764440  MEMB      94              0.0000000000
     10872        94  SAPE      H10X          -35.8345619276       32.4485502483        3.8153632209  MEMB      94              0.0000000000
     10873        94  SAPE      H10Y          -34.3712031867       32.8858998141        4.7858740610  MEMB      94              0.0000000000
     10874        94  SAPE      C311          -35.3579027654       34.5904052088        3.8560793709  MEMB      94              0.0000000000
     10875        94  SAPE      H11X          -35.2671074523       35.3022132160        4.7042576985  MEMB      94              0.0000000000
     10876        94  SAPE      H11Y          -36.3513515303       34.7015461269        3.3712808763  MEMB      94              0.0000000000
     10877        94  SAPE      C312          -34.1960772564       34.9004718014        2.9188972399  MEMB      94              0.0000000000
     10878        94  SAPE      H12X          -33.2965323476       34.6497950158        3.5208126282  MEMB      94              0.0000000000
     10879        94  SAPE      H12Y          -34.1909600932       36.0014010160        2.7697323158  MEMB      94              0.0000000000
     10880        94  SAPE      C313          -34.3667848654       34.2364352330        1.4922263721  MEMB      94              0.0000000000
     10881        94  SAPE      H13X          -34.6004866004       33.1619495450        1.6509233627  MEMB      94              0.0000000000
     10882        94  SAPE      H13Y          -33.3645915053       34.2900742161        1.0157248595  MEMB      94              0.0000000000
     10883        94  SAPE      C314          -35.4818363418       34.8712284660        0.6948965529  MEMB      94              0.0000000000
     10884        94  SAPE      H14X          -35.3411674173       35.9732389001        0.7052042979  MEMB      94              0.0000000000
     10885        94  SAPE      H14Y          -36.4315637591       34.6523023454        1.2281977130  MEMB      94              0.0000000000
     10886        94  SAPE      C315          -35.5894407688       34.4718495591       -0.7627925523  MEMB      94              0.0000000000
     10887        94  SAPE      H15X          -35.9091337483       33.4087113425       -0.8058541092  MEMB      94              0.0000000000
     10888        94  SAPE      H15Y          -34.5810437203       34.5972836129       -1.2119289191  MEMB      94              0.0000000000
     10889        94  SAPE      C316          -36.6992143450       35.1660161694       -1.5900774125  MEMB      94              0.0000000000
     10890        94  SAPE      H16X          -36.6626787014       34.5954229994       -2.5426580739  MEMB      94              0.0000000000
     10891        94  SAPE      H16Y          -36.4286234189       36.1941744414       -1.9125547453  MEMB      94              0.0000000000
     10892        94  SAPE      C317          -38.1548612060       35.1943803435       -0.9863661450  MEMB      94              0.0000000000
     10893        94  SAPE      H17X          -38.2015777297       35.7484573324       -0.0245251395  MEMB      94              0.0000000000
     10894        94  SAPE      H17Y          -38.5520740817       34.1787116936       -0.7743279452  MEMB      94              0.0000000000
     10895        94  SAPE      C318          -39.1332246556       35.9527335484       -1.8070002556  MEMB      94              0.0000000000
     10896        94  SAPE      H18X          -40.1521239054       35.5536582590       -1.6148958356  MEMB      94              0.0000000000
     10897        94  SAPE      H18Y          -38.9403311300       35.7583612486       -2.8837236900  MEMB      94              0.0000000000
     10898        94  SAPE      H18Z          -39.2193731332       37.0567917257       -1.7178108098  MEMB      94              0.0000000000
     10899        95  SAPE      N              33.6818735539      -35.0409584359       22.2057113786  MEMB      95              0.0000000000
     10900        95  SAPE      HN1            33.6833508378      -34.1142198365       21.7337438829  MEMB      95              0.0000000000
     10901        95  SAPE      HN2            32.9047153928      -35.1295846743       22.8911094246  MEMB      95              0.0000000000
     10902        95  SAPE      HN3            34.5962823404      -35.2423358600       22.6583739480  MEMB      95              0.0000000000
     10903        95  SAPE      C12            33.4596107494      -36.1311473664       21.1465289742  MEMB      95              0.0000000000
     10904        95  SAPE      H12A           33.9096235811      -37.0206972669       21.6369472792  MEMB      95              0.0000000000
     10905        95  SAPE      H12B           34.2711414489      -35.9101552995       20.4206493354  MEMB      95              0.0000000000
     10906        95  SAPE      C11            31.9533290963      -36.3005944828       20.6180667740  MEMB      95              0.0000000000
     10907        95  SAPE      H11A           31.3551948075      -36.8973939409       21.3394451416  MEMB      95              0.0000000000
     10908        95  SAPE      H11B           32.2622350689      -36.9253844361       19.7528872092  MEMB      95              0.0000000000
     10909        95  SAPE      P              30.4389250693      -34.9073935212       19.2061859275  MEMB      95              0.0000000000
     10910        95  SAPE      O13            29.5928634930      -36.0976507227       19.4964960452  MEMB      95              0.0000000000
     10911        95  SAPE      O14            29.7942018199      -33.6313675817       19.1591268016  MEMB      95              0.0000000000
     10912        95  SAPE      O12            31.4996001237      -34.9874378736       20.3180336707  MEMB      95              0.0000000000
     10913        95  SAPE      O11            31.2261536742      -35.3337721112       17.8498503997  MEMB      95              0.0000000000
     10914        95  SAPE      C1             32.4633264526      -34.6838821138       17.4696058922  MEMB      95              0.0000000000
     10915        95  SAPE      HA             32.9113996045      -34.1571954422       18.3391762720  MEMB      95              0.0000000000
     10916        95  SAPE      HB             33.2248293341      -35.3963960415       17.0865154070  MEMB      95              0.0000000000
     10917        95  SAPE      C2             32.0988139445      -33.6188987115       16.4060648176  MEMB      95              0.0000000000
     10918        95  SAPE      HS             31.3745861369      -32.9150715440       16.8691441176  MEMB      95              0.0000000000
     10919        95  SAPE      O21            31.5396975919      -34.3086333632       15.2717784114  MEMB      95              0.0000000000
     10920        95  SAPE      C21            30.2156328246      -34.2559922853       15.0488816469  MEMB      95              0.0000000000
     10921        95  SAPE      O22            29.3590119839      -33.8713438403       15.7891123586  MEMB      95              0.0000000000
     10922        95  SAPE      C22            30.0043946863      -34.9309737583       13.6471057022  MEMB      95              0.0000000000
     10923        95  SAPE      H2R            30.9047421759      -34.8405181562       13.0025026758  MEMB      95              0.0000000000
     10924        95  SAPE      H2S            30.0822534104      -36.0087555642       13.9052623808  MEMB      95              0.0000000000
     10925        95  SAPE      C3             33.3350360151      -32.8632784179       16.0178777992  MEMB      95              0.0000000000
     10926        95  SAPE      HX             33.6336441477      -32.2632607677       16.9039551610  MEMB      95              0.0000000000
     10927        95  SAPE      HY             33.0804223461      -32.2011091820       15.1628777385  MEMB      95              0.0000000000
     10928        95  SAPE      O31            34.4243818785      -33.7333901997       15.6153214207  MEMB      95              0.0000000000
     10929        95  SAPE      C31            34.7096759453      -33.7691688741       14.2723051315  MEMB      95              0.0000000000
     10930        95  SAPE      O32            34.0266252688      -33.4165039706       13.3642050112  MEMB      95              0.0000000000
     10931        95  SAPE      C32            36.0113102103      -34.4606559380       14.2102520758  MEMB      95              0.0000000000
     10932        95  SAPE      H2X            35.9607785002      -35.3519445107       14.8715932751  MEMB      95              0.0000000000
     10933        95  SAPE      H2Y            36.6931638569      -33.7160093661       14.6738227021  MEMB      95              0.0000000000
     10934        95  SAPE      C23            28.7066374368      -34.7407669361       12.9002432810  MEMB      95              0.0000000000
     10935        95  SAPE      H3R            28.5131651002      -33.6816443568       12.6261102931  MEMB      95              0.0000000000
     10936        95  SAPE      H3S            27.8685176177      -34.9053004912       13.6107397805  MEMB      95              0.0000000000
     10937        95  SAPE      C24            28.5930189282      -35.5636720769       11.5847601637  MEMB      95              0.0000000000
     10938        95  SAPE      H4R            27.9126576690      -34.9350795477       10.9713264456  MEMB      95              0.0000000000
     10939        95  SAPE      H4S            27.8928997341      -36.3524934111       11.9339237687  MEMB      95              0.0000000000
     10940        95  SAPE      C25            29.8885015839      -36.0789016430       10.8602611071  MEMB      95              0.0000000000
     10941        95  SAPE      H5R            30.1124839997      -37.1146140206       11.1554432993  MEMB      95              0.0000000000
     10942        95  SAPE      C26            30.5984991978      -35.4701937801        9.8848750874  MEMB      95              0.0000000000
     10943        95  SAPE      H6R            31.4229885768      -36.0905050729        9.5035207157  MEMB      95              0.0000000000
     10944        95  SAPE      C27            30.2832299238      -34.0752138407        9.3307978409  MEMB      95              0.0000000000
     10945        95  SAPE      H7R            31.2784453153      -33.5858890408        9.3973452706  MEMB      95              0.0000000000
     10946        95  SAPE      H7S            29.7401025567      -33.4129718650       10.0384487196  MEMB      95              0.0000000000
     10947        95  SAPE      C28            29.6344044030      -34.1425730492        7.9609220262  MEMB      95              0.0000000000
     10948        95  SAPE      H8R            28.6932319761      -34.7118941553        7.9526515672  MEMB      95              0.0000000000
     10949        95  SAPE      C29            30.2566589643      -33.6978022771        6.8444311196  MEMB      95              0.0000000000
     10950        95  SAPE      H9R            29.5529969069      -33.6324105573        6.0014699580  MEMB      95              0.0000000000
     10951        95  SAPE      C210           31.6103689339      -33.1155433360        6.7338053616  MEMB      95              0.0000000000
     10952        95  SAPE      H10R           32.3697004671      -33.9049710577        6.9196554592  MEMB      95              0.0000000000
     10953        95  SAPE      H10S           31.7783932667      -32.3151119704        7.4857350029  MEMB      95              0.0000000000
     10954        95  SAPE      C211           31.8852319837      -32.6141081947        5.3401803458  MEMB      95              0.0000000000
     10955        95  SAPE      H11R           30.9423431101      -32.4555031472        4.7963012020  MEMB      95              0.0000000000
     10956        95  SAPE      C212           33.0693699730      -32.6667643015        4.7601309882  MEMB      95              0.0000000000
     10957        95  SAPE      H12R           33.1418335636      -32.4351794912        3.6872292992  MEMB      95              0.0000000000
     10958        95  SAPE      C213           34.4313457999      -33.2695112903        5.3026372172  MEMB      95              0.0000000000
     10959        95  SAPE      H13R           34.4977333965      -33.4923723367        6.3890289161  MEMB      95              0.0000000000
     10960        95  SAPE      H13S           35.1681838467      -32.4608040171        5.1092890433  MEMB      95              0.0000000000
     10961        95  SAPE      C214           34.7835384748      -34.5663403644        4.5672223794  MEMB      95              0.0000000000
     10962        95  SAPE      H14R           34.7545875059      -35.4691826162        5.1949462846  MEMB      95              0.0000000000
     10963        95  SAPE      C215           34.9917874505      -34.8281282427        3.2553246739  MEMB      95              0.0000000000
     10964        95  SAPE      H15R           35.1884784675      -35.8663620639        2.9497383293  MEMB      95              0.0000000000
     10965        95  SAPE      C216           35.0265378307      -33.9060465052        2.0538142393  MEMB      95              0.0000000000
     10966        95  SAPE      H16R           35.9500428373      -34.1277086542        1.4773372899  MEMB      95              0.0000000000
     10967        95  SAPE      H16S           35.0300994113      -32.8299432667        2.3300570130  MEMB      95              0.0000000000
     10968        95  SAPE      C217           33.7852172754      -33.9632246522        1.0171461273  MEMB      95              0.0000000000
     10969        95  SAPE      H17R           32.7976900577      -33.8513103747        1.5137208881  MEMB      95              0.0000000000
     10970        95  SAPE      H17S           33.8863817731      -34.9457540645        0.5084982693  MEMB      95              0.0000000000
     10971        95  SAPE      C218           33.7965172320      -32.7936618763       -0.0369566371  MEMB      95              0.0000000000
     10972        95  SAPE      H18R           34.8390694105      -32.7251520400       -0.4147296212  MEMB      95              0.0000000000
     10973        95  SAPE      H18S           33.7884285787      -31.8201498168        0.4983284614  MEMB      95              0.0000000000
     10974        95  SAPE      C219           32.8170711158      -32.7650647291       -1.2231780150  MEMB      95              0.0000000000
     10975        95  SAPE      H19R           33.0859172399      -32.0673000775       -2.0448630761  MEMB      95              0.0000000000
     10976        95  SAPE      H19S           31.8491946093      -32.3004962194       -0.9373238173  MEMB      95              0.0000000000
     10977        95  SAPE      C220           32.5780950538      -34.1335560517       -2.0280241875  MEMB      95              0.0000000000
     10978        95  SAPE      H20R           32.0771927672      -34.8577306500       -1.3505366757  MEMB      95              0.0000000000
     10979        95  SAPE      H20S           33.5114331580      -34.6003864506       -2.4091671895  MEMB      95              0.0000000000
     10980        95  SAPE      H20T           31.9532525861      -33.9188254975       -2.9212113814  MEMB      95              0.0000000000
     10981        95  SAPE      C33            36.3394709608      -34.8503086202       12.7414299075  MEMB      95              0.0000000000
     10982        95  SAPE      H3X            37.3936431283      -35.1938019293       12.6703314076  MEMB      95              0.0000000000
     10983        95  SAPE      H3Y            36.3289040230      -33.9691628380       12.0648277043  MEMB      95              0.0000000000
     10984        95  SAPE      C34            35.4451776426      -35.9281411662       12.1832718844  MEMB      95              0.0000000000
     10985        95  SAPE      H4X            34.4786722929      -35.9853502551       12.7281718344  MEMB      95              0.0000000000
     10986        95  SAPE      H4Y            35.8744451225      -36.9309617673       12.3939876511  MEMB      95              0.0000000000
     10987        95  SAPE      C35            35.2150190688      -35.9052779431       10.6641940780  MEMB      95              0.0000000000
     10988        95  SAPE      H5X            36.1710449376      -35.8728436504       10.0991419135  MEMB      95              0.0000000000
     10989        95  SAPE      H5Y            34.7051097490      -34.9581615286       10.3861948955  MEMB      95              0.0000000000
     10990        95  SAPE      C36            34.3508612105      -37.0761981224       10.1467262436  MEMB      95              0.0000000000
     10991        95  SAPE      H6X            33.4099707037      -37.1887799920       10.7267020594  MEMB      95              0.0000000000
     10992        95  SAPE      H6Y            34.9141764164      -38.0307037533       10.2236457232  MEMB      95              0.0000000000
     10993        95  SAPE      C37            34.0879584290      -36.8636621471        8.5816449312  MEMB      95              0.0000000000
     10994        95  SAPE      H7X            35.0718686848      -36.6231900579        8.1251195498  MEMB      95              0.0000000000
     10995        95  SAPE      H7Y            33.4197427955      -35.9895916441        8.4273405421  MEMB      95              0.0000000000
     10996        95  SAPE      C38            33.4766703039      -38.0831962886        7.8632839149  MEMB      95              0.0000000000
     10997        95  SAPE      H8X            32.4104647759      -37.9770464629        8.1569830915  MEMB      95              0.0000000000
     10998        95  SAPE      H8Y            33.7659864596      -39.0730282123        8.2766232377  MEMB      95              0.0000000000
     10999        95  SAPE      C39            33.5081658506      -38.0863526604        6.2972173007  MEMB      95              0.0000000000
     11000        95  SAPE      H9X            33.4217590612      -39.1815994694        6.1320227341  MEMB      95              0.0000000000
     11001        95  SAPE      H9Y            34.4216690365      -37.6467864977        5.8426684700  MEMB      95              0.0000000000
     11002        95  SAPE      C310           32.2861451381      -37.3896044636        5.7341925461  MEMB      95              0.0000000000
     11003        95  SAPE      H10X           32.3266080824      -36.3644021465        6.1603894068  MEMB      95              0.0000000000
     11004        95  SAPE      H10Y           31.4049291399      -37.9257366584        6.1469185477  MEMB      95              0.0000000000
     11005        95  SAPE      C311           32.1961068665      -37.3905865660        4.2075330070  MEMB      95              0.0000000000
     11006        95  SAPE      H11X           32.0975953294      -38.4537389117        3.9004123047  MEMB      95              0.0000000000
     11007        95  SAPE      H11Y           33.1490208582      -36.9419989713        3.8539160282  MEMB      95              0.0000000000
     11008        95  SAPE      C312           31.1503249954      -36.3994482417        3.6717913962  MEMB      95              0.0000000000
     11009        95  SAPE      H12X           31.1069471136      -36.5678870929        2.5744915104  MEMB      95              0.0000000000
     11010        95  SAPE      H12Y           31.5005163656      -35.3481105226        3.7516389470  MEMB      95              0.0000000000
     11011        95  SAPE      C313           29.6551585700      -36.6615079311        4.1722178876  MEMB      95              0.0000000000
     11012        95  SAPE      H13X           29.7252432500      -36.3793077411        5.2444920710  MEMB      95              0.0000000000
     11013        95  SAPE      H13Y           29.3998226422      -37.7425652314        4.1931986819  MEMB      95              0.0000000000
     11014        95  SAPE      C314           28.5103699560      -35.7947683160        3.5004514273  MEMB      95              0.0000000000
     11015        95  SAPE      H14X           27.6601669255      -35.7285288340        4.2125518230  MEMB      95              0.0000000000
     11016        95  SAPE      H14Y           28.1832161807      -36.3804493834        2.6148616758  MEMB      95              0.0000000000
     11017        95  SAPE      C315           28.8309519536      -34.3491459103        3.1025401304  MEMB      95              0.0000000000
     11018        95  SAPE      H15X           29.4181720079      -33.8269210431        3.8878901061  MEMB      95              0.0000000000
     11019        95  SAPE      H15Y           27.9103239443      -33.7275766326        3.0821243789  MEMB      95              0.0000000000
     11020        95  SAPE      C316           29.5388417581      -34.1888862841        1.6787631336  MEMB      95              0.0000000000
     11021        95  SAPE      H16X           29.0023249419      -34.8689183750        0.9830417261  MEMB      95              0.0000000000
     11022        95  SAPE      H16Y           30.4888095329      -34.7621825099        1.7354492189  MEMB      95              0.0000000000
     11023        95  SAPE      C317           29.5981313957      -32.7594944277        1.1394594468  MEMB      95              0.0000000000
     11024        95  SAPE      H17X           28.5785923325      -32.4094476407        0.8705202851  MEMB      95              0.0000000000
     11025        95  SAPE      H17Y           30.1136095410      -32.7662733791        0.1553061699  MEMB      95              0.0000000000
     11026        95  SAPE      C318           30.4080361976      -31.7719472732        2.0276434187  MEMB      95              0.0000000000
     11027        95  SAPE      H18X           31.4718742488      -31.9347691771        1.7518577972  MEMB      95              0.0000000000
     11028        95  SAPE      H18Y           30.1699368154      -31.8152598068        3.1119664958  MEMB      95              0.0000000000
     11029        95  SAPE      H18Z           30.0493851419      -30.8000246948        1.6263248838  MEMB      95              0.0000000000
     11030        96  SOPE      N             -35.8794265755      -36.8903436935       22.8620948846  MEMB      96              0.0000000000
     11031        96  SOPE      HN1           -35.1061413787      -37.5750116791       22.7401941847  MEMB      96              0.0000000000
     11032        96  SOPE      HN2           -35.7508544493      -36.5712377203       23.8435430692  MEMB      96              0.0000000000
     11033        96  SOPE      HN3           -36.7962607593      -37.3703883295       22.7592717641  MEMB      96              0.0000000000
     11034        96  SOPE      C12           -35.8416032489      -35.7526698241       21.8579726825  MEMB      96              0.0000000000
     11035        96  SOPE      H12A          -36.2215936448      -34.8408799392       22.3664681043  MEMB      96              0.0000000000
     11036        96  SOPE      H12B          -36.5528579303      -36.1194335207       21.0873092132  MEMB      96              0.0000000000
     11037        96  SOPE      C11           -34.3634464856      -35.5279310279       21.3778367975  MEMB      96              0.0000000000
     11038        96  SOPE      H11A          -33.9051428477      -36.4071530033       20.8765908915  MEMB      96              0.0000000000
     11039        96  SOPE      H11B          -33.8158186670      -35.4137745148       22.3377290173  MEMB      96              0.0000000000
     11040        96  SOPE      P             -32.8494163218      -33.7057159069       20.4251290112  MEMB      96              0.0000000000
     11041        96  SOPE      O13           -32.2574220234      -33.0551867533       21.6907588522  MEMB      96              0.0000000000
     11042        96  SOPE      O14           -33.0020275373      -32.9161274972       19.1917949122  MEMB      96              0.0000000000
     11043        96  SOPE      O12           -34.2061797943      -34.3397998775       20.6501899827  MEMB      96              0.0000000000
     11044        96  SOPE      O11           -32.1467804098      -35.0224470625       19.9442228903  MEMB      96              0.0000000000
     11045        96  SOPE      C1            -30.7681662421      -35.1650864421       20.0122435623  MEMB      96              0.0000000000
     11046        96  SOPE      HA            -30.4887269466      -36.2349811654       20.1197617074  MEMB      96              0.0000000000
     11047        96  SOPE      HB            -30.2948092387      -34.6616529849       20.8821911964  MEMB      96              0.0000000000
     11048        96  SOPE      C2            -30.1433244853      -34.7766027518       18.6176558812  MEMB      96              0.0000000000
     11049        96  SOPE      HS            -30.1872873417      -33.6664887804       18.6117227534  MEMB      96              0.0000000000
     11050        96  SOPE      O21           -30.8168940070      -35.3795179068       17.5327608929  MEMB      96              0.0000000000
     11051        96  SOPE      C21           -31.3201857172      -34.5467545444       16.6232752970  MEMB      96              0.0000000000
     11052        96  SOPE      O22           -31.2542117492      -33.3360190379       16.5199169240  MEMB      96              0.0000000000
     11053        96  SOPE      C22           -32.1352393553      -35.2904202678       15.5652581337  MEMB      96              0.0000000000
     11054        96  SOPE      H2R           -33.1873197977      -35.1482388296       15.8927211432  MEMB      96              0.0000000000
     11055        96  SOPE      H2S           -31.9152915659      -36.3762767683       15.6480806461  MEMB      96              0.0000000000
     11056        96  SOPE      C3            -28.6892028587      -35.1334099750       18.4556637782  MEMB      96              0.0000000000
     11057        96  SOPE      HX            -28.4771860917      -36.1225130294       18.9150598576  MEMB      96              0.0000000000
     11058        96  SOPE      HY            -28.0639960590      -34.4415946313       19.0596743268  MEMB      96              0.0000000000
     11059        96  SOPE      O31           -28.2025226394      -35.2305913650       17.0801081504  MEMB      96              0.0000000000
     11060        96  SOPE      C31           -27.9971797404      -34.0859810057       16.4913373690  MEMB      96              0.0000000000
     11061        96  SOPE      O32           -28.0935265259      -32.9641536092       16.9871360246  MEMB      96              0.0000000000
     11062        96  SOPE      C32           -27.5680046370      -34.4209871450       15.0682611658  MEMB      96              0.0000000000
     11063        96  SOPE      H2X           -28.0986264374      -35.3000348448       14.6439538462  MEMB      96              0.0000000000
     11064        96  SOPE      H2Y           -26.4604580991      -34.5071336688       15.0527757363  MEMB      96              0.0000000000
     11065        96  SOPE      C23           -31.7675488654      -34.7312378737       14.2117728394  MEMB      96              0.0000000000
     11066        96  SOPE      H3R           -30.6583146025      -34.7378721795       14.1495127101  MEMB      96              0.0000000000
     11067        96  SOPE      H3S           -32.0293993004      -33.6516160485       14.2248897127  MEMB      96              0.0000000000
     11068        96  SOPE      C24           -32.4928501381      -35.4048572372       13.1011616918  MEMB      96              0.0000000000
     11069        96  SOPE      H4R           -31.9801619280      -36.3904430790       13.0915408502  MEMB      96              0.0000000000
     11070        96  SOPE      H4S           -33.5649220248      -35.5075602887       13.3739890262  MEMB      96              0.0000000000
     11071        96  SOPE      C25           -32.4983608657      -34.6495153758       11.7597952172  MEMB      96              0.0000000000
     11072        96  SOPE      H5R           -32.7733208759      -33.5912664498       11.9568413919  MEMB      96              0.0000000000
     11073        96  SOPE      H5S           -31.4571597566      -34.6887591595       11.3742033633  MEMB      96              0.0000000000
     11074        96  SOPE      C26           -33.4445553347      -35.2961824000       10.7462362464  MEMB      96              0.0000000000
     11075        96  SOPE      H6R           -33.1999116835      -36.3729509247       10.6235981570  MEMB      96              0.0000000000
     11076        96  SOPE      H6S           -34.4494984324      -35.1909498923       11.2081196766  MEMB      96              0.0000000000
     11077        96  SOPE      C27           -33.4941860344      -34.5506038184        9.3993259571  MEMB      96              0.0000000000
     11078        96  SOPE      H7R           -34.1493926112      -34.9060325214        8.5754959865  MEMB      96              0.0000000000
     11079        96  SOPE      H7S           -33.9758220256      -33.5906758285        9.6837306381  MEMB      96              0.0000000000
     11080        96  SOPE      C28           -32.0735766105      -34.2458560974        8.8021023075  MEMB      96              0.0000000000
     11081        96  SOPE      H8R           -32.4011590623      -33.4984508466        8.0481820869  MEMB      96              0.0000000000
     11082        96  SOPE      H8S           -31.3314235138      -33.7354470426        9.4524966715  MEMB      96              0.0000000000
     11083        96  SOPE      C29           -31.5553040958      -35.5133017618        8.1438914446  MEMB      96              0.0000000000
     11084        96  SOPE      H91           -32.2346645275      -35.9854138275        7.4189227299  MEMB      96              0.0000000000
     11085        96  SOPE      C210          -30.3118849956      -36.0180435901        8.1275702446  MEMB      96              0.0000000000
     11086        96  SOPE      H101          -30.1506885519      -36.9883135778        7.6350333765  MEMB      96              0.0000000000
     11087        96  SOPE      C211          -29.0721023550      -35.3814372130        8.8151721377  MEMB      96              0.0000000000
     11088        96  SOPE      H11R          -28.2890889977      -36.1328197968        9.0531552208  MEMB      96              0.0000000000
     11089        96  SOPE      H11S          -29.4064991886      -34.9092032812        9.7635896006  MEMB      96              0.0000000000
     11090        96  SOPE      C212          -28.3102790822      -34.2632628811        8.1108803613  MEMB      96              0.0000000000
     11091        96  SOPE      H12R          -27.6610267833      -33.8024204708        8.8857462264  MEMB      96              0.0000000000
     11092        96  SOPE      H12S          -29.1262443614      -33.6420568896        7.6835341325  MEMB      96              0.0000000000
     11093        96  SOPE      C213          -27.4653052116      -34.7965340567        6.9432079240  MEMB      96              0.0000000000
     11094        96  SOPE      H13R          -28.1898029879      -35.0498554210        6.1399320427  MEMB      96              0.0000000000
     11095        96  SOPE      H13S          -26.8487724057      -35.5915083777        7.4146148707  MEMB      96              0.0000000000
     11096        96  SOPE      C214          -26.4495559595      -33.8320146758        6.3841805413  MEMB      96              0.0000000000
     11097        96  SOPE      H14R          -25.4656635490      -34.0863286902        6.8331804235  MEMB      96              0.0000000000
     11098        96  SOPE      H14S          -26.8290388155      -32.7878641457        6.3921585158  MEMB      96              0.0000000000
     11099        96  SOPE      C215          -26.3541783481      -34.1415525073        4.8388344492  MEMB      96              0.0000000000
     11100        96  SOPE      H15R          -27.3558582572      -34.0574323836        4.3656726547  MEMB      96              0.0000000000
     11101        96  SOPE      H15S          -25.8977555925      -35.1393863517        4.6646900572  MEMB      96              0.0000000000
     11102        96  SOPE      C216          -25.4165284986      -33.1788134874        4.0019273766  MEMB      96              0.0000000000
     11103        96  SOPE      H16R          -24.4292651193      -33.1225992473        4.5083578009  MEMB      96              0.0000000000
     11104        96  SOPE      H16S          -25.7708574495      -32.1258313109        4.0013763555  MEMB      96              0.0000000000
     11105        96  SOPE      C217          -25.4704519525      -33.6361247193        2.5570712818  MEMB      96              0.0000000000
     11106        96  SOPE      H17R          -26.4507677180      -33.4065971099        2.0873693462  MEMB      96              0.0000000000
     11107        96  SOPE      H17S          -25.3610806960      -34.7359365485        2.4440547158  MEMB      96              0.0000000000
     11108        96  SOPE      C218          -24.3725650782      -32.9346048730        1.7272227319  MEMB      96              0.0000000000
     11109        96  SOPE      H18R          -23.4065422691      -33.3326893211        2.1049122542  MEMB      96              0.0000000000
     11110        96  SOPE      H18S          -24.2793260871      -31.8280478711        1.7612655583  MEMB      96              0.0000000000
     11111        96  SOPE      H18T          -24.4986775023      -33.2023144007        0.6563592697  MEMB      96              0.0000000000
     11112        96  SOPE      C33           -27.9715139032      -33.1216509747       14.3524015505  MEMB      96              0.0000000000
     11113        96  SOPE      H3X           -27.4305205394      -32.1938081899       14.6365757344  MEMB      96              0.0000000000
     11114        96  SOPE      H3Y           -29.0600745608      -32.9156676537       14.4356344480  MEMB      96              0.0000000000
     11115        96  SOPE      C34           -27.8078461601      -33.2712626725       12.8251410625  MEMB      96              0.0000000000
     11116        96  SOPE      H4X           -28.5002348907      -34.0765229217       12.4988363019  MEMB      96              0.0000000000
     11117        96  SOPE      H4Y           -26.7901736134      -33.5720581076       12.4962251006  MEMB      96              0.0000000000
     11118        96  SOPE      C35           -28.3045523036      -32.0067343058       12.1064320366  MEMB      96              0.0000000000
     11119        96  SOPE      H5X           -27.9916880856      -32.0322538241       11.0406995505  MEMB      96              0.0000000000
     11120        96  SOPE      H5Y           -27.8756198088      -31.1389391055       12.6516560214  MEMB      96              0.0000000000
     11121        96  SOPE      C36           -29.8336752258      -31.8238535957       12.0219507383  MEMB      96              0.0000000000
     11122        96  SOPE      H6X           -30.1773523332      -31.9692508287       13.0684049776  MEMB      96              0.0000000000
     11123        96  SOPE      H6Y           -30.2012874928      -32.6500440899       11.3765115638  MEMB      96              0.0000000000
     11124        96  SOPE      C37           -30.1480509778      -30.3920015797       11.5157633232  MEMB      96              0.0000000000
     11125        96  SOPE      H7X           -29.7800662185      -29.6582894548       12.2644785941  MEMB      96              0.0000000000
     11126        96  SOPE      H7Y           -31.2309213616      -30.2093927845       11.3473391214  MEMB      96              0.0000000000
     11127        96  SOPE      C38           -29.5614430840      -29.9333986839       10.1995608426  MEMB      96              0.0000000000
     11128        96  SOPE      H8X           -28.4829505275      -30.1995604982       10.2178021115  MEMB      96              0.0000000000
     11129        96  SOPE      H8Y           -29.6181367362      -28.8247988578       10.2455309677  MEMB      96              0.0000000000
     11130        96  SOPE      C39           -30.3498497350      -30.5475082039        9.0721945278  MEMB      96              0.0000000000
     11131        96  SOPE      H9X           -31.1986713072      -29.8691192561        8.8406533045  MEMB      96              0.0000000000
     11132        96  SOPE      H9Y           -30.6904030130      -31.5725611035        9.3322167659  MEMB      96              0.0000000000
     11133        96  SOPE      C310          -29.5467838072      -30.5382659511        7.8838046232  MEMB      96              0.0000000000
     11134        96  SOPE      H10X          -28.7676247485      -31.3302241132        7.8779431238  MEMB      96              0.0000000000
     11135        96  SOPE      H10Y          -28.9430311349      -29.6245779829        7.6967823967  MEMB      96              0.0000000000
     11136        96  SOPE      C311          -30.3450642393      -30.8715879022        6.6285037666  MEMB      96              0.0000000000
     11137        96  SOPE      H11X          -30.9018448020      -29.9723465770        6.2883841397  MEMB      96              0.0000000000
     11138        96  SOPE      H11Y          -31.1227789849      -31.6296122072        6.8627691875  MEMB      96              0.0000000000
     11139        96  SOPE      C312          -29.4589907340      -31.5536624319        5.5569520419  MEMB      96              0.0000000000
     11140        96  SOPE      H12X          -28.8556611983      -32.3561165478        6.0327475175  MEMB      96              0.0000000000
     11141        96  SOPE      H12Y          -28.7025302970      -30.8523688976        5.1443065704  MEMB      96              0.0000000000
     11142        96  SOPE      C313          -30.3108080417      -32.1774014898        4.3936457195  MEMB      96              0.0000000000
     11143        96  SOPE      H13X          -29.5562674197      -32.5564847214        3.6716452318  MEMB      96              0.0000000000
     11144        96  SOPE      H13Y          -30.9116454857      -31.3086677144        4.0492392624  MEMB      96              0.0000000000
     11145        96  SOPE      C314          -31.2299280222      -33.2727871688        4.6302314570  MEMB      96              0.0000000000
     11146        96  SOPE      H14X          -32.0346170468      -32.8499205238        5.2689647194  MEMB      96              0.0000000000
     11147        96  SOPE      H14Y          -30.7934837114      -34.1671866017        5.1240803873  MEMB      96              0.0000000000
     11148        96  SOPE      C315          -32.0345902725      -33.7198890591        3.3706100373  MEMB      96              0.0000000000
     11149        96  SOPE      H15X          -32.5070370873      -32.7512009119        3.1008726548  MEMB      96              0.0000000000
     11150        96  SOPE      H15Y          -32.8222391324      -34.4287824621        3.7043752426  MEMB      96              0.0000000000
     11151        96  SOPE      C316          -31.3080703884      -34.2637502739        2.2080579736  MEMB      96              0.0000000000
     11152        96  SOPE      H16X          -31.0963407656      -35.3305540737        2.4348178903  MEMB      96              0.0000000000
     11153        96  SOPE      H16Y          -30.3101492905      -33.7864118443        2.1049900940  MEMB      96              0.0000000000
     11154        96  SOPE      C317          -32.0304788859      -34.3380254230        0.7436908029  MEMB      96              0.0000000000
     11155        96  SOPE      H17X          -31.4166087854      -34.8962706866        0.0048759636  MEMB      96              0.0000000000
     11156        96  SOPE      H17Y          -32.2336964032      -33.2846580712        0.4548291347  MEMB      96              0.0000000000
     11157        96  SOPE      C318          -33.4400999942      -34.9052678288        0.5958009623  MEMB      96              0.0000000000
     11158        96  SOPE      H18X          -34.2140174686      -34.2197233165        1.0024958850  MEMB      96              0.0000000000
     11159        96  SOPE      H18Y          -33.4460709796      -35.9538002661        0.9630395689  MEMB      96              0.0000000000
     11160        96  SOPE      H18Z          -33.6015577239      -35.0282470707       -0.4965031775  MEMB      96              0.0000000000
     11161        97  CHL1      C3             -0.6131692737        4.0454562468      -17.3017800000  MEMB      97              0.0000000000
     11162        97  CHL1      H3             -1.6073783694        4.4991406913      -17.1017200000  MEMB      97              0.0000000000
     11163        97  CHL1      O3             -0.3634949623        4.0614558332      -18.6982200000  MEMB      97              0.0000000000
     11164        97  CHL1      H3'            -0.4344369578        4.9605833651      -19.0270600000  MEMB      97              0.0000000000
     11165        97  CHL1      C4              0.5452344307        4.7207688326      -16.5588700000  MEMB      97              0.0000000000
     11166        97  CHL1      H4A             1.5044283259        4.1934496576      -16.7491000000  MEMB      97              0.0000000000
     11167        97  CHL1      H4B             0.6878463492        5.7692268246      -16.8975600000  MEMB      97              0.0000000000
     11168        97  CHL1      C5              0.3807828264        4.5936822073      -15.0107800000  MEMB      97              0.0000000000
     11169        97  CHL1      C6              0.2859983296        5.6652344764      -14.2335100000  MEMB      97              0.0000000000
     11170        97  CHL1      H6              0.4075332956        6.6869336406      -14.6225700000  MEMB      97              0.0000000000
     11171        97  CHL1      C7              0.1741635767        5.6395615950      -12.7951800000  MEMB      97              0.0000000000
     11172        97  CHL1      H7A             0.8987804517        6.3437718827      -12.3332800000  MEMB      97              0.0000000000
     11173        97  CHL1      H7B            -0.7297910827        5.9864823096      -12.2503700000  MEMB      97              0.0000000000
     11174        97  CHL1      C8              0.4184666535        4.2196074578      -12.1615900000  MEMB      97              0.0000000000
     11175        97  CHL1      H8              1.5018504072        4.0307909587      -12.3195400000  MEMB      97              0.0000000000
     11176        97  CHL1      C14            -0.1572705477        4.2164018200      -10.6652800000  MEMB      97              0.0000000000
     11177        97  CHL1      H14            -1.2581272314        4.3393085383      -10.7508000000  MEMB      97              0.0000000000
     11178        97  CHL1      C15             0.3736122504        5.2065659314       -9.6241200000  MEMB      97              0.0000000000
     11179        97  CHL1      H15A            1.4783735986        5.1510650793       -9.7278500000  MEMB      97              0.0000000000
     11180        97  CHL1      H15B            0.0601662441        6.2493333325       -9.8448500000  MEMB      97              0.0000000000
     11181        97  CHL1      C16             0.0273517145        4.6439301027       -8.3033800000  MEMB      97              0.0000000000
     11182        97  CHL1      H16A            0.9463452423        4.6022651534       -7.6804500000  MEMB      97              0.0000000000
     11183        97  CHL1      H16B           -0.8843885411        5.1373208517       -7.9038700000  MEMB      97              0.0000000000
     11184        97  CHL1      C17            -0.3710102358        3.1181946842       -8.6476300000  MEMB      97              0.0000000000
     11185        97  CHL1      H17            -1.4707093490        3.0053755522       -8.5369500000  MEMB      97              0.0000000000
     11186        97  CHL1      C13             0.0807172586        2.8465460527      -10.0437300000  MEMB      97              0.0000000000
     11187        97  CHL1      C18             1.6283656123        2.5159909476      -10.0238400000  MEMB      97              0.0000000000
     11188        97  CHL1      H18A            2.1428817723        3.3217862307       -9.4579000000  MEMB      97              0.0000000000
     11189        97  CHL1      H18B            1.9347693676        1.5947020957       -9.4837700000  MEMB      97              0.0000000000
     11190        97  CHL1      H18C            2.0785499761        2.4381596727      -11.0365600000  MEMB      97              0.0000000000
     11191        97  CHL1      C12            -0.7223715682        1.8190841550      -10.8718700000  MEMB      97              0.0000000000
     11192        97  CHL1      H12A           -0.6115121269        0.7813168020      -10.4910000000  MEMB      97              0.0000000000
     11193        97  CHL1      H12B           -1.7974788418        2.0926130575      -10.8115900000  MEMB      97              0.0000000000
     11194        97  CHL1      C11            -0.2327659444        1.8268123890      -12.3359000000  MEMB      97              0.0000000000
     11195        97  CHL1      H11A            0.8180282355        1.4746476552      -12.4143700000  MEMB      97              0.0000000000
     11196        97  CHL1      H11B           -0.7711167940        0.9995490140      -12.8459400000  MEMB      97              0.0000000000
     11197        97  CHL1      C9             -0.3192505233        3.1970383990      -12.9853300000  MEMB      97              0.0000000000
     11198        97  CHL1      H9             -1.3736701200        3.5467740481      -12.9993400000  MEMB      97              0.0000000000
     11199        97  CHL1      C10             0.1995979362        3.1568197399      -14.4729700000  MEMB      97              0.0000000000
     11200        97  CHL1      C19             1.5537375356        2.5005547570      -14.5562600000  MEMB      97              0.0000000000
     11201        97  CHL1      H19A            1.4051259067        1.4518075002      -14.2210600000  MEMB      97              0.0000000000
     11202        97  CHL1      H19B            1.9474934876        2.3688072551      -15.5867500000  MEMB      97              0.0000000000
     11203        97  CHL1      H19C            2.3518516965        2.8653243619      -13.8748800000  MEMB      97              0.0000000000
     11204        97  CHL1      C1             -0.8732575272        2.3486718433      -15.3673300000  MEMB      97              0.0000000000
     11205        97  CHL1      H1A            -0.6798240366        1.3063280969      -15.0350100000  MEMB      97              0.0000000000
     11206        97  CHL1      H1B            -1.8904646946        2.6557424246      -15.0428500000  MEMB      97              0.0000000000
     11207        97  CHL1      C2             -0.6883628255        2.5495988930      -16.8617600000  MEMB      97              0.0000000000
     11208        97  CHL1      H2A            -1.5952553618        2.1091566111      -17.3285500000  MEMB      97              0.0000000000
     11209        97  CHL1      H2B             0.2468256429        2.0224875239      -17.1479200000  MEMB      97              0.0000000000
     11210        97  CHL1      C20             0.0500277153        2.2205191944       -7.4720900000  MEMB      97              0.0000000000
     11211        97  CHL1      H20             1.1605326068        2.2443270033       -7.4489000000  MEMB      97              0.0000000000
     11212        97  CHL1      C21            -0.3291324161        0.7920228697       -7.7646300000  MEMB      97              0.0000000000
     11213        97  CHL1      H21A            0.2714008956        0.3126316278       -8.5670300000  MEMB      97              0.0000000000
     11214        97  CHL1      H21B           -1.3953317934        0.7368024659       -8.0720400000  MEMB      97              0.0000000000
     11215        97  CHL1      H21C           -0.1985140975        0.0683990329       -6.9317900000  MEMB      97              0.0000000000
     11216        97  CHL1      C22            -0.4093988916        2.5681979810       -6.0616200000  MEMB      97              0.0000000000
     11217        97  CHL1      H22A           -0.4614680941        3.6710928176       -5.9381800000  MEMB      97              0.0000000000
     11218        97  CHL1      H22B           -1.4821573141        2.3180024856       -5.9170000000  MEMB      97              0.0000000000
     11219        97  CHL1      C23             0.4640933236        2.0802308751       -4.8690300000  MEMB      97              0.0000000000
     11220        97  CHL1      H23A            0.2582162484        1.0076725565       -4.6651800000  MEMB      97              0.0000000000
     11221        97  CHL1      H23B            1.5477846845        2.2447019197       -5.0504200000  MEMB      97              0.0000000000
     11222        97  CHL1      C24             0.0364916421        2.9296149087       -3.6250800000  MEMB      97              0.0000000000
     11223        97  CHL1      H24A            0.2967799030        3.9543172082       -3.9664900000  MEMB      97              0.0000000000
     11224        97  CHL1      H24B           -1.0158222421        2.7824225810       -3.3006000000  MEMB      97              0.0000000000
     11225        97  CHL1      C25             0.8762092685        2.6994892612       -2.3372900000  MEMB      97              0.0000000000
     11226        97  CHL1      H25             1.9219659490        2.9104941400       -2.6473900000  MEMB      97              0.0000000000
     11227        97  CHL1      C26             0.3662976315        3.4738503461       -1.0999900000  MEMB      97              0.0000000000
     11228        97  CHL1      H26A           -0.5498053614        3.0080211957       -0.6779900000  MEMB      97              0.0000000000
     11229        97  CHL1      H26B            1.1303080096        3.3004573960       -0.3122500000  MEMB      97              0.0000000000
     11230        97  CHL1      H26C            0.2352366247        4.5744450639       -1.1764500000  MEMB      97              0.0000000000
     11231        97  CHL1      C27             0.9136269904        1.1856371852       -1.9529800000  MEMB      97              0.0000000000
     11232        97  CHL1      H27A            1.6196331025        0.9340190285       -1.1328700000  MEMB      97              0.0000000000
     11233        97  CHL1      H27B           -0.0983423507        0.9007268215       -1.5937100000  MEMB      97              0.0000000000
     11234        97  CHL1      H27C            1.3021585619        0.5308546071       -2.7620600000  MEMB      97              0.0000000000
     11235        98  CHL1      C3              3.4456299212       -2.8867564783      -17.3342350000  MEMB      98              0.0000000000
     11236        98  CHL1      H3              2.9757551784       -3.8899432479      -17.2495950000  MEMB      98              0.0000000000
     11237        98  CHL1      O3              3.7739153788       -2.6082361617      -18.6657650000  MEMB      98              0.0000000000
     11238        98  CHL1      H3'             2.9666309221       -2.5905556524      -19.1849750000  MEMB      98              0.0000000000
     11239        98  CHL1      C4              2.3721979813       -1.8833161291      -16.8815650000  MEMB      98              0.0000000000
     11240        98  CHL1      H4A             2.7499250449       -0.8854417346      -17.1912550000  MEMB      98              0.0000000000
     11241        98  CHL1      H4B             1.4723315543       -2.0878079061      -17.5002250000  MEMB      98              0.0000000000
     11242        98  CHL1      C5              2.0791502441       -2.0376040202      -15.3944650000  MEMB      98              0.0000000000
     11243        98  CHL1      C6              0.8594669503       -2.3918965852      -15.0450650000  MEMB      98              0.0000000000
     11244        98  CHL1      H6              0.0391104910       -2.4213126379      -15.7772850000  MEMB      98              0.0000000000
     11245        98  CHL1      C7              0.4855379815       -2.5687170942      -13.6026250000  MEMB      98              0.0000000000
     11246        98  CHL1      H7A            -0.4650653755       -2.0554924250      -13.3432550000  MEMB      98              0.0000000000
     11247        98  CHL1      H7B             0.4178969824       -3.6337190114      -13.2935450000  MEMB      98              0.0000000000
     11248        98  CHL1      C8              1.5291859312       -1.8692076748      -12.7233950000  MEMB      98              0.0000000000
     11249        98  CHL1      H8              1.6124487044       -0.7636381822      -12.7947950000  MEMB      98              0.0000000000
     11250        98  CHL1      C14             1.2479668089       -2.3309152582      -11.2294550000  MEMB      98              0.0000000000
     11251        98  CHL1      H14             1.3099067861       -3.4279481835      -11.3938250000  MEMB      98              0.0000000000
     11252        98  CHL1      C15            -0.2047075464       -2.1837943787      -10.7175450000  MEMB      98              0.0000000000
     11253        98  CHL1      H15A           -0.7593377513       -1.2584316335      -10.9828950000  MEMB      98              0.0000000000
     11254        98  CHL1      H15B           -0.7931040957       -3.0521408373      -11.0837050000  MEMB      98              0.0000000000
     11255        98  CHL1      C16            -0.0694104289       -2.2928284473       -9.1560150000  MEMB      98              0.0000000000
     11256        98  CHL1      H16A           -0.5052238073       -1.4602904367       -8.5633350000  MEMB      98              0.0000000000
     11257        98  CHL1      H16B           -0.6436114672       -3.1975162414       -8.8624950000  MEMB      98              0.0000000000
     11258        98  CHL1      C17             1.4487639028       -2.4331739609       -8.8656950000  MEMB      98              0.0000000000
     11259        98  CHL1      H17             1.8046185718       -3.4855302431       -8.8502850000  MEMB      98              0.0000000000
     11260        98  CHL1      C13             2.1815755482       -1.8689564495      -10.1349350000  MEMB      98              0.0000000000
     11261        98  CHL1      C18             2.1424948398       -0.3414839160      -10.0923850000  MEMB      98              0.0000000000
     11262        98  CHL1      H18A            1.0688678185       -0.0557919307      -10.0976750000  MEMB      98              0.0000000000
     11263        98  CHL1      H18B            2.5091775008       -0.0796440450       -9.0768550000  MEMB      98              0.0000000000
     11264        98  CHL1      H18C            2.5619937025        0.1069360982      -11.0182750000  MEMB      98              0.0000000000
     11265        98  CHL1      C12             3.5605761132       -2.4998920232      -10.4805850000  MEMB      98              0.0000000000
     11266        98  CHL1      H12A            4.3552028236       -2.2757610770       -9.7371750000  MEMB      98              0.0000000000
     11267        98  CHL1      H12B            3.4242517304       -3.6023627929      -10.4633150000  MEMB      98              0.0000000000
     11268        98  CHL1      C11             3.9791276153       -2.0274170280      -11.8737950000  MEMB      98              0.0000000000
     11269        98  CHL1      H11A            4.2666894170       -0.9687004825      -11.6984350000  MEMB      98              0.0000000000
     11270        98  CHL1      H11B            4.9314901969       -2.5197080776      -12.1652650000  MEMB      98              0.0000000000
     11271        98  CHL1      C9              2.9636382239       -2.3698778041      -13.0338950000  MEMB      98              0.0000000000
     11272        98  CHL1      H9              2.9513896364       -3.4791604387      -12.9733850000  MEMB      98              0.0000000000
     11273        98  CHL1      C10             3.3184056806       -1.9676168363      -14.4631150000  MEMB      98              0.0000000000
     11274        98  CHL1      C19             3.9020940834       -0.5123502831      -14.4861950000  MEMB      98              0.0000000000
     11275        98  CHL1      H19A            4.8409308648       -0.4455603829      -13.8959050000  MEMB      98              0.0000000000
     11276        98  CHL1      H19B            4.1127954487       -0.1861346111      -15.5271150000  MEMB      98              0.0000000000
     11277        98  CHL1      H19C            3.1364746284        0.1817393749      -14.0783050000  MEMB      98              0.0000000000
     11278        98  CHL1      C1              4.4298571901       -3.0133331932      -14.9618850000  MEMB      98              0.0000000000
     11279        98  CHL1      H1A             5.3383391979       -2.7760026347      -14.3680350000  MEMB      98              0.0000000000
     11280        98  CHL1      H1B             4.0812146901       -4.0439267253      -14.7368250000  MEMB      98              0.0000000000
     11281        98  CHL1      C2              4.7724892685       -2.8640904588      -16.4794950000  MEMB      98              0.0000000000
     11282        98  CHL1      H2A             5.4067815909       -3.7137797144      -16.8111950000  MEMB      98              0.0000000000
     11283        98  CHL1      H2B             5.3779543229       -1.9329167782      -16.4542350000  MEMB      98              0.0000000000
     11284        98  CHL1      C20             1.8522317134       -1.9509253764       -7.3892250000  MEMB      98              0.0000000000
     11285        98  CHL1      H20             1.5272848414       -0.8933202674       -7.2883050000  MEMB      98              0.0000000000
     11286        98  CHL1      C21             3.2822546838       -2.1118131023       -7.0760050000  MEMB      98              0.0000000000
     11287        98  CHL1      H21A            3.4955340732       -1.8434448044       -6.0192150000  MEMB      98              0.0000000000
     11288        98  CHL1      H21B            3.7364262527       -1.3406655925       -7.7343150000  MEMB      98              0.0000000000
     11289        98  CHL1      H21C            3.6620457799       -3.0868261834       -7.4493850000  MEMB      98              0.0000000000
     11290        98  CHL1      C22             0.9972554710       -2.6238710191       -6.3496950000  MEMB      98              0.0000000000
     11291        98  CHL1      H22A           -0.0553533050       -2.4814382012       -6.6753350000  MEMB      98              0.0000000000
     11292        98  CHL1      H22B            1.2393390536       -3.7012584100       -6.2274050000  MEMB      98              0.0000000000
     11293        98  CHL1      C23             1.1020105462       -2.0164372045       -4.9486750000  MEMB      98              0.0000000000
     11294        98  CHL1      H23A            2.0438951726       -2.2841282341       -4.4237650000  MEMB      98              0.0000000000
     11295        98  CHL1      H23B            1.0296027777       -0.9130483886       -5.0564550000  MEMB      98              0.0000000000
     11296        98  CHL1      C24            -0.0891437540       -2.4008456510       -4.0308650000  MEMB      98              0.0000000000
     11297        98  CHL1      H24A           -1.0719561709       -2.2281397632       -4.5193050000  MEMB      98              0.0000000000
     11298        98  CHL1      H24B           -0.2185786641       -3.4995161094       -3.9284350000  MEMB      98              0.0000000000
     11299        98  CHL1      C25             0.0314597181       -1.6231971204       -2.6742450000  MEMB      98              0.0000000000
     11300        98  CHL1      H25             0.1902623375       -0.5424572016       -2.8769950000  MEMB      98              0.0000000000
     11301        98  CHL1      C26            -1.1738995813       -1.8248990184       -1.7791450000  MEMB      98              0.0000000000
     11302        98  CHL1      H26A           -0.9616879309       -1.2217044204       -0.8706050000  MEMB      98              0.0000000000
     11303        98  CHL1      H26B           -2.1144440925       -1.4758476760       -2.2564850000  MEMB      98              0.0000000000
     11304        98  CHL1      H26C           -1.2305424712       -2.8632142724       -1.3879950000  MEMB      98              0.0000000000
     11305        98  CHL1      C27             1.2535916707       -2.0196189495       -1.7771050000  MEMB      98              0.0000000000
     11306        98  CHL1      H27A            1.3343652355       -3.1240051378       -1.6869450000  MEMB      98              0.0000000000
     11307        98  CHL1      H27B            2.2545672548       -1.7469500146       -2.1746250000  MEMB      98              0.0000000000
     11308        98  CHL1      H27C            1.1563634112       -1.5751447673       -0.7635450000  MEMB      98              0.0000000000
     11309        99  OSM       N              -3.1766354871       -1.0866517238      -21.5720033334  MEMB      99              0.0000000000
     11310        99  OSM       C15            -2.6578542732       -0.1159310932      -22.5723110759  MEMB      99              0.0000000000
     11311        99  OSM       H15A           -2.8832005431       -0.4619449738      -23.5702558671  MEMB      99              0.0000000000
     11312        99  OSM       H15B           -1.6348610809        0.1749753213      -22.3845385713  MEMB      99              0.0000000000
     11313        99  OSM       H15C           -3.2002126591        0.8059028081      -22.4224123622  MEMB      99              0.0000000000
     11314        99  OSM       C14            -2.4071429604       -2.3321989843      -21.7935079492  MEMB      99              0.0000000000
     11315        99  OSM       H14A           -2.3188429407       -3.0249876895      -20.9697077571  MEMB      99              0.0000000000
     11316        99  OSM       H14B           -1.4550011824       -1.8645782439      -21.9963791223  MEMB      99              0.0000000000
     11317        99  OSM       H14C           -2.6564490294       -2.8894043052      -22.6844448686  MEMB      99              0.0000000000
     11318        99  OSM       C13            -3.0203746650       -0.6065807101      -20.1236626677  MEMB      99              0.0000000000
     11319        99  OSM       H13A           -3.5850239900       -1.2233069893      -19.4401277538  MEMB      99              0.0000000000
     11320        99  OSM       H13B           -3.3020010456        0.4246766430      -19.9700560408  MEMB      99              0.0000000000
     11321        99  OSM       H13C           -2.0048489189       -0.6822089492      -19.7639575272  MEMB      99              0.0000000000
     11322        99  OSM       C12            -4.7075499685       -1.3386889188      -21.8657755084  MEMB      99              0.0000000000
     11323        99  OSM       H12A           -4.7626322314       -1.7293019418      -22.8711546577  MEMB      99              0.0000000000
     11324        99  OSM       H12B           -5.2916198109       -0.4307801401      -21.8347244378  MEMB      99              0.0000000000
     11325        99  OSM       C11            -5.4713732915       -2.3059116639      -20.9243745032  MEMB      99              0.0000000000
     11326        99  OSM       H11A           -6.5492130067       -2.2014598172      -21.1727134059  MEMB      99              0.0000000000
     11327        99  OSM       H11B           -5.3173467873       -2.0639799682      -19.8510311963  MEMB      99              0.0000000000
     11328        99  OSM       P              -5.2022107809       -4.8946075682      -20.4480982629  MEMB      99              0.0000000000
     11329        99  OSM       O13            -6.4911591426       -5.5041198720      -20.9089590505  MEMB      99              0.0000000000
     11330        99  OSM       O14            -3.9609015287       -5.6180087586      -20.6466449858  MEMB      99              0.0000000000
     11331        99  OSM       O11            -5.3769254815       -4.4551489597      -18.8929033821  MEMB      99              0.0000000000
     11332        99  OSM       O12            -5.1012223114       -3.5629095038      -21.2517592836  MEMB      99              0.0000000000
     11333        99  OSM       C1S            -6.3831560350       -5.1079311188      -18.1398690624  MEMB      99              0.0000000000
     11334        99  OSM       H1S            -6.4519314344       -6.1853354718      -18.4021491481  MEMB      99              0.0000000000
     11335        99  OSM       H1T            -7.3300445435       -4.5581174165      -18.3280921911  MEMB      99              0.0000000000
     11336        99  OSM       NF             -6.1470097546       -3.5814083153      -16.2907931319  MEMB      99              0.0000000000
     11337        99  OSM       HNF            -5.2003663412       -3.2740738914      -16.2323051250  MEMB      99              0.0000000000
     11338        99  OSM       C2S            -6.1207073215       -4.9205712838      -16.6683469997  MEMB      99              0.0000000000
     11339        99  OSM       H2S            -6.8480659838       -5.4222075870      -15.9948251627  MEMB      99              0.0000000000
     11340        99  OSM       C3S            -4.7458531627       -5.5699137148      -16.3026003602  MEMB      99              0.0000000000
     11341        99  OSM       H3S            -3.9331861409       -4.9862957544      -16.7855944449  MEMB      99              0.0000000000
     11342        99  OSM       O3             -4.6724966620       -6.8857297646      -16.7485346903  MEMB      99              0.0000000000
     11343        99  OSM       HO3            -5.3736495697       -7.2153132386      -17.3154206239  MEMB      99              0.0000000000
     11344        99  OSM       C4S            -4.4828042856       -5.4839609686      -14.7853711068  MEMB      99              0.0000000000
     11345        99  OSM       H4S            -3.6172980120       -4.8695923927      -14.4964937852  MEMB      99              0.0000000000
     11346        99  OSM       C5S            -4.9759699927       -6.2055079279      -13.7565641427  MEMB      99              0.0000000000
     11347        99  OSM       H5S            -5.7919520143       -6.9284632264      -13.9032232976  MEMB      99              0.0000000000
     11348        99  OSM       C6S            -4.5235059131       -5.9226587655      -12.2988523151  MEMB      99              0.0000000000
     11349        99  OSM       H6S            -5.3780823766       -5.4090988105      -11.8086723933  MEMB      99              0.0000000000
     11350        99  OSM       H6T            -3.5924064825       -5.3191069696      -12.3545319324  MEMB      99              0.0000000000
     11351        99  OSM       C7S            -4.0824572725       -7.2202958543      -11.6069682667  MEMB      99              0.0000000000
     11352        99  OSM       H7S            -3.0504588913       -7.4596472172      -11.9416491015  MEMB      99              0.0000000000
     11353        99  OSM       H7T            -4.7730573419       -8.0195885015      -11.9512416380  MEMB      99              0.0000000000
     11354        99  OSM       C8S            -3.9707873574       -7.0516813056      -10.0427792943  MEMB      99              0.0000000000
     11355        99  OSM       H8S            -3.1211297357       -6.3709813041       -9.8213054683  MEMB      99              0.0000000000
     11356        99  OSM       H8T            -3.6808033189       -8.0370352233       -9.6193314579  MEMB      99              0.0000000000
     11357        99  OSM       C9S            -5.2016401121       -6.5703009511       -9.3168073816  MEMB      99              0.0000000000
     11358        99  OSM       H9S            -5.8974190316       -7.4343598417       -9.3769351171  MEMB      99              0.0000000000
     11359        99  OSM       H9T            -5.7956825364       -5.7589754315       -9.7892325293  MEMB      99              0.0000000000
     11360        99  OSM       C10S           -4.9123319942       -6.3207682662       -7.8516996760  MEMB      99              0.0000000000
     11361        99  OSM       H10S           -4.1688156566       -7.0609372905       -7.4861121897  MEMB      99              0.0000000000
     11362        99  OSM       H10T           -5.8001667658       -6.4964163334       -7.2073255257  MEMB      99              0.0000000000
     11363        99  OSM       C11S           -4.3929587075       -4.9277072073       -7.5087643573  MEMB      99              0.0000000000
     11364        99  OSM       H11S           -5.1914221351       -4.1801614305       -7.7035783733  MEMB      99              0.0000000000
     11365        99  OSM       H11T           -3.5633457649       -4.7172559825       -8.2171247864  MEMB      99              0.0000000000
     11366        99  OSM       C12S           -3.9840553164       -4.7464915036       -6.0721910995  MEMB      99              0.0000000000
     11367        99  OSM       H12S           -3.4698773282       -3.7639483046       -6.1396526863  MEMB      99              0.0000000000
     11368        99  OSM       H12T           -3.2028488572       -5.5136603031       -5.8838044866  MEMB      99              0.0000000000
     11369        99  OSM       C13S           -5.0891858563       -4.6633306106       -5.0430799157  MEMB      99              0.0000000000
     11370        99  OSM       H13S           -5.7383028916       -5.5648243535       -5.0264294551  MEMB      99              0.0000000000
     11371        99  OSM       H13T           -5.7932108323       -3.8438218164       -5.3020679379  MEMB      99              0.0000000000
     11372        99  OSM       C14S           -4.4525333855       -4.3609632458       -3.7374084072  MEMB      99              0.0000000000
     11373        99  OSM       H14S           -5.2811509167       -4.1913426206       -3.0170302093  MEMB      99              0.0000000000
     11374        99  OSM       H14T           -3.6976979769       -3.5473467231       -3.7881299559  MEMB      99              0.0000000000
     11375        99  OSM       C15S           -3.7210708631       -5.5903628246       -3.1357676060  MEMB      99              0.0000000000
     11376        99  OSM       H15S           -2.6798204749       -5.7557933074       -3.4861272981  MEMB      99              0.0000000000
     11377        99  OSM       H15T           -4.2760649119       -6.5319604516       -3.3350072902  MEMB      99              0.0000000000
     11378        99  OSM       C16S           -3.5859998700       -5.5160725841       -1.5809486438  MEMB      99              0.0000000000
     11379        99  OSM       H16S           -3.0757613919       -6.4371556361       -1.2265707514  MEMB      99              0.0000000000
     11380        99  OSM       H16T           -4.6276000504       -5.3605536944       -1.2271073103  MEMB      99              0.0000000000
     11381        99  OSM       C17S           -2.8662397499       -4.2961612439       -1.1819029267  MEMB      99              0.0000000000
     11382        99  OSM       H17S           -2.7275059741       -4.2988209387       -0.0796023175  MEMB      99              0.0000000000
     11383        99  OSM       H17T           -3.3903660270       -3.3313538336       -1.3514881924  MEMB      99              0.0000000000
     11384        99  OSM       C18S           -1.4416084158       -4.1107089534       -1.8150433313  MEMB      99              0.0000000000
     11385        99  OSM       H18S           -0.8786490562       -5.0652455009       -1.8941503913  MEMB      99              0.0000000000
     11386        99  OSM       H18T           -0.7686530043       -3.4637068690       -1.2126812928  MEMB      99              0.0000000000
     11387        99  OSM       H18U           -1.4834730342       -3.6265824728       -2.8141387506  MEMB      99              0.0000000000
     11388        99  OSM       C1F            -7.2572751145       -2.7594726746      -16.2431570179  MEMB      99              0.0000000000
     11389        99  OSM       OF             -8.3643752266       -3.2693644874      -16.5480566130  MEMB      99              0.0000000000
     11390        99  OSM       C2F            -7.0418891471       -1.3203325698      -15.8595487198  MEMB      99              0.0000000000
     11391        99  OSM       H2F            -7.5007439419       -0.6769484662      -16.6404644844  MEMB      99              0.0000000000
     11392        99  OSM       H2G            -5.9621840728       -1.0601802022      -15.8299025644  MEMB      99              0.0000000000
     11393        99  OSM       C3F            -7.8429089359       -0.9235083897      -14.6540065081  MEMB      99              0.0000000000
     11394        99  OSM       H3F            -8.9474938731       -0.9867899116      -14.7550450300  MEMB      99              0.0000000000
     11395        99  OSM       H3G            -7.6280105744        0.1393266316      -14.4120939691  MEMB      99              0.0000000000
     11396        99  OSM       C4F            -7.4706245463       -1.7378742935      -13.3995445190  MEMB      99              0.0000000000
     11397        99  OSM       H4F            -7.7240891719       -2.7902689013      -13.6496288394  MEMB      99              0.0000000000
     11398        99  OSM       H4G            -8.1297119282       -1.4339212906      -12.5583923747  MEMB      99              0.0000000000
     11399        99  OSM       C5F            -5.9916844137       -1.5693514014      -13.0006679747  MEMB      99              0.0000000000
     11400        99  OSM       H5F            -5.8325239663       -0.4712671573      -13.0572335512  MEMB      99              0.0000000000
     11401        99  OSM       H5G            -5.4417079554       -2.1418983280      -13.7778657883  MEMB      99              0.0000000000
     11402        99  OSM       C6F            -5.6173753578       -2.1262263292      -11.6060562874  MEMB      99              0.0000000000
     11403        99  OSM       H6F            -5.5350239445       -3.2277433708      -11.7252177225  MEMB      99              0.0000000000
     11404        99  OSM       H6G            -6.4703652242       -1.8217919859      -10.9625897668  MEMB      99              0.0000000000
     11405        99  OSM       C7F            -4.3804131277       -1.3436813920      -11.0039980441  MEMB      99              0.0000000000
     11406        99  OSM       H7F            -4.3810275360       -0.2366804309      -11.0981751321  MEMB      99              0.0000000000
     11407        99  OSM       H7G            -3.4416185163       -1.5934433696      -11.5430749991  MEMB      99              0.0000000000
     11408        99  OSM       C8F            -4.3313615954       -1.7963125275       -9.4852049350  MEMB      99              0.0000000000
     11409        99  OSM       H8F            -4.3098253528       -2.8961806934       -9.6405991280  MEMB      99              0.0000000000
     11410        99  OSM       H8G            -5.2342231326       -1.4344497502       -8.9483469374  MEMB      99              0.0000000000
     11411        99  OSM       C9F            -3.0402115295       -1.2827679979       -8.9268356353  MEMB      99              0.0000000000
     11412        99  OSM       H9F            -2.1523224584       -1.5710686406       -9.5086742365  MEMB      99              0.0000000000
     11413        99  OSM       C10F           -2.8620226803       -0.5002315293       -7.8628687088  MEMB      99              0.0000000000
     11414        99  OSM       H10F           -1.8358730955       -0.1548240948       -7.6686760860  MEMB      99              0.0000000000
     11415        99  OSM       C11F           -3.9686732654        0.0881740366       -6.9433759842  MEMB      99              0.0000000000
     11416        99  OSM       H11F           -4.8045916196        0.4984332860       -7.5493861654  MEMB      99              0.0000000000
     11417        99  OSM       H11G           -3.5947368850        0.9968651408       -6.4249426045  MEMB      99              0.0000000000
     11418        99  OSM       C12F           -4.4755612001       -1.0040135959       -5.9870016330  MEMB      99              0.0000000000
     11419        99  OSM       H12F           -3.7016194321       -1.7637717172       -5.7459562956  MEMB      99              0.0000000000
     11420        99  OSM       H12G           -5.4485467189       -1.4046090456       -6.3435745532  MEMB      99              0.0000000000
     11421        99  OSM       C13F           -4.7698206948       -0.3945018288       -4.6340923196  MEMB      99              0.0000000000
     11422        99  OSM       H13F           -5.1537594862        0.6302743829       -4.8257847611  MEMB      99              0.0000000000
     11423        99  OSM       H13G           -3.8502067354       -0.2460068034       -4.0286330437  MEMB      99              0.0000000000
     11424        99  OSM       C14F           -5.9549476898       -1.1075651275       -3.8989207731  MEMB      99              0.0000000000
     11425        99  OSM       H14F           -5.5884883384       -2.1152217178       -3.6079620744  MEMB      99              0.0000000000
     11426        99  OSM       H14G           -6.9007565279       -1.1044458636       -4.4818073975  MEMB      99              0.0000000000
     11427        99  OSM       C15F           -6.3023224546       -0.4118103456       -2.5325917989  MEMB      99              0.0000000000
     11428        99  OSM       H15F           -7.3387317811       -0.6632392739       -2.2212060912  MEMB      99              0.0000000000
     11429        99  OSM       H15G           -6.3846999960        0.6456673778       -2.8631589194  MEMB      99              0.0000000000
     11430        99  OSM       C16F           -5.3819362883       -0.6223563488       -1.2748651137  MEMB      99              0.0000000000
     11431        99  OSM       H16F           -4.4755468666       -0.0345556481       -1.5342311256  MEMB      99              0.0000000000
     11432        99  OSM       H16G           -4.9449004585       -1.6104692382       -1.0161113013  MEMB      99              0.0000000000
     11433        99  OSM       C17F           -5.9271252766        0.0713863936       -0.0027090437  MEMB      99              0.0000000000
     11434        99  OSM       H17F           -6.2299378677        1.1012095112       -0.2892223005  MEMB      99              0.0000000000
     11435        99  OSM       H17G           -5.1343188836       -0.0875179400        0.7592146765  MEMB      99              0.0000000000
     11436        99  OSM       C18F           -7.0792155663       -0.5241822334        0.7463908590  MEMB      99              0.0000000000
     11437        99  OSM       H18F           -7.1871837229       -0.0200151418        1.7305049698  MEMB      99              0.0000000000
     11438        99  OSM       H18G           -6.7385432717       -1.5052449339        1.1410793481  MEMB      99              0.0000000000
     11439        99  OSM       H18H           -8.1058577704       -0.4761926071        0.3244621706  MEMB      99              0.0000000000
     11440       100  SLPC      N               9.3252859440        4.2867671668      -17.2676189068  MEMB      100             0.0000000000
     11441       100  SLPC      C13            10.2464060211        3.9316568418      -16.1311982224  MEMB      100             0.0000000000
     11442       100  SLPC      H13A            9.8015843569        3.2184825022      -15.4530270198  MEMB      100             0.0000000000
     11443       100  SLPC      H13B           11.1005170660        3.3448988989      -16.4355167740  MEMB      100             0.0000000000
     11444       100  SLPC      H13C           10.5867665775        4.8650995827      -15.7078315536  MEMB      100             0.0000000000
     11445       100  SLPC      C14            10.2185317755        4.7182491465      -18.4340903723  MEMB      100             0.0000000000
     11446       100  SLPC      H14A            9.6307261019        5.2060584386      -19.1975865711  MEMB      100             0.0000000000
     11447       100  SLPC      H14B           11.0138738948        5.3640052750      -18.0922867283  MEMB      100             0.0000000000
     11448       100  SLPC      H14C           10.6530369893        3.8354198932      -18.8793070282  MEMB      100             0.0000000000
     11449       100  SLPC      C15             8.3450904023        5.3276669773      -16.9530455533  MEMB      100             0.0000000000
     11450       100  SLPC      H15A            7.7547018615        4.9477585251      -16.1323684992  MEMB      100             0.0000000000
     11451       100  SLPC      H15B            8.8637349410        6.2566417108      -16.7675352544  MEMB      100             0.0000000000
     11452       100  SLPC      H15C            7.6788677355        5.5235025105      -17.7802067764  MEMB      100             0.0000000000
     11453       100  SLPC      C12             8.4947528016        3.1005931414      -17.6279157653  MEMB      100             0.0000000000
     11454       100  SLPC      H12A            9.0608856233        2.3259114198      -18.1236596137  MEMB      100             0.0000000000
     11455       100  SLPC      H12B            7.9149786066        3.5011044276      -18.4463609508  MEMB      100             0.0000000000
     11456       100  SLPC      C11             7.5295829824        2.3256195630      -16.6076606934  MEMB      100             0.0000000000
     11457       100  SLPC      H11A            8.0940265668        1.7894113267      -15.8150667161  MEMB      100             0.0000000000
     11458       100  SLPC      H11B            7.1779694611        1.4587883035      -17.2070707727  MEMB      100             0.0000000000
     11459       100  SLPC      P               5.0992945121        3.2196070630      -16.8777390337  MEMB      100             0.0000000000
     11460       100  SLPC      O13             5.2097252646        3.9748408292      -18.1573433360  MEMB      100             0.0000000000
     11461       100  SLPC      O14             4.5622199196        1.8213592310      -16.9072851627  MEMB      100             0.0000000000
     11462       100  SLPC      O12             6.5203581209        3.2348315454      -16.1338409551  MEMB      100             0.0000000000
     11463       100  SLPC      O11             4.2017624749        4.0007789245      -15.9022620032  MEMB      100             0.0000000000
     11464       100  SLPC      C1              4.3774908130        5.3281624409      -15.4826464174  MEMB      100             0.0000000000
     11465       100  SLPC      HA              4.9524590120        5.9984221413      -16.1568010592  MEMB      100             0.0000000000
     11466       100  SLPC      HB              3.3031670276        5.6098181790      -15.5112719989  MEMB      100             0.0000000000
     11467       100  SLPC      C2              4.9788096335        5.2917139572      -14.0264413961  MEMB      100             0.0000000000
     11468       100  SLPC      HS              6.0733787124        5.1016218891      -14.0162160406  MEMB      100             0.0000000000
     11469       100  SLPC      O21             4.3775848653        4.4878082470      -13.0706228810  MEMB      100             0.0000000000
     11470       100  SLPC      C21             5.1148041930        3.3838726741      -12.6046435745  MEMB      100             0.0000000000
     11471       100  SLPC      O22             6.1028402659        2.9252235722      -13.1164152299  MEMB      100             0.0000000000
     11472       100  SLPC      C22             4.5301733624        2.8130345891      -11.3077426266  MEMB      100             0.0000000000
     11473       100  SLPC      H2R             5.1955116349        1.9888126309      -10.9726244778  MEMB      100             0.0000000000
     11474       100  SLPC      H2S             4.5069878650        3.6514863577      -10.5791949526  MEMB      100             0.0000000000
     11475       100  SLPC      C3              4.9161960221        6.7214587725      -13.4610792098  MEMB      100             0.0000000000
     11476       100  SLPC      HX              3.8676007459        7.0731308753      -13.3557446308  MEMB      100             0.0000000000
     11477       100  SLPC      HY              5.3068577310        7.3751832782      -14.2699975849  MEMB      100             0.0000000000
     11478       100  SLPC      O31             5.5669944222        6.8577152901      -12.2140998213  MEMB      100             0.0000000000
     11479       100  SLPC      C31             6.9336062792        6.9753537511      -12.1675203415  MEMB      100             0.0000000000
     11480       100  SLPC      O32             7.6639448049        6.9135679238      -13.1337599105  MEMB      100             0.0000000000
     11481       100  SLPC      C32             7.2621729204        6.9729555217      -10.6425787225  MEMB      100             0.0000000000
     11482       100  SLPC      H2X             7.9547241013        7.8291331846      -10.4954273731  MEMB      100             0.0000000000
     11483       100  SLPC      H2Y             7.8482798455        6.0461410930      -10.4642110803  MEMB      100             0.0000000000
     11484       100  SLPC      C23             3.1548008877        2.1355743348      -11.5525483020  MEMB      100             0.0000000000
     11485       100  SLPC      H3R             3.1750303606        1.2665794460      -12.2444732832  MEMB      100             0.0000000000
     11486       100  SLPC      H3S             2.5428176150        2.8840915983      -12.0998320912  MEMB      100             0.0000000000
     11487       100  SLPC      C24             2.4628111382        1.6968591131      -10.2788955943  MEMB      100             0.0000000000
     11488       100  SLPC      H4R             1.4175048570        1.7879333667      -10.6440818352  MEMB      100             0.0000000000
     11489       100  SLPC      H4S             2.6042781458        2.3573186079       -9.3967949100  MEMB      100             0.0000000000
     11490       100  SLPC      C25             2.9563342439        0.2121948137       -9.9966698633  MEMB      100             0.0000000000
     11491       100  SLPC      H5R             3.2697188061       -0.3988487553      -10.8700181420  MEMB      100             0.0000000000
     11492       100  SLPC      H5S             2.0813738878       -0.3341831493       -9.5840729835  MEMB      100             0.0000000000
     11493       100  SLPC      C26             4.0909812179        0.1092402033       -9.0344236720  MEMB      100             0.0000000000
     11494       100  SLPC      H6R             5.0225000761        0.5726169011       -9.4241352930  MEMB      100             0.0000000000
     11495       100  SLPC      H6S             4.3110804374       -0.9697161479       -8.8870127202  MEMB      100             0.0000000000
     11496       100  SLPC      C27             3.7153446114        0.6585985144       -7.6391626431  MEMB      100             0.0000000000
     11497       100  SLPC      H7R             2.9485365012       -0.0234312520       -7.2135321402  MEMB      100             0.0000000000
     11498       100  SLPC      H7S             3.2806637790        1.6782048972       -7.7151672852  MEMB      100             0.0000000000
     11499       100  SLPC      C28             4.8875962823        0.8503897169       -6.6936127237  MEMB      100             0.0000000000
     11500       100  SLPC      H8R             5.4266588623       -0.1103766702       -6.5498747775  MEMB      100             0.0000000000
     11501       100  SLPC      H8S             4.4520842995        1.0344715045       -5.6882453846  MEMB      100             0.0000000000
     11502       100  SLPC      C29             5.9100914028        1.8748568910       -7.1696028668  MEMB      100             0.0000000000
     11503       100  SLPC      H9R             6.4900568946        1.7034184428       -8.0884329334  MEMB      100             0.0000000000
     11504       100  SLPC      C210            6.2244540053        2.9847288611       -6.4366027642  MEMB      100             0.0000000000
     11505       100  SLPC      H10R            6.9039357233        3.7246093692       -6.8848008176  MEMB      100             0.0000000000
     11506       100  SLPC      C211            5.7211338974        3.4009582559       -5.0231024266  MEMB      100             0.0000000000
     11507       100  SLPC      H11R            4.6111215964        3.4414477912       -4.9995540317  MEMB      100             0.0000000000
     11508       100  SLPC      H11S            6.0269039884        4.4595706460       -4.8810965389  MEMB      100             0.0000000000
     11509       100  SLPC      C212            6.0923896482        2.5443926851       -3.8392910799  MEMB      100             0.0000000000
     11510       100  SLPC      H12R            5.2237133785        1.9668764844       -3.4901834913  MEMB      100             0.0000000000
     11511       100  SLPC      C213            7.2954968234        2.4394718956       -3.3248146954  MEMB      100             0.0000000000
     11512       100  SLPC      H13R            7.3990734384        1.8267728978       -2.4171410457  MEMB      100             0.0000000000
     11513       100  SLPC      C214            8.5036560383        3.1610671071       -3.8516385369  MEMB      100             0.0000000000
     11514       100  SLPC      H14R            8.0831912110        3.9256808917       -4.5393125597  MEMB      100             0.0000000000
     11515       100  SLPC      H14S            9.1137902659        2.4195722698       -4.4104242671  MEMB      100             0.0000000000
     11516       100  SLPC      C215            9.4363509962        3.8408100751       -2.7227988029  MEMB      100             0.0000000000
     11517       100  SLPC      H15R           10.4029897319        4.0617684161       -3.2239045685  MEMB      100             0.0000000000
     11518       100  SLPC      H15S            9.7902501148        3.1588532488       -1.9202953962  MEMB      100             0.0000000000
     11519       100  SLPC      C216            8.6265578833        5.0363152866       -2.2320244788  MEMB      100             0.0000000000
     11520       100  SLPC      H16R            7.8645452259        4.6475377977       -1.5231461017  MEMB      100             0.0000000000
     11521       100  SLPC      H16S            8.1030319731        5.5827065957       -3.0454728391  MEMB      100             0.0000000000
     11522       100  SLPC      C217            9.4791491013        6.0822514989       -1.5584048776  MEMB      100             0.0000000000
     11523       100  SLPC      H17R            8.9888511442        7.0781617595       -1.6041401546  MEMB      100             0.0000000000
     11524       100  SLPC      H17S           10.4120139255        6.2053950048       -2.1490984246  MEMB      100             0.0000000000
     11525       100  SLPC      C218            9.8209218925        5.6575011583       -0.1122548738  MEMB      100             0.0000000000
     11526       100  SLPC      H18R            8.8913712677        5.5925480732        0.4927551245  MEMB      100             0.0000000000
     11527       100  SLPC      H18S           10.4957564650        6.3603438647        0.4215354980  MEMB      100             0.0000000000
     11528       100  SLPC      H18T           10.3033458321        4.6569377785       -0.0907864819  MEMB      100             0.0000000000
     11529       100  SLPC      C33             6.0432900422        6.9023409711       -9.6756929798  MEMB      100             0.0000000000
     11530       100  SLPC      H3X             5.2099122469        6.2309539473       -9.9740914367  MEMB      100             0.0000000000
     11531       100  SLPC      H3Y             5.4871278430        7.8635436068       -9.7087755842  MEMB      100             0.0000000000
     11532       100  SLPC      C34             6.3576254865        6.3409664656       -8.2673960187  MEMB      100             0.0000000000
     11533       100  SLPC      H4X             6.6634930962        5.2772820920       -8.3640478983  MEMB      100             0.0000000000
     11534       100  SLPC      H4Y             5.4075290722        6.2958537929       -7.6932859115  MEMB      100             0.0000000000
     11535       100  SLPC      C35             7.5634258481        7.1363230067       -7.6479704162  MEMB      100             0.0000000000
     11536       100  SLPC      H5X             7.7308323333        8.1439996850       -8.0848736216  MEMB      100             0.0000000000
     11537       100  SLPC      H5Y             8.4647079421        6.5485902060       -7.9247050788  MEMB      100             0.0000000000
     11538       100  SLPC      C36             7.4232357263        7.3539687547       -6.0932130552  MEMB      100             0.0000000000
     11539       100  SLPC      H6X             8.4330934822        7.5132093518       -5.6582982451  MEMB      100             0.0000000000
     11540       100  SLPC      H6Y             7.0459007588        6.4748909302       -5.5282698849  MEMB      100             0.0000000000
     11541       100  SLPC      C37             6.4955913867        8.6009652863       -5.7519278067  MEMB      100             0.0000000000
     11542       100  SLPC      H7X             5.5185637228        8.4861226896       -6.2682116930  MEMB      100             0.0000000000
     11543       100  SLPC      H7Y             7.0807045140        9.4822314950       -6.0915360428  MEMB      100             0.0000000000
     11544       100  SLPC      C38             6.3575340133        8.9080324232       -4.2304379140  MEMB      100             0.0000000000
     11545       100  SLPC      H8X             5.6511328293        9.7544255113       -4.0928242156  MEMB      100             0.0000000000
     11546       100  SLPC      H8Y             7.3316028545        9.1904737570       -3.7768545595  MEMB      100             0.0000000000
     11547       100  SLPC      C39             5.6428126670        7.8071665098       -3.4682996332  MEMB      100             0.0000000000
     11548       100  SLPC      H9X             6.3726516489        6.9698049762       -3.4902436768  MEMB      100             0.0000000000
     11549       100  SLPC      H9Y             4.7220424821        7.4176243003       -3.9528202452  MEMB      100             0.0000000000
     11550       100  SLPC      C310            5.4375030109        8.1025624584       -1.9699435417  MEMB      100             0.0000000000
     11551       100  SLPC      H10X            4.8079399086        8.9846554180       -1.7252332764  MEMB      100             0.0000000000
     11552       100  SLPC      H10Y            6.4164676476        8.1413939896       -1.4460721777  MEMB      100             0.0000000000
     11553       100  SLPC      C311            4.6616538508        6.9673972975       -1.2462189185  MEMB      100             0.0000000000
     11554       100  SLPC      H11X            5.3513108231        6.0963683340       -1.2446753529  MEMB      100             0.0000000000
     11555       100  SLPC      H11Y            3.6967936372        6.8216222359       -1.7773636769  MEMB      100             0.0000000000
     11556       100  SLPC      C312            4.3594553512        7.2508794666        0.3173645191  MEMB      100             0.0000000000
     11557       100  SLPC      H12X            3.6777483861        8.1234400549        0.4081138945  MEMB      100             0.0000000000
     11558       100  SLPC      H12Y            5.2924514744        7.4590514942        0.8834947358  MEMB      100             0.0000000000
     11559       100  SLPC      C313            3.5230764113        6.0988763800        1.0080403165  MEMB      100             0.0000000000
     11560       100  SLPC      H13X            2.6393068810        5.8641388304        0.3770329853  MEMB      100             0.0000000000
     11561       100  SLPC      H13Y            3.0945916690        6.4606451777        1.9671268772  MEMB      100             0.0000000000
     11562       100  SLPC      C314            4.3927503053        4.9061599923        1.4440765349  MEMB      100             0.0000000000
     11563       100  SLPC      H14X            4.9919522594        5.1697209763        2.3417483850  MEMB      100             0.0000000000
     11564       100  SLPC      H14Y            5.1356484247        4.7162002134        0.6401238979  MEMB      100             0.0000000000
     11565       100  SLPC      C315            3.5710197014        3.5948250029        1.7913404226  MEMB      100             0.0000000000
     11566       100  SLPC      H15X            2.6867963019        3.7193110382        2.4523804590  MEMB      100             0.0000000000
     11567       100  SLPC      H15Y            4.2151909121        2.8544255792        2.3120832947  MEMB      100             0.0000000000
     11568       100  SLPC      C316            2.9353061490        2.9749769752        0.5238088904  MEMB      100             0.0000000000
     11569       100  SLPC      H16X            2.2737208765        3.6387661373       -0.0728567530  MEMB      100             0.0000000000
     11570       100  SLPC      H16Y            2.2319982861        2.2035135380        0.9039714310  MEMB      100             0.0000000000
     11571       100  SLPC      C317            3.9228243700        2.2728205466       -0.4042363855  MEMB      100             0.0000000000
     11572       100  SLPC      H17X            4.5775508147        3.1393944521       -0.6381256766  MEMB      100             0.0000000000
     11573       100  SLPC      H17Y            3.4792937334        1.9663862535       -1.3756784408  MEMB      100             0.0000000000
     11574       100  SLPC      C318            4.8851395624        1.1827355462        0.1089158238  MEMB      100             0.0000000000
     11575       100  SLPC      H18X            4.3010027081        0.4020377054        0.6414725941  MEMB      100             0.0000000000
     11576       100  SLPC      H18Y            5.7328491353        1.5104855825        0.7478916707  MEMB      100             0.0000000000
     11577       100  SLPC      H18Z            5.3428746882        0.5035518039       -0.6417556925  MEMB      100             0.0000000000
     11578       101  SAPS      N              -8.7984773579        4.7584675138      -22.0919099139  MEMB      101             0.0000000000
     11579       101  SAPS      HN1            -8.3332370096        4.5012210650      -22.9857642484  MEMB      101             0.0000000000
     11580       101  SAPS      HN2            -9.8285738064        4.6697984242      -22.2043333379  MEMB      101             0.0000000000
     11581       101  SAPS      HN3            -8.6794804262        5.7180386000      -21.7089436720  MEMB      101             0.0000000000
     11582       101  SAPS      C12            -8.5232024906        3.9216944203      -20.9026978443  MEMB      101             0.0000000000
     11583       101  SAPS      H12A           -9.3355461030        4.1039658526      -20.2147480306  MEMB      101             0.0000000000
     11584       101  SAPS      C13            -8.4257912291        2.3460456844      -21.2832078981  MEMB      101             0.0000000000
     11585       101  SAPS      O13A           -8.6843544274        1.9272629955      -22.4141092890  MEMB      101             0.0000000000
     11586       101  SAPS      O13B           -8.3727326912        1.6229524121      -20.3312374298  MEMB      101             0.0000000000
     11587       101  SAPS      C11            -7.2629801429        4.3368750271      -20.1094882843  MEMB      101             0.0000000000
     11588       101  SAPS      H11A           -6.4112395788        4.2606262008      -20.8187451082  MEMB      101             0.0000000000
     11589       101  SAPS      H11B           -7.0401190957        3.7309826251      -19.2053044569  MEMB      101             0.0000000000
     11590       101  SAPS      P              -8.1948545846        6.1994629185      -18.5624027463  MEMB      101             0.0000000000
     11591       101  SAPS      O13            -7.4100634696        7.3447591931      -17.9781086243  MEMB      101             0.0000000000
     11592       101  SAPS      O14            -9.5607204367        6.4851003440      -19.0468102605  MEMB      101             0.0000000000
     11593       101  SAPS      O12            -7.3720108655        5.7038014977      -19.7714962753  MEMB      101             0.0000000000
     11594       101  SAPS      O11            -8.3167556164        4.9864423782      -17.5085313913  MEMB      101             0.0000000000
     11595       101  SAPS      C1             -9.6385566867        4.6285281026      -17.0150849141  MEMB      101             0.0000000000
     11596       101  SAPS      HA            -10.0665696117        5.5952701331      -16.6737113850  MEMB      101             0.0000000000
     11597       101  SAPS      HB            -10.2409522642        4.1662172066      -17.8260775394  MEMB      101             0.0000000000
     11598       101  SAPS      C2             -9.4809955750        3.6194902170      -15.8301822418  MEMB      101             0.0000000000
     11599       101  SAPS      HS            -10.3988903863        3.6025510102      -15.2044800206  MEMB      101             0.0000000000
     11600       101  SAPS      O21            -8.3518836018        3.9517577212      -15.0904732658  MEMB      101             0.0000000000
     11601       101  SAPS      C21            -8.3535139790        5.1071562838      -14.4178860385  MEMB      101             0.0000000000
     11602       101  SAPS      O22            -9.3609426766        5.7608169471      -14.2148264760  MEMB      101             0.0000000000
     11603       101  SAPS      C22            -6.9318174761        5.4571060469      -14.0334145987  MEMB      101             0.0000000000
     11604       101  SAPS      H2R            -6.3021349307        4.5539839145      -14.1823824754  MEMB      101             0.0000000000
     11605       101  SAPS      H2S            -6.5582106680        6.1636878968      -14.8050887517  MEMB      101             0.0000000000
     11606       101  SAPS      C3             -9.3418229402        2.1715217146      -16.3920829025  MEMB      101             0.0000000000
     11607       101  SAPS      HX             -8.4613683084        2.0720538269      -17.0623265914  MEMB      101             0.0000000000
     11608       101  SAPS      HY            -10.0999342891        1.7551783853      -17.0893966369  MEMB      101             0.0000000000
     11609       101  SAPS      O31            -9.1071814234        1.2079041159      -15.3013457047  MEMB      101             0.0000000000
     11610       101  SAPS      C31           -10.0471105283        0.5830050545      -14.6722081852  MEMB      101             0.0000000000
     11611       101  SAPS      O32           -11.2780299971        0.5836927985      -14.9591664675  MEMB      101             0.0000000000
     11612       101  SAPS      C32            -9.5879220017       -0.0429206580      -13.3630174395  MEMB      101             0.0000000000
     11613       101  SAPS      H2X            -8.5856944834       -0.5223151548      -13.3694969432  MEMB      101             0.0000000000
     11614       101  SAPS      H2Y           -10.2369543478       -0.9097419264      -13.1146258800  MEMB      101             0.0000000000
     11615       101  SAPS      C23            -6.9714631144        5.8863881755      -12.5357196012  MEMB      101             0.0000000000
     11616       101  SAPS      H3R            -7.2808246921        4.9935396986      -11.9513927937  MEMB      101             0.0000000000
     11617       101  SAPS      H3S            -7.7490747659        6.6777109211      -12.4769876251  MEMB      101             0.0000000000
     11618       101  SAPS      C24            -5.5786348968        6.4035771746      -12.0025092114  MEMB      101             0.0000000000
     11619       101  SAPS      H4R            -4.7915051685        5.6519990174      -12.2258430940  MEMB      101             0.0000000000
     11620       101  SAPS      H4S            -5.5781144373        6.3802207899      -10.8917554444  MEMB      101             0.0000000000
     11621       101  SAPS      C25            -5.2447311978        7.7075325698      -12.6150831945  MEMB      101             0.0000000000
     11622       101  SAPS      H5R            -4.8284970535        7.6797741645      -13.6329131717  MEMB      101             0.0000000000
     11623       101  SAPS      C26            -5.2712648623        8.9042034502      -11.8809207786  MEMB      101             0.0000000000
     11624       101  SAPS      H6R            -4.8988899444        9.8078729203      -12.3856170419  MEMB      101             0.0000000000
     11625       101  SAPS      C27            -5.6441768301        9.0438455613      -10.3999568187  MEMB      101             0.0000000000
     11626       101  SAPS      H7R            -6.5019208638        8.3741972574      -10.1759764202  MEMB      101             0.0000000000
     11627       101  SAPS      H7S            -6.1869115236       10.0120539617      -10.3516606075  MEMB      101             0.0000000000
     11628       101  SAPS      C28            -4.5939531282        8.8644654236       -9.3157173928  MEMB      101             0.0000000000
     11629       101  SAPS      H8R            -3.5254412092        8.8581533681       -9.5769514515  MEMB      101             0.0000000000
     11630       101  SAPS      C29            -4.9963966255        8.6308060056       -8.0031821317  MEMB      101             0.0000000000
     11631       101  SAPS      H9R            -4.1819982778        8.6758444838       -7.2651261364  MEMB      101             0.0000000000
     11632       101  SAPS      C210           -6.3889697595        8.4840452816       -7.4836430665  MEMB      101             0.0000000000
     11633       101  SAPS      H10R           -6.8781698017        7.4958410558       -7.6195002808  MEMB      101             0.0000000000
     11634       101  SAPS      H10S           -7.0756824239        9.2066279121       -7.9741743991  MEMB      101             0.0000000000
     11635       101  SAPS      C211           -6.2690978194        8.7766134414       -5.9959913129  MEMB      101             0.0000000000
     11636       101  SAPS      H11R           -6.5002665559        9.8288479498       -5.7738129575  MEMB      101             0.0000000000
     11637       101  SAPS      C212           -5.8345245492        7.9878323660       -4.9747528678  MEMB      101             0.0000000000
     11638       101  SAPS      H12R           -5.9255755568        8.4006788056       -3.9592382315  MEMB      101             0.0000000000
     11639       101  SAPS      C213           -5.3902414970        6.5468500677       -4.9876058107  MEMB      101             0.0000000000
     11640       101  SAPS      H13R           -5.5448587409        6.1657883735       -6.0196946639  MEMB      101             0.0000000000
     11641       101  SAPS      H13S           -6.0580101425        5.9137353366       -4.3650530324  MEMB      101             0.0000000000
     11642       101  SAPS      C214           -4.0129008023        6.5314687581       -4.4374042839  MEMB      101             0.0000000000
     11643       101  SAPS      H14R           -3.2198944934        7.0486025383       -4.9975053629  MEMB      101             0.0000000000
     11644       101  SAPS      C215           -3.6653355777        5.9953403251       -3.2439455311  MEMB      101             0.0000000000
     11645       101  SAPS      H15R           -2.6478753150        6.1379418427       -2.8509589230  MEMB      101             0.0000000000
     11646       101  SAPS      C216           -4.5214201449        5.3423086901       -2.1521794888  MEMB      101             0.0000000000
     11647       101  SAPS      H16R           -3.8837572248        4.6847886713       -1.5233922280  MEMB      101             0.0000000000
     11648       101  SAPS      H16S           -5.3092981425        4.7244705025       -2.6336831805  MEMB      101             0.0000000000
     11649       101  SAPS      C217           -5.1948723229        6.3324438886       -1.2526717894  MEMB      101             0.0000000000
     11650       101  SAPS      H17R           -6.0374656710        5.7200232671       -0.8662805558  MEMB      101             0.0000000000
     11651       101  SAPS      H17S           -5.5105390618        7.2285352539       -1.8286015810  MEMB      101             0.0000000000
     11652       101  SAPS      C218           -4.2683427820        6.7011878047       -0.1158132891  MEMB      101             0.0000000000
     11653       101  SAPS      H18R           -3.6089830559        7.4902265285       -0.5365078028  MEMB      101             0.0000000000
     11654       101  SAPS      H18S           -3.6376115044        5.8242244046        0.1438664256  MEMB      101             0.0000000000
     11655       101  SAPS      C219           -5.0332892289        7.1071665458        1.2105536270  MEMB      101             0.0000000000
     11656       101  SAPS      H19R           -5.7069361463        6.2290810632        1.3079528558  MEMB      101             0.0000000000
     11657       101  SAPS      H19S           -5.7508381869        7.9337359824        1.0202180698  MEMB      101             0.0000000000
     11658       101  SAPS      C220           -4.2097296811        7.5074113410        2.4745702473  MEMB      101             0.0000000000
     11659       101  SAPS      H20R           -3.5509186035        6.6924443726        2.8435124255  MEMB      101             0.0000000000
     11660       101  SAPS      H20S           -4.9135050231        7.6998094687        3.3124263022  MEMB      101             0.0000000000
     11661       101  SAPS      H20T           -3.5013642789        8.3586982351        2.3859689334  MEMB      101             0.0000000000
     11662       101  SAPS      C33            -9.6933242895        0.9175652191      -12.1800037223  MEMB      101             0.0000000000
     11663       101  SAPS      H3X           -10.1724481910        0.3265553991      -11.3703935522  MEMB      101             0.0000000000
     11664       101  SAPS      H3Y           -10.4505268698        1.7062130898      -12.3774870311  MEMB      101             0.0000000000
     11665       101  SAPS      C34            -8.3468034984        1.5238167091      -11.7793804123  MEMB      101             0.0000000000
     11666       101  SAPS      H4X            -8.1227533390        2.3514666108      -12.4858636567  MEMB      101             0.0000000000
     11667       101  SAPS      H4Y            -7.6322415025        0.6833241300      -11.9108903588  MEMB      101             0.0000000000
     11668       101  SAPS      C35            -8.2066525103        2.2613543446      -10.3805161054  MEMB      101             0.0000000000
     11669       101  SAPS      H5X            -8.4450285042        1.5718450525       -9.5426168597  MEMB      101             0.0000000000
     11670       101  SAPS      H5Y            -8.7542558062        3.2110209840      -10.2000026848  MEMB      101             0.0000000000
     11671       101  SAPS      C36            -6.7311816800        2.6216458657      -10.0927322247  MEMB      101             0.0000000000
     11672       101  SAPS      H6X            -6.3133515288        3.5538762988      -10.5294076221  MEMB      101             0.0000000000
     11673       101  SAPS      H6Y            -6.2634503668        1.6979927759      -10.4957378375  MEMB      101             0.0000000000
     11674       101  SAPS      C37            -6.3215621385        2.5589734008       -8.6367157395  MEMB      101             0.0000000000
     11675       101  SAPS      H7X            -5.2462670076        2.2956374538       -8.7300726736  MEMB      101             0.0000000000
     11676       101  SAPS      H7Y            -6.8659585839        1.8626203934       -7.9636292618  MEMB      101             0.0000000000
     11677       101  SAPS      C38            -6.4513573210        3.8651218279       -7.9146801606  MEMB      101             0.0000000000
     11678       101  SAPS      H8X            -5.9428359668        4.6074712140       -8.5663281823  MEMB      101             0.0000000000
     11679       101  SAPS      H8Y            -5.8274518279        3.8214352306       -6.9964461029  MEMB      101             0.0000000000
     11680       101  SAPS      C39            -7.9569020716        4.1549009834       -7.6414641295  MEMB      101             0.0000000000
     11681       101  SAPS      H9X            -8.7204275947        3.5645329671       -8.1917512253  MEMB      101             0.0000000000
     11682       101  SAPS      H9Y            -8.1235644180        5.2194300176       -7.9122458789  MEMB      101             0.0000000000
     11683       101  SAPS      C310           -8.2557600724        4.1454443627       -6.1114370055  MEMB      101             0.0000000000
     11684       101  SAPS      H10X           -8.9537355023        4.9616228156       -5.8268254299  MEMB      101             0.0000000000
     11685       101  SAPS      H10Y           -7.3724935175        4.4691281742       -5.5203451609  MEMB      101             0.0000000000
     11686       101  SAPS      C311           -8.7835895894        2.7722504424       -5.5207918582  MEMB      101             0.0000000000
     11687       101  SAPS      H11X           -7.9821679253        2.0101861874       -5.4144785754  MEMB      101             0.0000000000
     11688       101  SAPS      H11Y           -9.5985394831        2.5652615384       -6.2469692512  MEMB      101             0.0000000000
     11689       101  SAPS      C312           -9.2138417718        2.9501826558       -4.0255953024  MEMB      101             0.0000000000
     11690       101  SAPS      H12X           -9.7311451450        1.9816011098       -3.8565758588  MEMB      101             0.0000000000
     11691       101  SAPS      H12Y           -9.9191699388        3.8046245531       -3.9433624430  MEMB      101             0.0000000000
     11692       101  SAPS      C313           -8.0408216646        2.9856176055       -3.0279318718  MEMB      101             0.0000000000
     11693       101  SAPS      H13X           -7.6579502143        4.0173159522       -2.8751931930  MEMB      101             0.0000000000
     11694       101  SAPS      H13Y           -7.1478492920        2.3662206652       -3.2587321476  MEMB      101             0.0000000000
     11695       101  SAPS      C314           -8.6431020955        2.6174130546       -1.5678168647  MEMB      101             0.0000000000
     11696       101  SAPS      H14X           -7.8330156398        2.4982216882       -0.8169001643  MEMB      101             0.0000000000
     11697       101  SAPS      H14Y           -8.9401098928        1.5560934551       -1.7082009782  MEMB      101             0.0000000000
     11698       101  SAPS      C315           -9.7721668572        3.3839773012       -0.8746172050  MEMB      101             0.0000000000
     11699       101  SAPS      H15X          -10.6908409886        3.1721216387       -1.4623900318  MEMB      101             0.0000000000
     11700       101  SAPS      H15Y           -9.4905763845        4.4573700303       -0.9280577385  MEMB      101             0.0000000000
     11701       101  SAPS      C316          -10.0039347235        2.9807714621        0.5340665224  MEMB      101             0.0000000000
     11702       101  SAPS      H16X          -10.2979387894        1.9098226967        0.5649083093  MEMB      101             0.0000000000
     11703       101  SAPS      H16Y          -10.9210233108        3.5231473265        0.8488635191  MEMB      101             0.0000000000
     11704       101  SAPS      C317           -8.7162325517        3.1704195514        1.4744035416  MEMB      101             0.0000000000
     11705       101  SAPS      H17X           -8.2136396587        4.1412021305        1.2761544136  MEMB      101             0.0000000000
     11706       101  SAPS      H17Y           -8.0371986068        2.3423785481        1.1784599642  MEMB      101             0.0000000000
     11707       101  SAPS      C318           -8.7794188529        2.9115268828        2.9866019850  MEMB      101             0.0000000000
     11708       101  SAPS      H18X           -9.3478695138        1.9829078046        3.2076255791  MEMB      101             0.0000000000
     11709       101  SAPS      H18Y           -9.2510579096        3.7179190077        3.5879408803  MEMB      101             0.0000000000
     11710       101  SAPS      H18Z           -7.7911208760        2.7523754741        3.4685344770  MEMB      101             0.0000000000
     11711       102  OSM       N              -1.2375459827      -12.2016213874      -21.0792042170  MEMB      102             0.0000000000
     11712       102  OSM       C15            -2.2036094050      -13.3324595047      -21.3381685569  MEMB      102             0.0000000000
     11713       102  OSM       H15A           -1.6428528876      -14.2458733486      -21.4709359555  MEMB      102             0.0000000000
     11714       102  OSM       H15B           -2.9180071414      -13.1296523706      -22.1223274769  MEMB      102             0.0000000000
     11715       102  OSM       H15C           -2.6952206514      -13.5869961174      -20.4108446808  MEMB      102             0.0000000000
     11716       102  OSM       C14            -0.2345970152      -12.6905185217      -19.9477985728  MEMB      102             0.0000000000
     11717       102  OSM       H14A            0.2945513314      -13.5544051096      -20.3221003143  MEMB      102             0.0000000000
     11718       102  OSM       H14B           -0.7832749703      -12.9977458981      -19.0697531173  MEMB      102             0.0000000000
     11719       102  OSM       H14C            0.4901020547      -11.9260436648      -19.7094931389  MEMB      102             0.0000000000
     11720       102  OSM       C13            -0.5086644204      -11.9908319036      -22.3626387073  MEMB      102             0.0000000000
     11721       102  OSM       H13A           -0.1045380631      -12.9598872093      -22.6156476639  MEMB      102             0.0000000000
     11722       102  OSM       H13B            0.2761672522      -11.2512261863      -22.3041363278  MEMB      102             0.0000000000
     11723       102  OSM       H13C           -1.2323124988      -11.7562023231      -23.1292430204  MEMB      102             0.0000000000
     11724       102  OSM       C12            -1.9335690110      -10.9362144500      -20.5871466514  MEMB      102             0.0000000000
     11725       102  OSM       H12A           -2.4882010257      -11.0950399587      -19.6741527947  MEMB      102             0.0000000000
     11726       102  OSM       H12B           -2.5014490523      -10.5512171570      -21.4212266771  MEMB      102             0.0000000000
     11727       102  OSM       C11            -0.9246120581       -9.8154357735      -20.1197194710  MEMB      102             0.0000000000
     11728       102  OSM       H11A           -0.3259547958      -10.1148392164      -19.2329905193  MEMB      102             0.0000000000
     11729       102  OSM       H11B           -1.6203469745       -9.0073593066      -19.8078120255  MEMB      102             0.0000000000
     11730       102  OSM       P               0.6959807842       -8.0368689035      -21.0777407769  MEMB      102             0.0000000000
     11731       102  OSM       O13             0.5560163812       -7.2875055158      -22.3619581038  MEMB      102             0.0000000000
     11732       102  OSM       O14             0.3259185959       -7.2577588029      -19.8659338930  MEMB      102             0.0000000000
     11733       102  OSM       O11             2.1274610203       -8.5175085085      -20.9733756997  MEMB      102             0.0000000000
     11734       102  OSM       O12            -0.0686930591       -9.4312094271      -21.2863153455  MEMB      102             0.0000000000
     11735       102  OSM       C1S             2.9924058845       -7.9755017956      -20.0234442616  MEMB      102             0.0000000000
     11736       102  OSM       H1S             2.7790556887       -6.8901373355      -19.9195862602  MEMB      102             0.0000000000
     11737       102  OSM       H1T             4.0565428535       -8.0966052573      -20.3188549038  MEMB      102             0.0000000000
     11738       102  OSM       NF              3.3919206772       -7.9547845045      -17.5969335445  MEMB      102             0.0000000000
     11739       102  OSM       HNF             4.1994925480       -8.3437563479      -17.1604275681  MEMB      102             0.0000000000
     11740       102  OSM       C2S             2.8855944695       -8.7547089355      -18.7007884701  MEMB      102             0.0000000000
     11741       102  OSM       H2S             1.8208681709       -8.9249561261      -18.4330299916  MEMB      102             0.0000000000
     11742       102  OSM       C3S             3.5286979663      -10.2060408024      -18.6284429864  MEMB      102             0.0000000000
     11743       102  OSM       H3S             4.5180689352      -10.2428535900      -19.1325373247  MEMB      102             0.0000000000
     11744       102  OSM       O3              2.8101326613      -11.1097524474      -19.4901193047  MEMB      102             0.0000000000
     11745       102  OSM       HO3             2.1120066832      -10.5601033277      -19.8535832672  MEMB      102             0.0000000000
     11746       102  OSM       C4S             3.4936801533      -10.9352240675      -17.2801448079  MEMB      102             0.0000000000
     11747       102  OSM       H4S             2.5496926212      -11.3709123155      -16.9208908829  MEMB      102             0.0000000000
     11748       102  OSM       C5S             4.5732041909      -11.0189802723      -16.5092518635  MEMB      102             0.0000000000
     11749       102  OSM       H5S             5.4570043404      -10.5004298371      -16.9092550806  MEMB      102             0.0000000000
     11750       102  OSM       C6S             4.4440309991      -11.7701182884      -15.2326805315  MEMB      102             0.0000000000
     11751       102  OSM       H6S             5.4044329463      -12.2704622168      -14.9844754668  MEMB      102             0.0000000000
     11752       102  OSM       H6T             3.7591429070      -12.6417895995      -15.3064265776  MEMB      102             0.0000000000
     11753       102  OSM       C7S             4.0767674850      -10.8268946983      -14.0375963928  MEMB      102             0.0000000000
     11754       102  OSM       H7S             2.9826115893      -10.7408084065      -14.2100294901  MEMB      102             0.0000000000
     11755       102  OSM       H7T             4.6499595223       -9.8754952822      -14.0128702486  MEMB      102             0.0000000000
     11756       102  OSM       C8S             4.1226851124      -11.3761103862      -12.5726254261  MEMB      102             0.0000000000
     11757       102  OSM       H8S             5.1868877811      -11.2821538436      -12.2677223477  MEMB      102             0.0000000000
     11758       102  OSM       H8T             3.8788306060      -12.4556679388      -12.6696372019  MEMB      102             0.0000000000
     11759       102  OSM       C9S             3.2014923881      -10.8471673704      -11.4377806809  MEMB      102             0.0000000000
     11760       102  OSM       H9S             2.9162229824       -9.7814222602      -11.5686612590  MEMB      102             0.0000000000
     11761       102  OSM       H9T             3.8512025003      -10.8781905100      -10.5370946582  MEMB      102             0.0000000000
     11762       102  OSM       C10S            2.1346407875      -11.8761761842      -11.3225822385  MEMB      102             0.0000000000
     11763       102  OSM       H10S            2.4737299985      -12.9014589435      -11.0615555687  MEMB      102             0.0000000000
     11764       102  OSM       H10T            1.5636602092      -11.9874841292      -12.2691085444  MEMB      102             0.0000000000
     11765       102  OSM       C11S            1.0856949476      -11.5906755720      -10.2679062641  MEMB      102             0.0000000000
     11766       102  OSM       H11S            0.1320226778      -12.1555147145      -10.3439783435  MEMB      102             0.0000000000
     11767       102  OSM       H11T            0.7777999863      -10.5574903813      -10.5363279180  MEMB      102             0.0000000000
     11768       102  OSM       C12S            1.5324669081      -11.5326271141       -8.7977734083  MEMB      102             0.0000000000
     11769       102  OSM       H12S            2.3605428639      -10.7931168711       -8.7561082267  MEMB      102             0.0000000000
     11770       102  OSM       H12T            1.9984298007      -12.5087779274       -8.5441425832  MEMB      102             0.0000000000
     11771       102  OSM       C13S            0.5052906586      -11.1984562921       -7.6916085783  MEMB      102             0.0000000000
     11772       102  OSM       H13S           -0.2061384941      -12.0513778297       -7.6648739600  MEMB      102             0.0000000000
     11773       102  OSM       H13T           -0.1229150209      -10.3127065899       -7.9263975228  MEMB      102             0.0000000000
     11774       102  OSM       C14S            1.1434205809      -10.9545655783       -6.3575457693  MEMB      102             0.0000000000
     11775       102  OSM       H14S            0.4570077848      -10.3110844393       -5.7667070070  MEMB      102             0.0000000000
     11776       102  OSM       H14T            2.1286411629      -10.4530887062       -6.2471716554  MEMB      102             0.0000000000
     11777       102  OSM       C15S            1.2182636847      -12.2634173896       -5.4964864302  MEMB      102             0.0000000000
     11778       102  OSM       H15S            2.1131044650      -12.7361944612       -5.9548126619  MEMB      102             0.0000000000
     11779       102  OSM       H15T            0.3246730665      -12.9235359509       -5.5042504200  MEMB      102             0.0000000000
     11780       102  OSM       C16S            1.4851631547      -11.9758684193       -4.0167519604  MEMB      102             0.0000000000
     11781       102  OSM       H16S            2.3069643759      -11.2282413090       -4.0125727980  MEMB      102             0.0000000000
     11782       102  OSM       H16T            1.7909857481      -12.9096010430       -3.4981614310  MEMB      102             0.0000000000
     11783       102  OSM       C17S            0.2644272919      -11.4140252919       -3.3166450129  MEMB      102             0.0000000000
     11784       102  OSM       H17S           -0.5418140898      -12.1078139191       -3.6375081314  MEMB      102             0.0000000000
     11785       102  OSM       H17T           -0.1081970334      -10.4137419328       -3.6247113416  MEMB      102             0.0000000000
     11786       102  OSM       C18S            0.3635614567      -11.4451383717       -1.7803203218  MEMB      102             0.0000000000
     11787       102  OSM       H18S           -0.4777997918      -10.9135462967       -1.2865170127  MEMB      102             0.0000000000
     11788       102  OSM       H18T            1.2949008562      -11.0038398864       -1.3653704824  MEMB      102             0.0000000000
     11789       102  OSM       H18U            0.2560587805      -12.5027898826       -1.4576179601  MEMB      102             0.0000000000
     11790       102  OSM       C1F             2.9421969162       -6.7888273934      -17.0458318264  MEMB      102             0.0000000000
     11791       102  OSM       OF              1.8921346850       -6.2456954488      -17.4690653568  MEMB      102             0.0000000000
     11792       102  OSM       C2F             3.8499199366       -6.2943247966      -15.9742701237  MEMB      102             0.0000000000
     11793       102  OSM       H2F             4.4137008477       -5.4595154989      -16.4428486304  MEMB      102             0.0000000000
     11794       102  OSM       H2G             4.5997080986       -7.0917099885      -15.7837049294  MEMB      102             0.0000000000
     11795       102  OSM       C3F             3.1279848655       -5.9076461376      -14.7216063820  MEMB      102             0.0000000000
     11796       102  OSM       H3F             2.9775353221       -6.8881667070      -14.2213410892  MEMB      102             0.0000000000
     11797       102  OSM       H3G             2.2395154385       -5.2684153486      -14.9122025717  MEMB      102             0.0000000000
     11798       102  OSM       C4F             4.0642738257       -5.1099604091      -13.8289050469  MEMB      102             0.0000000000
     11799       102  OSM       H4F             4.3976492306       -4.1837713399      -14.3440322553  MEMB      102             0.0000000000
     11800       102  OSM       H4G             5.0300987286       -5.5814453261      -13.5474706663  MEMB      102             0.0000000000
     11801       102  OSM       C5F             3.3410822818       -4.5768100056      -12.5630382485  MEMB      102             0.0000000000
     11802       102  OSM       H5F             2.4718186657       -3.9385734731      -12.8301642195  MEMB      102             0.0000000000
     11803       102  OSM       H5G             3.9916355383       -3.9842954971      -11.8847851564  MEMB      102             0.0000000000
     11804       102  OSM       C6F             2.9836593297       -5.7350226549      -11.5693795496  MEMB      102             0.0000000000
     11805       102  OSM       H6F             3.9174853165       -6.0817259976      -11.0773561748  MEMB      102             0.0000000000
     11806       102  OSM       H6G             2.5776441341       -6.5388250236      -12.2200511806  MEMB      102             0.0000000000
     11807       102  OSM       C7F             1.7625428536       -5.3692554933      -10.6399686815  MEMB      102             0.0000000000
     11808       102  OSM       H7F             1.0948404388       -4.7916571040      -11.3144130937  MEMB      102             0.0000000000
     11809       102  OSM       H7G             1.9371958533       -4.6349850144       -9.8246995735  MEMB      102             0.0000000000
     11810       102  OSM       C8F             1.0525417544       -6.6135034914      -10.0884777230  MEMB      102             0.0000000000
     11811       102  OSM       H8F             1.0857323931       -7.4912145640      -10.7688034605  MEMB      102             0.0000000000
     11812       102  OSM       H8G             0.0278147888       -6.3518876573       -9.7481646491  MEMB      102             0.0000000000
     11813       102  OSM       C9F             1.8617155094       -7.1996713289       -8.9104187976  MEMB      102             0.0000000000
     11814       102  OSM       H9F             2.8014239621       -7.5461354810       -9.3652924684  MEMB      102             0.0000000000
     11815       102  OSM       C10F            1.6089151214       -7.2822305592       -7.6042236298  MEMB      102             0.0000000000
     11816       102  OSM       H10F            2.4779175967       -7.5726103907       -6.9955250882  MEMB      102             0.0000000000
     11817       102  OSM       C11F            0.4363383686       -6.7937269871       -6.7848524045  MEMB      102             0.0000000000
     11818       102  OSM       H11F           -0.1601895762       -7.6220006222       -6.3461745076  MEMB      102             0.0000000000
     11819       102  OSM       H11G           -0.2313220014       -6.3720898795       -7.5663716096  MEMB      102             0.0000000000
     11820       102  OSM       C12F            0.8907652928       -5.6484238247       -5.8631393618  MEMB      102             0.0000000000
     11821       102  OSM       H12F            1.4823960588       -4.8940908012       -6.4246338748  MEMB      102             0.0000000000
     11822       102  OSM       H12G            1.5292950590       -6.0558536080       -5.0503657376  MEMB      102             0.0000000000
     11823       102  OSM       C13F           -0.3215353957       -4.8887838167       -5.2972019440  MEMB      102             0.0000000000
     11824       102  OSM       H13F           -0.9664548141       -4.5132668839       -6.1202363079  MEMB      102             0.0000000000
     11825       102  OSM       H13G           -0.0423152950       -4.0005914285       -4.6910079289  MEMB      102             0.0000000000
     11826       102  OSM       C14F           -1.2610598463       -5.8370326207       -4.4142490819  MEMB      102             0.0000000000
     11827       102  OSM       H14F           -1.6406274740       -6.6147313078       -5.1109792360  MEMB      102             0.0000000000
     11828       102  OSM       H14G           -2.0642586592       -5.3102188055       -3.8559835548  MEMB      102             0.0000000000
     11829       102  OSM       C15F           -0.4243121951       -6.5480322086       -3.2966537420  MEMB      102             0.0000000000
     11830       102  OSM       H15F            0.5280190987       -7.0154066621       -3.6267246538  MEMB      102             0.0000000000
     11831       102  OSM       H15G           -1.0844994290       -7.3272006594       -2.8591942203  MEMB      102             0.0000000000
     11832       102  OSM       C16F           -0.0697787612       -5.5746020409       -2.1143519967  MEMB      102             0.0000000000
     11833       102  OSM       H16F           -0.1349647772       -6.2119064767       -1.2066544382  MEMB      102             0.0000000000
     11834       102  OSM       H16G           -0.8769949647       -4.8659419032       -1.8305853586  MEMB      102             0.0000000000
     11835       102  OSM       C17F            1.3942436636       -5.0529474215       -2.1208075915  MEMB      102             0.0000000000
     11836       102  OSM       H17F            1.4101512500       -4.1998787108       -2.8323831956  MEMB      102             0.0000000000
     11837       102  OSM       H17G            2.0223376880       -5.8678967964       -2.5399447974  MEMB      102             0.0000000000
     11838       102  OSM       C18F            1.8699411731       -4.6669594088       -0.6934080508  MEMB      102             0.0000000000
     11839       102  OSM       H18F            2.1558033418       -5.5939313508       -0.1518117077  MEMB      102             0.0000000000
     11840       102  OSM       H18G            1.1855305201       -4.1155317899       -0.0138263968  MEMB      102             0.0000000000
     11841       102  OSM       H18H            2.8383241900       -4.1359733138       -0.8142766407  MEMB      102             0.0000000000
     11842       103  SAPE      N               3.9270231887        8.1575420342      -19.2248147101  MEMB      103             0.0000000000
     11843       103  SAPE      HN1             4.2676170410        7.1753978495      -19.1933731040  MEMB      103             0.0000000000
     11844       103  SAPE      HN2             4.7677888857        8.7585350178      -19.3410929648  MEMB      103             0.0000000000
     11845       103  SAPE      HN3             3.5809668562        8.4873441484      -18.3011938109  MEMB      103             0.0000000000
     11846       103  SAPE      C12             2.9676259994        8.4964335054      -20.3404122152  MEMB      103             0.0000000000
     11847       103  SAPE      H12A            2.1752983061        7.7189091472      -20.2957605562  MEMB      103             0.0000000000
     11848       103  SAPE      H12B            3.5452903207        8.3084544062      -21.2706211956  MEMB      103             0.0000000000
     11849       103  SAPE      C11             2.5090806926        9.9617685058      -20.3186208696  MEMB      103             0.0000000000
     11850       103  SAPE      H11A            1.8226202408       10.1548055105      -19.4666644437  MEMB      103             0.0000000000
     11851       103  SAPE      H11B            1.7815432870        9.9987964781      -21.1574529449  MEMB      103             0.0000000000
     11852       103  SAPE      P               3.6566016625       12.2299021654      -20.0542506367  MEMB      103             0.0000000000
     11853       103  SAPE      O13             4.9158405843       12.8995355880      -20.4065676800  MEMB      103             0.0000000000
     11854       103  SAPE      O14             2.4302739167       12.6950906111      -20.6827161842  MEMB      103             0.0000000000
     11855       103  SAPE      O12             3.7352024142       10.7667998521      -20.4736650312  MEMB      103             0.0000000000
     11856       103  SAPE      O11             3.5028167565       12.1901517230      -18.4989526744  MEMB      103             0.0000000000
     11857       103  SAPE      C1              3.6149514194       13.4696370102      -17.8222781075  MEMB      103             0.0000000000
     11858       103  SAPE      HA              4.4297970132       14.0766240165      -18.2716270132  MEMB      103             0.0000000000
     11859       103  SAPE      HB              2.6012018200       13.8994951462      -17.9701117974  MEMB      103             0.0000000000
     11860       103  SAPE      C2              3.7612656104       13.2861063485      -16.3187222642  MEMB      103             0.0000000000
     11861       103  SAPE      HS              4.5866697893       13.8971382082      -15.8948481603  MEMB      103             0.0000000000
     11862       103  SAPE      O21             4.1280151386       11.9975970364      -15.9600554232  MEMB      103             0.0000000000
     11863       103  SAPE      C21             5.2299298742       11.4341447205      -16.3144068867  MEMB      103             0.0000000000
     11864       103  SAPE      O22             6.1194435523       11.9967475145      -16.8898552585  MEMB      103             0.0000000000
     11865       103  SAPE      C22             5.0931171784       10.0118767266      -15.9486834917  MEMB      103             0.0000000000
     11866       103  SAPE      H2R             5.0311035120        9.6068227085      -16.9813531441  MEMB      103             0.0000000000
     11867       103  SAPE      H2S             6.0367108208        9.6693429294      -15.4726345255  MEMB      103             0.0000000000
     11868       103  SAPE      C3              2.4807946561       13.6118745038      -15.4686620085  MEMB      103             0.0000000000
     11869       103  SAPE      HX              1.8659899909       12.6872982953      -15.5073248313  MEMB      103             0.0000000000
     11870       103  SAPE      HY              1.9626764241       14.4315794158      -16.0108411271  MEMB      103             0.0000000000
     11871       103  SAPE      O31             2.7673567583       13.9257972930      -14.1110772151  MEMB      103             0.0000000000
     11872       103  SAPE      C31             1.6913229909       14.1368404064      -13.2331333925  MEMB      103             0.0000000000
     11873       103  SAPE      O32             0.5402111759       14.0821364440      -13.5736056176  MEMB      103             0.0000000000
     11874       103  SAPE      C32             2.1616014036       14.4315065302      -11.8472349014  MEMB      103             0.0000000000
     11875       103  SAPE      H2X             1.8002830895       13.6705319746      -11.1228813490  MEMB      103             0.0000000000
     11876       103  SAPE      H2Y             1.7381843035       15.4238845411      -11.5822349052  MEMB      103             0.0000000000
     11877       103  SAPE      C23             3.9000084136        9.5518809372      -15.1378739303  MEMB      103             0.0000000000
     11878       103  SAPE      H3R             2.9075673502        9.5390658397      -15.6370910397  MEMB      103             0.0000000000
     11879       103  SAPE      H3S             3.7290060031       10.2026548464      -14.2538083376  MEMB      103             0.0000000000
     11880       103  SAPE      C24             4.0527300380        8.1388282269      -14.5453163582  MEMB      103             0.0000000000
     11881       103  SAPE      H4R             4.0693051945        7.4763613879      -15.4370472618  MEMB      103             0.0000000000
     11882       103  SAPE      H4S             3.0952423966        7.8816809068      -14.0439045956  MEMB      103             0.0000000000
     11883       103  SAPE      C25             5.2528055463        7.8224827871      -13.5703622323  MEMB      103             0.0000000000
     11884       103  SAPE      H5R             6.2078843826        7.4254953615      -13.9448288276  MEMB      103             0.0000000000
     11885       103  SAPE      C26             5.0881857264        7.9405976809      -12.2298459678  MEMB      103             0.0000000000
     11886       103  SAPE      H6R             5.9384668978        7.7363712887      -11.5625281198  MEMB      103             0.0000000000
     11887       103  SAPE      C27             3.7611684980        8.4145777015      -11.5745535540  MEMB      103             0.0000000000
     11888       103  SAPE      H7R             2.8947033236        7.7859773211      -11.8719096133  MEMB      103             0.0000000000
     11889       103  SAPE      H7S             3.6641951951        9.4593084091      -11.9398683603  MEMB      103             0.0000000000
     11890       103  SAPE      C28             3.7814690568        8.4047034383      -10.0879134276  MEMB      103             0.0000000000
     11891       103  SAPE      H8R             3.8308723550        7.4322001805       -9.5762520262  MEMB      103             0.0000000000
     11892       103  SAPE      C29             3.6363593058        9.5278212875       -9.3030820153  MEMB      103             0.0000000000
     11893       103  SAPE      H9R             3.5905672690        9.3423890325       -8.2197922922  MEMB      103             0.0000000000
     11894       103  SAPE      C210            3.4274476727       10.9098273439       -9.7901027843  MEMB      103             0.0000000000
     11895       103  SAPE      H10R            3.7190919514       11.1178099417      -10.8417715893  MEMB      103             0.0000000000
     11896       103  SAPE      H10S            4.0511211919       11.5848702040       -9.1658677792  MEMB      103             0.0000000000
     11897       103  SAPE      C211            1.9927198777       11.4564623215       -9.7126767840  MEMB      103             0.0000000000
     11898       103  SAPE      H11R            1.4642271272       11.5120802663      -10.6757980984  MEMB      103             0.0000000000
     11899       103  SAPE      C212            1.2573297466       11.5296922411       -8.5876492325  MEMB      103             0.0000000000
     11900       103  SAPE      H12R            0.2015302757       11.8380988916       -8.5745080624  MEMB      103             0.0000000000
     11901       103  SAPE      C213            1.7159930973       11.1918476618       -7.2200681637  MEMB      103             0.0000000000
     11902       103  SAPE      H13R            1.7971934900       12.1411118121       -6.6485570734  MEMB      103             0.0000000000
     11903       103  SAPE      H13S            2.7498178641       10.7851517533       -7.2088549581  MEMB      103             0.0000000000
     11904       103  SAPE      C214            0.8069645678       10.2931191126       -6.4892963576  MEMB      103             0.0000000000
     11905       103  SAPE      H14R            0.1143960711        9.5490891941       -6.9097342450  MEMB      103             0.0000000000
     11906       103  SAPE      C215            0.7248879215       10.2375382081       -5.1131980381  MEMB      103             0.0000000000
     11907       103  SAPE      H15R           -0.0828785644        9.6083561902       -4.7111487795  MEMB      103             0.0000000000
     11908       103  SAPE      C216            1.5257132264       11.0132550920       -4.1099182874  MEMB      103             0.0000000000
     11909       103  SAPE      H16R            2.2947920338       11.5545842231       -4.7013587157  MEMB      103             0.0000000000
     11910       103  SAPE      H16S            2.0690072152       10.3837757368       -3.3730948142  MEMB      103             0.0000000000
     11911       103  SAPE      C217            0.6341199684       12.1091123756       -3.4463600339  MEMB      103             0.0000000000
     11912       103  SAPE      H17R           -0.2708381695       11.8070219517       -2.8770505111  MEMB      103             0.0000000000
     11913       103  SAPE      H17S            0.2609851712       12.6997038999       -4.3102422164  MEMB      103             0.0000000000
     11914       103  SAPE      C218            1.4583556877       12.9479938823       -2.5192572869  MEMB      103             0.0000000000
     11915       103  SAPE      H18R            2.3872300594       13.1933027333       -3.0772331840  MEMB      103             0.0000000000
     11916       103  SAPE      H18S            1.9225649690       12.4340496688       -1.6505262894  MEMB      103             0.0000000000
     11917       103  SAPE      C219            0.9108665354       14.3097939252       -2.0344688575  MEMB      103             0.0000000000
     11918       103  SAPE      H19R           -0.1553181945       14.2514169066       -1.7276088543  MEMB      103             0.0000000000
     11919       103  SAPE      H19S            0.7672812784       14.9138942343       -2.9557547660  MEMB      103             0.0000000000
     11920       103  SAPE      C220            1.8383943198       15.2321192112       -1.0903188160  MEMB      103             0.0000000000
     11921       103  SAPE      H20R            2.8843794405       15.3631016454       -1.4411462065  MEMB      103             0.0000000000
     11922       103  SAPE      H20S            1.8720602844       14.8448338503       -0.0495505987  MEMB      103             0.0000000000
     11923       103  SAPE      H20T            1.3280034059       16.2120654668       -0.9740145043  MEMB      103             0.0000000000
     11924       103  SAPE      C33             3.7061824040       14.4436102245      -11.6372571889  MEMB      103             0.0000000000
     11925       103  SAPE      H3X             4.0727289706       15.1270844354      -12.4327622985  MEMB      103             0.0000000000
     11926       103  SAPE      H3Y             4.0591051716       13.3975437360      -11.7618040148  MEMB      103             0.0000000000
     11927       103  SAPE      C34             4.0947654908       15.0339914633      -10.2609376518  MEMB      103             0.0000000000
     11928       103  SAPE      H4X             3.7727831091       14.3473564279       -9.4490383398  MEMB      103             0.0000000000
     11929       103  SAPE      H4Y             3.6107617843       16.0340218252      -10.2605503138  MEMB      103             0.0000000000
     11930       103  SAPE      C35             5.6014352472       15.2478726685      -10.2395813000  MEMB      103             0.0000000000
     11931       103  SAPE      H5X             5.8760900219       15.9093314348       -9.3902532102  MEMB      103             0.0000000000
     11932       103  SAPE      H5Y             5.8406874648       15.6455815838      -11.2489904608  MEMB      103             0.0000000000
     11933       103  SAPE      C36             6.4743283289       14.0953978455      -10.0773038938  MEMB      103             0.0000000000
     11934       103  SAPE      H6X             7.5077841541       14.4859958613      -10.1944497186  MEMB      103             0.0000000000
     11935       103  SAPE      H6Y             6.3371840290       13.3699572785      -10.9075137499  MEMB      103             0.0000000000
     11936       103  SAPE      C37             6.3815918495       13.3565784119       -8.7485706797  MEMB      103             0.0000000000
     11937       103  SAPE      H7X             5.3426993509       13.2564445862       -8.3677860169  MEMB      103             0.0000000000
     11938       103  SAPE      H7Y             6.8688990534       13.9032486527       -7.9131035932  MEMB      103             0.0000000000
     11939       103  SAPE      C38             6.9919587634       11.9034897906       -8.8187951240  MEMB      103             0.0000000000
     11940       103  SAPE      H8X             8.0703247927       12.0606749080       -8.6025997806  MEMB      103             0.0000000000
     11941       103  SAPE      H8Y             6.7775739772       11.4578580154       -9.8136680634  MEMB      103             0.0000000000
     11942       103  SAPE      C39             6.4850392016       11.0328558260       -7.6631378224  MEMB      103             0.0000000000
     11943       103  SAPE      H9X             6.7907445794        9.9674742097       -7.7394745583  MEMB      103             0.0000000000
     11944       103  SAPE      H9Y             5.3847727869       11.0205713208       -7.8167087621  MEMB      103             0.0000000000
     11945       103  SAPE      C310            6.7324090092       11.5410738997       -6.1816231358  MEMB      103             0.0000000000
     11946       103  SAPE      H10X            5.9948610681       12.3679251371       -6.1000076320  MEMB      103             0.0000000000
     11947       103  SAPE      H10Y            7.8064395728       11.8247066666       -6.1998197094  MEMB      103             0.0000000000
     11948       103  SAPE      C311            6.3409585357       10.5088212251       -5.1385583244  MEMB      103             0.0000000000
     11949       103  SAPE      H11X            7.1986412291        9.8127335019       -5.0195481976  MEMB      103             0.0000000000
     11950       103  SAPE      H11Y            5.4938782062        9.8487755870       -5.4233661545  MEMB      103             0.0000000000
     11951       103  SAPE      C312            5.9907256709       11.0902433362       -3.7954660277  MEMB      103             0.0000000000
     11952       103  SAPE      H12X            5.8251614908       10.2813936197       -3.0520463167  MEMB      103             0.0000000000
     11953       103  SAPE      H12Y            5.0600574995       11.6650407511       -3.9898516301  MEMB      103             0.0000000000
     11954       103  SAPE      C313            7.1086611388       11.9910233050       -3.2368916640  MEMB      103             0.0000000000
     11955       103  SAPE      H13X            7.3762937977       12.8018848510       -3.9476639807  MEMB      103             0.0000000000
     11956       103  SAPE      H13Y            7.9635302885       11.2818747914       -3.2619516269  MEMB      103             0.0000000000
     11957       103  SAPE      C314            6.9325206140       12.4987671943       -1.8212619008  MEMB      103             0.0000000000
     11958       103  SAPE      H14X            7.8568049100       12.9625303078       -1.4151299235  MEMB      103             0.0000000000
     11959       103  SAPE      H14Y            6.7793168323       11.5921961515       -1.1975814220  MEMB      103             0.0000000000
     11960       103  SAPE      C315            5.8254515219       13.5733220888       -1.6775424100  MEMB      103             0.0000000000
     11961       103  SAPE      H15X            4.8543500777       13.1666419596       -2.0323583606  MEMB      103             0.0000000000
     11962       103  SAPE      H15Y            6.0195544619       14.4843563708       -2.2830686722  MEMB      103             0.0000000000
     11963       103  SAPE      C316            5.7376825454       14.0442957125       -0.1941381171  MEMB      103             0.0000000000
     11964       103  SAPE      H16X            4.9113055694       14.7798832243       -0.0924861356  MEMB      103             0.0000000000
     11965       103  SAPE      H16Y            6.6615461715       14.5614464085        0.1425413232  MEMB      103             0.0000000000
     11966       103  SAPE      C317            5.4296224468       12.9116025170        0.8282906219  MEMB      103             0.0000000000
     11967       103  SAPE      H17X            5.3590390444       13.3570567513        1.8436272933  MEMB      103             0.0000000000
     11968       103  SAPE      H17Y            6.2078098762       12.1398035406        1.0101455466  MEMB      103             0.0000000000
     11969       103  SAPE      C318            4.0528962078       12.1618995542        0.6273673424  MEMB      103             0.0000000000
     11970       103  SAPE      H18X            4.2248406274       11.3762237968       -0.1390987729  MEMB      103             0.0000000000
     11971       103  SAPE      H18Y            3.2696618830       12.8863896401        0.3175614155  MEMB      103             0.0000000000
     11972       103  SAPE      H18Z            3.6924499622       11.6715542992        1.5568610922  MEMB      103             0.0000000000
     11973       104  OSM       N               9.8986388204       -2.3579201366      -20.7601937538  MEMB      104             0.0000000000
     11974       104  OSM       C15            10.1379035585       -2.3223565577      -22.2926695760  MEMB      104             0.0000000000
     11975       104  OSM       H15A            9.2264008196       -2.0509361165      -22.8044250276  MEMB      104             0.0000000000
     11976       104  OSM       H15B           10.3727702978       -3.3346572391      -22.5867533159  MEMB      104             0.0000000000
     11977       104  OSM       H15C           10.9409345303       -1.6608580016      -22.5824294214  MEMB      104             0.0000000000
     11978       104  OSM       C14             9.1493345387       -1.0600022959      -20.3894653530  MEMB      104             0.0000000000
     11979       104  OSM       H14A            8.2231359491       -0.9257078076      -20.9284654197  MEMB      104             0.0000000000
     11980       104  OSM       H14B            9.8630126759       -0.2750090827      -20.5915772554  MEMB      104             0.0000000000
     11981       104  OSM       H14C            9.0515776329       -1.1075880399      -19.3149518548  MEMB      104             0.0000000000
     11982       104  OSM       C13             8.9058939247       -3.5106107952      -20.3475954199  MEMB      104             0.0000000000
     11983       104  OSM       H13A            9.4659957159       -4.4303831988      -20.4294780091  MEMB      104             0.0000000000
     11984       104  OSM       H13B            8.0873814398       -3.5547131147      -21.0507966825  MEMB      104             0.0000000000
     11985       104  OSM       H13C            8.6060407500       -3.2193948999      -19.3517634168  MEMB      104             0.0000000000
     11986       104  OSM       C12            11.1752294010       -2.4966137360      -20.0077280187  MEMB      104             0.0000000000
     11987       104  OSM       H12A           10.8749164624       -2.6652562488      -18.9841207276  MEMB      104             0.0000000000
     11988       104  OSM       H12B           11.7514323307       -1.5855158515      -19.9422242463  MEMB      104             0.0000000000
     11989       104  OSM       C11            12.0722279114       -3.7027032855      -20.4778382335  MEMB      104             0.0000000000
     11990       104  OSM       H11A           11.5305111283       -4.6156907232      -20.8054321341  MEMB      104             0.0000000000
     11991       104  OSM       H11B           12.6368227881       -3.9068200729      -19.5430174501  MEMB      104             0.0000000000
     11992       104  OSM       P              13.9251262203       -1.9409167695      -21.4239562585  MEMB      104             0.0000000000
     11993       104  OSM       O13            15.0115506304       -1.9902525707      -22.4179474163  MEMB      104             0.0000000000
     11994       104  OSM       O14            12.9930727036       -0.7785156924      -21.4554932109  MEMB      104             0.0000000000
     11995       104  OSM       O11            14.5501563082       -2.0262980542      -19.9826939215  MEMB      104             0.0000000000
     11996       104  OSM       O12            13.0627291696       -3.3253294382      -21.4444188404  MEMB      104             0.0000000000
     11997       104  OSM       C1S            15.6399741995       -2.8433765521      -19.6241621694  MEMB      104             0.0000000000
     11998       104  OSM       H1S            16.6531452719       -2.6108241901      -20.0162398315  MEMB      104             0.0000000000
     11999       104  OSM       H1T            15.4239289476       -3.8843653257      -19.9466336087  MEMB      104             0.0000000000
     12000       104  OSM       NF             14.7237721321       -3.5415228837      -17.4425815229  MEMB      104             0.0000000000
     12001       104  OSM       HNF            14.1493679460       -2.8594742143      -16.9966237020  MEMB      104             0.0000000000
     12002       104  OSM       C2S            15.7908589519       -2.8302176995      -18.0927337844  MEMB      104             0.0000000000
     12003       104  OSM       H2S            16.6890867274       -3.4239331261      -17.8188544392  MEMB      104             0.0000000000
     12004       104  OSM       C3S            15.9146759697       -1.3662416690      -17.6148315214  MEMB      104             0.0000000000
     12005       104  OSM       H3S            14.9798472722       -0.8693271787      -17.9517172552  MEMB      104             0.0000000000
     12006       104  OSM       O3             17.0859693486       -0.8073289304      -18.1552035714  MEMB      104             0.0000000000
     12007       104  OSM       HO3            17.4730158163       -1.5606637974      -18.6071788099  MEMB      104             0.0000000000
     12008       104  OSM       C4S            16.0407770318       -1.3954309797      -16.1469884945  MEMB      104             0.0000000000
     12009       104  OSM       H4S            16.6766311786       -2.2227556775      -15.7988171534  MEMB      104             0.0000000000
     12010       104  OSM       C5S            15.5326677098       -0.6497352974      -15.1761714153  MEMB      104             0.0000000000
     12011       104  OSM       H5S            14.8823062980        0.1967961569      -15.4415286879  MEMB      104             0.0000000000
     12012       104  OSM       C6S            15.7936674783       -0.8978490033      -13.6935076889  MEMB      104             0.0000000000
     12013       104  OSM       H6S            16.1069668909        0.1144950174      -13.3598547069  MEMB      104             0.0000000000
     12014       104  OSM       H6T            16.6480443314       -1.6042109411      -13.6199285105  MEMB      104             0.0000000000
     12015       104  OSM       C7S            14.5922233580       -1.3971838639      -12.8075782217  MEMB      104             0.0000000000
     12016       104  OSM       H7S            14.9393529713       -1.8271303831      -11.8437481577  MEMB      104             0.0000000000
     12017       104  OSM       H7T            14.2939652867       -2.2937848477      -13.3919323191  MEMB      104             0.0000000000
     12018       104  OSM       C8S            13.4659260851       -0.3164458967      -12.7207121883  MEMB      104             0.0000000000
     12019       104  OSM       H8S            13.2048958145        0.0399392792      -13.7401107815  MEMB      104             0.0000000000
     12020       104  OSM       H8T            13.9665683338        0.5497505470      -12.2376161733  MEMB      104             0.0000000000
     12021       104  OSM       C9S            12.2000871358       -0.7328553579      -11.9813714961  MEMB      104             0.0000000000
     12022       104  OSM       H9S            11.8537286002       -1.6473812845      -12.5086272711  MEMB      104             0.0000000000
     12023       104  OSM       H9T            11.3689745992       -0.0194245629      -12.1673527789  MEMB      104             0.0000000000
     12024       104  OSM       C10S           12.2580807380       -0.8639056542      -10.4846585966  MEMB      104             0.0000000000
     12025       104  OSM       H10S           12.5247104732        0.0724261663       -9.9493904734  MEMB      104             0.0000000000
     12026       104  OSM       H10T           13.0666474369       -1.5951511543      -10.2706003294  MEMB      104             0.0000000000
     12027       104  OSM       C11S           10.9885795115       -1.5643126248       -9.8540132557  MEMB      104             0.0000000000
     12028       104  OSM       H11S           10.9951914587       -2.6224294508      -10.1926375789  MEMB      104             0.0000000000
     12029       104  OSM       H11T           10.0628166691       -1.0197898632      -10.1382307653  MEMB      104             0.0000000000
     12030       104  OSM       C12S           11.0858712381       -1.4178117756       -8.4018101673  MEMB      104             0.0000000000
     12031       104  OSM       H12S           11.3563832426       -0.3500540132       -8.2567660501  MEMB      104             0.0000000000
     12032       104  OSM       H12T           11.9870394049       -1.9066116402       -7.9736852813  MEMB      104             0.0000000000
     12033       104  OSM       C13S            9.8627234642       -1.9192680186       -7.6082807577  MEMB      104             0.0000000000
     12034       104  OSM       H13S            9.5819416388       -2.9885113436       -7.7187415046  MEMB      104             0.0000000000
     12035       104  OSM       H13T            9.0765288135       -1.1455898383       -7.7411004724  MEMB      104             0.0000000000
     12036       104  OSM       C14S           10.2392583122       -1.8161567449       -6.0996467463  MEMB      104             0.0000000000
     12037       104  OSM       H14S           10.4917107906       -0.7525395965       -5.9013859477  MEMB      104             0.0000000000
     12038       104  OSM       H14T           11.1573192030       -2.3737849761       -5.8158580511  MEMB      104             0.0000000000
     12039       104  OSM       C15S            9.0999072665       -2.0140458701       -5.0249295232  MEMB      104             0.0000000000
     12040       104  OSM       H15S            8.5679838442       -2.9864948487       -5.1005675110  MEMB      104             0.0000000000
     12041       104  OSM       H15T            8.2698233405       -1.2996982811       -5.2119835568  MEMB      104             0.0000000000
     12042       104  OSM       C16S            9.5937101218       -1.8741543011       -3.5344981716  MEMB      104             0.0000000000
     12043       104  OSM       H16S           10.0894805546       -0.9192552435       -3.2575494690  MEMB      104             0.0000000000
     12044       104  OSM       H16T           10.2362727213       -2.7754199910       -3.4388186434  MEMB      104             0.0000000000
     12045       104  OSM       C17S            8.4314111628       -1.9569988835       -2.4859488407  MEMB      104             0.0000000000
     12046       104  OSM       H17S            7.7797608823       -2.8498327586       -2.5978448153  MEMB      104             0.0000000000
     12047       104  OSM       H17T            7.7087111592       -1.1751717853       -2.8033938234  MEMB      104             0.0000000000
     12048       104  OSM       C18S            8.8895830174       -1.6440970420       -1.0408006967  MEMB      104             0.0000000000
     12049       104  OSM       H18S            9.5118019527       -0.7252434617       -0.9872052143  MEMB      104             0.0000000000
     12050       104  OSM       H18T            9.5906669464       -2.4698939947       -0.7941000155  MEMB      104             0.0000000000
     12051       104  OSM       H18U            7.9822444771       -1.7093728171       -0.4029948232  MEMB      104             0.0000000000
     12052       104  OSM       C1F            14.3251422951       -4.9115547322      -17.4283396343  MEMB      104             0.0000000000
     12053       104  OSM       OF             14.9739676370       -5.7514615806      -18.0052081393  MEMB      104             0.0000000000
     12054       104  OSM       C2F            13.0360694649       -5.2700923070      -16.7198620400  MEMB      104             0.0000000000
     12055       104  OSM       H2F            12.4004950104       -5.7877243935      -17.4698110400  MEMB      104             0.0000000000
     12056       104  OSM       H2G            12.5667186794       -4.2789461671      -16.5419296574  MEMB      104             0.0000000000
     12057       104  OSM       C3F            13.1787163012       -5.9902877696      -15.3691532836  MEMB      104             0.0000000000
     12058       104  OSM       H3F            13.5505581711       -7.0194231484      -15.5613383987  MEMB      104             0.0000000000
     12059       104  OSM       H3G            12.1391885520       -6.2590719985      -15.0837436037  MEMB      104             0.0000000000
     12060       104  OSM       C4F            14.0087027915       -5.2897076060      -14.3254301714  MEMB      104             0.0000000000
     12061       104  OSM       H4F            13.5482283708       -4.3388064503      -13.9818156146  MEMB      104             0.0000000000
     12062       104  OSM       H4G            14.9763347703       -5.0538700722      -14.8177616099  MEMB      104             0.0000000000
     12063       104  OSM       C5F            14.2494569248       -6.1403602662      -13.0738521593  MEMB      104             0.0000000000
     12064       104  OSM       H5F            15.2210888934       -5.8890770096      -12.5972923253  MEMB      104             0.0000000000
     12065       104  OSM       H5G            14.3089801000       -7.1736178994      -13.4777783426  MEMB      104             0.0000000000
     12066       104  OSM       C6F            13.0768245487       -6.1166059231      -12.1363432497  MEMB      104             0.0000000000
     12067       104  OSM       H6F            12.2199055093       -6.5594127267      -12.6876446300  MEMB      104             0.0000000000
     12068       104  OSM       H6G            12.7534219512       -5.1049108838      -11.8104522136  MEMB      104             0.0000000000
     12069       104  OSM       C7F            13.3111800768       -6.9453865917      -10.8675959392  MEMB      104             0.0000000000
     12070       104  OSM       H7F            13.6877821551       -7.9624895175      -11.1084151948  MEMB      104             0.0000000000
     12071       104  OSM       H7G            12.3784798636       -7.0884132061      -10.2811365803  MEMB      104             0.0000000000
     12072       104  OSM       C8F            14.3301495149       -6.3128952637       -9.8647643457  MEMB      104             0.0000000000
     12073       104  OSM       H8F            15.2657081100       -6.3642683761      -10.4617671541  MEMB      104             0.0000000000
     12074       104  OSM       H8G            14.4707758336       -6.9965813292       -9.0004044785  MEMB      104             0.0000000000
     12075       104  OSM       C9F            14.2811944098       -4.9051608147       -9.2881359531  MEMB      104             0.0000000000
     12076       104  OSM       H9F            14.8986396973       -4.1337413965       -9.7715330524  MEMB      104             0.0000000000
     12077       104  OSM       C10F           13.4524573324       -4.5165787356       -8.2788884539  MEMB      104             0.0000000000
     12078       104  OSM       H10F           13.6779423929       -3.5631245525       -7.7788062849  MEMB      104             0.0000000000
     12079       104  OSM       C11F           12.4297930202       -5.3586820419       -7.4977032243  MEMB      104             0.0000000000
     12080       104  OSM       H11F           12.2143704971       -6.1998208592       -8.1908111978  MEMB      104             0.0000000000
     12081       104  OSM       H11G           11.4888375085       -4.7695761192       -7.5410403362  MEMB      104             0.0000000000
     12082       104  OSM       C12F           12.7179765116       -5.7437084823       -6.0719441931  MEMB      104             0.0000000000
     12083       104  OSM       H12F           11.8502634784       -6.2797050176       -5.6313727020  MEMB      104             0.0000000000
     12084       104  OSM       H12G           12.9891921756       -4.8264118919       -5.5068507252  MEMB      104             0.0000000000
     12085       104  OSM       C13F           13.8130507285       -6.7201032444       -6.1223150793  MEMB      104             0.0000000000
     12086       104  OSM       H13F           14.6871187332       -6.2298539447       -6.6018798587  MEMB      104             0.0000000000
     12087       104  OSM       H13G           13.4456169884       -7.5952901959       -6.6996893665  MEMB      104             0.0000000000
     12088       104  OSM       C14F           14.2147216607       -7.3220041854       -4.7327688970  MEMB      104             0.0000000000
     12089       104  OSM       H14F           15.1088926370       -7.9749360090       -4.8247402449  MEMB      104             0.0000000000
     12090       104  OSM       H14G           13.2964430400       -7.9139949713       -4.5311936937  MEMB      104             0.0000000000
     12091       104  OSM       C15F           14.5460102445       -6.2959078921       -3.5696365210  MEMB      104             0.0000000000
     12092       104  OSM       H15F           14.9347734168       -6.9393054642       -2.7515763808  MEMB      104             0.0000000000
     12093       104  OSM       H15G           13.6724266671       -5.6817888952       -3.2629922322  MEMB      104             0.0000000000
     12094       104  OSM       C16F           15.7145928990       -5.2493183239       -3.8694896319  MEMB      104             0.0000000000
     12095       104  OSM       H16F           15.3978652059       -4.6403818699       -4.7431037754  MEMB      104             0.0000000000
     12096       104  OSM       H16G           16.6681163460       -5.7212794430       -4.1894377901  MEMB      104             0.0000000000
     12097       104  OSM       C17F           15.8821834868       -4.3100449802       -2.6627915013  MEMB      104             0.0000000000
     12098       104  OSM       H17F           16.8707181116       -3.8285808095       -2.5036919403  MEMB      104             0.0000000000
     12099       104  OSM       H17G           15.5486830637       -4.8933672444       -1.7780117188  MEMB      104             0.0000000000
     12100       104  OSM       C18F           14.8308649460       -3.1268960027       -2.7936844882  MEMB      104             0.0000000000
     12101       104  OSM       H18F           14.7052349310       -2.5602122298       -1.8463674826  MEMB      104             0.0000000000
     12102       104  OSM       H18G           13.8663287130       -3.4219716258       -3.2594311615  MEMB      104             0.0000000000
     12103       104  OSM       H18H           15.3293079167       -2.3436560077       -3.4039376396  MEMB      104             0.0000000000
     12104       105  CHL1      C3             -4.5459592206       11.5161306041      -17.3293250000  MEMB      105             0.0000000000
     12105       105  CHL1      H3             -5.0477244709       12.5069104170      -17.2993550000  MEMB      105             0.0000000000
     12106       105  CHL1      O3             -4.5269263994       11.0030481959      -18.6706750000  MEMB      105             0.0000000000
     12107       105  CHL1      H3'            -4.0669988558       11.6813147788      -19.1707050000  MEMB      105             0.0000000000
     12108       105  CHL1      C4             -3.0744003199       11.5495764961      -16.9000950000  MEMB      105             0.0000000000
     12109       105  CHL1      H4A            -2.6919365381       10.5344102277      -17.1398350000  MEMB      105             0.0000000000
     12110       105  CHL1      H4B            -2.5495103447       12.3034375872      -17.5249950000  MEMB      105             0.0000000000
     12111       105  CHL1      C5             -2.9274117631       11.7934377785      -15.4572050000  MEMB      105             0.0000000000
     12112       105  CHL1      C6             -2.1551610864       12.7921188463      -14.9500050000  MEMB      105             0.0000000000
     12113       105  CHL1      H6             -1.7247980610       13.5914246449      -15.5712050000  MEMB      105             0.0000000000
     12114       105  CHL1      C7             -1.8815398644       12.9609822224      -13.4834450000  MEMB      105             0.0000000000
     12115       105  CHL1      H7A            -0.8354643632       13.3030804964      -13.3317150000  MEMB      105             0.0000000000
     12116       105  CHL1      H7B            -2.5239814043       13.7610169443      -13.0573850000  MEMB      105             0.0000000000
     12117       105  CHL1      C8             -2.0048335107       11.6626962889      -12.7212350000  MEMB      105             0.0000000000
     12118       105  CHL1      H8             -1.2257384476       10.9277902696      -13.0165950000  MEMB      105             0.0000000000
     12119       105  CHL1      C14            -1.8890740639       11.9656330813      -11.1869150000  MEMB      105             0.0000000000
     12120       105  CHL1      H14            -2.7085879675       12.6839777197      -10.9708350000  MEMB      105             0.0000000000
     12121       105  CHL1      C15            -0.5008664802       12.4972484474      -10.7852950000  MEMB      105             0.0000000000
     12122       105  CHL1      H15A            0.1923585827       11.9886272576      -11.4889050000  MEMB      105             0.0000000000
     12123       105  CHL1      H15B           -0.6035762087       13.5935857583      -10.9329650000  MEMB      105             0.0000000000
     12124       105  CHL1      C16            -0.4131668254       12.1858952450       -9.3367450000  MEMB      105             0.0000000000
     12125       105  CHL1      H16A            0.5597663103       11.6672835736       -9.1997750000  MEMB      105             0.0000000000
     12126       105  CHL1      H16B           -0.3356287618       13.0972379845       -8.7060450000  MEMB      105             0.0000000000
     12127       105  CHL1      C17            -1.7274206679       11.3576275457       -8.9665650000  MEMB      105             0.0000000000
     12128       105  CHL1      H17            -2.5462482532       12.0874774815       -8.7900550000  MEMB      105             0.0000000000
     12129       105  CHL1      C13            -2.0684357472       10.7620021562      -10.3307050000  MEMB      105             0.0000000000
     12130       105  CHL1      C18            -1.0971446675        9.5893505764      -10.7047750000  MEMB      105             0.0000000000
     12131       105  CHL1      H18A           -1.0905440470        9.4129156731      -11.8016550000  MEMB      105             0.0000000000
     12132       105  CHL1      H18B           -0.0566918758        9.8417682363      -10.4079950000  MEMB      105             0.0000000000
     12133       105  CHL1      H18C           -1.3560828205        8.6077904598      -10.2533350000  MEMB      105             0.0000000000
     12134       105  CHL1      C12            -3.5582421858       10.3191360869      -10.5312550000  MEMB      105             0.0000000000
     12135       105  CHL1      H12A           -3.7066641715        9.4170845138       -9.8999150000  MEMB      105             0.0000000000
     12136       105  CHL1      H12B           -4.1230891368       11.1647419661      -10.0837850000  MEMB      105             0.0000000000
     12137       105  CHL1      C11            -3.8241740525        9.9789077835      -11.9591450000  MEMB      105             0.0000000000
     12138       105  CHL1      H11A           -3.2523337224        9.0463237539      -12.1530950000  MEMB      105             0.0000000000
     12139       105  CHL1      H11B           -4.8973441862        9.7039162707      -12.0429150000  MEMB      105             0.0000000000
     12140       105  CHL1      C9             -3.4015724819       11.1406526482      -13.0133550000  MEMB      105             0.0000000000
     12141       105  CHL1      H9             -4.1591850566       11.9274151000      -12.8099950000  MEMB      105             0.0000000000
     12142       105  CHL1      C10            -3.5992387007       10.7415933001      -14.5336050000  MEMB      105             0.0000000000
     12143       105  CHL1      C19            -2.9118101356        9.3315133355      -14.7286850000  MEMB      105             0.0000000000
     12144       105  CHL1      H19A           -2.9007874770        9.0369358164      -15.7998650000  MEMB      105             0.0000000000
     12145       105  CHL1      H19B           -1.8889571307        9.3083495526      -14.2956250000  MEMB      105             0.0000000000
     12146       105  CHL1      H19C           -3.5408388285        8.5937062932      -14.1862050000  MEMB      105             0.0000000000
     12147       105  CHL1      C1             -5.0380943309       10.7290599356      -14.9217050000  MEMB      105             0.0000000000
     12148       105  CHL1      H1A            -5.3262263421        9.8092342667      -14.3692250000  MEMB      105             0.0000000000
     12149       105  CHL1      H1B            -5.5393633212       11.6370879375      -14.5235250000  MEMB      105             0.0000000000
     12150       105  CHL1      C2             -5.3058262225       10.5588814213      -16.4207050000  MEMB      105             0.0000000000
     12151       105  CHL1      H2A            -6.4091313191       10.5989373136      -16.5449150000  MEMB      105             0.0000000000
     12152       105  CHL1      H2B            -4.9798661334        9.5072574526      -16.5695450000  MEMB      105             0.0000000000
     12153       105  CHL1      C20            -1.6396445156       10.5450369634       -7.6650550000  MEMB      105             0.0000000000
     12154       105  CHL1      H20            -1.2973267102        9.5396400746       -7.9911150000  MEMB      105             0.0000000000
     12155       105  CHL1      C21            -3.0586125698       10.4647739103       -7.0565650000  MEMB      105             0.0000000000
     12156       105  CHL1      H21A           -3.3523327605       11.4844513574       -6.7274750000  MEMB      105             0.0000000000
     12157       105  CHL1      H21B           -2.9261878605        9.7808311094       -6.1911050000  MEMB      105             0.0000000000
     12158       105  CHL1      H21C           -3.8217958719       10.1175438623       -7.7854850000  MEMB      105             0.0000000000
     12159       105  CHL1      C22            -0.6371313248       11.1350265888       -6.7109650000  MEMB      105             0.0000000000
     12160       105  CHL1      H22A            0.3835288050       11.0812707595       -7.1464750000  MEMB      105             0.0000000000
     12161       105  CHL1      H22B           -0.8446674386       12.2029639092       -6.4856850000  MEMB      105             0.0000000000
     12162       105  CHL1      C23            -0.4666858548       10.3793687494       -5.3383950000  MEMB      105             0.0000000000
     12163       105  CHL1      H23A           -1.4562388195       10.4400621554       -4.8369750000  MEMB      105             0.0000000000
     12164       105  CHL1      H23B           -0.2335491678        9.3458825124       -5.6728650000  MEMB      105             0.0000000000
     12165       105  CHL1      C24             0.7258858458       10.8681207541       -4.4367250000  MEMB      105             0.0000000000
     12166       105  CHL1      H24A            0.7700293448       10.2043238913       -3.5469250000  MEMB      105             0.0000000000
     12167       105  CHL1      H24B            1.6372328920       10.6840813010       -5.0449150000  MEMB      105             0.0000000000
     12168       105  CHL1      C25             0.7519159630       12.3354444081       -4.0095550000  MEMB      105             0.0000000000
     12169       105  CHL1      H25             0.4609743981       12.8971144035       -4.9229050000  MEMB      105             0.0000000000
     12170       105  CHL1      C26            -0.1760888194       12.5535368540       -2.7931050000  MEMB      105             0.0000000000
     12171       105  CHL1      H26A            0.0045483115       11.7559338820       -2.0410950000  MEMB      105             0.0000000000
     12172       105  CHL1      H26B            0.0386801794       13.5879668252       -2.4493550000  MEMB      105             0.0000000000
     12173       105  CHL1      H26C           -1.2640296845       12.5198475899       -3.0157250000  MEMB      105             0.0000000000
     12174       105  CHL1      C27             2.0815548736       12.9001887181       -3.5826450000  MEMB      105             0.0000000000
     12175       105  CHL1      H27A            1.9320932844       13.9977162074       -3.4965650000  MEMB      105             0.0000000000
     12176       105  CHL1      H27B            2.3821951477       12.4605596709       -2.6076250000  MEMB      105             0.0000000000
     12177       105  CHL1      H27C            2.7529214182       12.6658780831       -4.4362750000  MEMB      105             0.0000000000
     12178       106  POPC      N               7.8290934916       -8.8552094601      -20.9056792068  MEMB      106             0.0000000000
     12179       106  POPC      C12             8.7187206984       -8.8660935058      -19.6518472713  MEMB      106             0.0000000000
     12180       106  POPC      H12A            8.5070104752       -8.0209580583      -19.0136272446  MEMB      106             0.0000000000
     12181       106  POPC      H12B            9.6781704733       -8.5064127016      -19.9931475196  MEMB      106             0.0000000000
     12182       106  POPC      C13             6.3544089070       -8.9609828139      -20.5496473236  MEMB      106             0.0000000000
     12183       106  POPC      H13A            6.1055118646       -8.0001823562      -20.1238387831  MEMB      106             0.0000000000
     12184       106  POPC      H13B            5.8204043328       -9.1003675396      -21.4779851277  MEMB      106             0.0000000000
     12185       106  POPC      H13C            6.2199195502       -9.7154336873      -19.7886502561  MEMB      106             0.0000000000
     12186       106  POPC      C14             8.0524953988       -7.5108936359      -21.5889742882  MEMB      106             0.0000000000
     12187       106  POPC      H14A            7.2460093895       -7.3574326425      -22.2907076636  MEMB      106             0.0000000000
     12188       106  POPC      H14B            8.1148809534       -6.7441799631      -20.8309120560  MEMB      106             0.0000000000
     12189       106  POPC      H14C            9.0429890595       -7.5472305113      -22.0179287246  MEMB      106             0.0000000000
     12190       106  POPC      C15             8.3226596221       -9.9265510306      -21.8269727826  MEMB      106             0.0000000000
     12191       106  POPC      H15A            9.3710554605       -9.7946582928      -22.0502898029  MEMB      106             0.0000000000
     12192       106  POPC      H15B            7.6284637950       -9.9685962647      -22.6532441739  MEMB      106             0.0000000000
     12193       106  POPC      H15C            8.2366717928      -10.9032498841      -21.3741314904  MEMB      106             0.0000000000
     12194       106  POPC      C11             9.0239097184      -10.1842948633      -18.9148008173  MEMB      106             0.0000000000
     12195       106  POPC      H11A            9.6340999493       -9.8267623709      -18.0579698320  MEMB      106             0.0000000000
     12196       106  POPC      H11B            9.5164050404      -10.9551274392      -19.5453454505  MEMB      106             0.0000000000
     12197       106  POPC      P               7.1528977683      -10.1700644514      -17.1161310577  MEMB      106             0.0000000000
     12198       106  POPC      O13             5.7127641507      -10.5711006930      -16.9433622380  MEMB      106             0.0000000000
     12199       106  POPC      O14             7.3705794709       -8.6958266498      -17.1131438680  MEMB      106             0.0000000000
     12200       106  POPC      O12             7.7792550075      -10.7096535848      -18.4934657691  MEMB      106             0.0000000000
     12201       106  POPC      O11             7.9549346383      -10.8958135352      -15.8959753800  MEMB      106             0.0000000000
     12202       106  POPC      C1              8.6226359232      -12.0888331567      -16.0581178725  MEMB      106             0.0000000000
     12203       106  POPC      HA              9.4222457823      -12.0045114148      -16.8248219005  MEMB      106             0.0000000000
     12204       106  POPC      HB              7.8485645550      -12.8249442073      -16.3635272192  MEMB      106             0.0000000000
     12205       106  POPC      C2              9.2923671563      -12.5976801838      -14.7208339821  MEMB      106             0.0000000000
     12206       106  POPC      HS              9.8089239595      -13.5576886828      -14.9350158432  MEMB      106             0.0000000000
     12207       106  POPC      O21             8.2630122501      -12.7281778440      -13.6357141917  MEMB      106             0.0000000000
     12208       106  POPC      C21             7.3570488002      -13.6874428302      -13.7899649579  MEMB      106             0.0000000000
     12209       106  POPC      O22             7.4424815164      -14.5686685200      -14.6375006964  MEMB      106             0.0000000000
     12210       106  POPC      C22             6.1879816276      -13.4779324462      -12.8213198528  MEMB      106             0.0000000000
     12211       106  POPC      H2R             5.5008379320      -14.2448975415      -13.2383567284  MEMB      106             0.0000000000
     12212       106  POPC      H2S             5.9612760536      -12.3960017872      -12.7101829533  MEMB      106             0.0000000000
     12213       106  POPC      C3             10.3730887322      -11.6293161670      -14.2153451488  MEMB      106             0.0000000000
     12214       106  POPC      HX              9.8559112858      -10.6711812502      -14.4363116146  MEMB      106             0.0000000000
     12215       106  POPC      HY             11.3676598115      -11.6647417903      -14.7092017291  MEMB      106             0.0000000000
     12216       106  POPC      O31            10.5961929021      -11.8553775269      -12.8132894518  MEMB      106             0.0000000000
     12217       106  POPC      C31            11.0073402680      -10.7983101296      -12.1877478559  MEMB      106             0.0000000000
     12218       106  POPC      O32            11.1432634632       -9.6664801440      -12.6068773332  MEMB      106             0.0000000000
     12219       106  POPC      C32            11.3916988102      -11.1733208497      -10.7087014581  MEMB      106             0.0000000000
     12220       106  POPC      H2X            12.4350553767      -10.8877823684      -10.4553313654  MEMB      106             0.0000000000
     12221       106  POPC      H2Y            11.3475333641      -12.2790890602      -10.6104832342  MEMB      106             0.0000000000
     12222       106  POPC      C23             6.8046182338      -13.8786711065      -11.4224813101  MEMB      106             0.0000000000
     12223       106  POPC      H3R             7.6720402503      -13.2363300164      -11.1592361405  MEMB      106             0.0000000000
     12224       106  POPC      H3S             7.3165952727      -14.8629830449      -11.4801922515  MEMB      106             0.0000000000
     12225       106  POPC      C24             5.7170645879      -13.8813663704      -10.2939943642  MEMB      106             0.0000000000
     12226       106  POPC      H4R             4.7841867864      -14.3032363294      -10.7253707459  MEMB      106             0.0000000000
     12227       106  POPC      H4S             5.4679198492      -12.8355647512      -10.0137317371  MEMB      106             0.0000000000
     12228       106  POPC      C25             6.2061191114      -14.7313763498       -9.1195373478  MEMB      106             0.0000000000
     12229       106  POPC      H5R             7.3031116632      -14.6788551754       -8.9516989261  MEMB      106             0.0000000000
     12230       106  POPC      H5S             6.0800785726      -15.7964349169       -9.4095123513  MEMB      106             0.0000000000
     12231       106  POPC      C26             5.4106688303      -14.4426411940       -7.8700575543  MEMB      106             0.0000000000
     12232       106  POPC      H6R             5.6189701710      -15.3866131273       -7.3224729638  MEMB      106             0.0000000000
     12233       106  POPC      H6S             4.3639569206      -14.3872150261       -8.2383544399  MEMB      106             0.0000000000
     12234       106  POPC      C27             5.8608729108      -13.2663302779       -7.0647239747  MEMB      106             0.0000000000
     12235       106  POPC      H7R             5.9436138015      -12.4777600014       -7.8429482174  MEMB      106             0.0000000000
     12236       106  POPC      H7S             6.8476200169      -13.4015993502       -6.5724300341  MEMB      106             0.0000000000
     12237       106  POPC      C28             4.7634846849      -12.8396051449       -6.0760696799  MEMB      106             0.0000000000
     12238       106  POPC      H8R             3.8222418883      -12.6397333804       -6.6314383998  MEMB      106             0.0000000000
     12239       106  POPC      H8S             5.1444388522      -11.8853694401       -5.6534240565  MEMB      106             0.0000000000
     12240       106  POPC      C29             4.7374958897      -13.9875543945       -5.0651956298  MEMB      106             0.0000000000
     12241       106  POPC      H91             4.1617183966      -14.9132170347       -5.2122634853  MEMB      106             0.0000000000
     12242       106  POPC      C210            5.4883345950      -14.0327703337       -3.9340304244  MEMB      106             0.0000000000
     12243       106  POPC      H101            5.6125676319      -14.9909435070       -3.4082250735  MEMB      106             0.0000000000
     12244       106  POPC      C211            6.4239797875      -12.9591167633       -3.4557096157  MEMB      106             0.0000000000
     12245       106  POPC      H11R            5.9960632254      -11.9631522038       -3.6991494995  MEMB      106             0.0000000000
     12246       106  POPC      H11S            7.4025549859      -12.9540498030       -3.9817196552  MEMB      106             0.0000000000
     12247       106  POPC      C212            6.8403328579      -12.9305902866       -1.9494901392  MEMB      106             0.0000000000
     12248       106  POPC      H12R            6.0211151899      -13.0043017379       -1.2026487710  MEMB      106             0.0000000000
     12249       106  POPC      H12S            7.2913019377      -11.9329288566       -1.7607586654  MEMB      106             0.0000000000
     12250       106  POPC      C213            7.9135853727      -14.0042089615       -1.7066197713  MEMB      106             0.0000000000
     12251       106  POPC      H13R            7.4841175391      -14.9724753992       -2.0417897392  MEMB      106             0.0000000000
     12252       106  POPC      H13S            7.9878159221      -14.1501881200       -0.6077559418  MEMB      106             0.0000000000
     12253       106  POPC      C214            9.3266053198      -13.8723431860       -2.3332783789  MEMB      106             0.0000000000
     12254       106  POPC      H14R            9.1528107430      -13.9325486479       -3.4289491587  MEMB      106             0.0000000000
     12255       106  POPC      H14S           10.0454206342      -14.5910745489       -1.8848926706  MEMB      106             0.0000000000
     12256       106  POPC      C215           10.0390367591      -12.4588670514       -2.3392464031  MEMB      106             0.0000000000
     12257       106  POPC      H15R            9.2067609195      -11.7399605267       -2.4967620075  MEMB      106             0.0000000000
     12258       106  POPC      H15S           10.7399363800      -12.4143506439       -3.2001048093  MEMB      106             0.0000000000
     12259       106  POPC      C216           10.6782843694      -11.9979459970       -1.0187365738  MEMB      106             0.0000000000
     12260       106  POPC      H16R            9.8234437355      -12.0266130551       -0.3096911429  MEMB      106             0.0000000000
     12261       106  POPC      H16S           11.0694501716      -10.9581365629       -1.0083952977  MEMB      106             0.0000000000
     12262       106  POPC      C217           11.7242416177      -12.9309867801       -0.4831492450  MEMB      106             0.0000000000
     12263       106  POPC      H17R           12.4583838654      -13.1317273765       -1.2925062308  MEMB      106             0.0000000000
     12264       106  POPC      H17S           11.3313369152      -13.9613793018       -0.3481001328  MEMB      106             0.0000000000
     12265       106  POPC      C218           12.4179485698      -12.4759295502        0.8418021071  MEMB      106             0.0000000000
     12266       106  POPC      H18R           12.7656039266      -11.4287017257        0.7123018644  MEMB      106             0.0000000000
     12267       106  POPC      H18S           13.3964648223      -12.9656309548        1.0342080965  MEMB      106             0.0000000000
     12268       106  POPC      H18T           11.7274767594      -12.5298891387        1.7105136666  MEMB      106             0.0000000000
     12269       106  POPC      C33            10.4059857774      -10.3933822648       -9.7061950669  MEMB      106             0.0000000000
     12270       106  POPC      H3X            10.4411428206       -9.3115412996       -9.9566036873  MEMB      106             0.0000000000
     12271       106  POPC      H3Y            10.6164152137      -10.5969685377       -8.6344698762  MEMB      106             0.0000000000
     12272       106  POPC      C34             8.9700923932      -10.9670896775       -9.7427984568  MEMB      106             0.0000000000
     12273       106  POPC      H4X             9.0237448327      -12.0695418238       -9.6161428188  MEMB      106             0.0000000000
     12274       106  POPC      H4Y             8.6214006383      -10.8141860530      -10.7865199259  MEMB      106             0.0000000000
     12275       106  POPC      C35             7.9468419707      -10.3793624991       -8.7332502033  MEMB      106             0.0000000000
     12276       106  POPC      H5X             7.0908942070      -11.0808591345       -8.8311118212  MEMB      106             0.0000000000
     12277       106  POPC      H5Y             7.6277858117       -9.3774577911       -9.0920131061  MEMB      106             0.0000000000
     12278       106  POPC      C36             8.4566343562      -10.2428868971       -7.3459662918  MEMB      106             0.0000000000
     12279       106  POPC      H6X             9.3273944750       -9.5621361346       -7.2333772682  MEMB      106             0.0000000000
     12280       106  POPC      H6Y             8.7649158222      -11.2534205841       -7.0023024374  MEMB      106             0.0000000000
     12281       106  POPC      C37             7.4302940278       -9.6881124914       -6.3073915134  MEMB      106             0.0000000000
     12282       106  POPC      H7X             6.6437458628      -10.4718952527       -6.3440997983  MEMB      106             0.0000000000
     12283       106  POPC      H7Y             6.8321252707       -8.8208533767       -6.6600625507  MEMB      106             0.0000000000
     12284       106  POPC      C38             7.9187538561       -9.4604386877       -4.8693891493  MEMB      106             0.0000000000
     12285       106  POPC      H8X             8.5230388154      -10.3470646864       -4.5811963002  MEMB      106             0.0000000000
     12286       106  POPC      H8Y             7.0692054773       -9.4659683984       -4.1534576878  MEMB      106             0.0000000000
     12287       106  POPC      C39             8.6946575414       -8.2158317893       -4.6142169246  MEMB      106             0.0000000000
     12288       106  POPC      H9X             8.2027273301       -7.2679617900       -4.9205961676  MEMB      106             0.0000000000
     12289       106  POPC      H9Y             9.6637275320       -8.2572820853       -5.1559796379  MEMB      106             0.0000000000
     12290       106  POPC      C310            9.2686005762       -7.9763575157       -3.1683570333  MEMB      106             0.0000000000
     12291       106  POPC      H10X            9.9239344411       -7.0797119575       -3.1385963467  MEMB      106             0.0000000000
     12292       106  POPC      H10Y           10.0148562495       -8.7687154611       -2.9456626791  MEMB      106             0.0000000000
     12293       106  POPC      C311            8.2055270569       -7.9061126476       -2.0919378853  MEMB      106             0.0000000000
     12294       106  POPC      H11X            7.7264568722       -8.8926333307       -1.9142021516  MEMB      106             0.0000000000
     12295       106  POPC      H11Y            7.4688139885       -7.2354998117       -2.5837234914  MEMB      106             0.0000000000
     12296       106  POPC      C312            8.8090463908       -7.3985598230       -0.7619070268  MEMB      106             0.0000000000
     12297       106  POPC      H12X            8.9334342201       -6.3082116716       -0.9350817738  MEMB      106             0.0000000000
     12298       106  POPC      H12Y            9.7809101118       -7.8839188768       -0.5290377371  MEMB      106             0.0000000000
     12299       106  POPC      C313            7.8479302714       -7.5252255332        0.4404393857  MEMB      106             0.0000000000
     12300       106  POPC      H13X            6.9383901091       -6.9511494122        0.1620617324  MEMB      106             0.0000000000
     12301       106  POPC      H13Y            8.2984162653       -6.9632231228        1.2863332412  MEMB      106             0.0000000000
     12302       106  POPC      C314            7.4649763915       -8.8722744498        1.0055971072  MEMB      106             0.0000000000
     12303       106  POPC      H14X            6.8750506341       -9.3665639313        0.2043568015  MEMB      106             0.0000000000
     12304       106  POPC      H14Y            6.7064744821       -8.7346172473        1.8056248120  MEMB      106             0.0000000000
     12305       106  POPC      C315            8.6102026945       -9.7899609201        1.4885884361  MEMB      106             0.0000000000
     12306       106  POPC      H15X            9.1818049406       -9.2952396902        2.3027406563  MEMB      106             0.0000000000
     12307       106  POPC      H15Y            9.2108000794       -9.7479342951        0.5548671324  MEMB      106             0.0000000000
     12308       106  POPC      C316            8.0787040435      -11.2106595615        1.9173623852  MEMB      106             0.0000000000
     12309       106  POPC      H16X            8.8559758951      -11.8646310462        2.3673521982  MEMB      106             0.0000000000
     12310       106  POPC      H16Y            7.4758088015      -11.6568112221        1.0977365412  MEMB      106             0.0000000000
     12311       106  POPC      H16Z            7.2609994271      -10.9866202414        2.6353365126  MEMB      106             0.0000000000
     12312       107  SAPC      N             -13.3114779549       -0.3431911364      -19.7780116828  MEMB      107             0.0000000000
     12313       107  SAPC      C12           -13.0618409832       -1.5829726886      -18.8488470489  MEMB      107             0.0000000000
     12314       107  SAPC      H12A          -13.9998821424       -1.5376401517      -18.3155330851  MEMB      107             0.0000000000
     12315       107  SAPC      H12B          -12.2395774613       -1.4059639783      -18.1713880399  MEMB      107             0.0000000000
     12316       107  SAPC      C13           -13.6798668712        0.9111678364      -18.9793154252  MEMB      107             0.0000000000
     12317       107  SAPC      H13A          -13.5989772083        1.7425783482      -19.6638690874  MEMB      107             0.0000000000
     12318       107  SAPC      H13B          -14.6788030875        0.7441770465      -18.6042948250  MEMB      107             0.0000000000
     12319       107  SAPC      H13C          -12.8434198413        1.1171264227      -18.3279036321  MEMB      107             0.0000000000
     12320       107  SAPC      C14           -12.0252461076        0.1038458974      -20.3320753337  MEMB      107             0.0000000000
     12321       107  SAPC      H14A          -11.4543474200       -0.7742613252      -20.5955186402  MEMB      107             0.0000000000
     12322       107  SAPC      H14B          -12.0857064392        0.9719492560      -20.9717166261  MEMB      107             0.0000000000
     12323       107  SAPC      H14C          -11.4256216549        0.5064598791      -19.5291105333  MEMB      107             0.0000000000
     12324       107  SAPC      C15           -14.2481133479       -0.6318945311      -20.8382033068  MEMB      107             0.0000000000
     12325       107  SAPC      H15A          -13.8604418137       -1.4249492802      -21.4604370917  MEMB      107             0.0000000000
     12326       107  SAPC      H15B          -15.2177268479       -1.0081122205      -20.5471532979  MEMB      107             0.0000000000
     12327       107  SAPC      H15C          -14.5526630196        0.2571668213      -21.3703870533  MEMB      107             0.0000000000
     12328       107  SAPC      C11           -12.8871560256       -2.9238237388      -19.5016003291  MEMB      107             0.0000000000
     12329       107  SAPC      H11A          -13.7443719984       -3.2284884047      -20.1393157850  MEMB      107             0.0000000000
     12330       107  SAPC      H11B          -12.8021866895       -3.6882072134      -18.6998402564  MEMB      107             0.0000000000
     12331       107  SAPC      P             -10.7222588265       -3.9372557228      -20.4250674549  MEMB      107             0.0000000000
     12332       107  SAPC      O13           -11.2904946083       -5.2881666743      -20.7182028036  MEMB      107             0.0000000000
     12333       107  SAPC      O14            -9.5950700010       -3.4141240181      -21.2162378271  MEMB      107             0.0000000000
     12334       107  SAPC      O12           -11.8807314370       -2.9218154043      -20.5206735050  MEMB      107             0.0000000000
     12335       107  SAPC      O11           -10.3549571140       -3.9574094151      -18.8417652842  MEMB      107             0.0000000000
     12336       107  SAPC      C1             -9.6305290893       -2.8083567003      -18.2359888909  MEMB      107             0.0000000000
     12337       107  SAPC      HA             -8.5383870520       -2.8807757335      -18.4265198680  MEMB      107             0.0000000000
     12338       107  SAPC      HB            -10.0231952239       -1.8412293181      -18.6165135306  MEMB      107             0.0000000000
     12339       107  SAPC      C2             -9.7778702464       -2.8914524823      -16.7010951380  MEMB      107             0.0000000000
     12340       107  SAPC      HS            -10.8249565230       -2.8129729712      -16.3380905059  MEMB      107             0.0000000000
     12341       107  SAPC      O21            -9.1425851279       -1.7561737222      -16.1831292058  MEMB      107             0.0000000000
     12342       107  SAPC      C21            -9.6790798127       -0.5452421336      -16.3244541499  MEMB      107             0.0000000000
     12343       107  SAPC      O22           -10.7871111797       -0.2234841964      -16.7173091811  MEMB      107             0.0000000000
     12344       107  SAPC      C22            -8.5343476650        0.4308543643      -15.9109938231  MEMB      107             0.0000000000
     12345       107  SAPC      H2R            -7.5477095091       -0.0741930442      -15.8348836165  MEMB      107             0.0000000000
     12346       107  SAPC      H2S            -8.3991528643        1.1645583150      -16.7342326930  MEMB      107             0.0000000000
     12347       107  SAPC      C3             -9.1746725962       -4.2842616008      -16.0805476631  MEMB      107             0.0000000000
     12348       107  SAPC      HX             -8.2072041853       -4.5923042871      -16.5315860967  MEMB      107             0.0000000000
     12349       107  SAPC      HY             -9.9420255125       -5.0566529882      -16.3016858662  MEMB      107             0.0000000000
     12350       107  SAPC      O31            -9.0314495947       -4.2323823989      -14.7059389983  MEMB      107             0.0000000000
     12351       107  SAPC      C31            -9.8664948076       -4.8278762814      -13.8906279468  MEMB      107             0.0000000000
     12352       107  SAPC      O32           -10.7405379128       -5.6434647807      -14.2078422033  MEMB      107             0.0000000000
     12353       107  SAPC      C32            -9.4716916364       -4.4793926822      -12.4742001336  MEMB      107             0.0000000000
     12354       107  SAPC      H2X            -9.3370792467       -3.3779995006      -12.5301815494  MEMB      107             0.0000000000
     12355       107  SAPC      H2Y            -8.5269124226       -4.8596960680      -12.0302601379  MEMB      107             0.0000000000
     12356       107  SAPC      C23            -8.9743808774        1.0955256269      -14.6372185217  MEMB      107             0.0000000000
     12357       107  SAPC      H3R           -10.0093355639        1.4760819677      -14.7727426456  MEMB      107             0.0000000000
     12358       107  SAPC      H3S            -8.2926777913        1.9247001982      -14.3507382132  MEMB      107             0.0000000000
     12359       107  SAPC      C24            -8.8227351354        0.1236947172      -13.4242363229  MEMB      107             0.0000000000
     12360       107  SAPC      H4R            -7.7511870115        0.2298027465      -13.1506551201  MEMB      107             0.0000000000
     12361       107  SAPC      H4S            -8.8396320824       -0.9117698653      -13.8265405655  MEMB      107             0.0000000000
     12362       107  SAPC      C25            -9.6269320290        0.5757647992      -12.2592879814  MEMB      107             0.0000000000
     12363       107  SAPC      H5R           -10.6911490956        0.7931185651      -12.4330680128  MEMB      107             0.0000000000
     12364       107  SAPC      C26            -9.2222182509        0.5697368991      -10.9868015585  MEMB      107             0.0000000000
     12365       107  SAPC      H6R            -9.9318523397        1.0462600629      -10.2944541091  MEMB      107             0.0000000000
     12366       107  SAPC      C27            -7.9230961072        0.1847117918      -10.3897792044  MEMB      107             0.0000000000
     12367       107  SAPC      H7R            -7.8129608466        0.7461237400       -9.4374096438  MEMB      107             0.0000000000
     12368       107  SAPC      H7S            -7.1457638808        0.6194685649      -11.0539043943  MEMB      107             0.0000000000
     12369       107  SAPC      C28            -7.6804529640       -1.2853611626      -10.3037129558  MEMB      107             0.0000000000
     12370       107  SAPC      H8R            -7.8018769897       -1.8764623611      -11.2234169178  MEMB      107             0.0000000000
     12371       107  SAPC      C29            -7.3893429682       -2.0837985692       -9.2621121135  MEMB      107             0.0000000000
     12372       107  SAPC      H9R            -7.1409119411       -3.1444388275       -9.4148355688  MEMB      107             0.0000000000
     12373       107  SAPC      C210           -7.2627297744       -1.6482233996       -7.8066316248  MEMB      107             0.0000000000
     12374       107  SAPC      H10R           -7.3615927612       -0.5587588487       -7.6126872846  MEMB      107             0.0000000000
     12375       107  SAPC      H10S           -6.2097081499       -1.8046212226       -7.4888159694  MEMB      107             0.0000000000
     12376       107  SAPC      C211           -8.1359121296       -2.4963623704       -6.8990484176  MEMB      107             0.0000000000
     12377       107  SAPC      H11R           -7.6812494847       -3.4761264404       -6.6908565657  MEMB      107             0.0000000000
     12378       107  SAPC      C212           -9.1831097523       -2.0425189006       -6.1737787543  MEMB      107             0.0000000000
     12379       107  SAPC      H12R           -9.8053286755       -2.6957688637       -5.5444076184  MEMB      107             0.0000000000
     12380       107  SAPC      C213           -9.6504702199       -0.6147534378       -6.1094642191  MEMB      107             0.0000000000
     12381       107  SAPC      H13R           -8.7839888123        0.0792405943       -6.0658417745  MEMB      107             0.0000000000
     12382       107  SAPC      H13S          -10.1646390257       -0.4555907748       -5.1375487907  MEMB      107             0.0000000000
     12383       107  SAPC      C214          -10.4740144385       -0.1250291689       -7.2281944996  MEMB      107             0.0000000000
     12384       107  SAPC      H14R           -9.9815881890        0.3498844534       -8.0895733706  MEMB      107             0.0000000000
     12385       107  SAPC      C215          -11.8490168532       -0.0898176398       -7.3382374484  MEMB      107             0.0000000000
     12386       107  SAPC      H15R          -12.2732224152        0.3427442684       -8.2563547108  MEMB      107             0.0000000000
     12387       107  SAPC      C216          -12.9683075401       -0.5399169860       -6.4987155383  MEMB      107             0.0000000000
     12388       107  SAPC      H16R          -12.7763830498       -1.5536507356       -6.0866109404  MEMB      107             0.0000000000
     12389       107  SAPC      H16S          -13.9167246323       -0.4024031968       -7.0607793548  MEMB      107             0.0000000000
     12390       107  SAPC      C217          -12.9856988961        0.2931244024       -5.2200314425  MEMB      107             0.0000000000
     12391       107  SAPC      H17R          -12.9684276849        1.3645366678       -5.5134558280  MEMB      107             0.0000000000
     12392       107  SAPC      H17S          -12.0827113783        0.1713857067       -4.5843313207  MEMB      107             0.0000000000
     12393       107  SAPC      C218          -14.2124996391        0.1337279272       -4.2400366915  MEMB      107             0.0000000000
     12394       107  SAPC      H18R          -15.1024956202        0.2774876087       -4.8893135041  MEMB      107             0.0000000000
     12395       107  SAPC      H18S          -14.1986570482        0.9813941107       -3.5219895097  MEMB      107             0.0000000000
     12396       107  SAPC      C219          -14.3539767023       -1.2337466560       -3.6567244964  MEMB      107             0.0000000000
     12397       107  SAPC      H19R          -13.5438069822       -1.5118959304       -2.9492085629  MEMB      107             0.0000000000
     12398       107  SAPC      H19S          -14.3694450546       -1.9158348242       -4.5335572785  MEMB      107             0.0000000000
     12399       107  SAPC      C220          -15.6193394530       -1.5470207808       -2.9313098322  MEMB      107             0.0000000000
     12400       107  SAPC      H20R          -16.4552799960       -0.8845047587       -3.2421112331  MEMB      107             0.0000000000
     12401       107  SAPC      H20S          -15.5729256101       -1.1447916160       -1.8967191484  MEMB      107             0.0000000000
     12402       107  SAPC      H20T          -15.9433562887       -2.6095767800       -2.9137405413  MEMB      107             0.0000000000
     12403       107  SAPC      C33           -10.5378404825       -4.8702811805      -11.4285779451  MEMB      107             0.0000000000
     12404       107  SAPC      H3X           -10.4306256252       -5.9563852734      -11.2207223318  MEMB      107             0.0000000000
     12405       107  SAPC      H3Y           -11.5546878689       -4.6403360467      -11.8125935536  MEMB      107             0.0000000000
     12406       107  SAPC      C34           -10.3849370876       -4.1278810112      -10.0677520719  MEMB      107             0.0000000000
     12407       107  SAPC      H4X           -10.9256693040       -3.1598802058       -9.9977218235  MEMB      107             0.0000000000
     12408       107  SAPC      H4Y            -9.3209826165       -3.8994977480       -9.8437815089  MEMB      107             0.0000000000
     12409       107  SAPC      C35           -10.9759676004       -4.9889844383       -8.9129099754  MEMB      107             0.0000000000
     12410       107  SAPC      H5X           -10.6499137980       -4.6204058674       -7.9168379940  MEMB      107             0.0000000000
     12411       107  SAPC      H5Y           -10.5135009733       -5.9949353778       -9.0051503729  MEMB      107             0.0000000000
     12412       107  SAPC      C36           -12.4753666206       -5.1751276127       -8.9560288126  MEMB      107             0.0000000000
     12413       107  SAPC      H6X           -12.9298341018       -5.2754522938       -9.9648468543  MEMB      107             0.0000000000
     12414       107  SAPC      H6Y           -12.9377929376       -4.2160579099       -8.6387465947  MEMB      107             0.0000000000
     12415       107  SAPC      C37           -12.9484752804       -6.3870741474       -8.1812296827  MEMB      107             0.0000000000
     12416       107  SAPC      H7X           -12.6140672059       -7.3025866569       -8.7144552330  MEMB      107             0.0000000000
     12417       107  SAPC      H7Y           -14.0484568624       -6.4358991889       -8.0329813784  MEMB      107             0.0000000000
     12418       107  SAPC      C38           -12.3835218624       -6.5480115662       -6.8120558485  MEMB      107             0.0000000000
     12419       107  SAPC      H8X           -11.3008954758       -6.3161049475       -6.7200752629  MEMB      107             0.0000000000
     12420       107  SAPC      H8Y           -12.5883545203       -7.5756096906       -6.4427223591  MEMB      107             0.0000000000
     12421       107  SAPC      C39           -13.1211024785       -5.5570532213       -5.8494032177  MEMB      107             0.0000000000
     12422       107  SAPC      H9X           -14.1942163505       -5.5410915354       -6.1366199116  MEMB      107             0.0000000000
     12423       107  SAPC      H9Y           -12.6110873977       -4.5707179788       -5.8126861254  MEMB      107             0.0000000000
     12424       107  SAPC      C310          -12.9910184581       -6.0098269830       -4.3568261393  MEMB      107             0.0000000000
     12425       107  SAPC      H10X          -11.8981347768       -6.1467694394       -4.2113165406  MEMB      107             0.0000000000
     12426       107  SAPC      H10Y          -13.3945812792       -7.0421307872       -4.2806221741  MEMB      107             0.0000000000
     12427       107  SAPC      C311          -13.5995732655       -5.0826980182       -3.2982400426  MEMB      107             0.0000000000
     12428       107  SAPC      H11X          -14.6488665760       -4.8593914463       -3.5870976063  MEMB      107             0.0000000000
     12429       107  SAPC      H11Y          -12.9925838183       -4.1524360145       -3.3205445022  MEMB      107             0.0000000000
     12430       107  SAPC      C312          -13.5026097850       -5.6973532078       -1.9086865194  MEMB      107             0.0000000000
     12431       107  SAPC      H12X          -13.9817160164       -6.6845447199       -2.0825590682  MEMB      107             0.0000000000
     12432       107  SAPC      H12Y          -14.1707514405       -5.1727867331       -1.1926293705  MEMB      107             0.0000000000
     12433       107  SAPC      C313          -12.1431460156       -5.8715018354       -1.2371114922  MEMB      107             0.0000000000
     12434       107  SAPC      H13X          -11.4070047015       -6.5375597767       -1.7358944625  MEMB      107             0.0000000000
     12435       107  SAPC      H13Y          -12.4283198953       -6.5091485390       -0.3731659141  MEMB      107             0.0000000000
     12436       107  SAPC      C314          -11.4673475735       -4.5455889514       -0.7629099430  MEMB      107             0.0000000000
     12437       107  SAPC      H14X          -11.0945163972       -4.5798761359        0.2831021037  MEMB      107             0.0000000000
     12438       107  SAPC      H14Y          -12.2238252011       -3.7384574043       -0.8658705211  MEMB      107             0.0000000000
     12439       107  SAPC      C315          -10.3990589136       -4.2142621774       -1.8626693400  MEMB      107             0.0000000000
     12440       107  SAPC      H15X          -10.1397661798       -3.1344523251       -1.8295192881  MEMB      107             0.0000000000
     12441       107  SAPC      H15Y          -10.7891105975       -4.3940815526       -2.8872899514  MEMB      107             0.0000000000
     12442       107  SAPC      C316           -9.0798455515       -4.9751791479       -1.8044947794  MEMB      107             0.0000000000
     12443       107  SAPC      H16X           -9.2058879816       -6.0645127617       -1.9827826885  MEMB      107             0.0000000000
     12444       107  SAPC      H16Y           -8.7334987237       -4.7774919567       -0.7675350582  MEMB      107             0.0000000000
     12445       107  SAPC      C317           -7.9925772965       -4.5487030284       -2.7477527866  MEMB      107             0.0000000000
     12446       107  SAPC      H17X           -8.4481173545       -4.5335496393       -3.7609518388  MEMB      107             0.0000000000
     12447       107  SAPC      H17Y           -7.1179707580       -5.2296946402       -2.8228159084  MEMB      107             0.0000000000
     12448       107  SAPC      C318           -7.5674456714       -3.1525934486       -2.4200868474  MEMB      107             0.0000000000
     12449       107  SAPC      H18X           -7.2743237613       -3.1312222716       -1.3486662735  MEMB      107             0.0000000000
     12450       107  SAPC      H18Y           -8.3630118076       -2.3801885349       -2.3509081018  MEMB      107             0.0000000000
     12451       107  SAPC      H18Z           -6.7998174775       -2.7615772004       -3.1216387749  MEMB      107             0.0000000000
     12452       108  OSM       N              -7.4393499471       -8.9878148768      -22.5969296750  MEMB      108             0.0000000000
     12453       108  OSM       C15            -7.1428797754       -8.2915626115      -23.8916581076  MEMB      108             0.0000000000
     12454       108  OSM       H15A           -6.5877182442       -7.4155279559      -23.5903958244  MEMB      108             0.0000000000
     12455       108  OSM       H15B           -8.0434231391       -8.1137465043      -24.4606952662  MEMB      108             0.0000000000
     12456       108  OSM       H15C           -6.4722066810       -8.8262107634      -24.5479728046  MEMB      108             0.0000000000
     12457       108  OSM       C14            -6.0932719877       -9.1586431857      -21.9919760164  MEMB      108             0.0000000000
     12458       108  OSM       H14A           -5.7184241427       -8.2109656997      -21.6344894301  MEMB      108             0.0000000000
     12459       108  OSM       H14B           -5.3824658229       -9.5981538302      -22.6760702927  MEMB      108             0.0000000000
     12460       108  OSM       H14C           -6.2248540710       -9.8950687121      -21.2130256311  MEMB      108             0.0000000000
     12461       108  OSM       C13            -8.2760187842       -8.1773052776      -21.7110627287  MEMB      108             0.0000000000
     12462       108  OSM       H13A           -7.8878767015       -7.1797459750      -21.5674625030  MEMB      108             0.0000000000
     12463       108  OSM       H13B           -8.4415297552       -8.6609141836      -20.7596803577  MEMB      108             0.0000000000
     12464       108  OSM       H13C           -9.2367722381       -8.1816558052      -22.2043515157  MEMB      108             0.0000000000
     12465       108  OSM       C12            -7.9965412289      -10.3428424886      -22.8705094781  MEMB      108             0.0000000000
     12466       108  OSM       H12A           -7.3180784838      -10.9542572637      -23.4469296612  MEMB      108             0.0000000000
     12467       108  OSM       H12B           -8.9722587760      -10.2545814936      -23.3250260262  MEMB      108             0.0000000000
     12468       108  OSM       C11            -8.3040959384      -11.2625475288      -21.6191125629  MEMB      108             0.0000000000
     12469       108  OSM       H11A           -7.3511491478      -11.4208315879      -21.0703325462  MEMB      108             0.0000000000
     12470       108  OSM       H11B           -8.6821316714      -12.2343115514      -22.0026287172  MEMB      108             0.0000000000
     12471       108  OSM       P              -9.2438866686      -10.9116990503      -19.2378809310  MEMB      108             0.0000000000
     12472       108  OSM       O13           -10.1974296433      -10.0411151452      -18.6027664857  MEMB      108             0.0000000000
     12473       108  OSM       O14            -9.3947298957      -12.3585422858      -18.9318636862  MEMB      108             0.0000000000
     12474       108  OSM       O11            -7.8033758321      -10.4081800436      -18.8101314806  MEMB      108             0.0000000000
     12475       108  OSM       O12            -9.2675809153      -10.6953231019      -20.7361088455  MEMB      108             0.0000000000
     12476       108  OSM       C1S            -6.9790353819      -11.3197875729      -18.0623149104  MEMB      108             0.0000000000
     12477       108  OSM       H1S            -6.0050169021      -11.3880351930      -18.5923632962  MEMB      108             0.0000000000
     12478       108  OSM       H1T            -7.3151631125      -12.3770156391      -18.1223809308  MEMB      108             0.0000000000
     12479       108  OSM       NF             -7.8231101465      -11.1224886373      -15.6786359872  MEMB      108             0.0000000000
     12480       108  OSM       HNF            -8.2295711872      -10.3220249065      -15.2449815819  MEMB      108             0.0000000000
     12481       108  OSM       C2S            -6.7458239815      -10.8963017583      -16.6043255907  MEMB      108             0.0000000000
     12482       108  OSM       H2S            -5.9074745265      -11.5252536396      -16.2356650601  MEMB      108             0.0000000000
     12483       108  OSM       C3S            -6.3955039057       -9.3683205219      -16.6266480595  MEMB      108             0.0000000000
     12484       108  OSM       H3S            -7.2755471432       -8.8315618954      -17.0410573560  MEMB      108             0.0000000000
     12485       108  OSM       O3             -5.3797101651       -9.0661417433      -17.4824618487  MEMB      108             0.0000000000
     12486       108  OSM       HO3            -5.0966447920       -9.9232858853      -17.8092304829  MEMB      108             0.0000000000
     12487       108  OSM       C4S            -5.9557970324       -8.9618690195      -15.1695595615  MEMB      108             0.0000000000
     12488       108  OSM       H4S            -6.5382259284       -8.1694998223      -14.6766827141  MEMB      108             0.0000000000
     12489       108  OSM       C5S            -4.8830412158       -9.4358455744      -14.5574916675  MEMB      108             0.0000000000
     12490       108  OSM       H5S            -4.3895055267      -10.2612733764      -15.0914312941  MEMB      108             0.0000000000
     12491       108  OSM       C6S            -4.3978004138       -9.0874641009      -13.1696162017  MEMB      108             0.0000000000
     12492       108  OSM       H6S            -3.7720270791       -8.1701736405      -13.2057712886  MEMB      108             0.0000000000
     12493       108  OSM       H6T            -3.6584034702       -9.8160826261      -12.7737274087  MEMB      108             0.0000000000
     12494       108  OSM       C7S            -5.4900692699       -8.9502282188      -12.0556705669  MEMB      108             0.0000000000
     12495       108  OSM       H7S            -6.2889510015       -8.2735791735      -12.4274979739  MEMB      108             0.0000000000
     12496       108  OSM       H7T            -4.9843150647       -8.5582842909      -11.1474232909  MEMB      108             0.0000000000
     12497       108  OSM       C8S            -6.1455507903      -10.3445893759      -11.8425520455  MEMB      108             0.0000000000
     12498       108  OSM       H8S            -5.8020191657      -10.8054126528      -10.8917898302  MEMB      108             0.0000000000
     12499       108  OSM       H8T            -5.7591925498      -11.0786492454      -12.5816082542  MEMB      108             0.0000000000
     12500       108  OSM       C9S            -7.6470396967      -10.2775312632      -11.9522920315  MEMB      108             0.0000000000
     12501       108  OSM       H9S            -7.9496751611      -11.2626532420      -11.5372406587  MEMB      108             0.0000000000
     12502       108  OSM       H9T            -7.7868256351      -10.2237455163      -13.0531497362  MEMB      108             0.0000000000
     12503       108  OSM       C10S           -8.4074718609       -9.1985462653      -11.1167481580  MEMB      108             0.0000000000
     12504       108  OSM       H10S           -9.5051722905       -9.3323652344      -11.2238323975  MEMB      108             0.0000000000
     12505       108  OSM       H10T           -8.2072372810       -8.1838560345      -11.5224957086  MEMB      108             0.0000000000
     12506       108  OSM       C11S           -7.9039401859       -9.0178756715       -9.6642273941  MEMB      108             0.0000000000
     12507       108  OSM       H11S           -7.9021779871       -7.9617722965       -9.3193166776  MEMB      108             0.0000000000
     12508       108  OSM       H11T           -6.8185204730       -9.2522614107       -9.6995585632  MEMB      108             0.0000000000
     12509       108  OSM       C12S           -8.7700544109       -9.7760635223       -8.6337044953  MEMB      108             0.0000000000
     12510       108  OSM       H12S           -8.6602994729      -10.8779852034       -8.7233887042  MEMB      108             0.0000000000
     12511       108  OSM       H12T           -9.8023658076       -9.3846542309       -8.7580140314  MEMB      108             0.0000000000
     12512       108  OSM       C13S           -8.3948444834       -9.3700497477       -7.2214992644  MEMB      108             0.0000000000
     12513       108  OSM       H13S           -8.4359602944       -8.2601253744       -7.2479230857  MEMB      108             0.0000000000
     12514       108  OSM       H13T           -7.3599276965       -9.6731491000       -6.9542941237  MEMB      108             0.0000000000
     12515       108  OSM       C14S           -9.3911466454       -9.8517621710       -6.2151687831  MEMB      108             0.0000000000
     12516       108  OSM       H14S           -9.2908515553      -10.9192315468       -5.9240138704  MEMB      108             0.0000000000
     12517       108  OSM       H14T          -10.4563981788       -9.6451183530       -6.4536198479  MEMB      108             0.0000000000
     12518       108  OSM       C15S           -9.1008474909       -9.2632975018       -4.8186748100  MEMB      108             0.0000000000
     12519       108  OSM       H15S           -8.8873566844       -8.1886828929       -5.0029174655  MEMB      108             0.0000000000
     12520       108  OSM       H15T           -8.2545515164       -9.7102624308       -4.2544707135  MEMB      108             0.0000000000
     12521       108  OSM       C16S          -10.3778689786       -9.2109387807       -3.9228994582  MEMB      108             0.0000000000
     12522       108  OSM       H16S          -11.0166076557      -10.0884138551       -4.1603270607  MEMB      108             0.0000000000
     12523       108  OSM       H16T          -10.9032161912       -8.2986263847       -4.2778887557  MEMB      108             0.0000000000
     12524       108  OSM       C17S          -10.1351258351       -9.1028645732       -2.4132641711  MEMB      108             0.0000000000
     12525       108  OSM       H17S           -9.4290438805       -8.2501406138       -2.3203641691  MEMB      108             0.0000000000
     12526       108  OSM       H17T           -9.5258784046      -10.0122947537       -2.2233266333  MEMB      108             0.0000000000
     12527       108  OSM       C18S          -11.4040809304       -8.8801891736       -1.5289167546  MEMB      108             0.0000000000
     12528       108  OSM       H18S          -11.8557492024       -7.8968592006       -1.7806674384  MEMB      108             0.0000000000
     12529       108  OSM       H18T          -11.1894033071       -8.8431894524       -0.4394822304  MEMB      108             0.0000000000
     12530       108  OSM       H18U          -12.0788744445       -9.7590750671       -1.6097513023  MEMB      108             0.0000000000
     12531       108  OSM       C1F            -8.3103572648      -12.3533529844      -15.4201762704  MEMB      108             0.0000000000
     12532       108  OSM       OF             -7.7139741494      -13.3511613395      -15.7806151020  MEMB      108             0.0000000000
     12533       108  OSM       C2F            -9.6324058677      -12.3121553157      -14.6741370512  MEMB      108             0.0000000000
     12534       108  OSM       H2F           -10.4512065721      -12.5991938117      -15.3680357744  MEMB      108             0.0000000000
     12535       108  OSM       H2G            -9.8645845295      -11.2805011503      -14.3333970957  MEMB      108             0.0000000000
     12536       108  OSM       C3F            -9.8398577221      -13.1866832821      -13.5407705463  MEMB      108             0.0000000000
     12537       108  OSM       H3F            -9.0871412315      -12.8921728662      -12.7785354570  MEMB      108             0.0000000000
     12538       108  OSM       H3G            -9.6349803660      -14.2343233626      -13.8486609850  MEMB      108             0.0000000000
     12539       108  OSM       C4F           -11.2640097609      -13.1811448214      -13.0110530756  MEMB      108             0.0000000000
     12540       108  OSM       H4F           -11.9214796851      -13.4348691674      -13.8699350442  MEMB      108             0.0000000000
     12541       108  OSM       H4G           -11.5556303574      -12.1560205517      -12.6973674457  MEMB      108             0.0000000000
     12542       108  OSM       C5F           -11.5068649501      -14.1148159188      -11.8696018045  MEMB      108             0.0000000000
     12543       108  OSM       H5F           -11.4579314133      -15.1154089933      -12.3499560176  MEMB      108             0.0000000000
     12544       108  OSM       H5G           -12.5138265986      -14.0189783182      -11.4100761553  MEMB      108             0.0000000000
     12545       108  OSM       C6F           -10.5514093638      -14.0436646961      -10.6991893942  MEMB      108             0.0000000000
     12546       108  OSM       H6F           -10.5998893421      -12.9791679804      -10.3848364321  MEMB      108             0.0000000000
     12547       108  OSM       H6G            -9.5015227295      -14.2067646401      -11.0239308855  MEMB      108             0.0000000000
     12548       108  OSM       C7F           -10.9358835262      -14.9548632700       -9.4669683097  MEMB      108             0.0000000000
     12549       108  OSM       H7F           -10.6067619278      -15.9669414234       -9.7858691771  MEMB      108             0.0000000000
     12550       108  OSM       H7G           -12.0447494593      -15.0168760207       -9.4371051384  MEMB      108             0.0000000000
     12551       108  OSM       C8F           -10.4623137991      -14.4997848399       -8.1690755445  MEMB      108             0.0000000000
     12552       108  OSM       H8F           -10.8780598171      -13.4927915991       -7.9512662540  MEMB      108             0.0000000000
     12553       108  OSM       H8G            -9.3740209225      -14.2774687933       -8.1917719397  MEMB      108             0.0000000000
     12554       108  OSM       C9F           -10.5848139728      -15.3520158292       -6.9391451058  MEMB      108             0.0000000000
     12555       108  OSM       H9F           -11.5222883088      -15.9266805053       -6.9691869165  MEMB      108             0.0000000000
     12556       108  OSM       C10F           -9.6590698314      -15.6127416942       -5.9488535176  MEMB      108             0.0000000000
     12557       108  OSM       H10F          -10.0719777409      -16.1957326947       -5.1124159727  MEMB      108             0.0000000000
     12558       108  OSM       C11F           -8.2362082205      -15.0743957403       -5.7590679961  MEMB      108             0.0000000000
     12559       108  OSM       H11F           -7.7837198426      -14.5697006433       -6.6393279213  MEMB      108             0.0000000000
     12560       108  OSM       H11G           -7.6308176580      -15.9362424719       -5.4054519131  MEMB      108             0.0000000000
     12561       108  OSM       C12F           -8.0860992995      -14.1957230097       -4.4876545877  MEMB      108             0.0000000000
     12562       108  OSM       H12F           -8.6790468551      -13.2575481401       -4.5382652010  MEMB      108             0.0000000000
     12563       108  OSM       H12G           -7.0051993387      -13.9532182876       -4.5723162191  MEMB      108             0.0000000000
     12564       108  OSM       C13F           -8.3110677693      -15.0400498661       -3.1794850788  MEMB      108             0.0000000000
     12565       108  OSM       H13F           -7.4907283074      -15.7768345901       -3.0434252775  MEMB      108             0.0000000000
     12566       108  OSM       H13G           -9.2891845274      -15.5663855935       -3.1554229810  MEMB      108             0.0000000000
     12567       108  OSM       C14F           -8.3228326673      -14.2274084199       -1.8661066694  MEMB      108             0.0000000000
     12568       108  OSM       H14F           -8.6548905603      -14.9049484487       -1.0506331942  MEMB      108             0.0000000000
     12569       108  OSM       H14G           -9.0286711630      -13.3721990488       -1.7973324336  MEMB      108             0.0000000000
     12570       108  OSM       C15F           -6.9275023817      -13.6939612928       -1.4779968816  MEMB      108             0.0000000000
     12571       108  OSM       H15F           -6.5633729789      -13.0173125684       -2.2804148498  MEMB      108             0.0000000000
     12572       108  OSM       H15G           -6.1273643104      -14.4425949081       -1.2945634854  MEMB      108             0.0000000000
     12573       108  OSM       C16F           -6.9456000865      -13.0193288774       -0.0327710344  MEMB      108             0.0000000000
     12574       108  OSM       H16F           -5.9401265071      -12.8331885415        0.4016197074  MEMB      108             0.0000000000
     12575       108  OSM       H16G           -7.5304118489      -13.6858255896        0.6366285900  MEMB      108             0.0000000000
     12576       108  OSM       C17F           -7.8193157946      -11.7313400379        0.1388778315  MEMB      108             0.0000000000
     12577       108  OSM       H17F           -7.9521778902      -11.5608903141        1.2286563247  MEMB      108             0.0000000000
     12578       108  OSM       H17G           -8.8584556355      -11.8625389417       -0.2316560283  MEMB      108             0.0000000000
     12579       108  OSM       C18F           -7.2651227602      -10.4202380628       -0.4628071922  MEMB      108             0.0000000000
     12580       108  OSM       H18F           -6.9955955342      -10.5029339169       -1.5374406877  MEMB      108             0.0000000000
     12581       108  OSM       H18G           -6.3058947856      -10.1411099335        0.0232907729  MEMB      108             0.0000000000
     12582       108  OSM       H18H           -7.9416299693       -9.5573233925       -0.2838177577  MEMB      108             0.0000000000
     12583       109  SAPI      C12            12.9880026335       10.7368904363      -24.2660947982  MEMB      109             0.0000000000
     12584       109  SAPI      H2             13.0830766042       11.8250488906      -24.0631337980  MEMB      109             0.0000000000
     12585       109  SAPI      O2             11.7280841057       10.5562519313      -24.8935767351  MEMB      109             0.0000000000
     12586       109  SAPI      HO2            11.5795360134        9.6105505834      -24.9655657511  MEMB      109             0.0000000000
     12587       109  SAPI      C13            14.0759163271       10.2370012894      -25.1496606190  MEMB      109             0.0000000000
     12588       109  SAPI      H3             15.1061630768       10.4837472071      -24.8149534692  MEMB      109             0.0000000000
     12589       109  SAPI      O3             13.9349548649       10.8739554592      -26.3912265264  MEMB      109             0.0000000000
     12590       109  SAPI      HO3            13.1203817969       10.6378715084      -26.8410429117  MEMB      109             0.0000000000
     12591       109  SAPI      C14            14.0500754518        8.7092245825      -25.2791431111  MEMB      109             0.0000000000
     12592       109  SAPI      H4             13.1122610781        8.2633504228      -25.6741387870  MEMB      109             0.0000000000
     12593       109  SAPI      O4             15.0595506811        8.1560341833      -26.1790807896  MEMB      109             0.0000000000
     12594       109  SAPI      HO4            14.6674523773        8.1491505231      -27.0553292501  MEMB      109             0.0000000000
     12595       109  SAPI      C15            14.1824190977        8.1376598660      -23.8849536188  MEMB      109             0.0000000000
     12596       109  SAPI      H5             15.1752212897        8.3396129539      -23.4290155628  MEMB      109             0.0000000000
     12597       109  SAPI      O5             14.0517654587        6.6971323114      -23.9075071965  MEMB      109             0.0000000000
     12598       109  SAPI      HO5            13.4095662665        6.4819685195      -24.5878635202  MEMB      109             0.0000000000
     12599       109  SAPI      C16            13.0429495848        8.6406816994      -22.9796605072  MEMB      109             0.0000000000
     12600       109  SAPI      H6             12.0702204795        8.3015705086      -23.3957408629  MEMB      109             0.0000000000
     12601       109  SAPI      O6             13.1288258151        8.0715991783      -21.6526412103  MEMB      109             0.0000000000
     12602       109  SAPI      HO6            12.6000649022        8.6666940943      -21.1161025551  MEMB      109             0.0000000000
     12603       109  SAPI      C11            13.0731672614       10.1743180777      -22.9155303547  MEMB      109             0.0000000000
     12604       109  SAPI      H1             14.0499921027       10.5156675896      -22.5110370656  MEMB      109             0.0000000000
     12605       109  SAPI      P              12.3249642592       11.6741308609      -20.8238819325  MEMB      109             0.0000000000
     12606       109  SAPI      O13            12.7975792030       12.9348724221      -21.4976359713  MEMB      109             0.0000000000
     12607       109  SAPI      O14            13.2569335823       10.9565892480      -19.8495695866  MEMB      109             0.0000000000
     12608       109  SAPI      O12            11.9943145139       10.6287577518      -22.0076715781  MEMB      109             0.0000000000
     12609       109  SAPI      O11            10.8430022575       11.8830301710      -20.1148921902  MEMB      109             0.0000000000
     12610       109  SAPI      C1             10.0969840437       10.7594045898      -19.7378560184  MEMB      109             0.0000000000
     12611       109  SAPI      HA              9.0691707150       10.8493072844      -20.1499703360  MEMB      109             0.0000000000
     12612       109  SAPI      HB             10.4295236960        9.7873673807      -20.1608006513  MEMB      109             0.0000000000
     12613       109  SAPI      C2              9.9911794507       10.6356067236      -18.1928843357  MEMB      109             0.0000000000
     12614       109  SAPI      HS              8.9474788620       10.6666602999      -17.8133508764  MEMB      109             0.0000000000
     12615       109  SAPI      O21            10.8717549783       11.6260212506      -17.5432043030  MEMB      109             0.0000000000
     12616       109  SAPI      C21            10.3096827557       12.8013619888      -17.1886943971  MEMB      109             0.0000000000
     12617       109  SAPI      O22             9.2099065088       13.2155153546      -17.4570742199  MEMB      109             0.0000000000
     12618       109  SAPI      C22            11.4812087827       13.6283995732      -16.5608364250  MEMB      109             0.0000000000
     12619       109  SAPI      H2R            12.3920275737       13.0514358731      -16.2928008378  MEMB      109             0.0000000000
     12620       109  SAPI      H2S            11.8793731711       14.3227432760      -17.3313379952  MEMB      109             0.0000000000
     12621       109  SAPI      C3             10.5523986881        9.1911546340      -17.7756083844  MEMB      109             0.0000000000
     12622       109  SAPI      HX             11.6243170381        9.0845658661      -18.0475474770  MEMB      109             0.0000000000
     12623       109  SAPI      HY              9.9587750032        8.4038813978      -18.2875976295  MEMB      109             0.0000000000
     12624       109  SAPI      O31            10.3487382567        8.9403505413      -16.4238705074  MEMB      109             0.0000000000
     12625       109  SAPI      C31            11.2209106714        8.0751889065      -15.8406849276  MEMB      109             0.0000000000
     12626       109  SAPI      O32            12.0315247920        7.4046511044      -16.4416149891  MEMB      109             0.0000000000
     12627       109  SAPI      C32            11.1024870272        8.1231377073      -14.2463900273  MEMB      109             0.0000000000
     12628       109  SAPI      H2X            10.8584250020        7.0604906127      -14.0329982359  MEMB      109             0.0000000000
     12629       109  SAPI      H2Y            10.2687657167        8.7581780630      -13.8776712879  MEMB      109             0.0000000000
     12630       109  SAPI      C23            10.9598187320       14.4865097179      -15.3618037070  MEMB      109             0.0000000000
     12631       109  SAPI      H3R            10.3808248884       13.8361578869      -14.6717818697  MEMB      109             0.0000000000
     12632       109  SAPI      H3S            10.3866997806       15.3173828566      -15.8260293414  MEMB      109             0.0000000000
     12633       109  SAPI      C24            12.0957662274       14.9196091305      -14.3832314185  MEMB      109             0.0000000000
     12634       109  SAPI      H4R            12.9405212659       15.2425563741      -15.0285339833  MEMB      109             0.0000000000
     12635       109  SAPI      H4S            12.4268961074       13.9939194677      -13.8657642803  MEMB      109             0.0000000000
     12636       109  SAPI      C25            11.7484259277       16.0262701280      -13.3766156619  MEMB      109             0.0000000000
     12637       109  SAPI      H5R            11.8913310939       17.0517924400      -13.7479400945  MEMB      109             0.0000000000
     12638       109  SAPI      C26            11.3672559842       15.8693019637      -12.1024922464  MEMB      109             0.0000000000
     12639       109  SAPI      H6R            11.0881477731       16.7598641016      -11.5202572704  MEMB      109             0.0000000000
     12640       109  SAPI      C27            11.2347865875       14.5212052679      -11.3982999573  MEMB      109             0.0000000000
     12641       109  SAPI      H7R            11.8929260058       14.4228249575      -10.5086394873  MEMB      109             0.0000000000
     12642       109  SAPI      H7S            11.6097151065       13.6779843553      -12.0169501067  MEMB      109             0.0000000000
     12643       109  SAPI      C28             9.8523965761       13.9068887768      -11.2268887557  MEMB      109             0.0000000000
     12644       109  SAPI      H8R             9.0927820486       14.5296896727      -11.7219694765  MEMB      109             0.0000000000
     12645       109  SAPI      C29             9.4651315254       12.7685794546      -10.5799081097  MEMB      109             0.0000000000
     12646       109  SAPI      H9R             8.3904405196       12.5720414893      -10.4517979392  MEMB      109             0.0000000000
     12647       109  SAPI      C210           10.2865166678       11.7843012268       -9.8527672194  MEMB      109             0.0000000000
     12648       109  SAPI      H10R           10.9196256310       12.5013227075       -9.2876350106  MEMB      109             0.0000000000
     12649       109  SAPI      H10S           10.9265942423       11.2848543869      -10.6111700687  MEMB      109             0.0000000000
     12650       109  SAPI      C211            9.4619393919       10.7842768177       -9.0958302757  MEMB      109             0.0000000000
     12651       109  SAPI      H11R            8.5345870872       10.5399015592       -9.6346236912  MEMB      109             0.0000000000
     12652       109  SAPI      C212            9.7380363475       10.0763674767       -7.9634406470  MEMB      109             0.0000000000
     12653       109  SAPI      H12R            8.9794558872        9.3384292666       -7.6634361991  MEMB      109             0.0000000000
     12654       109  SAPI      C213           10.9880824263       10.1475788940       -7.1119248402  MEMB      109             0.0000000000
     12655       109  SAPI      H13R           10.6295821193       10.4196068851       -6.0961496419  MEMB      109             0.0000000000
     12656       109  SAPI      H13S           11.6746635071       10.9332191542       -7.4936273673  MEMB      109             0.0000000000
     12657       109  SAPI      C214           11.6956106866        8.8019592738       -6.9826571656  MEMB      109             0.0000000000
     12658       109  SAPI      H14R           11.7508056292        8.2605632524       -7.9386089808  MEMB      109             0.0000000000
     12659       109  SAPI      C215           12.3593970206        8.3035738681       -5.8653072474  MEMB      109             0.0000000000
     12660       109  SAPI      H15R           12.8984151398        7.3451443081       -5.8948407854  MEMB      109             0.0000000000
     12661       109  SAPI      C216           12.5015377032        9.0741947775       -4.5512141502  MEMB      109             0.0000000000
     12662       109  SAPI      H16R           12.3870662356        8.3953706541       -3.6791958428  MEMB      109             0.0000000000
     12663       109  SAPI      H16S           11.8118717926        9.9450592571       -4.5678604673  MEMB      109             0.0000000000
     12664       109  SAPI      C217           13.9378185706        9.7151721526       -4.4447125792  MEMB      109             0.0000000000
     12665       109  SAPI      H17R           13.8219930970       10.4858506808       -3.6529055590  MEMB      109             0.0000000000
     12666       109  SAPI      H17S           14.2098610173       10.2588162253       -5.3746405052  MEMB      109             0.0000000000
     12667       109  SAPI      C218           15.0653680717        8.6867996298       -4.0566087859  MEMB      109             0.0000000000
     12668       109  SAPI      H18R           15.1880458305        7.9969542019       -4.9188076163  MEMB      109             0.0000000000
     12669       109  SAPI      H18S           14.5905325504        8.0607480085       -3.2711715934  MEMB      109             0.0000000000
     12670       109  SAPI      C219           16.4079143881        9.0622759061       -3.5581707199  MEMB      109             0.0000000000
     12671       109  SAPI      H19R           16.2919809122        9.6195895936       -2.6040833428  MEMB      109             0.0000000000
     12672       109  SAPI      H19S           16.9197468905        9.8022051271       -4.2099769010  MEMB      109             0.0000000000
     12673       109  SAPI      C220           17.3144253402        7.8440753488       -3.4337465649  MEMB      109             0.0000000000
     12674       109  SAPI      H20R           17.3381790923        7.3020952218       -4.4032905280  MEMB      109             0.0000000000
     12675       109  SAPI      H20S           16.8568991626        7.1452527782       -2.7011916505  MEMB      109             0.0000000000
     12676       109  SAPI      H20T           18.3851284071        8.0701210911       -3.2418611202  MEMB      109             0.0000000000
     12677       109  SAPI      C33            12.3677539971        8.3115899790      -13.3094387943  MEMB      109             0.0000000000
     12678       109  SAPI      H3X            12.8488692287        9.2736951692      -13.5872925932  MEMB      109             0.0000000000
     12679       109  SAPI      H3Y            13.0428542890        7.5627328553      -13.7761005786  MEMB      109             0.0000000000
     12680       109  SAPI      C34            12.1501731744        8.1166138001      -11.7896017730  MEMB      109             0.0000000000
     12681       109  SAPI      H4X            11.6022260898        7.1869591752      -11.5253712989  MEMB      109             0.0000000000
     12682       109  SAPI      H4Y            11.4347577171        8.9556806075      -11.6537028221  MEMB      109             0.0000000000
     12683       109  SAPI      C35            13.4346661467        8.3646204897      -10.9115643909  MEMB      109             0.0000000000
     12684       109  SAPI      H5X            13.9797630027        7.4090254774      -10.7565532348  MEMB      109             0.0000000000
     12685       109  SAPI      H5Y            13.2424513785        8.6036415276       -9.8437425477  MEMB      109             0.0000000000
     12686       109  SAPI      C36            14.4061748132        9.4476930923      -11.4339896647  MEMB      109             0.0000000000
     12687       109  SAPI      H6X            13.9989296414       10.2132435229      -12.1285427402  MEMB      109             0.0000000000
     12688       109  SAPI      H6Y            15.2048104507        9.0458747838      -12.0935681295  MEMB      109             0.0000000000
     12689       109  SAPI      C37            15.1442711661       10.3786759991      -10.4290503179  MEMB      109             0.0000000000
     12690       109  SAPI      H7X            16.0643191708       10.6787991655      -10.9747227142  MEMB      109             0.0000000000
     12691       109  SAPI      H7Y            15.5234086848        9.7006541790       -9.6347819762  MEMB      109             0.0000000000
     12692       109  SAPI      C38            14.4355092251       11.6372437572       -9.8082174169  MEMB      109             0.0000000000
     12693       109  SAPI      H8X            13.6039981044       11.3560105582       -9.1271756542  MEMB      109             0.0000000000
     12694       109  SAPI      H8Y            14.2987376782       12.3711039743      -10.6310560214  MEMB      109             0.0000000000
     12695       109  SAPI      C39            15.4665204703       12.1126161068       -8.7791387634  MEMB      109             0.0000000000
     12696       109  SAPI      H9X            16.4617661605       12.1827647109       -9.2678983439  MEMB      109             0.0000000000
     12697       109  SAPI      H9Y            15.5265306360       11.3797159274       -7.9463252820  MEMB      109             0.0000000000
     12698       109  SAPI      C310           15.1341046099       13.4484545954       -8.1632068150  MEMB      109             0.0000000000
     12699       109  SAPI      H10X           14.4015814900       13.7845732695       -8.9278993258  MEMB      109             0.0000000000
     12700       109  SAPI      H10Y           16.0469686958       14.0772243192       -8.2383625910  MEMB      109             0.0000000000
     12701       109  SAPI      C311           14.3737950259       13.3784338129       -6.7636980628  MEMB      109             0.0000000000
     12702       109  SAPI      H11X           14.8591261758       12.6117973421       -6.1225714986  MEMB      109             0.0000000000
     12703       109  SAPI      H11Y           13.3551430081       12.9495717796       -6.8765986082  MEMB      109             0.0000000000
     12704       109  SAPI      C312           14.5052681164       14.7391186471       -6.0357372224  MEMB      109             0.0000000000
     12705       109  SAPI      H12X           14.1691176251       15.5390193696       -6.7296270569  MEMB      109             0.0000000000
     12706       109  SAPI      H12Y           15.5889219953       14.9835839479       -6.0198674384  MEMB      109             0.0000000000
     12707       109  SAPI      C313           13.7163167114       14.7098219594       -4.6974913120  MEMB      109             0.0000000000
     12708       109  SAPI      H13X           12.6873204912       14.3172761129       -4.8437632781  MEMB      109             0.0000000000
     12709       109  SAPI      H13Y           13.6701354499       15.7216258337       -4.2409378721  MEMB      109             0.0000000000
     12710       109  SAPI      C314           14.4008493629       13.8765268712       -3.5249851963  MEMB      109             0.0000000000
     12711       109  SAPI      H14X           15.0740731854       14.5314622936       -2.9315637063  MEMB      109             0.0000000000
     12712       109  SAPI      H14Y           14.8910318945       13.0445681450       -4.0744276491  MEMB      109             0.0000000000
     12713       109  SAPI      C315           13.4073706123       13.2430644951       -2.5779205882  MEMB      109             0.0000000000
     12714       109  SAPI      H15X           12.9900513939       12.2985237802       -2.9878100776  MEMB      109             0.0000000000
     12715       109  SAPI      H15Y           12.5761893700       13.8683414993       -2.1874247491  MEMB      109             0.0000000000
     12716       109  SAPI      C316           14.1953228337       13.0038382507       -1.2861780558  MEMB      109             0.0000000000
     12717       109  SAPI      H16X           13.4231879490       12.9612954779       -0.4884816517  MEMB      109             0.0000000000
     12718       109  SAPI      H16Y           14.9356579146       13.7942807254       -1.0383351232  MEMB      109             0.0000000000
     12719       109  SAPI      C317           14.8201628066       11.6128858971       -1.3172157652  MEMB      109             0.0000000000
     12720       109  SAPI      H17X           15.7576822046       11.6673312304       -1.9108614927  MEMB      109             0.0000000000
     12721       109  SAPI      H17Y           14.1359615499       10.8093099173       -1.6642832567  MEMB      109             0.0000000000
     12722       109  SAPI      C318           15.1214694821       11.1298464499        0.1584344264  MEMB      109             0.0000000000
     12723       109  SAPI      H18X           14.2166486140       11.0646178818        0.7998120463  MEMB      109             0.0000000000
     12724       109  SAPI      H18Y           15.6232498821       12.0476248990        0.5328945153  MEMB      109             0.0000000000
     12725       109  SAPI      H18Z           15.7816527398       10.2649154701        0.3828755685  MEMB      109             0.0000000000
     12726       110  OSM       N              13.9731081627        4.4370258366      -22.3493801141  MEMB      110             0.0000000000
     12727       110  OSM       C15            12.8423032710        5.4303504064      -22.3080730765  MEMB      110             0.0000000000
     12728       110  OSM       H15A           12.4160273958        5.4821580521      -21.3171114845  MEMB      110             0.0000000000
     12729       110  OSM       H15B           11.9817263405        5.0869325511      -22.8629347831  MEMB      110             0.0000000000
     12730       110  OSM       H15C           13.2101210142        6.3999733707      -22.6096381081  MEMB      110             0.0000000000
     12731       110  OSM       C14            13.8526903835        3.3185862091      -21.3310599036  MEMB      110             0.0000000000
     12732       110  OSM       H14A           13.1795930359        3.6209544627      -20.5424449712  MEMB      110             0.0000000000
     12733       110  OSM       H14B           14.8564476958        3.1317909412      -20.9789535459  MEMB      110             0.0000000000
     12734       110  OSM       H14C           13.5801711660        2.3549921178      -21.7355591757  MEMB      110             0.0000000000
     12735       110  OSM       C13            14.0536241229        3.9168526875      -23.8208219727  MEMB      110             0.0000000000
     12736       110  OSM       H13A           13.2213278090        3.2321207356      -23.8902828509  MEMB      110             0.0000000000
     12737       110  OSM       H13B           15.0626990967        3.5495331487      -23.9359047534  MEMB      110             0.0000000000
     12738       110  OSM       H13C           13.8529058150        4.8106704239      -24.3928377216  MEMB      110             0.0000000000
     12739       110  OSM       C12            15.2195169300        5.3261730294      -22.0963441557  MEMB      110             0.0000000000
     12740       110  OSM       H12A           15.1018518547        5.9414085564      -21.2165486234  MEMB      110             0.0000000000
     12741       110  OSM       H12B           15.2867492813        5.9724151931      -22.9590438276  MEMB      110             0.0000000000
     12742       110  OSM       C11            16.5843475458        4.6097454804      -21.8977621513  MEMB      110             0.0000000000
     12743       110  OSM       H11A           17.3039783577        5.4497793563      -22.0016638969  MEMB      110             0.0000000000
     12744       110  OSM       H11B           16.7902329228        3.9396674782      -22.7596946795  MEMB      110             0.0000000000
     12745       110  OSM       P              17.5893824609        4.5414689104      -19.4370636003  MEMB      110             0.0000000000
     12746       110  OSM       O13            18.1335814067        3.3953581341      -18.6380554923  MEMB      110             0.0000000000
     12747       110  OSM       O14            18.5305224688        5.5569303163      -19.8473604827  MEMB      110             0.0000000000
     12748       110  OSM       O11            16.4484539872        5.2975208886      -18.6121455561  MEMB      110             0.0000000000
     12749       110  OSM       O12            16.7687389641        3.9697010278      -20.6619334970  MEMB      110             0.0000000000
     12750       110  OSM       C1S            15.0815039835        4.6305938309      -18.5275156209  MEMB      110             0.0000000000
     12751       110  OSM       H1S            15.0044951886        3.5746891582      -18.8643478952  MEMB      110             0.0000000000
     12752       110  OSM       H1T            14.3350778345        5.2557159363      -19.0626711329  MEMB      110             0.0000000000
     12753       110  OSM       NF             14.8848209794        5.8960202249      -16.3479963075  MEMB      110             0.0000000000
     12754       110  OSM       HNF            15.6809069440        5.9873708839      -15.7547754429  MEMB      110             0.0000000000
     12755       110  OSM       C2S            14.7686445811        4.6004270819      -16.9778022698  MEMB      110             0.0000000000
     12756       110  OSM       H2S            13.7207422877        4.2314933860      -16.9882911229  MEMB      110             0.0000000000
     12757       110  OSM       C3S            15.6027922863        3.5856268562      -16.2137686379  MEMB      110             0.0000000000
     12758       110  OSM       H3S            16.6664107872        3.9054997499      -16.1869739438  MEMB      110             0.0000000000
     12759       110  OSM       O3             15.7486254591        2.3845986277      -16.8766165296  MEMB      110             0.0000000000
     12760       110  OSM       HO3            15.5801957798        2.6281322403      -17.7898102365  MEMB      110             0.0000000000
     12761       110  OSM       C4S            14.9508213984        3.3219215118      -14.8641667136  MEMB      110             0.0000000000
     12762       110  OSM       H4S            14.0946170102        2.6439425300      -14.7327948432  MEMB      110             0.0000000000
     12763       110  OSM       C5S            15.4248599725        3.9312939126      -13.7301852871  MEMB      110             0.0000000000
     12764       110  OSM       H5S            16.4159403508        4.3995977713      -13.8221163660  MEMB      110             0.0000000000
     12765       110  OSM       C6S            14.7733798658        3.6748633480      -12.3931715506  MEMB      110             0.0000000000
     12766       110  OSM       H6S            15.4734669390        3.1030863789      -11.7472065408  MEMB      110             0.0000000000
     12767       110  OSM       H6T            13.9454257515        2.9348407073      -12.4275181913  MEMB      110             0.0000000000
     12768       110  OSM       C7S            14.1557395062        4.8814346531      -11.6489970747  MEMB      110             0.0000000000
     12769       110  OSM       H7S            13.2518498984        5.1942795493      -12.2141811920  MEMB      110             0.0000000000
     12770       110  OSM       H7T            14.8786560299        5.6949542032      -11.8723764560  MEMB      110             0.0000000000
     12771       110  OSM       C8S            13.8372105591        4.5492632006      -10.1901682369  MEMB      110             0.0000000000
     12772       110  OSM       H8S            13.3529772525        5.4195528383       -9.6977914259  MEMB      110             0.0000000000
     12773       110  OSM       H8T            14.7743273309        4.3569027010       -9.6252517369  MEMB      110             0.0000000000
     12774       110  OSM       C9S            12.9742154962        3.2785822606       -9.9396440464  MEMB      110             0.0000000000
     12775       110  OSM       H9S            13.4716795542        2.3910939990      -10.3859794111  MEMB      110             0.0000000000
     12776       110  OSM       H9T            11.9457617125        3.3956192831      -10.3432610251  MEMB      110             0.0000000000
     12777       110  OSM       C10S           12.8446235200        2.8414737211       -8.4279681689  MEMB      110             0.0000000000
     12778       110  OSM       H10S           13.8117976785        2.3993948293       -8.1063139055  MEMB      110             0.0000000000
     12779       110  OSM       H10T           12.1390474254        2.0064330133       -8.2300024680  MEMB      110             0.0000000000
     12780       110  OSM       C11S           12.5300681630        4.0519145576       -7.4131513465  MEMB      110             0.0000000000
     12781       110  OSM       H11S           11.4727733272        4.3649747562       -7.5489519473  MEMB      110             0.0000000000
     12782       110  OSM       H11T           13.2192869203        4.9120440460       -7.5527072464  MEMB      110             0.0000000000
     12783       110  OSM       C12S           12.4462380012        3.5317907186       -5.9141135941  MEMB      110             0.0000000000
     12784       110  OSM       H12S           13.2494628584        2.7691353468       -5.8274689290  MEMB      110             0.0000000000
     12785       110  OSM       H12T           11.4220504898        3.1081639761       -5.8372967036  MEMB      110             0.0000000000
     12786       110  OSM       C13S           12.4789580876        4.6780042273       -4.8756055893  MEMB      110             0.0000000000
     12787       110  OSM       H13S           11.4374041581        5.0381933777       -4.7350704561  MEMB      110             0.0000000000
     12788       110  OSM       H13T           13.1198107493        5.5355326712       -5.1727148462  MEMB      110             0.0000000000
     12789       110  OSM       C14S           12.9444016892        4.1006448744       -3.4861586932  MEMB      110             0.0000000000
     12790       110  OSM       H14S           13.8153271274        3.4799773003       -3.7871265329  MEMB      110             0.0000000000
     12791       110  OSM       H14T           12.2294043294        3.3872957489       -3.0233048497  MEMB      110             0.0000000000
     12792       110  OSM       C15S           13.2363794256        5.2606450712       -2.5623839043  MEMB      110             0.0000000000
     12793       110  OSM       H15S           12.4428566701        6.0266248258       -2.6962391925  MEMB      110             0.0000000000
     12794       110  OSM       H15T           14.2064845665        5.7396857467       -2.8148464903  MEMB      110             0.0000000000
     12795       110  OSM       C16S           13.3841523691        4.9058512936       -1.0220275861  MEMB      110             0.0000000000
     12796       110  OSM       H16S           14.3343467765        4.3762092847       -0.7963485461  MEMB      110             0.0000000000
     12797       110  OSM       H16T           12.5525388126        4.1922283131       -0.8390456179  MEMB      110             0.0000000000
     12798       110  OSM       C17S           13.2395368831        6.0953876984        0.0250972125  MEMB      110             0.0000000000
     12799       110  OSM       H17S           12.9642495714        5.5860873198        0.9733342510  MEMB      110             0.0000000000
     12800       110  OSM       H17T           12.4281495634        6.7994430658       -0.2582347593  MEMB      110             0.0000000000
     12801       110  OSM       C18S           14.4946244833        6.8471960484        0.2870673316  MEMB      110             0.0000000000
     12802       110  OSM       H18S           14.8106695926        7.3050299623       -0.6746119118  MEMB      110             0.0000000000
     12803       110  OSM       H18T           15.2361039900        6.1379893370        0.7131591541  MEMB      110             0.0000000000
     12804       110  OSM       H18U           14.2783078590        7.6949782279        0.9717519123  MEMB      110             0.0000000000
     12805       110  OSM       C1F            13.9439190956        6.8330670753      -16.7282017884  MEMB      110             0.0000000000
     12806       110  OSM       OF             12.9223408501        6.4865973852      -17.3514232384  MEMB      110             0.0000000000
     12807       110  OSM       C2F            14.2969502805        8.2043876270      -16.3382789859  MEMB      110             0.0000000000
     12808       110  OSM       H2F            13.5356601263        8.5979328532      -15.6312569205  MEMB      110             0.0000000000
     12809       110  OSM       H2G            14.1782402788        8.7269686021      -17.3114893637  MEMB      110             0.0000000000
     12810       110  OSM       C3F            15.7028231453        8.5761065898      -15.7745001172  MEMB      110             0.0000000000
     12811       110  OSM       H3F            15.7408350987        9.6846636934      -15.7114315592  MEMB      110             0.0000000000
     12812       110  OSM       H3G            16.5302496663        8.2986403957      -16.4620309375  MEMB      110             0.0000000000
     12813       110  OSM       C4F            16.0435111447        8.0149333173      -14.3300754189  MEMB      110             0.0000000000
     12814       110  OSM       H4F            16.2725561068        6.9313379208      -14.4177148757  MEMB      110             0.0000000000
     12815       110  OSM       H4G            15.1051890349        8.1728261431      -13.7565403808  MEMB      110             0.0000000000
     12816       110  OSM       C5F            17.1564774983        8.7234806441      -13.6033580512  MEMB      110             0.0000000000
     12817       110  OSM       H5F            16.7926419224        9.7540737075      -13.4038020458  MEMB      110             0.0000000000
     12818       110  OSM       H5G            18.1015304320        8.7028446694      -14.1871133562  MEMB      110             0.0000000000
     12819       110  OSM       C6F            17.5667816822        8.0879751812      -12.2782181384  MEMB      110             0.0000000000
     12820       110  OSM       H6F            17.9825138789        7.0774915015      -12.4792420059  MEMB      110             0.0000000000
     12821       110  OSM       H6G            16.7170191505        7.9081994917      -11.5854662991  MEMB      110             0.0000000000
     12822       110  OSM       C7F            18.6878690725        8.8285757636      -11.5553323334  MEMB      110             0.0000000000
     12823       110  OSM       H7F            18.4263292371        9.8943106756      -11.3817611645  MEMB      110             0.0000000000
     12824       110  OSM       H7G            19.5466233636        8.9845151199      -12.2427510660  MEMB      110             0.0000000000
     12825       110  OSM       C8F            19.0985075542        8.1803849877      -10.2720848155  MEMB      110             0.0000000000
     12826       110  OSM       H8F            19.9830285843        8.6274494049       -9.7700130832  MEMB      110             0.0000000000
     12827       110  OSM       H8G            19.3920899731        7.1343362288      -10.5042751608  MEMB      110             0.0000000000
     12828       110  OSM       C9F            17.9597093145        8.2754137148       -9.2871629302  MEMB      110             0.0000000000
     12829       110  OSM       H9F            17.6654914085        9.3175243319       -9.0936649849  MEMB      110             0.0000000000
     12830       110  OSM       C10F           17.2921357369        7.3280106450       -8.6494285741  MEMB      110             0.0000000000
     12831       110  OSM       H10F           16.4958835942        7.7491098511       -8.0180352104  MEMB      110             0.0000000000
     12832       110  OSM       C11F           17.5611273547        5.8102668028       -8.7934398681  MEMB      110             0.0000000000
     12833       110  OSM       H11F           18.5262071570        5.6304314331       -9.3136337171  MEMB      110             0.0000000000
     12834       110  OSM       H11G           16.7172626569        5.3201675269       -9.3244921897  MEMB      110             0.0000000000
     12835       110  OSM       C12F           17.5252269155        5.2096550862       -7.3849414735  MEMB      110             0.0000000000
     12836       110  OSM       H12F           16.6632666397        5.7525680360       -6.9415557867  MEMB      110             0.0000000000
     12837       110  OSM       H12G           18.4321571443        5.4957496882       -6.8105309488  MEMB      110             0.0000000000
     12838       110  OSM       C13F           17.2671743357        3.6985688910       -7.3468949232  MEMB      110             0.0000000000
     12839       110  OSM       H13F           18.1270389445        3.0390362553       -7.5917840710  MEMB      110             0.0000000000
     12840       110  OSM       H13G           16.4225518035        3.5087347828       -8.0432407036  MEMB      110             0.0000000000
     12841       110  OSM       C14F           16.6047572247        3.3920374591       -5.9769668294  MEMB      110             0.0000000000
     12842       110  OSM       H14F           15.9781764162        2.4899455015       -6.1441415355  MEMB      110             0.0000000000
     12843       110  OSM       H14G           15.8000916480        4.1182992581       -5.7332902910  MEMB      110             0.0000000000
     12844       110  OSM       C15F           17.5717884965        3.2544883394       -4.8039083566  MEMB      110             0.0000000000
     12845       110  OSM       H15F           18.4132774211        3.9757542418       -4.8813219889  MEMB      110             0.0000000000
     12846       110  OSM       H15G           18.1154897212        2.2877019560       -4.8674249060  MEMB      110             0.0000000000
     12847       110  OSM       C16F           16.9493460345        3.5501400097       -3.4943297096  MEMB      110             0.0000000000
     12848       110  OSM       H16F           16.0066699442        2.9632150938       -3.4596608500  MEMB      110             0.0000000000
     12849       110  OSM       H16G           16.4944801965        4.5566691740       -3.3746785607  MEMB      110             0.0000000000
     12850       110  OSM       C17F           17.8787308807        3.1088772445       -2.3195991186  MEMB      110             0.0000000000
     12851       110  OSM       H17F           18.4485277802        3.9539193133       -1.8773823101  MEMB      110             0.0000000000
     12852       110  OSM       H17G           18.6387837449        2.4268540671       -2.7571890650  MEMB      110             0.0000000000
     12853       110  OSM       C18F           17.1829348018        2.4650475265       -1.1118411018  MEMB      110             0.0000000000
     12854       110  OSM       H18F           16.8219017528        3.2704218423       -0.4370463073  MEMB      110             0.0000000000
     12855       110  OSM       H18G           17.9715069870        1.8501251331       -0.6277491442  MEMB      110             0.0000000000
     12856       110  OSM       H18H           16.3275747203        1.7947004691       -1.3427424301  MEMB      110             0.0000000000
     12857       111  POPC      N             -16.6919746814        5.5895182513      -21.0581456371  MEMB      111             0.0000000000
     12858       111  POPC      C12           -17.1175196890        4.2669378802      -20.4329390965  MEMB      111             0.0000000000
     12859       111  POPC      H12A          -16.4479981964        3.4887951969      -20.7685502906  MEMB      111             0.0000000000
     12860       111  POPC      H12B          -18.0676169872        3.9489917560      -20.8362075480  MEMB      111             0.0000000000
     12861       111  POPC      C13           -17.6307238482        6.6327902524      -20.7359255208  MEMB      111             0.0000000000
     12862       111  POPC      H13A          -17.8231284505        6.4886631800      -19.6830208821  MEMB      111             0.0000000000
     12863       111  POPC      H13B          -17.1160951810        7.5443060929      -21.0018127507  MEMB      111             0.0000000000
     12864       111  POPC      H13C          -18.5898347749        6.5307111667      -21.2218123454  MEMB      111             0.0000000000
     12865       111  POPC      C14           -15.3759527940        6.1057237557      -20.4999287461  MEMB      111             0.0000000000
     12866       111  POPC      H14A          -15.4602910062        6.2431401588      -19.4320318894  MEMB      111             0.0000000000
     12867       111  POPC      H14B          -14.5903295163        5.3811475406      -20.6554453746  MEMB      111             0.0000000000
     12868       111  POPC      H14C          -15.2218860236        7.0664198103      -20.9686786385  MEMB      111             0.0000000000
     12869       111  POPC      C15           -16.4678569660        5.4801361415      -22.5417953009  MEMB      111             0.0000000000
     12870       111  POPC      H15A          -17.3636113024        5.0733824757      -22.9874129281  MEMB      111             0.0000000000
     12871       111  POPC      H15B          -15.5365299260        5.0000554101      -22.8036203589  MEMB      111             0.0000000000
     12872       111  POPC      H15C          -16.4105259494        6.5042269919      -22.8799534249  MEMB      111             0.0000000000
     12873       111  POPC      C11           -17.1333641750        4.1217360676      -18.8912674885  MEMB      111             0.0000000000
     12874       111  POPC      H11A          -17.5003954170        3.1198211413      -18.5817913728  MEMB      111             0.0000000000
     12875       111  POPC      H11B          -17.8078043437        4.9207104145      -18.5156461239  MEMB      111             0.0000000000
     12876       111  POPC      P             -15.6304912037        4.8884570798      -16.9194834563  MEMB      111             0.0000000000
     12877       111  POPC      O13           -16.8588651595        4.7423019640      -16.1483395608  MEMB      111             0.0000000000
     12878       111  POPC      O14           -15.0904178149        6.2524088263      -17.1678885635  MEMB      111             0.0000000000
     12879       111  POPC      O12           -15.8072086188        4.1824958936      -18.4058550230  MEMB      111             0.0000000000
     12880       111  POPC      O11           -14.5221899482        3.9478864398      -16.1984316032  MEMB      111             0.0000000000
     12881       111  POPC      C1            -14.4838664967        2.6106513590      -16.5379205293  MEMB      111             0.0000000000
     12882       111  POPC      HA            -14.0591815556        2.5118070863      -17.5597783569  MEMB      111             0.0000000000
     12883       111  POPC      HB            -15.5360086649        2.2546106209      -16.5614354779  MEMB      111             0.0000000000
     12884       111  POPC      C2            -13.5189845027        1.9995806705      -15.4867775683  MEMB      111             0.0000000000
     12885       111  POPC      HS            -13.6246429571        0.8953942911      -15.4240914046  MEMB      111             0.0000000000
     12886       111  POPC      O21           -13.8374330525        2.3919478809      -14.1807257647  MEMB      111             0.0000000000
     12887       111  POPC      C21           -14.9488803338        2.0083439274      -13.6236771728  MEMB      111             0.0000000000
     12888       111  POPC      O22           -15.8431995282        1.3447248504      -14.1401545498  MEMB      111             0.0000000000
     12889       111  POPC      C22           -14.9633207125        2.5817541949      -12.1698100288  MEMB      111             0.0000000000
     12890       111  POPC      H2R           -15.9410314512        2.2929927859      -11.7281996691  MEMB      111             0.0000000000
     12891       111  POPC      H2S           -14.9859238458        3.6843254001      -12.3045216578  MEMB      111             0.0000000000
     12892       111  POPC      C3            -12.0195545052        2.3388925472      -15.7663841585  MEMB      111             0.0000000000
     12893       111  POPC      HX            -11.7857097616        2.2208968604      -16.8460668758  MEMB      111             0.0000000000
     12894       111  POPC      HY            -11.4331237562        1.7529922546      -15.0266942873  MEMB      111             0.0000000000
     12895       111  POPC      O31           -11.8783515173        3.7824876775      -15.4627110240  MEMB      111             0.0000000000
     12896       111  POPC      C31           -11.1596543787        4.0821650892      -14.3842916530  MEMB      111             0.0000000000
     12897       111  POPC      O32           -10.3818294263        3.3764982903      -13.8175376345  MEMB      111             0.0000000000
     12898       111  POPC      C32           -11.3764403445        5.5818973090      -14.0508442570  MEMB      111             0.0000000000
     12899       111  POPC      H2X           -11.3043513852        6.0206255054      -15.0690002767  MEMB      111             0.0000000000
     12900       111  POPC      H2Y           -10.5462465530        5.8410968337      -13.3595303075  MEMB      111             0.0000000000
     12901       111  POPC      C23           -13.7832222590        1.8874557100      -11.4951047778  MEMB      111             0.0000000000
     12902       111  POPC      H3R           -12.8833480185        2.1577295574      -12.0879786348  MEMB      111             0.0000000000
     12903       111  POPC      H3S           -13.8766180407        0.7849435004      -11.5954291100  MEMB      111             0.0000000000
     12904       111  POPC      C24           -13.6667656341        2.3126315793      -10.0961392517  MEMB      111             0.0000000000
     12905       111  POPC      H4R           -14.6494045566        2.3641235132       -9.5802998367  MEMB      111             0.0000000000
     12906       111  POPC      H4S           -13.2560927469        3.3449436006      -10.0968248983  MEMB      111             0.0000000000
     12907       111  POPC      C25           -12.7978460467        1.3839103830       -9.1990959122  MEMB      111             0.0000000000
     12908       111  POPC      H5R           -11.8420840782        1.2173678058       -9.7404865533  MEMB      111             0.0000000000
     12909       111  POPC      H5S           -13.3079189045        0.4056309645       -9.0682676127  MEMB      111             0.0000000000
     12910       111  POPC      C26           -12.5636629572        1.9524544720       -7.9177028266  MEMB      111             0.0000000000
     12911       111  POPC      H6R           -13.5634947073        2.0947009089       -7.4546443630  MEMB      111             0.0000000000
     12912       111  POPC      H6S           -11.9472649793        2.8767713071       -7.9212377618  MEMB      111             0.0000000000
     12913       111  POPC      C27           -11.6762071270        1.0222776625       -7.0481961563  MEMB      111             0.0000000000
     12914       111  POPC      H7R           -10.7223998640        0.9874595878       -7.6168445263  MEMB      111             0.0000000000
     12915       111  POPC      H7S           -12.0808084407       -0.0108004549       -7.1062330711  MEMB      111             0.0000000000
     12916       111  POPC      C28           -11.1934982125        1.4680607316       -5.6807042629  MEMB      111             0.0000000000
     12917       111  POPC      H8R           -10.5270780109        2.3556206148       -5.7301256208  MEMB      111             0.0000000000
     12918       111  POPC      H8S           -10.5803983482        0.6018424098       -5.3519256301  MEMB      111             0.0000000000
     12919       111  POPC      C29           -12.3165304898        1.6624229548       -4.7210424323  MEMB      111             0.0000000000
     12920       111  POPC      H91           -13.3140107741        1.8888595990       -5.1257135291  MEMB      111             0.0000000000
     12921       111  POPC      C210          -12.1339654487        1.7567999632       -3.3741857960  MEMB      111             0.0000000000
     12922       111  POPC      H101          -13.0118893183        2.0282233994       -2.7695546924  MEMB      111             0.0000000000
     12923       111  POPC      C211          -10.7940889898        1.6030566096       -2.6237424496  MEMB      111             0.0000000000
     12924       111  POPC      H11R           -9.9860861271        2.0005331883       -3.2744837841  MEMB      111             0.0000000000
     12925       111  POPC      H11S          -10.5856981120        0.5549872040       -2.3196946609  MEMB      111             0.0000000000
     12926       111  POPC      C212          -10.7395902074        2.5429669387       -1.4274589939  MEMB      111             0.0000000000
     12927       111  POPC      H12R          -11.0973554579        3.5367207647       -1.7721005277  MEMB      111             0.0000000000
     12928       111  POPC      H12S           -9.6703446041        2.5914927668       -1.1296652467  MEMB      111             0.0000000000
     12929       111  POPC      C213          -11.6375637722        2.1228786410       -0.2181743668  MEMB      111             0.0000000000
     12930       111  POPC      H13R          -11.3752254870        1.0868165817        0.0852635314  MEMB      111             0.0000000000
     12931       111  POPC      H13S          -12.7127872065        1.9957958929       -0.4673031766  MEMB      111             0.0000000000
     12932       111  POPC      C214          -11.5243794357        3.1295138319        0.9411641682  MEMB      111             0.0000000000
     12933       111  POPC      H14R          -12.4471165649        2.9283991736        1.5263398964  MEMB      111             0.0000000000
     12934       111  POPC      H14S          -11.6523668201        4.1393624985        0.4960288347  MEMB      111             0.0000000000
     12935       111  POPC      C215          -10.2002079829        3.1104605559        1.7345658551  MEMB      111             0.0000000000
     12936       111  POPC      H15R           -9.3738780838        3.5417410860        1.1300024665  MEMB      111             0.0000000000
     12937       111  POPC      H15S           -9.9030460710        2.0616861767        1.9492460011  MEMB      111             0.0000000000
     12938       111  POPC      C216          -10.2012682012        3.9438160596        3.0850667141  MEMB      111             0.0000000000
     12939       111  POPC      H16R           -9.1652494056        4.0153933354        3.4798619279  MEMB      111             0.0000000000
     12940       111  POPC      H16S          -10.6481218498        3.2622980888        3.8401675239  MEMB      111             0.0000000000
     12941       111  POPC      C217          -10.9896853804        5.2294890091        3.0694552385  MEMB      111             0.0000000000
     12942       111  POPC      H17R          -11.1010174410        5.6239839659        4.1020732731  MEMB      111             0.0000000000
     12943       111  POPC      H17S          -11.9919644824        5.0356974481        2.6310445248  MEMB      111             0.0000000000
     12944       111  POPC      C218          -10.2738697466        6.3351698785        2.3057497101  MEMB      111             0.0000000000
     12945       111  POPC      H18R          -10.8805572687        7.2650091241        2.3463729772  MEMB      111             0.0000000000
     12946       111  POPC      H18S          -10.2565364409        6.0831876707        1.2238398918  MEMB      111             0.0000000000
     12947       111  POPC      H18T           -9.2365432215        6.5731324210        2.6245737403  MEMB      111             0.0000000000
     12948       111  POPC      C33           -12.7506828770        5.6670527192      -13.3563109924  MEMB      111             0.0000000000
     12949       111  POPC      H3X           -12.7423843457        5.1672272198      -12.3641283025  MEMB      111             0.0000000000
     12950       111  POPC      H3Y           -13.4960483105        5.0655793609      -13.9193216375  MEMB      111             0.0000000000
     12951       111  POPC      C34           -13.2328529476        7.1251408926      -13.1612632099  MEMB      111             0.0000000000
     12952       111  POPC      H4X           -13.3726219638        7.6056052120      -14.1532005933  MEMB      111             0.0000000000
     12953       111  POPC      H4Y           -12.5230514716        7.7822764601      -12.6147514130  MEMB      111             0.0000000000
     12954       111  POPC      C35           -14.5944061548        7.1729932982      -12.5199505004  MEMB      111             0.0000000000
     12955       111  POPC      H5X           -15.1907157631        6.4126422856      -13.0682222774  MEMB      111             0.0000000000
     12956       111  POPC      H5Y           -14.9530965278        8.1614630134      -12.8785446425  MEMB      111             0.0000000000
     12957       111  POPC      C36           -14.6986121202        6.9294007849      -11.0822333405  MEMB      111             0.0000000000
     12958       111  POPC      H6X           -13.8505476263        7.3535265146      -10.5032467333  MEMB      111             0.0000000000
     12959       111  POPC      H6Y           -14.6398297833        5.8417734655      -10.8632987500  MEMB      111             0.0000000000
     12960       111  POPC      C37           -15.9737178436        7.4682096010      -10.4564392021  MEMB      111             0.0000000000
     12961       111  POPC      H7X           -16.7441395402        6.9334395007      -11.0520834864  MEMB      111             0.0000000000
     12962       111  POPC      H7Y           -16.1547656833        8.5551965168      -10.5978683077  MEMB      111             0.0000000000
     12963       111  POPC      C38           -16.1364704517        7.1321134950       -8.9751986556  MEMB      111             0.0000000000
     12964       111  POPC      H8X           -17.1994760076        7.1191054692       -8.6524436300  MEMB      111             0.0000000000
     12965       111  POPC      H8Y           -15.7283202769        7.8572686322       -8.2390714847  MEMB      111             0.0000000000
     12966       111  POPC      C39           -15.6580440451        5.7824693535       -8.5611208151  MEMB      111             0.0000000000
     12967       111  POPC      H9X           -14.5700781534        5.6806264548       -8.7618174562  MEMB      111             0.0000000000
     12968       111  POPC      H9Y           -16.2307381884        5.0135042902       -9.1224010735  MEMB      111             0.0000000000
     12969       111  POPC      C310          -15.9931509828        5.5433598941       -7.0172711932  MEMB      111             0.0000000000
     12970       111  POPC      H10X          -15.8500827069        4.4612185484       -6.8103345737  MEMB      111             0.0000000000
     12971       111  POPC      H10Y          -17.0300050849        5.8419537485       -6.7525136968  MEMB      111             0.0000000000
     12972       111  POPC      C311          -14.8779287641        6.1982924717       -6.1225187093  MEMB      111             0.0000000000
     12973       111  POPC      H11X          -14.8753200405        7.2890215123       -6.3337631580  MEMB      111             0.0000000000
     12974       111  POPC      H11Y          -13.9041967333        5.6954206241       -6.3049655757  MEMB      111             0.0000000000
     12975       111  POPC      C312          -15.1286481446        6.0449415695       -4.6601135588  MEMB      111             0.0000000000
     12976       111  POPC      H12X          -16.2220625239        5.9291647295       -4.5008599318  MEMB      111             0.0000000000
     12977       111  POPC      H12Y          -14.7561825969        6.9885734574       -4.2071794392  MEMB      111             0.0000000000
     12978       111  POPC      C313          -14.3690650083        4.9000263609       -3.9346627601  MEMB      111             0.0000000000
     12979       111  POPC      H13X          -13.3075670648        4.9668321729       -4.2557237634  MEMB      111             0.0000000000
     12980       111  POPC      H13Y          -14.8347929596        3.9302746490       -4.2121519716  MEMB      111             0.0000000000
     12981       111  POPC      C314          -14.2883192151        5.0976024881       -2.4506461663  MEMB      111             0.0000000000
     12982       111  POPC      H14X          -14.2115088341        6.1960383092       -2.3027965861  MEMB      111             0.0000000000
     12983       111  POPC      H14Y          -13.3833763111        4.6072958977       -2.0323182305  MEMB      111             0.0000000000
     12984       111  POPC      C315          -15.6414005066        4.6001461048       -1.8029838111  MEMB      111             0.0000000000
     12985       111  POPC      H15X          -15.7912361306        3.5239540319       -2.0346761731  MEMB      111             0.0000000000
     12986       111  POPC      H15Y          -16.4196345541        5.1106353732       -2.4096752087  MEMB      111             0.0000000000
     12987       111  POPC      C316          -15.8132641321        4.7814284175       -0.3176153778  MEMB      111             0.0000000000
     12988       111  POPC      H16X          -15.7898100516        5.8765241812       -0.1317764957  MEMB      111             0.0000000000
     12989       111  POPC      H16Y          -15.0204691699        4.3209167657        0.3098618175  MEMB      111             0.0000000000
     12990       111  POPC      H16Z          -16.7495973773        4.2417241634       -0.0600885362  MEMB      111             0.0000000000
     12991       112  SAPC      N             -11.1277994847       13.1616200430      -18.1057427383  MEMB      112             0.0000000000
     12992       112  SAPC      C12           -12.3406797322       13.7489104294      -18.7828119710  MEMB      112             0.0000000000
     12993       112  SAPC      H12A          -12.1611157175       14.7959406227      -18.5881725915  MEMB      112             0.0000000000
     12994       112  SAPC      H12B          -13.2200914333       13.3488742124      -18.3001050706  MEMB      112             0.0000000000
     12995       112  SAPC      C13           -11.2002798690       13.6315106425      -16.6450865362  MEMB      112             0.0000000000
     12996       112  SAPC      H13A          -12.2366571982       13.5271504441      -16.3597255461  MEMB      112             0.0000000000
     12997       112  SAPC      H13B          -10.4434564953       13.0544660233      -16.1345594281  MEMB      112             0.0000000000
     12998       112  SAPC      H13C          -11.0200381955       14.6872991198      -16.5064378426  MEMB      112             0.0000000000
     12999       112  SAPC      C14           -11.2217161195       11.6531072638      -18.1790725934  MEMB      112             0.0000000000
     13000       112  SAPC      H14A          -11.3021122467       11.1748925551      -19.1440840836  MEMB      112             0.0000000000
     13001       112  SAPC      H14B          -10.4638726369       11.1292572685      -17.6154644024  MEMB      112             0.0000000000
     13002       112  SAPC      H14C          -12.1704889100       11.3968439664      -17.7312340627  MEMB      112             0.0000000000
     13003       112  SAPC      C15            -9.8421855324       13.6330756166      -18.7692151936  MEMB      112             0.0000000000
     13004       112  SAPC      H15A           -9.8122676586       13.2887010506      -19.7924018973  MEMB      112             0.0000000000
     13005       112  SAPC      H15B           -9.8505160630       14.7031359681      -18.9151651176  MEMB      112             0.0000000000
     13006       112  SAPC      H15C           -8.9456993086       13.4135966019      -18.2083753593  MEMB      112             0.0000000000
     13007       112  SAPC      C11           -12.3975023024       13.6296686948      -20.3415610428  MEMB      112             0.0000000000
     13008       112  SAPC      H11A          -11.4274112272       14.0191755653      -20.7177641166  MEMB      112             0.0000000000
     13009       112  SAPC      H11B          -13.2166238140       14.2767291523      -20.7219208819  MEMB      112             0.0000000000
     13010       112  SAPC      P             -13.4562269644       11.8081791119      -21.9319923848  MEMB      112             0.0000000000
     13011       112  SAPC      O13           -13.3561844634       12.7712828449      -23.0574131309  MEMB      112             0.0000000000
     13012       112  SAPC      O14           -13.0329476427       10.4224882842      -22.0546351901  MEMB      112             0.0000000000
     13013       112  SAPC      O12           -12.5019690011       12.3683005854      -20.8418228818  MEMB      112             0.0000000000
     13014       112  SAPC      O11           -14.9357773405       11.8246424877      -21.2906463727  MEMB      112             0.0000000000
     13015       112  SAPC      C1            -15.1953873349       10.9555018129      -20.2232777369  MEMB      112             0.0000000000
     13016       112  SAPC      HA            -15.6781214021       10.0225193351      -20.5849855170  MEMB      112             0.0000000000
     13017       112  SAPC      HB            -14.3925957026       10.6835314442      -19.5050308158  MEMB      112             0.0000000000
     13018       112  SAPC      C2            -16.3015679089       11.7475483542      -19.3671935458  MEMB      112             0.0000000000
     13019       112  SAPC      HS            -17.1184096439       12.0119978530      -20.0722872235  MEMB      112             0.0000000000
     13020       112  SAPC      O21           -15.6328831276       12.8834286493      -18.6929663705  MEMB      112             0.0000000000
     13021       112  SAPC      C21           -16.3762899480       13.9627174613      -18.6857873905  MEMB      112             0.0000000000
     13022       112  SAPC      O22           -17.5094554355       14.0724781452      -19.0926453475  MEMB      112             0.0000000000
     13023       112  SAPC      C22           -15.6171291542       15.1394700228      -18.0295389676  MEMB      112             0.0000000000
     13024       112  SAPC      H2R           -14.5948848493       14.8767793491      -17.6826509770  MEMB      112             0.0000000000
     13025       112  SAPC      H2S           -15.4948383792       15.9146374592      -18.8159747980  MEMB      112             0.0000000000
     13026       112  SAPC      C3            -16.9644001149       10.8125698158      -18.3289883054  MEMB      112             0.0000000000
     13027       112  SAPC      HX            -17.4857189930        9.9844652730      -18.8550976312  MEMB      112             0.0000000000
     13028       112  SAPC      HY            -17.7150981267       11.2310247447      -17.6249506488  MEMB      112             0.0000000000
     13029       112  SAPC      O31           -15.8699340145       10.2259470500      -17.5795806501  MEMB      112             0.0000000000
     13030       112  SAPC      C31           -15.6078178443       10.7877395316      -16.3873046679  MEMB      112             0.0000000000
     13031       112  SAPC      O32           -16.2776589004       11.6686121797      -15.8628435812  MEMB      112             0.0000000000
     13032       112  SAPC      C32           -14.4606839488        9.9790513269      -15.6621184650  MEMB      112             0.0000000000
     13033       112  SAPC      H2X           -13.4439878661       10.3729506194      -15.8754107090  MEMB      112             0.0000000000
     13034       112  SAPC      H2Y           -14.5170626520        8.9724599140      -16.1289333491  MEMB      112             0.0000000000
     13035       112  SAPC      C23           -16.5297186204       15.6520826114      -16.8674716299  MEMB      112             0.0000000000
     13036       112  SAPC      H3R           -17.5307168297       15.8848616317      -17.2895350799  MEMB      112             0.0000000000
     13037       112  SAPC      H3S           -16.0786501102       16.6401309372      -16.6337656882  MEMB      112             0.0000000000
     13038       112  SAPC      C24           -16.5779931973       14.8361718216      -15.6335207754  MEMB      112             0.0000000000
     13039       112  SAPC      H4R           -15.5342554867       14.7693194942      -15.2587365495  MEMB      112             0.0000000000
     13040       112  SAPC      H4S           -17.0527891820       13.9156057810      -16.0353263475  MEMB      112             0.0000000000
     13041       112  SAPC      C25           -17.4679625062       15.5483268226      -14.5882587856  MEMB      112             0.0000000000
     13042       112  SAPC      H5R           -18.3091008755       16.1646166061      -14.9385075609  MEMB      112             0.0000000000
     13043       112  SAPC      C26           -17.1016210159       15.5958868936      -13.3098611476  MEMB      112             0.0000000000
     13044       112  SAPC      H6R           -17.8896262874       16.0563318995      -12.6958268804  MEMB      112             0.0000000000
     13045       112  SAPC      C27           -15.9415778864       14.9439049288      -12.7209769271  MEMB      112             0.0000000000
     13046       112  SAPC      H7R           -16.1099251984       15.2631464796      -11.6702318018  MEMB      112             0.0000000000
     13047       112  SAPC      H7S           -14.9730031571       15.4092340217      -13.0032047322  MEMB      112             0.0000000000
     13048       112  SAPC      C28           -15.8068832014       13.4152739387      -12.5745912853  MEMB      112             0.0000000000
     13049       112  SAPC      H8R           -14.7866905815       13.0238183545      -12.7009616590  MEMB      112             0.0000000000
     13050       112  SAPC      C29           -16.8055289180       12.5605519599      -12.1973963970  MEMB      112             0.0000000000
     13051       112  SAPC      H9R           -16.5989635986       11.4952917647      -12.0169754813  MEMB      112             0.0000000000
     13052       112  SAPC      C210          -18.2730765563       12.9782597074      -11.7970637376  MEMB      112             0.0000000000
     13053       112  SAPC      H10R          -18.9923053086       12.9225812738      -12.6420079627  MEMB      112             0.0000000000
     13054       112  SAPC      H10S          -18.2766557128       14.0675171780      -11.5783704394  MEMB      112             0.0000000000
     13055       112  SAPC      C211          -18.8051870567       12.4151722539      -10.4746277985  MEMB      112             0.0000000000
     13056       112  SAPC      H11R          -19.3515167264       11.4671337117      -10.5875279782  MEMB      112             0.0000000000
     13057       112  SAPC      C212          -18.2729300482       12.6435367588       -9.2513532661  MEMB      112             0.0000000000
     13058       112  SAPC      H12R          -18.6320727636       12.1043196862       -8.3623867937  MEMB      112             0.0000000000
     13059       112  SAPC      C213          -17.0343100467       13.4729719227       -8.9262404155  MEMB      112             0.0000000000
     13060       112  SAPC      H13R          -17.3687767865       14.1665451620       -8.1253601622  MEMB      112             0.0000000000
     13061       112  SAPC      H13S          -16.8288330661       14.0819874561       -9.8324411891  MEMB      112             0.0000000000
     13062       112  SAPC      C214          -15.7900523173       12.6156305665       -8.6613406858  MEMB      112             0.0000000000
     13063       112  SAPC      H14R          -15.1251947001       12.5359207326       -9.5340428852  MEMB      112             0.0000000000
     13064       112  SAPC      C215          -15.4230644577       11.8825333713       -7.6384095231  MEMB      112             0.0000000000
     13065       112  SAPC      H15R          -14.4824199877       11.3270105826       -7.7671823037  MEMB      112             0.0000000000
     13066       112  SAPC      C216          -16.2238971089       11.7207362569       -6.3697397061  MEMB      112             0.0000000000
     13067       112  SAPC      H16R          -15.7475954051       11.0381803698       -5.6338213876  MEMB      112             0.0000000000
     13068       112  SAPC      H16S          -17.1628969476       11.2019840547       -6.6586967849  MEMB      112             0.0000000000
     13069       112  SAPC      C217          -16.4472859315       13.0361929667       -5.5158757960  MEMB      112             0.0000000000
     13070       112  SAPC      H17R          -17.2558691874       12.8172311906       -4.7861007519  MEMB      112             0.0000000000
     13071       112  SAPC      H17S          -16.8449387175       13.8545484041       -6.1534396351  MEMB      112             0.0000000000
     13072       112  SAPC      C218          -15.1975192779       13.5754801938       -4.7742876859  MEMB      112             0.0000000000
     13073       112  SAPC      H18R          -14.4482004647       13.8204454894       -5.5571243812  MEMB      112             0.0000000000
     13074       112  SAPC      H18S          -14.7774285914       12.7575903956       -4.1506674023  MEMB      112             0.0000000000
     13075       112  SAPC      C219          -15.5526643085       14.7923516819       -3.9029142963  MEMB      112             0.0000000000
     13076       112  SAPC      H19R          -16.5330724226       15.1641698396       -4.2701632377  MEMB      112             0.0000000000
     13077       112  SAPC      H19S          -14.7688789143       15.5402155165       -4.1492883883  MEMB      112             0.0000000000
     13078       112  SAPC      C220          -15.6129432376       14.5385491315       -2.3683218548  MEMB      112             0.0000000000
     13079       112  SAPC      H20R          -15.8233003580       15.5287380573       -1.9105048787  MEMB      112             0.0000000000
     13080       112  SAPC      H20S          -14.7537890946       14.0898525378       -1.8253236723  MEMB      112             0.0000000000
     13081       112  SAPC      H20T          -16.4490927263       13.8243025966       -2.2101208560  MEMB      112             0.0000000000
     13082       112  SAPC      C33           -14.5850931942        9.8696231812      -14.1372605961  MEMB      112             0.0000000000
     13083       112  SAPC      H3X           -15.3767563686        9.1717968856      -13.7899432051  MEMB      112             0.0000000000
     13084       112  SAPC      H3Y           -14.7601479644       10.9005768773      -13.7620124027  MEMB      112             0.0000000000
     13085       112  SAPC      C34           -13.2942072378        9.3050210356      -13.6104305149  MEMB      112             0.0000000000
     13086       112  SAPC      H4X           -12.5649767617        9.9671819540      -14.1243242302  MEMB      112             0.0000000000
     13087       112  SAPC      H4Y           -13.3225072966        8.2194349920      -13.8450006349  MEMB      112             0.0000000000
     13088       112  SAPC      C35           -12.9740508410        9.4438693683      -12.1219725555  MEMB      112             0.0000000000
     13089       112  SAPC      H5X           -13.1944834251       10.4958573995      -11.8408116943  MEMB      112             0.0000000000
     13090       112  SAPC      H5Y           -11.9193041478        9.2575144622      -11.8268416267  MEMB      112             0.0000000000
     13091       112  SAPC      C36           -13.8258139755        8.5317721941      -11.2070280474  MEMB      112             0.0000000000
     13092       112  SAPC      H6X           -13.4424899195        7.4949762233      -11.3185520309  MEMB      112             0.0000000000
     13093       112  SAPC      H6Y           -14.8844780655        8.5481472334      -11.5436036777  MEMB      112             0.0000000000
     13094       112  SAPC      C37           -13.7391984454        8.9178899394       -9.7059278541  MEMB      112             0.0000000000
     13095       112  SAPC      H7X           -14.1026658772        9.9550531760       -9.5431240401  MEMB      112             0.0000000000
     13096       112  SAPC      H7Y           -12.6494870520        8.9080048801       -9.4897057018  MEMB      112             0.0000000000
     13097       112  SAPC      C38           -14.4527529472        7.8509767018       -8.7412038675  MEMB      112             0.0000000000
     13098       112  SAPC      H8X           -14.1175191875        6.8362366765       -9.0449179635  MEMB      112             0.0000000000
     13099       112  SAPC      H8Y           -15.5582749118        7.8828807023       -8.8466758017  MEMB      112             0.0000000000
     13100       112  SAPC      C39           -14.2226352789        8.1424464078       -7.2671320033  MEMB      112             0.0000000000
     13101       112  SAPC      H9X           -14.8358093109        7.5440000329       -6.5598829537  MEMB      112             0.0000000000
     13102       112  SAPC      H9Y           -14.4858664930        9.2161941373       -7.1571500921  MEMB      112             0.0000000000
     13103       112  SAPC      C310          -12.8262222280        7.8210110611       -6.7550770025  MEMB      112             0.0000000000
     13104       112  SAPC      H10X          -11.9735542650        8.3078306974       -7.2749659163  MEMB      112             0.0000000000
     13105       112  SAPC      H10Y          -12.7126291588        6.7245132788       -6.8933162373  MEMB      112             0.0000000000
     13106       112  SAPC      C311          -12.7047146302        8.2787534164       -5.1848052223  MEMB      112             0.0000000000
     13107       112  SAPC      H11X          -11.7239641115        7.9356835486       -4.7914195310  MEMB      112             0.0000000000
     13108       112  SAPC      H11Y          -13.5345881899        7.9742464142       -4.5118223762  MEMB      112             0.0000000000
     13109       112  SAPC      C312          -12.5391192129        9.8017163961       -5.0215930730  MEMB      112             0.0000000000
     13110       112  SAPC      H12X          -12.5117019722       10.1263008868       -3.9594187365  MEMB      112             0.0000000000
     13111       112  SAPC      H12Y          -13.4917423445       10.2329987767       -5.3968604473  MEMB      112             0.0000000000
     13112       112  SAPC      C313          -11.3842257729       10.4291095645       -5.7040700971  MEMB      112             0.0000000000
     13113       112  SAPC      H13X          -11.4706112067       10.2055973103       -6.7889205832  MEMB      112             0.0000000000
     13114       112  SAPC      H13Y          -10.4632881413        9.8855725233       -5.4028011879  MEMB      112             0.0000000000
     13115       112  SAPC      C314          -11.1820451478       11.9949425173       -5.5542850741  MEMB      112             0.0000000000
     13116       112  SAPC      H14X          -11.9144330203       12.5586019607       -6.1709028244  MEMB      112             0.0000000000
     13117       112  SAPC      H14Y          -10.1071746128       12.1513810131       -5.7877407755  MEMB      112             0.0000000000
     13118       112  SAPC      C315          -11.3465144325       12.5397668429       -4.1052125294  MEMB      112             0.0000000000
     13119       112  SAPC      H15X          -12.3638522378       12.2272261304       -3.7863668713  MEMB      112             0.0000000000
     13120       112  SAPC      H15Y          -11.3052999962       13.6491170834       -4.1495317638  MEMB      112             0.0000000000
     13121       112  SAPC      C316          -10.3116936652       12.0652582939       -3.0666531157  MEMB      112             0.0000000000
     13122       112  SAPC      H16X           -9.3539050627       12.2969607409       -3.5797570196  MEMB      112             0.0000000000
     13123       112  SAPC      H16Y          -10.2407798349       10.9582467018       -3.0048641842  MEMB      112             0.0000000000
     13124       112  SAPC      C317          -10.4812218760       12.6101512801       -1.6433289181  MEMB      112             0.0000000000
     13125       112  SAPC      H17X          -10.7738211184       13.6819086860       -1.6498605905  MEMB      112             0.0000000000
     13126       112  SAPC      H17Y           -9.5597708431       12.4527516961       -1.0429350246  MEMB      112             0.0000000000
     13127       112  SAPC      C318          -11.5189990088       11.8326573196       -0.9007168330  MEMB      112             0.0000000000
     13128       112  SAPC      H18X          -11.3371850088       10.7367466813       -0.8850729273  MEMB      112             0.0000000000
     13129       112  SAPC      H18Y          -12.5018784765       12.0835454116       -1.3538440202  MEMB      112             0.0000000000
     13130       112  SAPC      H18Z          -11.4455473771       12.2618089887        0.1214160297  MEMB      112             0.0000000000
     13131       113  CHL1      C3              3.7660236693      -17.2210354666      -17.3048650000  MEMB      113             0.0000000000
     13132       113  CHL1      H3              3.9238628421      -16.3421970571      -16.6437750000  MEMB      113             0.0000000000
     13133       113  CHL1      O3              3.9093174107      -16.7981645334      -18.6951350000  MEMB      113             0.0000000000
     13134       113  CHL1      H3'             4.4262072028      -15.9894491769      -18.7148650000  MEMB      113             0.0000000000
     13135       113  CHL1      C4              4.6879736793      -18.3733149936      -16.9615850000  MEMB      113             0.0000000000
     13136       113  CHL1      H4A             4.4333722283      -19.3047372637      -17.5110750000  MEMB      113             0.0000000000
     13137       113  CHL1      H4B             5.7198254543      -18.1369596853      -17.2988350000  MEMB      113             0.0000000000
     13138       113  CHL1      C5              4.6046349323      -18.7460772734      -15.4731550000  MEMB      113             0.0000000000
     13139       113  CHL1      C6              5.7322496497      -18.7254492025      -14.7066650000  MEMB      113             0.0000000000
     13140       113  CHL1      H6              6.6912753398      -18.6133147756      -15.2336350000  MEMB      113             0.0000000000
     13141       113  CHL1      C7              5.8205433225      -18.9874370821      -13.2263650000  MEMB      113             0.0000000000
     13142       113  CHL1      H7A             6.6473017523      -19.6920303208      -12.9932850000  MEMB      113             0.0000000000
     13143       113  CHL1      H7B             6.0337418837      -18.0039284566      -12.7556450000  MEMB      113             0.0000000000
     13144       113  CHL1      C8              4.4327120750      -19.6442319747      -12.7104850000  MEMB      113             0.0000000000
     13145       113  CHL1      H8              4.3716122178      -20.7018893747      -13.0450650000  MEMB      113             0.0000000000
     13146       113  CHL1      C14             4.3033624870      -19.5284382699      -11.1562350000  MEMB      113             0.0000000000
     13147       113  CHL1      H14             4.3525153869      -18.4404877897      -10.9365250000  MEMB      113             0.0000000000
     13148       113  CHL1      C15             5.4562101852      -20.1236537912      -10.2892950000  MEMB      113             0.0000000000
     13149       113  CHL1      H15A            5.6740144847      -21.1442846673      -10.6703550000  MEMB      113             0.0000000000
     13150       113  CHL1      H15B            6.4094118354      -19.5561673059      -10.3500450000  MEMB      113             0.0000000000
     13151       113  CHL1      C16             4.7957072581      -20.1764544760       -8.8849350000  MEMB      113             0.0000000000
     13152       113  CHL1      H16A            4.9814961318      -21.1739698462       -8.4324250000  MEMB      113             0.0000000000
     13153       113  CHL1      H16B            5.1750179226      -19.3070654073       -8.3064850000  MEMB      113             0.0000000000
     13154       113  CHL1      C17             3.2787339931      -19.9049055489       -9.0756050000  MEMB      113             0.0000000000
     13155       113  CHL1      H17             3.1776326028      -18.8073719030       -8.9358750000  MEMB      113             0.0000000000
     13156       113  CHL1      C13             3.0319169990      -20.0983022965      -10.5433750000  MEMB      113             0.0000000000
     13157       113  CHL1      C18             2.8176207908      -21.6298903714      -10.7723950000  MEMB      113             0.0000000000
     13158       113  CHL1      H18A            2.8474321733      -21.7883342453      -11.8716350000  MEMB      113             0.0000000000
     13159       113  CHL1      H18B            3.6684946074      -22.1453054629      -10.2777350000  MEMB      113             0.0000000000
     13160       113  CHL1      H18C            1.8189284367      -22.0104390295      -10.4688650000  MEMB      113             0.0000000000
     13161       113  CHL1      C12             1.9049360582      -19.3322618375      -11.1406750000  MEMB      113             0.0000000000
     13162       113  CHL1      H12A            0.9737365300      -19.8464208071      -10.8200050000  MEMB      113             0.0000000000
     13163       113  CHL1      H12B            2.0365043581      -18.3189839036      -10.7044650000  MEMB      113             0.0000000000
     13164       113  CHL1      C11             1.8463583192      -19.3348492287      -12.6563550000  MEMB      113             0.0000000000
     13165       113  CHL1      H11A            1.6218796586      -20.3867277178      -12.9346950000  MEMB      113             0.0000000000
     13166       113  CHL1      H11B            1.0740262571      -18.6163100726      -13.0049650000  MEMB      113             0.0000000000
     13167       113  CHL1      C9              3.1706840164      -18.9407493454      -13.3558650000  MEMB      113             0.0000000000
     13168       113  CHL1      H9              3.3993473421      -17.8931626015      -13.0649750000  MEMB      113             0.0000000000
     13169       113  CHL1      C10             3.1593675234      -19.0577705110      -14.8846250000  MEMB      113             0.0000000000
     13170       113  CHL1      C19             2.7386487789      -20.4635129988      -15.2655250000  MEMB      113             0.0000000000
     13171       113  CHL1      H19A            3.4074310604      -21.2649717685      -14.8851150000  MEMB      113             0.0000000000
     13172       113  CHL1      H19B            1.7043283124      -20.7566327543      -14.9851850000  MEMB      113             0.0000000000
     13173       113  CHL1      H19C            2.7377396635      -20.6493741796      -16.3608650000  MEMB      113             0.0000000000
     13174       113  CHL1      C1              2.1643741973      -18.0258590598      -15.4806750000  MEMB      113             0.0000000000
     13175       113  CHL1      H1A             1.1423983279      -18.3665444050      -15.2089750000  MEMB      113             0.0000000000
     13176       113  CHL1      H1B             2.3876767370      -17.1289671857      -14.8642050000  MEMB      113             0.0000000000
     13177       113  CHL1      C2              2.3393299446      -17.7206901278      -16.9953350000  MEMB      113             0.0000000000
     13178       113  CHL1      H2A             1.5556887107      -16.9741138457      -17.2460250000  MEMB      113             0.0000000000
     13179       113  CHL1      H2B             2.1579864092      -18.6396165147      -17.5928350000  MEMB      113             0.0000000000
     13180       113  CHL1      C20             2.4507835903      -20.4378956179       -7.9293950000  MEMB      113             0.0000000000
     13181       113  CHL1      H20             2.8241655742      -21.4839186310       -7.9566850000  MEMB      113             0.0000000000
     13182       113  CHL1      C21             0.9607299998      -20.5503843192       -8.1642450000  MEMB      113             0.0000000000
     13183       113  CHL1      H21A            0.6344924077      -21.2139849775       -8.9934250000  MEMB      113             0.0000000000
     13184       113  CHL1      H21B            0.4386424324      -19.5979394777       -8.3978950000  MEMB      113             0.0000000000
     13185       113  CHL1      H21C            0.3704378888      -20.9661282931       -7.3198350000  MEMB      113             0.0000000000
     13186       113  CHL1      C22             2.9303605573      -19.6799452452       -6.6340050000  MEMB      113             0.0000000000
     13187       113  CHL1      H22A            4.0193381980      -19.7849158515       -6.4405250000  MEMB      113             0.0000000000
     13188       113  CHL1      H22B            2.6504078144      -18.6053922561       -6.6698050000  MEMB      113             0.0000000000
     13189       113  CHL1      C23             2.2404049392      -20.3323540121       -5.3728250000  MEMB      113             0.0000000000
     13190       113  CHL1      H23A            1.1403711759      -20.2176937746       -5.4782150000  MEMB      113             0.0000000000
     13191       113  CHL1      H23B            2.5122639641      -21.4054181663       -5.4673950000  MEMB      113             0.0000000000
     13192       113  CHL1      C24             2.7221695793      -19.8127633640       -4.0256450000  MEMB      113             0.0000000000
     13193       113  CHL1      H24A            3.7907034044      -19.5131496887       -4.0783850000  MEMB      113             0.0000000000
     13194       113  CHL1      H24B            2.1761654440      -18.8983269359       -3.7093950000  MEMB      113             0.0000000000
     13195       113  CHL1      C25             2.6770718467      -20.8245170298       -2.8237950000  MEMB      113             0.0000000000
     13196       113  CHL1      H25             3.1782310587      -21.7800075461       -3.0887550000  MEMB      113             0.0000000000
     13197       113  CHL1      C26             3.4908010323      -20.1990389536       -1.6139450000  MEMB      113             0.0000000000
     13198       113  CHL1      H26A            2.8405892287      -19.4270572521       -1.1496250000  MEMB      113             0.0000000000
     13199       113  CHL1      H26B            3.7996060326      -21.0232814353       -0.9360150000  MEMB      113             0.0000000000
     13200       113  CHL1      H26C            4.4476982935      -19.7041344334       -1.8854950000  MEMB      113             0.0000000000
     13201       113  CHL1      C27             1.2672129339      -21.1120951829       -2.2576550000  MEMB      113             0.0000000000
     13202       113  CHL1      H27A            0.7814862504      -20.1765724723       -1.9066650000  MEMB      113             0.0000000000
     13203       113  CHL1      H27B            0.6177524613      -21.7228139114       -2.9206350000  MEMB      113             0.0000000000
     13204       113  CHL1      H27C            1.4878918593      -21.6689049975       -1.3219250000  MEMB      113             0.0000000000
     13205       114  CHL1      C3             -4.2711311343      -17.1548934210      -17.3037650000  MEMB      114             0.0000000000
     13206       114  CHL1      H3             -4.3463000731      -16.0467540851      -17.3303250000  MEMB      114             0.0000000000
     13207       114  CHL1      O3             -4.3316530257      -17.3833803790      -18.6962350000  MEMB      114             0.0000000000
     13208       114  CHL1      H3'            -3.6519696281      -16.8828102209      -19.1534750000  MEMB      114             0.0000000000
     13209       114  CHL1      C4             -2.9486336478      -17.6829290483      -16.7831450000  MEMB      114             0.0000000000
     13210       114  CHL1      H4A            -2.8099285546      -18.7618123697      -17.0091550000  MEMB      114             0.0000000000
     13211       114  CHL1      H4B            -2.1167119134      -17.1779956564      -17.3191250000  MEMB      114             0.0000000000
     13212       114  CHL1      C5             -2.8019699582      -17.4827003477      -15.3139150000  MEMB      114             0.0000000000
     13213       114  CHL1      C6             -1.7158007690      -16.8256413319      -14.8725450000  MEMB      114             0.0000000000
     13214       114  CHL1      H6             -0.9989157647      -16.4548788248      -15.6199450000  MEMB      114             0.0000000000
     13215       114  CHL1      C7             -1.4045697929      -16.6517597135      -13.4134650000  MEMB      114             0.0000000000
     13216       114  CHL1      H7A            -0.3281185076      -16.7715756457      -13.1660750000  MEMB      114             0.0000000000
     13217       114  CHL1      H7B            -1.5666061593      -15.5606446550      -13.2810650000  MEMB      114             0.0000000000
     13218       114  CHL1      C8             -2.3767404617      -17.4318212246      -12.4175050000  MEMB      114             0.0000000000
     13219       114  CHL1      H8             -2.0713627394      -18.4775826318      -12.1996450000  MEMB      114             0.0000000000
     13220       114  CHL1      C14            -2.3863288281      -16.6237515057      -11.1363650000  MEMB      114             0.0000000000
     13221       114  CHL1      H14            -2.8530444538      -15.6455525877      -11.3805150000  MEMB      114             0.0000000000
     13222       114  CHL1      C15            -1.0823349890      -16.2433317664      -10.5025150000  MEMB      114             0.0000000000
     13223       114  CHL1      H15A           -0.3861318657      -17.1086424741      -10.5319950000  MEMB      114             0.0000000000
     13224       114  CHL1      H15B           -0.7062552024      -15.3964486034      -11.1154250000  MEMB      114             0.0000000000
     13225       114  CHL1      C16            -1.5520038330      -15.8217766371       -9.0421950000  MEMB      114             0.0000000000
     13226       114  CHL1      H16A           -1.0171258814      -16.4031155478       -8.2609950000  MEMB      114             0.0000000000
     13227       114  CHL1      H16B           -1.3481512416      -14.7449653250       -8.8598750000  MEMB      114             0.0000000000
     13228       114  CHL1      C17            -3.0619254873      -16.2111976176       -8.9413650000  MEMB      114             0.0000000000
     13229       114  CHL1      H17            -3.6187979632      -15.2652079926       -9.1126050000  MEMB      114             0.0000000000
     13230       114  CHL1      C13            -3.2992453307      -17.2168979830      -10.0978450000  MEMB      114             0.0000000000
     13231       114  CHL1      C18            -2.8009385995      -18.5811491416       -9.6630250000  MEMB      114             0.0000000000
     13232       114  CHL1      H18A           -3.4503098376      -18.9942931007       -8.8618050000  MEMB      114             0.0000000000
     13233       114  CHL1      H18B           -2.8353656600      -19.3619836075      -10.4525950000  MEMB      114             0.0000000000
     13234       114  CHL1      H18C           -1.7737991800      -18.5186040583       -9.2442250000  MEMB      114             0.0000000000
     13235       114  CHL1      C12            -4.6925985978      -17.3297671231      -10.6537550000  MEMB      114             0.0000000000
     13236       114  CHL1      H12A           -5.4198316573      -17.8097628978       -9.9645150000  MEMB      114             0.0000000000
     13237       114  CHL1      H12B           -5.0736818825      -16.3174428439      -10.9073150000  MEMB      114             0.0000000000
     13238       114  CHL1      C11            -4.7993803869      -17.9862873354      -11.9757650000  MEMB      114             0.0000000000
     13239       114  CHL1      H11A           -4.5478240523      -19.0609223850      -11.8485050000  MEMB      114             0.0000000000
     13240       114  CHL1      H11B           -5.8821866781      -17.9680753027      -12.2238250000  MEMB      114             0.0000000000
     13241       114  CHL1      C9             -3.7988281434      -17.4309332980      -13.0363650000  MEMB      114             0.0000000000
     13242       114  CHL1      H9             -4.0810258312      -16.3611163363      -13.1372650000  MEMB      114             0.0000000000
     13243       114  CHL1      C10            -3.9611358388      -17.9101923575      -14.4416750000  MEMB      114             0.0000000000
     13244       114  CHL1      C19            -3.9598458408      -19.4817350462      -14.4845950000  MEMB      114             0.0000000000
     13245       114  CHL1      H19A           -3.1019805723      -19.9098680283      -13.9232750000  MEMB      114             0.0000000000
     13246       114  CHL1      H19B           -4.9484055127      -19.8951303448      -14.1910450000  MEMB      114             0.0000000000
     13247       114  CHL1      H19C           -3.8310966178      -19.7678666722      -15.5503750000  MEMB      114             0.0000000000
     13248       114  CHL1      C1             -5.2976317431      -17.4958586277      -15.0768850000  MEMB      114             0.0000000000
     13249       114  CHL1      H1A            -6.2081595305      -17.8669614934      -14.5596350000  MEMB      114             0.0000000000
     13250       114  CHL1      H1B            -5.3653099255      -16.3972384235      -14.9259750000  MEMB      114             0.0000000000
     13251       114  CHL1      C2             -5.4231376187      -17.7692310656      -16.5839850000  MEMB      114             0.0000000000
     13252       114  CHL1      H2A            -6.3485097205      -17.3876275316      -17.0660450000  MEMB      114             0.0000000000
     13253       114  CHL1      H2B            -5.2819921799      -18.8461408842      -16.8177950000  MEMB      114             0.0000000000
     13254       114  CHL1      C20            -3.4324703040      -16.6473888256       -7.4626450000  MEMB      114             0.0000000000
     13255       114  CHL1      H20            -2.7689419882      -17.4922400647       -7.1792850000  MEMB      114             0.0000000000
     13256       114  CHL1      C21            -4.8455302021      -17.2312519607       -7.2620650000  MEMB      114             0.0000000000
     13257       114  CHL1      H21A           -4.9168720862      -17.8143740611       -6.3190950000  MEMB      114             0.0000000000
     13258       114  CHL1      H21B           -5.1565065401      -17.9350488932       -8.0634850000  MEMB      114             0.0000000000
     13259       114  CHL1      H21C           -5.5394917024      -16.3665920423       -7.1905550000  MEMB      114             0.0000000000
     13260       114  CHL1      C22            -3.0900206779      -15.5141938389       -6.4463050000  MEMB      114             0.0000000000
     13261       114  CHL1      H22A           -1.9831313630      -15.4903749726       -6.5387050000  MEMB      114             0.0000000000
     13262       114  CHL1      H22B           -3.5982223373      -14.5894798907       -6.7940850000  MEMB      114             0.0000000000
     13263       114  CHL1      C23            -3.6064186342      -15.7987850370       -5.0205950000  MEMB      114             0.0000000000
     13264       114  CHL1      H23A           -4.6952284676      -15.6254494833       -5.1575350000  MEMB      114             0.0000000000
     13265       114  CHL1      H23B           -3.3604762156      -16.8557459828       -4.7825550000  MEMB      114             0.0000000000
     13266       114  CHL1      C24            -2.9079419757      -14.9877106723       -3.9955150000  MEMB      114             0.0000000000
     13267       114  CHL1      H24A           -1.8215104106      -15.1339756823       -4.1760750000  MEMB      114             0.0000000000
     13268       114  CHL1      H24B           -3.1855202989      -13.9249278253       -4.1621150000  MEMB      114             0.0000000000
     13269       114  CHL1      C25            -3.1721352091      -15.4510914081       -2.5788150000  MEMB      114             0.0000000000
     13270       114  CHL1      H25            -4.2759792932      -15.5760403088       -2.5633850000  MEMB      114             0.0000000000
     13271       114  CHL1      C26            -2.4615574142      -16.6839871691       -2.1202450000  MEMB      114             0.0000000000
     13272       114  CHL1      H26A           -2.6711910862      -17.4655529882       -2.8815150000  MEMB      114             0.0000000000
     13273       114  CHL1      H26B           -1.3610602329      -16.5873191495       -2.2380050000  MEMB      114             0.0000000000
     13274       114  CHL1      H26C           -2.7532730543      -17.0612762234       -1.1168050000  MEMB      114             0.0000000000
     13275       114  CHL1      C27            -2.6705265398      -14.1951593631       -1.7448650000  MEMB      114             0.0000000000
     13276       114  CHL1      H27A           -2.9525466536      -14.4102147733       -0.6919950000  MEMB      114             0.0000000000
     13277       114  CHL1      H27B           -1.5915273641      -14.1090600830       -1.9952050000  MEMB      114             0.0000000000
     13278       114  CHL1      H27C           -3.0631392146      -13.2551634827       -2.1882250000  MEMB      114             0.0000000000
     13279       115  CHL1      C3             -0.7230474001       17.3105733101      -17.2876400000  MEMB      115             0.0000000000
     13280       115  CHL1      H3              0.3225361724       17.0107460082      -17.0613900000  MEMB      115             0.0000000000
     13281       115  CHL1      O3             -0.9049601476       17.4795792806      -18.7123600000  MEMB      115             0.0000000000
     13282       115  CHL1      H3'            -0.6577194650       16.6916876773      -19.2019600000  MEMB      115             0.0000000000
     13283       115  CHL1      C4             -1.5829602243       16.1616143334      -16.8435400000  MEMB      115             0.0000000000
     13284       115  CHL1      H4A            -2.6183404372       16.4289397592      -17.1449200000  MEMB      115             0.0000000000
     13285       115  CHL1      H4B            -1.4447735967       15.2207975785      -17.4180800000  MEMB      115             0.0000000000
     13286       115  CHL1      C5             -1.6628715819       15.9384030830      -15.3623000000  MEMB      115             0.0000000000
     13287       115  CHL1      C6             -1.4027619991       14.7554314995      -14.7807500000  MEMB      115             0.0000000000
     13288       115  CHL1      H6             -1.2222988471       13.9095509988      -15.4603900000  MEMB      115             0.0000000000
     13289       115  CHL1      C7             -1.3995950711       14.5537569449      -13.2485200000  MEMB      115             0.0000000000
     13290       115  CHL1      H7A            -1.9554186866       13.6272284707      -12.9898400000  MEMB      115             0.0000000000
     13291       115  CHL1      H7B            -0.4092288953       14.4820429098      -12.7501900000  MEMB      115             0.0000000000
     13292       115  CHL1      C8             -2.1525651044       15.7336474078      -12.5858900000  MEMB      115             0.0000000000
     13293       115  CHL1      H8             -3.2212589819       15.5692780312      -12.8412300000  MEMB      115             0.0000000000
     13294       115  CHL1      C14            -2.0864888848       15.6009628744      -11.0483200000  MEMB      115             0.0000000000
     13295       115  CHL1      H14            -0.9882409581       15.5794715615      -10.8818000000  MEMB      115             0.0000000000
     13296       115  CHL1      C15            -2.6324331091       14.3009405113      -10.3521300000  MEMB      115             0.0000000000
     13297       115  CHL1      H15A           -3.6000282429       14.0171470730      -10.8185400000  MEMB      115             0.0000000000
     13298       115  CHL1      H15B           -1.8945825659       13.5015434990      -10.5776500000  MEMB      115             0.0000000000
     13299       115  CHL1      C16            -2.6455116440       14.6054494621       -8.8108300000  MEMB      115             0.0000000000
     13300       115  CHL1      H16A           -3.5498814655       14.2145263711       -8.2974000000  MEMB      115             0.0000000000
     13301       115  CHL1      H16B           -1.7815566172       14.0240320938       -8.4237200000  MEMB      115             0.0000000000
     13302       115  CHL1      C17            -2.4041955750       16.1117889363       -8.7099800000  MEMB      115             0.0000000000
     13303       115  CHL1      H17            -1.2948846625       16.1024321174       -8.6495200000  MEMB      115             0.0000000000
     13304       115  CHL1      C13            -2.5847457048       16.6507828246      -10.1507400000  MEMB      115             0.0000000000
     13305       115  CHL1      C18            -4.1428102926       16.8239699546      -10.4514300000  MEMB      115             0.0000000000
     13306       115  CHL1      H18A           -4.4742558821       17.7607959498       -9.9546000000  MEMB      115             0.0000000000
     13307       115  CHL1      H18B           -4.3043293935       16.8707760198      -11.5496300000  MEMB      115             0.0000000000
     13308       115  CHL1      H18C           -4.6761276922       15.8903631510      -10.1716800000  MEMB      115             0.0000000000
     13309       115  CHL1      C12            -1.8207179513       17.9269404443      -10.4666700000  MEMB      115             0.0000000000
     13310       115  CHL1      H12A           -2.2660776113       18.7341427524       -9.8466700000  MEMB      115             0.0000000000
     13311       115  CHL1      H12B           -0.7379187755       17.8217608222      -10.2412700000  MEMB      115             0.0000000000
     13312       115  CHL1      C11            -2.0066411684       18.2323444190      -12.0445900000  MEMB      115             0.0000000000
     13313       115  CHL1      H11A           -3.0680991116       18.5047526080      -12.2273900000  MEMB      115             0.0000000000
     13314       115  CHL1      H11B           -1.3754677927       19.1226686539      -12.2525600000  MEMB      115             0.0000000000
     13315       115  CHL1      C9             -1.5877085693       17.0655631792      -12.9949100000  MEMB      115             0.0000000000
     13316       115  CHL1      H9             -0.4860756371       16.9951292679      -12.8692800000  MEMB      115             0.0000000000
     13317       115  CHL1      C10            -1.9716461102       17.2780486732      -14.5563700000  MEMB      115             0.0000000000
     13318       115  CHL1      C19            -3.4607639696       17.5534448711      -14.7830600000  MEMB      115             0.0000000000
     13319       115  CHL1      H19A           -3.7415744884       18.5099115643      -14.2925100000  MEMB      115             0.0000000000
     13320       115  CHL1      H19B           -3.5531325509       17.6975618239      -15.8808000000  MEMB      115             0.0000000000
     13321       115  CHL1      H19C           -4.0689702686       16.6569344993      -14.5367700000  MEMB      115             0.0000000000
     13322       115  CHL1      C1             -1.1513300387       18.4866492560      -15.0211600000  MEMB      115             0.0000000000
     13323       115  CHL1      H1A            -1.5493075371       19.4513772438      -14.6400700000  MEMB      115             0.0000000000
     13324       115  CHL1      H1B            -0.0892012189       18.3425985986      -14.7288400000  MEMB      115             0.0000000000
     13325       115  CHL1      C2             -1.0283154788       18.5931240598      -16.5518300000  MEMB      115             0.0000000000
     13326       115  CHL1      H2A            -0.1799388606       19.2505877091      -16.8387600000  MEMB      115             0.0000000000
     13327       115  CHL1      H2B            -1.9837533831       18.9724718718      -16.9732000000  MEMB      115             0.0000000000
     13328       115  CHL1      C20            -3.0707617830       16.7956268504       -7.4943800000  MEMB      115             0.0000000000
     13329       115  CHL1      H20            -3.1256627564       17.8645461358       -7.7922200000  MEMB      115             0.0000000000
     13330       115  CHL1      C21            -2.2340467101       16.7908003647       -6.1950400000  MEMB      115             0.0000000000
     13331       115  CHL1      H21A           -1.2388981847       17.1894070632       -6.4867600000  MEMB      115             0.0000000000
     13332       115  CHL1      H21B           -2.2513961667       15.7713318334       -5.7537700000  MEMB      115             0.0000000000
     13333       115  CHL1      H21C           -2.5325718424       17.6280674045       -5.5285600000  MEMB      115             0.0000000000
     13334       115  CHL1      C22            -4.5867553272       16.4770018174       -7.1620300000  MEMB      115             0.0000000000
     13335       115  CHL1      H22A           -5.3193539143       16.7853081176       -7.9382800000  MEMB      115             0.0000000000
     13336       115  CHL1      H22B           -4.6312622317       15.3725343618       -7.0502300000  MEMB      115             0.0000000000
     13337       115  CHL1      C23            -5.0216788792       17.1716651840       -5.8529300000  MEMB      115             0.0000000000
     13338       115  CHL1      H23A           -4.4804280899       16.8818758461       -4.9269700000  MEMB      115             0.0000000000
     13339       115  CHL1      H23B           -4.7609438652       18.2479781157       -5.9416900000  MEMB      115             0.0000000000
     13340       115  CHL1      C24            -6.5015429824       16.8729550899       -5.6763900000  MEMB      115             0.0000000000
     13341       115  CHL1      H24A           -7.1046759586       17.4403379844       -6.4170900000  MEMB      115             0.0000000000
     13342       115  CHL1      H24B           -6.7514792841       15.8717531927       -6.0880400000  MEMB      115             0.0000000000
     13343       115  CHL1      C25            -7.1880976154       17.1867877178       -4.3146000000  MEMB      115             0.0000000000
     13344       115  CHL1      H25            -6.7193548352       16.5240885812       -3.5560300000  MEMB      115             0.0000000000
     13345       115  CHL1      C26            -6.8531379963       18.6772639789       -3.8882000000  MEMB      115             0.0000000000
     13346       115  CHL1      H26A           -7.2492668369       18.9278182687       -2.8809100000  MEMB      115             0.0000000000
     13347       115  CHL1      H26B           -5.7556466494       18.8499232441       -3.8833700000  MEMB      115             0.0000000000
     13348       115  CHL1      H26C           -7.4686413635       19.3153850069       -4.5577300000  MEMB      115             0.0000000000
     13349       115  CHL1      C27            -8.6935684143       17.0153987222       -4.3209000000  MEMB      115             0.0000000000
     13350       115  CHL1      H27A           -8.9148738011       15.9671055657       -4.6148900000  MEMB      115             0.0000000000
     13351       115  CHL1      H27B           -9.0374615229       17.1832701777       -3.2778900000  MEMB      115             0.0000000000
     13352       115  CHL1      H27C           -9.0798893310       17.7897683819       -5.0176300000  MEMB      115             0.0000000000
     13353       116  SAPC      N             -14.0941678026       -9.4804371837      -19.0474351207  MEMB      116             0.0000000000
     13354       116  SAPC      C12           -14.9410203156      -10.1869805507      -20.0994294309  MEMB      116             0.0000000000
     13355       116  SAPC      H12A          -14.5833339604      -11.2056025352      -20.0699396034  MEMB      116             0.0000000000
     13356       116  SAPC      H12B          -14.6219647703       -9.7752241557      -21.0455056019  MEMB      116             0.0000000000
     13357       116  SAPC      C13           -14.2581681132       -7.9757062442      -19.1704700806  MEMB      116             0.0000000000
     13358       116  SAPC      H13A          -13.9456787388       -7.5824020596      -18.2144040648  MEMB      116             0.0000000000
     13359       116  SAPC      H13B          -13.6374080392       -7.5224443117      -19.9291601871  MEMB      116             0.0000000000
     13360       116  SAPC      H13C          -15.2632024600       -7.6966068402      -19.4504870403  MEMB      116             0.0000000000
     13361       116  SAPC      C14           -14.4087083754       -9.9430429894      -17.7061663625  MEMB      116             0.0000000000
     13362       116  SAPC      H14A          -14.4464522620      -11.0199289242      -17.7789142884  MEMB      116             0.0000000000
     13363       116  SAPC      H14B          -13.6670485694       -9.6130226452      -16.9938271203  MEMB      116             0.0000000000
     13364       116  SAPC      H14C          -15.2857584658       -9.4585799650      -17.3030797487  MEMB      116             0.0000000000
     13365       116  SAPC      C15           -12.6652196572       -9.8222712375      -19.4284781193  MEMB      116             0.0000000000
     13366       116  SAPC      H15A          -12.5015870860       -9.4598298355      -20.4325998925  MEMB      116             0.0000000000
     13367       116  SAPC      H15B          -11.9167875241       -9.4160525473      -18.7642224461  MEMB      116             0.0000000000
     13368       116  SAPC      H15C          -12.4539250421      -10.8812981621      -19.4432029421  MEMB      116             0.0000000000
     13369       116  SAPC      C11           -16.5421967076      -10.1587988969      -20.0479243795  MEMB      116             0.0000000000
     13370       116  SAPC      H11A          -16.8779910581      -10.9281636960      -19.3201600066  MEMB      116             0.0000000000
     13371       116  SAPC      H11B          -16.8031643681      -10.6095756579      -21.0292588555  MEMB      116             0.0000000000
     13372       116  SAPC      P             -17.7324252897       -7.9754230509      -21.0127391908  MEMB      116             0.0000000000
     13373       116  SAPC      O13           -16.6285516504       -7.6880801281      -21.8743615983  MEMB      116             0.0000000000
     13374       116  SAPC      O14           -18.9378145387       -8.6885152718      -21.5392628843  MEMB      116             0.0000000000
     13375       116  SAPC      O12           -17.1344876723       -8.8713496465      -19.7889310650  MEMB      116             0.0000000000
     13376       116  SAPC      O11           -18.2089986711       -6.7182326944      -20.2848017864  MEMB      116             0.0000000000
     13377       116  SAPC      C1            -19.1181463168       -5.7876353435      -21.0186504518  MEMB      116             0.0000000000
     13378       116  SAPC      HA            -18.6166104995       -5.2457982013      -21.8488282122  MEMB      116             0.0000000000
     13379       116  SAPC      HB            -20.0125953899       -6.3172468544      -21.4108155985  MEMB      116             0.0000000000
     13380       116  SAPC      C2            -19.6394581416       -4.7583899235      -19.9752607244  MEMB      116             0.0000000000
     13381       116  SAPC      HS            -20.1625573107       -3.9970221293      -20.5925188392  MEMB      116             0.0000000000
     13382       116  SAPC      O21           -18.6034650524       -4.0806819340      -19.2459395044  MEMB      116             0.0000000000
     13383       116  SAPC      C21           -17.5314061150       -3.6815162079      -19.8401238151  MEMB      116             0.0000000000
     13384       116  SAPC      O22           -17.2598865587       -3.6912543661      -21.0077003530  MEMB      116             0.0000000000
     13385       116  SAPC      C22           -16.6769977312       -3.2378344547      -18.6904900309  MEMB      116             0.0000000000
     13386       116  SAPC      H2R           -15.7946585910       -2.6393208163      -19.0028685364  MEMB      116             0.0000000000
     13387       116  SAPC      H2S           -17.2540299254       -2.5498764065      -18.0362202131  MEMB      116             0.0000000000
     13388       116  SAPC      C3            -20.6380963862       -5.4345337424      -18.9358184568  MEMB      116             0.0000000000
     13389       116  SAPC      HX            -21.5350357889       -5.8190081228      -19.4668551348  MEMB      116             0.0000000000
     13390       116  SAPC      HY            -21.1363364950       -4.7023355527      -18.2650248924  MEMB      116             0.0000000000
     13391       116  SAPC      O31           -20.1342853879       -6.5473327202      -18.2536211584  MEMB      116             0.0000000000
     13392       116  SAPC      C31           -19.6337187505       -6.3361583242      -16.9681149822  MEMB      116             0.0000000000
     13393       116  SAPC      O32           -19.6421183050       -5.2970688651      -16.3672697839  MEMB      116             0.0000000000
     13394       116  SAPC      C32           -18.9950132271       -7.6679094413      -16.5047702207  MEMB      116             0.0000000000
     13395       116  SAPC      H2X           -18.3346465579       -8.0348155546      -17.3193970493  MEMB      116             0.0000000000
     13396       116  SAPC      H2Y           -19.8255247126       -8.3496661973      -16.2223175229  MEMB      116             0.0000000000
     13397       116  SAPC      C23           -16.0557429454       -4.4173789146      -17.8540287594  MEMB      116             0.0000000000
     13398       116  SAPC      H3R           -15.3590830862       -5.0588505049      -18.4349766485  MEMB      116             0.0000000000
     13399       116  SAPC      H3S           -16.9068589175       -5.0259145967      -17.4803885609  MEMB      116             0.0000000000
     13400       116  SAPC      C24           -15.2223255328       -3.8076818870      -16.6496649869  MEMB      116             0.0000000000
     13401       116  SAPC      H4R           -15.6612585457       -2.9372718340      -16.1167058537  MEMB      116             0.0000000000
     13402       116  SAPC      H4S           -14.4066106403       -3.2910577427      -17.1992370876  MEMB      116             0.0000000000
     13403       116  SAPC      C25           -14.8683864351       -4.9171617625      -15.6811524530  MEMB      116             0.0000000000
     13404       116  SAPC      H5R           -14.2640097226       -5.7515388073      -16.0665659477  MEMB      116             0.0000000000
     13405       116  SAPC      C26           -15.2097482423       -5.0071749777      -14.3570400884  MEMB      116             0.0000000000
     13406       116  SAPC      H6R           -14.9161196507       -5.9434484984      -13.8598741118  MEMB      116             0.0000000000
     13407       116  SAPC      C27           -16.0894911442       -3.9742836418      -13.5733835801  MEMB      116             0.0000000000
     13408       116  SAPC      H7R           -16.6906464463       -3.4635086032      -14.3557148334  MEMB      116             0.0000000000
     13409       116  SAPC      H7S           -15.4174541619       -3.2909690948      -13.0114507568  MEMB      116             0.0000000000
     13410       116  SAPC      C28           -17.1714277922       -4.7158016851      -12.6967192788  MEMB      116             0.0000000000
     13411       116  SAPC      H8R           -17.7394421262       -5.5386990866      -13.1551943572  MEMB      116             0.0000000000
     13412       116  SAPC      C29           -17.4417007432       -4.4980791140      -11.4148078907  MEMB      116             0.0000000000
     13413       116  SAPC      H9R           -18.1889491787       -5.1128064649      -10.8916160559  MEMB      116             0.0000000000
     13414       116  SAPC      C210          -16.6632090126       -3.4865965018      -10.6239669950  MEMB      116             0.0000000000
     13415       116  SAPC      H10R          -16.4787905154       -2.6703559382      -11.3547625515  MEMB      116             0.0000000000
     13416       116  SAPC      H10S          -15.7049861444       -3.8739829274      -10.2164598863  MEMB      116             0.0000000000
     13417       116  SAPC      C211          -17.4785804558       -2.9251450900       -9.4775604357  MEMB      116             0.0000000000
     13418       116  SAPC      H11R          -17.8143768097       -1.8951033816       -9.6679680685  MEMB      116             0.0000000000
     13419       116  SAPC      C212          -17.5204180641       -3.4790245042       -8.1736951261  MEMB      116             0.0000000000
     13420       116  SAPC      H12R          -18.3135410868       -3.0483866682       -7.5448016477  MEMB      116             0.0000000000
     13421       116  SAPC      C213          -16.7633667541       -4.6661028792       -7.7271405175  MEMB      116             0.0000000000
     13422       116  SAPC      H13R          -15.7181664167       -4.4755277759       -7.4022433474  MEMB      116             0.0000000000
     13423       116  SAPC      H13S          -16.6708907689       -5.3930013749       -8.5622383252  MEMB      116             0.0000000000
     13424       116  SAPC      C214          -17.4689583265       -5.4991023663       -6.6563552229  MEMB      116             0.0000000000
     13425       116  SAPC      H14R          -18.3497468313       -6.0380173636       -7.0355412758  MEMB      116             0.0000000000
     13426       116  SAPC      C215          -17.1386148318       -5.5956673776       -5.3741161116  MEMB      116             0.0000000000
     13427       116  SAPC      H15R          -17.8153208559       -6.1232481083       -4.6858377206  MEMB      116             0.0000000000
     13428       116  SAPC      C216          -15.9565541918       -4.8706617555       -4.7191212508  MEMB      116             0.0000000000
     13429       116  SAPC      H16R          -16.3272219443       -4.5856202796       -3.7113135879  MEMB      116             0.0000000000
     13430       116  SAPC      H16S          -15.7997472227       -3.8962465991       -5.2292659024  MEMB      116             0.0000000000
     13431       116  SAPC      C217          -14.6466894819       -5.6197096424       -4.6319279306  MEMB      116             0.0000000000
     13432       116  SAPC      H17R          -13.9353240638       -4.8682053397       -4.2275501342  MEMB      116             0.0000000000
     13433       116  SAPC      H17S          -14.2053115079       -5.8762781072       -5.6186798485  MEMB      116             0.0000000000
     13434       116  SAPC      C218          -14.5528565369       -6.9665099197       -3.8524315718  MEMB      116             0.0000000000
     13435       116  SAPC      H18R          -13.8323423884       -7.7035602708       -4.2670847576  MEMB      116             0.0000000000
     13436       116  SAPC      H18S          -15.5264906086       -7.4713111185       -4.0300087119  MEMB      116             0.0000000000
     13437       116  SAPC      C219          -14.2140125532       -6.7348295837       -2.3674817383  MEMB      116             0.0000000000
     13438       116  SAPC      H19R          -15.0286748261       -6.0735567867       -2.0022911735  MEMB      116             0.0000000000
     13439       116  SAPC      H19S          -13.2391840340       -6.2023441241       -2.3453603866  MEMB      116             0.0000000000
     13440       116  SAPC      C220          -14.2085683595       -7.9159268568       -1.3975556618  MEMB      116             0.0000000000
     13441       116  SAPC      H20R          -13.5862504859       -8.7783533326       -1.7189022642  MEMB      116             0.0000000000
     13442       116  SAPC      H20S          -15.1984759929       -8.4169883824       -1.3397554491  MEMB      116             0.0000000000
     13443       116  SAPC      H20T          -13.9745541613       -7.6686596172       -0.3400048125  MEMB      116             0.0000000000
     13444       116  SAPC      C33           -18.1057991832       -7.2993426289      -15.2603247070  MEMB      116             0.0000000000
     13445       116  SAPC      H3X           -18.7145445273       -6.6451114534      -14.6002246805  MEMB      116             0.0000000000
     13446       116  SAPC      H3Y           -17.3270771242       -6.6337307149      -15.6902939888  MEMB      116             0.0000000000
     13447       116  SAPC      C34           -17.5205418668       -8.5384617221      -14.5418506447  MEMB      116             0.0000000000
     13448       116  SAPC      H4X           -16.5765887587       -8.0717678533      -14.1876327917  MEMB      116             0.0000000000
     13449       116  SAPC      H4Y           -17.2019462103       -9.3899517373      -15.1804295285  MEMB      116             0.0000000000
     13450       116  SAPC      C35           -18.4262584572       -9.0727335386      -13.4074973723  MEMB      116             0.0000000000
     13451       116  SAPC      H5X           -18.0487629903      -10.0987280939      -13.2096246970  MEMB      116             0.0000000000
     13452       116  SAPC      H5Y           -19.4560269418       -9.2738268474      -13.7728182095  MEMB      116             0.0000000000
     13453       116  SAPC      C36           -18.4634290160       -8.2609016284      -12.1367795323  MEMB      116             0.0000000000
     13454       116  SAPC      H6X           -18.8379246209       -7.2212416488      -12.2515887281  MEMB      116             0.0000000000
     13455       116  SAPC      H6Y           -17.3968548137       -8.3608389696      -11.8422413298  MEMB      116             0.0000000000
     13456       116  SAPC      C37           -19.2377316449       -8.7363778275      -10.9442088367  MEMB      116             0.0000000000
     13457       116  SAPC      H7X           -18.9108362191       -9.7755085815      -10.7258799783  MEMB      116             0.0000000000
     13458       116  SAPC      H7Y           -20.3025709951       -8.7754394095      -11.2587122179  MEMB      116             0.0000000000
     13459       116  SAPC      C38           -19.0513248050       -7.8267347253       -9.6783871588  MEMB      116             0.0000000000
     13460       116  SAPC      H8X           -19.8918996606       -7.1008304940       -9.7069910985  MEMB      116             0.0000000000
     13461       116  SAPC      H8Y           -18.1314983917       -7.2079519779       -9.7515198697  MEMB      116             0.0000000000
     13462       116  SAPC      C39           -19.1565940577       -8.5873728961       -8.4315035167  MEMB      116             0.0000000000
     13463       116  SAPC      H9X           -19.9602332786       -9.3469147218       -8.5391187166  MEMB      116             0.0000000000
     13464       116  SAPC      H9Y           -19.5318308235       -7.9787905701       -7.5811235913  MEMB      116             0.0000000000
     13465       116  SAPC      C310          -17.7661467349       -9.2235711829       -8.0264545589  MEMB      116             0.0000000000
     13466       116  SAPC      H10X          -17.1587313370       -8.2979742533       -7.9335152306  MEMB      116             0.0000000000
     13467       116  SAPC      H10Y          -17.4240660964       -9.8544321400       -8.8745799787  MEMB      116             0.0000000000
     13468       116  SAPC      C311          -17.6808000696       -9.9851956000       -6.7649403219  MEMB      116             0.0000000000
     13469       116  SAPC      H11X          -16.5947674069      -10.1487437862       -6.5972923098  MEMB      116             0.0000000000
     13470       116  SAPC      H11Y          -18.0949429797      -11.0062461295       -6.9072854014  MEMB      116             0.0000000000
     13471       116  SAPC      C312          -18.2694728468       -9.2560170702       -5.5422147531  MEMB      116             0.0000000000
     13472       116  SAPC      H12X          -19.3768417667       -9.1667749200       -5.5326698505  MEMB      116             0.0000000000
     13473       116  SAPC      H12Y          -17.9123391427       -8.2104724322       -5.4255407268  MEMB      116             0.0000000000
     13474       116  SAPC      C313          -17.7761282940       -9.8914963800       -4.2284203065  MEMB      116             0.0000000000
     13475       116  SAPC      H13X          -16.7301784552      -10.2625881900       -4.2794134795  MEMB      116             0.0000000000
     13476       116  SAPC      H13Y          -18.3520957378      -10.8385513551       -4.1531272013  MEMB      116             0.0000000000
     13477       116  SAPC      C314          -17.7871103460       -9.1136608872       -2.9680199202  MEMB      116             0.0000000000
     13478       116  SAPC      H14X          -16.8242328215       -8.5610063770       -2.9260558734  MEMB      116             0.0000000000
     13479       116  SAPC      H14Y          -17.7156234832       -9.8520407972       -2.1409745402  MEMB      116             0.0000000000
     13480       116  SAPC      C315          -19.0126672559       -8.1971452386       -2.6511344838  MEMB      116             0.0000000000
     13481       116  SAPC      H15X          -19.9085131447       -8.8427640604       -2.5288322768  MEMB      116             0.0000000000
     13482       116  SAPC      H15Y          -19.1811157760       -7.4717822343       -3.4756311253  MEMB      116             0.0000000000
     13483       116  SAPC      C316          -18.9895560037       -7.4444199784       -1.3015987932  MEMB      116             0.0000000000
     13484       116  SAPC      H16X          -18.0927117252       -6.7886846472       -1.2999804862  MEMB      116             0.0000000000
     13485       116  SAPC      H16Y          -18.9619662029       -8.1902431839       -0.4786118481  MEMB      116             0.0000000000
     13486       116  SAPC      C317          -20.1288549957       -6.4854003866       -1.0881476372  MEMB      116             0.0000000000
     13487       116  SAPC      H17X          -20.9241009929       -7.2218310817       -0.8440697193  MEMB      116             0.0000000000
     13488       116  SAPC      H17Y          -20.4919572401       -5.8839489497       -1.9488072376  MEMB      116             0.0000000000
     13489       116  SAPC      C318          -19.8266032114       -5.5632488943        0.0940986806  MEMB      116             0.0000000000
     13490       116  SAPC      H18X          -20.0753627579       -6.1484927724        1.0051030434  MEMB      116             0.0000000000
     13491       116  SAPC      H18Y          -20.4569389371       -4.6517438372        0.1725626509  MEMB      116             0.0000000000
     13492       116  SAPC      H18Z          -18.7605195867       -5.2842624437        0.2353547053  MEMB      116             0.0000000000
     13493       117  CHL1      C3             17.2539066399       -8.2039969685      -17.2897450000  MEMB      117             0.0000000000
     13494       117  CHL1      H3             16.1608811155       -8.3311892246      -17.1366050000  MEMB      117             0.0000000000
     13495       117  CHL1      O3             17.5546248918       -8.4281084273      -18.7102550000  MEMB      117             0.0000000000
     13496       117  CHL1      H3'            16.9514152394       -7.9290275806      -19.2658150000  MEMB      117             0.0000000000
     13497       117  CHL1      C4             17.5346324066       -6.7628813489      -16.9376050000  MEMB      117             0.0000000000
     13498       117  CHL1      H4A            18.5435121928       -6.3749304135      -17.1944650000  MEMB      117             0.0000000000
     13499       117  CHL1      H4B            16.6925444710       -6.1902565950      -17.3817850000  MEMB      117             0.0000000000
     13500       117  CHL1      C5             17.3396935094       -6.5409499177      -15.4527650000  MEMB      117             0.0000000000
     13501       117  CHL1      C6             16.5835601183       -5.6392200410      -14.9145750000  MEMB      117             0.0000000000
     13502       117  CHL1      H6             15.8944924088       -5.0105900495      -15.4976850000  MEMB      117             0.0000000000
     13503       117  CHL1      C7             16.4140002021       -5.4466920759      -13.4192650000  MEMB      117             0.0000000000
     13504       117  CHL1      H7A            16.4747215538       -4.3596118105      -13.1981650000  MEMB      117             0.0000000000
     13505       117  CHL1      H7B            15.4759630774       -5.7599456901      -12.9130250000  MEMB      117             0.0000000000
     13506       117  CHL1      C8             17.5891690794       -6.0418621995      -12.5247950000  MEMB      117             0.0000000000
     13507       117  CHL1      H8             18.4767313055       -5.3998966966      -12.7103750000  MEMB      117             0.0000000000
     13508       117  CHL1      C14            17.2236325879       -5.9911209120      -11.0761350000  MEMB      117             0.0000000000
     13509       117  CHL1      H14            16.3806670094       -6.7066924522      -10.9680750000  MEMB      117             0.0000000000
     13510       117  CHL1      C15            16.6494550734       -4.6929160531      -10.3564550000  MEMB      117             0.0000000000
     13511       117  CHL1      H15A           17.3831041256       -3.8856443936      -10.5671450000  MEMB      117             0.0000000000
     13512       117  CHL1      H15B           15.6834193179       -4.2988397748      -10.7382850000  MEMB      117             0.0000000000
     13513       117  CHL1      C16            16.5934335102       -5.0112433084       -8.8480550000  MEMB      117             0.0000000000
     13514       117  CHL1      H16A           17.1075805147       -4.2089154196       -8.2768650000  MEMB      117             0.0000000000
     13515       117  CHL1      H16B           15.6233772094       -5.1643099566       -8.3285450000  MEMB      117             0.0000000000
     13516       117  CHL1      C17            17.3642121963       -6.3838277417       -8.7734150000  MEMB      117             0.0000000000
     13517       117  CHL1      H17            16.5851497865       -7.1745197314       -8.7266350000  MEMB      117             0.0000000000
     13518       117  CHL1      C13            18.1647813100       -6.5633518751      -10.1181950000  MEMB      117             0.0000000000
     13519       117  CHL1      C18            19.3711036872       -5.7147927081       -9.9513050000  MEMB      117             0.0000000000
     13520       117  CHL1      H18A           19.9209305731       -5.5798997448      -10.9072450000  MEMB      117             0.0000000000
     13521       117  CHL1      H18B           19.2365380239       -4.7175258145       -9.4804850000  MEMB      117             0.0000000000
     13522       117  CHL1      H18C           20.0864169793       -6.1506220309       -9.2214450000  MEMB      117             0.0000000000
     13523       117  CHL1      C12            18.4346194450       -8.0249269398      -10.5610050000  MEMB      117             0.0000000000
     13524       117  CHL1      H12A           19.2714769178       -8.3742767152       -9.9191850000  MEMB      117             0.0000000000
     13525       117  CHL1      H12B           17.6133454036       -8.7114061920      -10.2633750000  MEMB      117             0.0000000000
     13526       117  CHL1      C11            18.8290021659       -8.1039704719      -12.1213050000  MEMB      117             0.0000000000
     13527       117  CHL1      H11A           19.8424184814       -7.6526205523      -12.0612350000  MEMB      117             0.0000000000
     13528       117  CHL1      H11B           18.9309373650       -9.1562131130      -12.4629650000  MEMB      117             0.0000000000
     13529       117  CHL1      C9             17.9021412638       -7.4073976069      -13.0467650000  MEMB      117             0.0000000000
     13530       117  CHL1      H9             16.9119825977       -7.9109809282      -13.0641750000  MEMB      117             0.0000000000
     13531       117  CHL1      C10            18.2564255416       -7.4833023875      -14.5953250000  MEMB      117             0.0000000000
     13532       117  CHL1      C19            19.6983137125       -6.9487172037      -14.7648850000  MEMB      117             0.0000000000
     13533       117  CHL1      H19A           20.3089996368       -7.2729988812      -13.8952750000  MEMB      117             0.0000000000
     13534       117  CHL1      H19B           20.2475760334       -7.3867550227      -15.6255650000  MEMB      117             0.0000000000
     13535       117  CHL1      H19C           19.7076941408       -5.8426676107      -14.8691750000  MEMB      117             0.0000000000
     13536       117  CHL1      C1             18.0252305875       -8.9861369498      -14.9667150000  MEMB      117             0.0000000000
     13537       117  CHL1      H1A            18.7360442489       -9.6501344077      -14.4299050000  MEMB      117             0.0000000000
     13538       117  CHL1      H1B            17.0511961522       -9.4009309723      -14.6297850000  MEMB      117             0.0000000000
     13539       117  CHL1      C2             18.1723768641       -9.1258775749      -16.4854750000  MEMB      117             0.0000000000
     13540       117  CHL1      H2A            17.9331031569      -10.2080476925      -16.5628050000  MEMB      117             0.0000000000
     13541       117  CHL1      H2B            19.2497934837       -8.9609719724      -16.7006550000  MEMB      117             0.0000000000
     13542       117  CHL1      C20            18.0106487705       -6.5373985196       -7.3877250000  MEMB      117             0.0000000000
     13543       117  CHL1      H20            18.6258527917       -5.6189528274       -7.2768150000  MEMB      117             0.0000000000
     13544       117  CHL1      C21            19.0021945574       -7.6794185966       -7.1762450000  MEMB      117             0.0000000000
     13545       117  CHL1      H21A           18.4644150424       -8.6397235248       -7.0248750000  MEMB      117             0.0000000000
     13546       117  CHL1      H21B           19.6535632160       -7.5710373235       -6.2827750000  MEMB      117             0.0000000000
     13547       117  CHL1      H21C           19.7713435180       -7.8151484772       -7.9663750000  MEMB      117             0.0000000000
     13548       117  CHL1      C22            16.9796487941       -6.3772529310       -6.2597750000  MEMB      117             0.0000000000
     13549       117  CHL1      H22A           17.5473465339       -6.5147779877       -5.3147150000  MEMB      117             0.0000000000
     13550       117  CHL1      H22B           16.5901034647       -5.3388455169       -6.1942850000  MEMB      117             0.0000000000
     13551       117  CHL1      C23            15.8781476613       -7.4458108726       -6.3186450000  MEMB      117             0.0000000000
     13552       117  CHL1      H23A           15.2531324482       -7.1732019924       -7.1957750000  MEMB      117             0.0000000000
     13553       117  CHL1      H23B           16.1946950004       -8.4677554217       -6.6182150000  MEMB      117             0.0000000000
     13554       117  CHL1      C24            14.9360137331       -7.4296087641       -5.0659550000  MEMB      117             0.0000000000
     13555       117  CHL1      H24A           15.4991717259       -7.7344123968       -4.1580650000  MEMB      117             0.0000000000
     13556       117  CHL1      H24B           14.5684804166       -6.3815980279       -5.0356450000  MEMB      117             0.0000000000
     13557       117  CHL1      C25            13.7262930779       -8.2989663134       -5.1452250000  MEMB      117             0.0000000000
     13558       117  CHL1      H25            13.1572450313       -7.9666880275       -6.0396950000  MEMB      117             0.0000000000
     13559       117  CHL1      C26            14.1454918314       -9.7692207019       -5.2707750000  MEMB      117             0.0000000000
     13560       117  CHL1      H26A           13.2408259790      -10.3570270564       -5.5360750000  MEMB      117             0.0000000000
     13561       117  CHL1      H26B           14.8481619676       -9.7576266428       -6.1312650000  MEMB      117             0.0000000000
     13562       117  CHL1      H26C           14.6380252174      -10.2781765803       -4.4148050000  MEMB      117             0.0000000000
     13563       117  CHL1      C27            12.7981635601       -8.0444565401       -3.9907150000  MEMB      117             0.0000000000
     13564       117  CHL1      H27A           12.4909726744       -6.9770920176       -3.9648750000  MEMB      117             0.0000000000
     13565       117  CHL1      H27B           11.9018136874       -8.7007022274       -4.0060450000  MEMB      117             0.0000000000
     13566       117  CHL1      H27C           13.3841137714       -8.1953810366       -3.0589350000  MEMB      117             0.0000000000
     13567       118  CHL1      C3              6.9595157279       17.7248347436      -17.2833850000  MEMB      118             0.0000000000
     13568       118  CHL1      H3              6.2264483893       16.9420828431      -16.9931550000  MEMB      118             0.0000000000
     13569       118  CHL1      O3              7.3850837921       17.5918920564      -18.7166150000  MEMB      118             0.0000000000
     13570       118  CHL1      H3'             6.7087660653       18.0361690185      -19.2331650000  MEMB      118             0.0000000000
     13571       118  CHL1      C4              6.3147677490       19.0753834154      -16.9847450000  MEMB      118             0.0000000000
     13572       118  CHL1      H4A             6.9276427966       19.9454424586      -17.3036350000  MEMB      118             0.0000000000
     13573       118  CHL1      H4B             5.3888491896       19.1744501670      -17.5907050000  MEMB      118             0.0000000000
     13574       118  CHL1      C5              5.9261514343       19.2448596912      -15.4514750000  MEMB      118             0.0000000000
     13575       118  CHL1      C6              4.6961366229       19.5140089390      -14.9982250000  MEMB      118             0.0000000000
     13576       118  CHL1      H6              3.8678819029       19.5906098840      -15.7180350000  MEMB      118             0.0000000000
     13577       118  CHL1      C7              4.3716586297       19.8061383640      -13.5158150000  MEMB      118             0.0000000000
     13578       118  CHL1      H7A             3.6357795756       20.6257103613      -13.3705850000  MEMB      118             0.0000000000
     13579       118  CHL1      H7B             3.9735137609       18.9431701901      -12.9404250000  MEMB      118             0.0000000000
     13580       118  CHL1      C8              5.6096505075       20.0395648172      -12.6405550000  MEMB      118             0.0000000000
     13581       118  CHL1      H8              6.0391878467       21.0597280053      -12.7358650000  MEMB      118             0.0000000000
     13582       118  CHL1      C14             5.2589675712       19.8637442181      -11.1606350000  MEMB      118             0.0000000000
     13583       118  CHL1      H14             5.0319521451       18.7767431279      -11.1952750000  MEMB      118             0.0000000000
     13584       118  CHL1      C15             3.9706813000       20.4771730657      -10.5458350000  MEMB      118             0.0000000000
     13585       118  CHL1      H15A            3.9507692646       21.5677765128      -10.7567650000  MEMB      118             0.0000000000
     13586       118  CHL1      H15B            2.9597504467       20.1217186875      -10.8390650000  MEMB      118             0.0000000000
     13587       118  CHL1      C16             4.1567592305       20.3091218965       -9.0398650000  MEMB      118             0.0000000000
     13588       118  CHL1      H16A            4.0358181547       21.2682596712       -8.4923650000  MEMB      118             0.0000000000
     13589       118  CHL1      H16B            3.3734143810       19.5828238532       -8.7346350000  MEMB      118             0.0000000000
     13590       118  CHL1      C17             5.5594769496       19.7140291969       -8.8983750000  MEMB      118             0.0000000000
     13591       118  CHL1      H17             5.3484340153       18.6298412737       -9.0180650000  MEMB      118             0.0000000000
     13592       118  CHL1      C13             6.4126884382       20.0038732665      -10.1478250000  MEMB      118             0.0000000000
     13593       118  CHL1      C18             7.1212651455       21.3925786737      -10.2379750000  MEMB      118             0.0000000000
     13594       118  CHL1      H18A            8.0323395189       21.5084288610       -9.6128050000  MEMB      118             0.0000000000
     13595       118  CHL1      H18B            7.3794550670       21.6668590205      -11.2831650000  MEMB      118             0.0000000000
     13596       118  CHL1      H18C            6.4348661641       22.2006079326       -9.9058850000  MEMB      118             0.0000000000
     13597       118  CHL1      C12             7.4200604991       18.8527641785      -10.4871850000  MEMB      118             0.0000000000
     13598       118  CHL1      H12A            8.3542514150       18.9719698782       -9.8977850000  MEMB      118             0.0000000000
     13599       118  CHL1      H12B            7.0134173057       17.8435645932      -10.2625350000  MEMB      118             0.0000000000
     13600       118  CHL1      C11             7.8808686316       18.9443908486      -11.9241050000  MEMB      118             0.0000000000
     13601       118  CHL1      H11A            8.4846011087       19.8752848973      -11.9812550000  MEMB      118             0.0000000000
     13602       118  CHL1      H11B            8.5020729276       18.0410465840      -12.1040750000  MEMB      118             0.0000000000
     13603       118  CHL1      C9              6.6946559852       18.9496254692      -12.9600550000  MEMB      118             0.0000000000
     13604       118  CHL1      H9              6.3019995033       17.9128258043      -12.8881650000  MEMB      118             0.0000000000
     13605       118  CHL1      C10             7.0902411356       19.0467713070      -14.4724850000  MEMB      118             0.0000000000
     13606       118  CHL1      C19             7.9817301280       20.2826758463      -14.7098250000  MEMB      118             0.0000000000
     13607       118  CHL1      H19A            7.5745016817       21.2898588498      -14.4773050000  MEMB      118             0.0000000000
     13608       118  CHL1      H19B            8.9134825329       20.3028639245      -14.1050550000  MEMB      118             0.0000000000
     13609       118  CHL1      H19C            8.3009083786       20.2470840870      -15.7733950000  MEMB      118             0.0000000000
     13610       118  CHL1      C1              7.7662700361       17.7429675808      -14.8978350000  MEMB      118             0.0000000000
     13611       118  CHL1      H1A             8.6111481578       17.5892843485      -14.1929250000  MEMB      118             0.0000000000
     13612       118  CHL1      H1B             7.1586996835       16.8441689010      -14.6583950000  MEMB      118             0.0000000000
     13613       118  CHL1      C2              8.1861779901       17.4972180337      -16.3621550000  MEMB      118             0.0000000000
     13614       118  CHL1      H2A             8.6519764505       16.4903791738      -16.4223150000  MEMB      118             0.0000000000
     13615       118  CHL1      H2B             8.9316040273       18.2636158348      -16.6642950000  MEMB      118             0.0000000000
     13616       118  CHL1      C20             6.1478868301       19.9655591853       -7.4555150000  MEMB      118             0.0000000000
     13617       118  CHL1      H20             5.2825556341       19.7825005735       -6.7831950000  MEMB      118             0.0000000000
     13618       118  CHL1      C21             6.5126008115       21.4891807702       -7.2173550000  MEMB      118             0.0000000000
     13619       118  CHL1      H21A            7.4667213038       21.8911208427       -7.6203550000  MEMB      118             0.0000000000
     13620       118  CHL1      H21B            6.4228833831       21.7120631955       -6.1326450000  MEMB      118             0.0000000000
     13621       118  CHL1      H21C            5.6994727452       22.1096543156       -7.6511350000  MEMB      118             0.0000000000
     13622       118  CHL1      C22             7.2444810988       18.9965790739       -7.0037150000  MEMB      118             0.0000000000
     13623       118  CHL1      H22A            6.8544189418       17.9584891074       -7.0709650000  MEMB      118             0.0000000000
     13624       118  CHL1      H22B            7.9599450750       19.0834071825       -7.8492350000  MEMB      118             0.0000000000
     13625       118  CHL1      C23             8.0001882020       19.2858749311       -5.7041550000  MEMB      118             0.0000000000
     13626       118  CHL1      H23A            8.7360713762       18.4535718701       -5.7119750000  MEMB      118             0.0000000000
     13627       118  CHL1      H23B            8.5315616098       20.2485938362       -5.8627150000  MEMB      118             0.0000000000
     13628       118  CHL1      C24             7.1647716599       19.2308317695       -4.4163950000  MEMB      118             0.0000000000
     13629       118  CHL1      H24A            6.4729822627       20.0992786187       -4.3772050000  MEMB      118             0.0000000000
     13630       118  CHL1      H24B            6.3892015299       18.4364649467       -4.4588250000  MEMB      118             0.0000000000
     13631       118  CHL1      C25             8.0190080256       19.2475329927       -3.1155150000  MEMB      118             0.0000000000
     13632       118  CHL1      H25             8.8939880089       18.6282497669       -3.4074650000  MEMB      118             0.0000000000
     13633       118  CHL1      C26             8.5624685336       20.6364451151       -2.7404550000  MEMB      118             0.0000000000
     13634       118  CHL1      H26A            8.9741941075       21.0658256977       -3.6787750000  MEMB      118             0.0000000000
     13635       118  CHL1      H26B            7.7759635571       21.3160792859       -2.3482350000  MEMB      118             0.0000000000
     13636       118  CHL1      H26C            9.3669606398       20.4534752810       -1.9963950000  MEMB      118             0.0000000000
     13637       118  CHL1      C27             7.2427045533       18.6737986830       -1.8907450000  MEMB      118             0.0000000000
     13638       118  CHL1      H27A            6.4196580843       19.3598573166       -1.5971050000  MEMB      118             0.0000000000
     13639       118  CHL1      H27B            6.7877460274       17.7034270973       -2.1835350000  MEMB      118             0.0000000000
     13640       118  CHL1      H27C            7.8814499903       18.4819467244       -1.0021850000  MEMB      118             0.0000000000
     13641       119  CHL1      C3            -19.9862614157       -1.6825837142      -17.3053950000  MEMB      119             0.0000000000
     13642       119  CHL1      H3            -19.7655362415       -2.7286632022      -17.0031750000  MEMB      119             0.0000000000
     13643       119  CHL1      O3            -20.0463223843       -1.7137360458      -18.6946050000  MEMB      119             0.0000000000
     13644       119  CHL1      H3'           -19.5618827454       -2.5232368806      -18.8724050000  MEMB      119             0.0000000000
     13645       119  CHL1      C4            -21.2273197938       -1.0853409288      -16.6514050000  MEMB      119             0.0000000000
     13646       119  CHL1      H4A           -21.3710453093       -0.0618980605      -17.0591150000  MEMB      119             0.0000000000
     13647       119  CHL1      H4B           -22.1336947348       -1.6226660398      -17.0036650000  MEMB      119             0.0000000000
     13648       119  CHL1      C5            -21.1758378463       -0.9763682805      -15.1824650000  MEMB      119             0.0000000000
     13649       119  CHL1      C6            -22.1573520169       -1.4767397399      -14.4169650000  MEMB      119             0.0000000000
     13650       119  CHL1      H6            -22.9752089210       -2.0407720437      -14.8891650000  MEMB      119             0.0000000000
     13651       119  CHL1      C7            -22.1750191678       -1.3994444886      -12.8963550000  MEMB      119             0.0000000000
     13652       119  CHL1      H7A           -23.1573031944       -1.0208726225      -12.5412150000  MEMB      119             0.0000000000
     13653       119  CHL1      H7B           -21.9777162086       -2.4417186717      -12.5661250000  MEMB      119             0.0000000000
     13654       119  CHL1      C8            -21.0449489075       -0.4178989942      -12.4069750000  MEMB      119             0.0000000000
     13655       119  CHL1      H8            -21.3977636369        0.6269915848      -12.5413350000  MEMB      119             0.0000000000
     13656       119  CHL1      C14           -20.8289087861       -0.6683041722      -10.9047050000  MEMB      119             0.0000000000
     13657       119  CHL1      H14           -20.5420035604       -1.7394542681      -10.8365350000  MEMB      119             0.0000000000
     13658       119  CHL1      C15           -22.0733777297       -0.4963804551      -10.0027250000  MEMB      119             0.0000000000
     13659       119  CHL1      H15A          -22.4383955402        0.5067987249      -10.3104850000  MEMB      119             0.0000000000
     13660       119  CHL1      H15B          -22.8451169775       -1.2933322177      -10.0628150000  MEMB      119             0.0000000000
     13661       119  CHL1      C16           -21.4512572876       -0.2945266259       -8.5925850000  MEMB      119             0.0000000000
     13662       119  CHL1      H16A          -21.8627156514        0.6655655131       -8.2141150000  MEMB      119             0.0000000000
     13663       119  CHL1      H16B          -21.7130638347       -1.1065988996       -7.8810250000  MEMB      119             0.0000000000
     13664       119  CHL1      C17           -19.9203541827       -0.2000010423       -8.7718950000  MEMB      119             0.0000000000
     13665       119  CHL1      H17           -19.4838650637       -1.2004490210       -8.5647950000  MEMB      119             0.0000000000
     13666       119  CHL1      C13           -19.7982180045        0.1790112294      -10.2242850000  MEMB      119             0.0000000000
     13667       119  CHL1      C18           -20.1158466456        1.6633490559      -10.2402850000  MEMB      119             0.0000000000
     13668       119  CHL1      H18A          -19.1629435596        2.1056192895       -9.8787750000  MEMB      119             0.0000000000
     13669       119  CHL1      H18B          -20.3036824681        2.0951725133      -11.2465550000  MEMB      119             0.0000000000
     13670       119  CHL1      H18C          -20.9757328819        2.0694035447       -9.6657850000  MEMB      119             0.0000000000
     13671       119  CHL1      C12           -18.4453900336       -0.1151788204      -10.9433650000  MEMB      119             0.0000000000
     13672       119  CHL1      H12A          -17.7413926665        0.6384703683      -10.5301850000  MEMB      119             0.0000000000
     13673       119  CHL1      H12B          -18.0157192086       -1.0908286667      -10.6306450000  MEMB      119             0.0000000000
     13674       119  CHL1      C11           -18.5140629589        0.0965882569      -12.5461150000  MEMB      119             0.0000000000
     13675       119  CHL1      H11A          -18.6385548370        1.1980080821      -12.6216450000  MEMB      119             0.0000000000
     13676       119  CHL1      H11B          -17.4919700309       -0.0747861345      -12.9464650000  MEMB      119             0.0000000000
     13677       119  CHL1      C9            -19.7178903720       -0.5976119223      -13.2069050000  MEMB      119             0.0000000000
     13678       119  CHL1      H9            -19.6051180886       -1.6720566329      -12.9477350000  MEMB      119             0.0000000000
     13679       119  CHL1      C10           -19.8915587722       -0.2571735990      -14.7476350000  MEMB      119             0.0000000000
     13680       119  CHL1      C19           -20.0737016233        1.2872926044      -14.9598250000  MEMB      119             0.0000000000
     13681       119  CHL1      H19A          -20.1700446077        1.5143482405      -16.0430950000  MEMB      119             0.0000000000
     13682       119  CHL1      H19B          -20.8778410443        1.7908219895      -14.3817750000  MEMB      119             0.0000000000
     13683       119  CHL1      H19C          -19.1891729708        1.9233884716      -14.7423250000  MEMB      119             0.0000000000
     13684       119  CHL1      C1            -18.5598936604       -0.5990432029      -15.4639550000  MEMB      119             0.0000000000
     13685       119  CHL1      H1A           -17.8587825561        0.2445251249      -15.2873850000  MEMB      119             0.0000000000
     13686       119  CHL1      H1B           -18.2562131001       -1.5508007888      -14.9779050000  MEMB      119             0.0000000000
     13687       119  CHL1      C2            -18.7129007462       -0.9322382872      -16.9676350000  MEMB      119             0.0000000000
     13688       119  CHL1      H2A           -17.7970887220       -1.3918610133      -17.3969950000  MEMB      119             0.0000000000
     13689       119  CHL1      H2B           -18.6188488467        0.0480559573      -17.4819250000  MEMB      119             0.0000000000
     13690       119  CHL1      C20           -19.2730748947        0.6419732804       -7.6477950000  MEMB      119             0.0000000000
     13691       119  CHL1      H20           -19.4915629252        1.7158827233       -7.8302950000  MEMB      119             0.0000000000
     13692       119  CHL1      C21           -17.7341594279        0.5841005499       -7.6432550000  MEMB      119             0.0000000000
     13693       119  CHL1      H21A          -17.4463347715       -0.4738167290       -7.4635650000  MEMB      119             0.0000000000
     13694       119  CHL1      H21B          -17.3212004648        1.1680517249       -6.7930850000  MEMB      119             0.0000000000
     13695       119  CHL1      H21C          -17.2309826689        0.7800607337       -8.6141950000  MEMB      119             0.0000000000
     13696       119  CHL1      C22           -19.8370375369        0.2381946266       -6.2428350000  MEMB      119             0.0000000000
     13697       119  CHL1      H22A          -20.9061819049        0.5290539417       -6.1614150000  MEMB      119             0.0000000000
     13698       119  CHL1      H22B          -19.8067159740       -0.8552597839       -6.0484850000  MEMB      119             0.0000000000
     13699       119  CHL1      C23           -19.3272674916        1.0089463379       -5.0490650000  MEMB      119             0.0000000000
     13700       119  CHL1      H23A          -18.3276100428        0.5745646278       -4.8338350000  MEMB      119             0.0000000000
     13701       119  CHL1      H23B          -19.2091995240        2.0812547383       -5.3146550000  MEMB      119             0.0000000000
     13702       119  CHL1      C24           -20.1373147902        0.8366280575       -3.7366750000  MEMB      119             0.0000000000
     13703       119  CHL1      H24A          -20.9838994809        1.5549172075       -3.7776550000  MEMB      119             0.0000000000
     13704       119  CHL1      H24B          -20.5223826431       -0.2024137091       -3.6563950000  MEMB      119             0.0000000000
     13705       119  CHL1      C25           -19.3059007332        1.2103740412       -2.4495550000  MEMB      119             0.0000000000
     13706       119  CHL1      H25           -18.3706638924        0.6108497836       -2.4645250000  MEMB      119             0.0000000000
     13707       119  CHL1      C26           -19.0627361470        2.7297167736       -2.3652150000  MEMB      119             0.0000000000
     13708       119  CHL1      H26A          -20.0203621298        3.2635264269       -2.1854350000  MEMB      119             0.0000000000
     13709       119  CHL1      H26B          -18.3679010406        3.0024527819       -1.5423350000  MEMB      119             0.0000000000
     13710       119  CHL1      H26C          -18.6570113467        3.1331937020       -3.3175350000  MEMB      119             0.0000000000
     13711       119  CHL1      C27           -20.2014620547        0.8958412060       -1.2535950000  MEMB      119             0.0000000000
     13712       119  CHL1      H27A          -20.4276438293       -0.1804114076       -1.0959950000  MEMB      119             0.0000000000
     13713       119  CHL1      H27B          -19.8165458053        1.2318520932       -0.2670550000  MEMB      119             0.0000000000
     13714       119  CHL1      H27C          -21.1812703566        1.4031701564       -1.3836750000  MEMB      119             0.0000000000
     13715       120  OSM       N              11.0202071003      -14.4218146490      -21.0792042170  MEMB      120             0.0000000000
     13716       120  OSM       C15             9.8355524898      -13.5225555999      -21.3381685569  MEMB      120             0.0000000000
     13717       120  OSM       H15A            8.9559879072      -14.1350414096      -21.4709359555  MEMB      120             0.0000000000
     13718       120  OSM       H15B            9.9968343273      -12.7976535180      -22.1223274769  MEMB      120             0.0000000000
     13719       120  OSM       H15C            9.5530958694      -13.0464371668      -20.4108446808  MEMB      120             0.0000000000
     13720       120  OSM       C14            10.5899472977      -15.4512822500      -19.9477985728  MEMB      120             0.0000000000
     13721       120  OSM       H14A            9.7580052480      -16.0293570165      -20.3221003143  MEMB      120             0.0000000000
     13722       120  OSM       H14B           10.2515974293      -14.9212298698      -19.0697531173  MEMB      120             0.0000000000
     13723       120  OSM       H14C           11.3949324073      -16.1307007676      -19.7094931389  MEMB      120             0.0000000000
     13724       120  OSM       C13            11.2726689640      -15.1373309281      -22.3626387073  MEMB      120             0.0000000000
     13725       120  OSM       H13A           10.3285251032      -15.5966550711      -22.6156476639  MEMB      120             0.0000000000
     13726       120  OSM       H13B           12.0562931913      -15.8782158327      -22.3041363278  MEMB      120             0.0000000000
     13727       120  OSM       H13C           11.4651869950      -14.4013591969      -23.1292430204  MEMB      120             0.0000000000
     13728       120  OSM       C12            12.2433806104      -13.6539934866      -20.5871466514  MEMB      120             0.0000000000
     13729       120  OSM       H12A           12.0528424851      -13.1094409761      -19.6741527947  MEMB      120             0.0000000000
     13730       120  OSM       H12B           12.5949968996      -13.0648613774      -21.4212266771  MEMB      120             0.0000000000
     13731       120  OSM       C11            13.4204655002      -14.5966546859      -20.1197194710  MEMB      120             0.0000000000
     13732       120  OSM       H11A           13.1560751187      -15.2115779864      -19.2329905193  MEMB      120             0.0000000000
     13733       120  OSM       H11B           14.1870858653      -13.8554881283      -19.8078120255  MEMB      120             0.0000000000
     13734       120  OSM       P              15.2895077420      -16.1120102119      -21.0777407769  MEMB      120             0.0000000000
     13735       120  OSM       O13            16.0295551331      -15.9290747590      -22.3619581038  MEMB      120             0.0000000000
     13736       120  OSM       O14            16.0459862876      -15.6976446942      -19.8659338930  MEMB      120             0.0000000000
     13737       120  OSM       O11            14.8921983135      -17.5688201907      -20.9733756997  MEMB      120             0.0000000000
     13738       120  OSM       O12            13.8533999628      -15.4289977457      -21.2863153455  MEMB      120             0.0000000000
     13739       120  OSM       C1S            15.4831710718      -18.4010774189      -20.0234442616  MEMB      120             0.0000000000
     13740       120  OSM       H1S            16.5544296466      -18.1255064056      -19.9195862602  MEMB      120             0.0000000000
     13741       120  OSM       H1T            15.4236208996      -19.4704264330      -20.3188549038  MEMB      120             0.0000000000
     13742       120  OSM       NF             15.5268875639      -18.7987332298      -17.5969335445  MEMB      120             0.0000000000
     13743       120  OSM       HNF            15.1851225497      -19.6273876189      -17.1604275681  MEMB      120             0.0000000000
     13744       120  OSM       C2S            14.6991019350      -18.3393681502      -18.7007884701  MEMB      120             0.0000000000
     13745       120  OSM       H2S            14.4677521046      -17.2862283433      -18.4330299916  MEMB      120             0.0000000000
     13746       120  OSM       C3S            13.2872617318      -19.0650771389      -18.6284429864  MEMB      120             0.0000000000
     13747       120  OSM       H3S            13.3075514605      -20.0549248153      -19.1325373247  MEMB      120             0.0000000000
     13748       120  OSM       O3             12.3436250745      -18.3998097537      -19.4901193047  MEMB      120             0.0000000000
     13749       120  OSM       HO3            12.8521101008      -17.6711555050      -19.8535832672  MEMB      120             0.0000000000
     13750       120  OSM       C4S            12.5572724557      -19.0721579712      -17.2801448079  MEMB      120             0.0000000000
     13751       120  OSM       H4S            12.0678841812      -18.1548598588      -16.9208908829  MEMB      120             0.0000000000
     13752       120  OSM       C5S            12.5358945451      -20.1547152374      -16.5092518635  MEMB      120             0.0000000000
     13753       120  OSM       H5S            13.1045371268      -21.0071487377      -16.9092550806  MEMB      120             0.0000000000
     13754       120  OSM       C6S            11.7785585945      -20.0690630883      -15.2326805315  MEMB      120             0.0000000000
     13755       120  OSM       H6S            11.3344180285      -21.0567143954      -14.9844754668  MEMB      120             0.0000000000
     13756       120  OSM       H6T            10.8688506049      -19.4355696416      -15.3064265776  MEMB      120             0.0000000000
     13757       120  OSM       C7S            12.6990390014      -19.6480297756      -14.0375963928  MEMB      120             0.0000000000
     13758       120  OSM       H7S            12.7218995367      -18.5507306507      -14.2100294901  MEMB      120             0.0000000000
     13759       120  OSM       H7T            13.6819027434      -20.1654163092      -14.0128702486  MEMB      120             0.0000000000
     13760       120  OSM       C8S            12.1533842071      -19.7255355552      -12.5726254261  MEMB      120             0.0000000000
     13761       120  OSM       H8S            12.3085401004      -20.7825510710      -12.2677223477  MEMB      120             0.0000000000
     13762       120  OSM       H8T            11.0615631598      -19.5443275795      -12.6696372019  MEMB      120             0.0000000000
     13763       120  OSM       C9S            12.6283368615      -18.7753793967      -11.4377806809  MEMB      120             0.0000000000
     13764       120  OSM       H9S            13.6758622841      -18.4291399384      -11.5686612590  MEMB      120             0.0000000000
     13765       120  OSM       H9T            12.6348237702      -19.4257974047      -10.5370946582  MEMB      120             0.0000000000
     13766       120  OSM       C10S           11.5395313229      -17.7696289427      -11.3225822385  MEMB      120             0.0000000000
     13767       120  OSM       H10S           10.5355038787      -18.1672658635      -11.0615555687  MEMB      120             0.0000000000
     13768       120  OSM       H10T           11.3954891599      -17.2060154806      -12.2691085444  MEMB      120             0.0000000000
     13769       120  OSM       C11S           11.7640810214      -16.7059676208      -10.2679062641  MEMB      120             0.0000000000
     13770       120  OSM       H11S           11.1451983147      -15.7864469575      -10.3439783435  MEMB      120             0.0000000000
     13771       120  OSM       H11T           12.7777962284      -16.3390174543      -10.5363279180  MEMB      120             0.0000000000
     13772       120  OSM       C12S           11.8477911533      -17.1486496987       -8.7977734083  MEMB      120             0.0000000000
     13773       120  OSM       H12S           12.6338132748      -17.9327124592       -8.7561082267  MEMB      120             0.0000000000
     13774       120  OSM       H12T           10.9001287166      -17.6701166042       -8.5441425832  MEMB      120             0.0000000000
     13775       120  OSM       C13S           12.1221852105      -16.1039157194       -7.6916085783  MEMB      120             0.0000000000
     13776       120  OSM       H13S           11.2296656057      -15.4428443590       -7.6648739600  MEMB      120             0.0000000000
     13777       120  OSM       H13T           12.9702429473      -15.4256878922       -7.9263975228  MEMB      120             0.0000000000
     13778       120  OSM       C14S           12.4024610410      -16.7269228919       -6.3575457693  MEMB      120             0.0000000000
     13779       120  OSM       H14S           13.0052973212      -16.0045525420       -5.7667070070  MEMB      120             0.0000000000
     13780       120  OSM       H14T           12.9599057621      -17.6815924846       -6.2471716554  MEMB      120             0.0000000000
     13781       120  OSM       C15S           11.1001013593      -16.8771021628       -5.4964864302  MEMB      120             0.0000000000
     13782       120  OSM       H15S           10.6797019264      -17.7977120142       -5.9548126619  MEMB      120             0.0000000000
     13783       120  OSM       H15T           10.3895616726      -16.0230564606       -5.5042504200  MEMB      120             0.0000000000
     13784       120  OSM       C16S           11.4025598722      -17.1269793033       -4.0167519604  MEMB      120             0.0000000000
     13785       120  OSM       H16S           12.1963235956      -17.9043097959       -4.0125727980  MEMB      120             0.0000000000
     13786       120  OSM       H16T           10.4880123243      -17.4861267019       -3.4981614310  MEMB      120             0.0000000000
     13787       120  OSM       C17S           11.8930880257      -15.8758814346       -3.3166450129  MEMB      120             0.0000000000
     13788       120  OSM       H17S           11.1539703200      -15.1109808909       -3.6375081314  MEMB      120             0.0000000000
     13789       120  OSM       H17T           12.8702242168      -15.4462064988       -3.6247113416  MEMB      120             0.0000000000
     13790       120  OSM       C18S           11.8677421889      -15.9766444979       -1.7803203218  MEMB      120             0.0000000000
     13791       120  OSM       H18S           12.3499421071      -15.1060342960       -1.2865170127  MEMB      120             0.0000000000
     13792       120  OSM       H18T           12.3620021522      -16.8809920632       -1.3653704824  MEMB      120             0.0000000000
     13793       120  OSM       H18U           10.8056519859      -15.9302985747       -1.4576179601  MEMB      120             0.0000000000
     13794       120  OSM       C1F            16.6649768306      -18.2825353347      -17.0458318264  MEMB      120             0.0000000000
     13795       120  OSM       OF             17.1466649581      -17.2029059786      -17.4690653568  MEMB      120             0.0000000000
     13796       120  OSM       C2F            17.2109908260      -19.1602383693      -15.9742701237  MEMB      120             0.0000000000
     13797       120  OSM       H2F            18.0769157934      -19.6749513281      -16.4428486304  MEMB      120             0.0000000000
     13798       120  OSM       H2G            16.4581603429      -19.9547518657      -15.7837049294  MEMB      120             0.0000000000
     13799       120  OSM       C3F            17.5554037819      -18.4172105448      -14.7216063820  MEMB      120             0.0000000000
     13800       120  OSM       H3F            16.5678401598      -18.3235422771      -14.2213410892  MEMB      120             0.0000000000
     13801       120  OSM       H3G            18.1423473908      -17.4933647112      -14.9122025717  MEMB      120             0.0000000000
     13802       120  OSM       C4F            18.4057435432      -19.3059522557      -13.8289050469  MEMB      120             0.0000000000
     13803       120  OSM       H4F            19.3496124632      -19.5853745428      -14.3440322553  MEMB      120             0.0000000000
     13804       120  OSM       H4G            17.9907266407      -20.2973536581      -13.5474706663  MEMB      120             0.0000000000
     13805       120  OSM       C5F            18.8963121647      -18.5532253533      -12.5630382485  MEMB      120             0.0000000000
     13806       120  OSM       H5F            19.4833704644      -17.6486107070      -12.8301642195  MEMB      120             0.0000000000
     13807       120  OSM       H5G            19.5253481520      -19.1685356076      -11.8847851564  MEMB      120             0.0000000000
     13808       120  OSM       C6F            17.7194191687      -18.2631726275      -11.5693795496  MEMB      120             0.0000000000
     13809       120  OSM       H6F            17.4271314128      -19.2154341720      -11.0773561748  MEMB      120             0.0000000000
     13810       120  OSM       H6G            16.8935453926      -17.9041752835      -12.2200511806  MEMB      120             0.0000000000
     13811       120  OSM       C7F            18.0141755615      -17.0229993599      -10.6399686815  MEMB      120             0.0000000000
     13812       120  OSM       H7F            18.5523174100      -16.3231066789      -11.3144130937  MEMB      120             0.0000000000
     13813       120  OSM       H7G            18.7572941289      -17.1550281491       -9.8246995735  MEMB      120             0.0000000000
     13814       120  OSM       C8F            16.7310627541      -16.3859152484      -10.0884777230  MEMB      120             0.0000000000
     13815       120  OSM       H8F            15.8567252250      -16.4696543113      -10.7688034605  MEMB      120             0.0000000000
     13816       120  OSM       H8G            16.9331637212      -15.3478095708       -9.7481646491  MEMB      120             0.0000000000
     13817       120  OSM       C9F            16.1925221130      -17.2275380127       -8.9104187976  MEMB      120             0.0000000000
     13818       120  OSM       H9F            15.9008122980      -18.1856584480       -9.3652924684  MEMB      120             0.0000000000
     13819       120  OSM       C10F           16.0955252338      -16.9799180051       -7.6042236298  MEMB      120             0.0000000000
     13820       120  OSM       H10F           15.8557299612      -17.8642165835       -6.9955250882  MEMB      120             0.0000000000
     13821       120  OSM       C11F           16.5156123933      -15.7811274648       -6.7848524045  MEMB      120             0.0000000000
     13822       120  OSM       H11F           15.6543242168      -15.2333451354       -6.3461745076  MEMB      120             0.0000000000
     13823       120  OSM       H11G           16.8980548071      -15.0902685644       -7.5663716096  MEMB      120             0.0000000000
     13824       120  OSM       C12F           17.6852100515      -16.1687670929       -5.8631393618  MEMB      120             0.0000000000
     13825       120  OSM       H12F           18.4723982655      -16.7159233680       -6.4246338748  MEMB      120             0.0000000000
     13826       120  OSM       H12G           17.3152718314      -16.8297247344       -5.0503657376  MEMB      120             0.0000000000
     13827       120  OSM       C13F           18.3736923965      -14.9146865685       -5.2972019440  MEMB      120             0.0000000000
     13828       120  OSM       H13F           18.7114024598      -14.2491898095       -6.1202363079  MEMB      120             0.0000000000
     13829       120  OSM       H13G           19.2765055637      -15.1422342963       -4.6910079289  MEMB      120             0.0000000000
     13830       120  OSM       C14F           17.3728534641      -14.0313953261       -4.4142490819  MEMB      120             0.0000000000
     13831       120  OSM       H14F           16.5745647598      -13.6972965737       -5.1109792360  MEMB      120             0.0000000000
     13832       120  OSM       H14G           17.8524832911      -13.1991595674       -3.8559835548  MEMB      120             0.0000000000
     13833       120  OSM       C15F           16.7112784632      -14.9077431816       -3.2966537420  MEMB      120             0.0000000000
     13834       120  OSM       H15F           16.2995872250      -15.8854364348       -3.6267246538  MEMB      120             0.0000000000
     13835       120  OSM       H15G           15.8953435719      -14.2935763380       -2.8591942203  MEMB      120             0.0000000000
     13836       120  OSM       C16F           17.7035297485      -15.2055646614       -2.1143519967  MEMB      120             0.0000000000
     13837       120  OSM       H16F           17.0635271521      -15.1772302817       -1.2066544382  MEMB      120             0.0000000000
     13838       120  OSM       H16G           18.3644717995      -14.3588340103       -1.8305853586  MEMB      120             0.0000000000
     13839       120  OSM       C17F           18.3087235381      -16.6370763376       -2.1208075915  MEMB      120             0.0000000000
     13840       120  OSM       H17F           19.1612904084      -16.6037745637       -2.8323831956  MEMB      120             0.0000000000
     13841       120  OSM       H17G           17.5313419233      -17.3111107671       -2.5399447974  MEMB      120             0.0000000000
     13842       120  OSM       C18F           18.7214954128      -17.0897287937       -0.6934080508  MEMB      120             0.0000000000
     13843       120  OSM       H18F           17.8125465009      -17.4285591883       -0.1518117077  MEMB      120             0.0000000000
     13844       120  OSM       H18G           19.2325467245      -16.3746645186       -0.0138263968  MEMB      120             0.0000000000
     13845       120  OSM       H18H           19.3074295172      -18.0258875012       -0.8142766407  MEMB      120             0.0000000000
     13846       121  SAPS      N              -9.3649065510       16.8948387416      -20.8786861463  MEMB      121             0.0000000000
     13847       121  SAPS      HN1            -8.6063138009       16.5727453483      -21.5130306672  MEMB      121             0.0000000000
     13848       121  SAPS      HN2            -9.9964244562       16.1990808734      -20.4329215277  MEMB      121             0.0000000000
     13849       121  SAPS      HN3            -9.9667649690       17.6143644433      -21.3277397696  MEMB      121             0.0000000000
     13850       121  SAPS      C12            -8.5675410198       17.4970762771      -19.7583601770  MEMB      121             0.0000000000
     13851       121  SAPS      H12A           -9.2594118345       17.7161695166      -18.9585396721  MEMB      121             0.0000000000
     13852       121  SAPS      C13            -7.6360104217       16.4664807085      -19.0716916043  MEMB      121             0.0000000000
     13853       121  SAPS      O13A           -7.5496184809       15.2755061983      -19.5221102519  MEMB      121             0.0000000000
     13854       121  SAPS      O13B           -7.1267803948       16.8823187165      -17.9793175381  MEMB      121             0.0000000000
     13855       121  SAPS      C11            -7.9388247475       18.8735214526      -20.0764195996  MEMB      121             0.0000000000
     13856       121  SAPS      H11A           -6.9624141699       18.7403664915      -20.5894626556  MEMB      121             0.0000000000
     13857       121  SAPS      H11B           -7.7908322382       19.2457031126      -19.0401281283  MEMB      121             0.0000000000
     13858       121  SAPS      P             -10.0319074968       20.4759528913      -20.5680166609  MEMB      121             0.0000000000
     13859       121  SAPS      O13           -10.2702947702       21.1891756556      -21.8703686977  MEMB      121             0.0000000000
     13860       121  SAPS      O14           -11.1136089445       19.6876933607      -20.0165934251  MEMB      121             0.0000000000
     13861       121  SAPS      O12            -8.8038986833       19.6253034648      -20.9141231698  MEMB      121             0.0000000000
     13862       121  SAPS      O11            -9.4765123704       21.3904153309      -19.3443126946  MEMB      121             0.0000000000
     13863       121  SAPS      C1            -10.2962893780       21.9281277270      -18.3684232238  MEMB      121             0.0000000000
     13864       121  SAPS      HA            -11.1323336080       22.5490849207      -18.7554155698  MEMB      121             0.0000000000
     13865       121  SAPS      HB            -10.6121713890       21.0691805385      -17.7385426739  MEMB      121             0.0000000000
     13866       121  SAPS      C2             -9.5590881647       22.8307054374      -17.2687366565  MEMB      121             0.0000000000
     13867       121  SAPS      HS             -9.1249069764       23.6294244405      -17.9073723422  MEMB      121             0.0000000000
     13868       121  SAPS      O21            -8.5616909806       21.9594918228      -16.7265746907  MEMB      121             0.0000000000
     13869       121  SAPS      C21            -7.4661896564       22.4147877274      -16.2410261544  MEMB      121             0.0000000000
     13870       121  SAPS      O22            -7.0357511386       23.5276421320      -16.2892214968  MEMB      121             0.0000000000
     13871       121  SAPS      C22            -6.7651597513       21.2200567350      -15.6222371089  MEMB      121             0.0000000000
     13872       121  SAPS      H2R            -7.4138762429       20.3323393955      -15.4627185373  MEMB      121             0.0000000000
     13873       121  SAPS      H2S            -6.0737481962       20.6894473594      -16.3112400734  MEMB      121             0.0000000000
     13874       121  SAPS      C3            -10.4943378628       23.2033841182      -16.1388622476  MEMB      121             0.0000000000
     13875       121  SAPS      HX            -11.2625251495       23.8963808649      -16.5437876579  MEMB      121             0.0000000000
     13876       121  SAPS      HY             -9.9093905688       23.8367397259      -15.4381357456  MEMB      121             0.0000000000
     13877       121  SAPS      O31           -11.1881001307       22.1110253365      -15.5780717409  MEMB      121             0.0000000000
     13878       121  SAPS      C31           -10.8672016846       21.7331633633      -14.3771583923  MEMB      121             0.0000000000
     13879       121  SAPS      O32           -10.0785402771       22.2492134769      -13.6121158219  MEMB      121             0.0000000000
     13880       121  SAPS      C32           -11.6820334328       20.3850485865      -14.1472918489  MEMB      121             0.0000000000
     13881       121  SAPS      H2X           -12.7907484511       20.4461740941      -14.1838353873  MEMB      121             0.0000000000
     13882       121  SAPS      H2Y           -11.3113134825       20.0151460521      -13.1674655065  MEMB      121             0.0000000000
     13883       121  SAPS      C23            -6.0778302382       21.6597466252      -14.2843634145  MEMB      121             0.0000000000
     13884       121  SAPS      H3R            -6.8038639149       22.1565484111      -13.6058471981  MEMB      121             0.0000000000
     13885       121  SAPS      H3S            -5.2026288690       22.3072062680      -14.5060373466  MEMB      121             0.0000000000
     13886       121  SAPS      C24            -5.5093222564       20.4368973120      -13.5215170961  MEMB      121             0.0000000000
     13887       121  SAPS      H4R            -4.9023077986       20.7044227459      -12.6302910101  MEMB      121             0.0000000000
     13888       121  SAPS      H4S            -4.7662455031       19.9693799505      -14.2023885217  MEMB      121             0.0000000000
     13889       121  SAPS      C25            -6.3968304465       19.3300545529      -13.1738156545  MEMB      121             0.0000000000
     13890       121  SAPS      H5R            -6.5705200885       18.6636580514      -14.0315729754  MEMB      121             0.0000000000
     13891       121  SAPS      C26            -7.1674036588       19.1684935441      -12.1052747150  MEMB      121             0.0000000000
     13892       121  SAPS      H6R            -7.7655734483       18.2615216260      -11.9332430211  MEMB      121             0.0000000000
     13893       121  SAPS      C27            -7.1889410414       20.2521918415      -11.0108011563  MEMB      121             0.0000000000
     13894       121  SAPS      H7R            -8.1834400481       20.7441268489      -10.9534190740  MEMB      121             0.0000000000
     13895       121  SAPS      H7S            -6.5625043291       21.1152000790      -11.3224335340  MEMB      121             0.0000000000
     13896       121  SAPS      C28            -6.9807830053       19.7202132206       -9.6318898623  MEMB      121             0.0000000000
     13897       121  SAPS      H8R            -7.1610647724       18.6552218762       -9.4238227382  MEMB      121             0.0000000000
     13898       121  SAPS      C29            -6.3339718060       20.3344973251       -8.6461771967  MEMB      121             0.0000000000
     13899       121  SAPS      H9R            -6.3842420991       19.9156070334       -7.6303010183  MEMB      121             0.0000000000
     13900       121  SAPS      C210           -5.7481350259       21.7101068412       -8.8278780489  MEMB      121             0.0000000000
     13901       121  SAPS      H10R           -6.4776505234       22.5152218135       -8.5956755784  MEMB      121             0.0000000000
     13902       121  SAPS      H10S           -5.3551322783       21.7567627909       -9.8659986422  MEMB      121             0.0000000000
     13903       121  SAPS      C211           -4.5850369989       21.9444563070       -7.8530675473  MEMB      121             0.0000000000
     13904       121  SAPS      H11R           -3.5768479715       21.6735498406       -8.1997155037  MEMB      121             0.0000000000
     13905       121  SAPS      C212           -4.6331986522       22.4368764215       -6.6321926064  MEMB      121             0.0000000000
     13906       121  SAPS      H12R           -3.7188549991       22.6111732816       -6.0460216803  MEMB      121             0.0000000000
     13907       121  SAPS      C213           -5.8849470438       22.9289312413       -5.9907845994  MEMB      121             0.0000000000
     13908       121  SAPS      H13R           -5.9803357435       22.5455449509       -4.9524030406  MEMB      121             0.0000000000
     13909       121  SAPS      H13S           -6.8144406963       22.5187340754       -6.4403409747  MEMB      121             0.0000000000
     13910       121  SAPS      C214           -6.1364965628       24.4597926202       -5.9371223722  MEMB      121             0.0000000000
     13911       121  SAPS      H14R           -6.7238388987       24.8881051517       -6.7626989520  MEMB      121             0.0000000000
     13912       121  SAPS      C215           -5.8637732110       25.2226425258       -4.8270435763  MEMB      121             0.0000000000
     13913       121  SAPS      H15R           -5.8674677472       26.3161168034       -4.9466273308  MEMB      121             0.0000000000
     13914       121  SAPS      C216           -5.2685361382       24.7030248365       -3.5275426830  MEMB      121             0.0000000000
     13915       121  SAPS      H16R           -4.6317593235       25.5030346545       -3.0930072034  MEMB      121             0.0000000000
     13916       121  SAPS      H16S           -4.6021942183       23.8196227503       -3.6270935951  MEMB      121             0.0000000000
     13917       121  SAPS      C217           -6.3816078849       24.3787054464       -2.4781607555  MEMB      121             0.0000000000
     13918       121  SAPS      H17R           -6.8157268382       23.3769011542       -2.6837080696  MEMB      121             0.0000000000
     13919       121  SAPS      H17S           -7.1945975903       25.1263643032       -2.5980559787  MEMB      121             0.0000000000
     13920       121  SAPS      C218           -5.9416201084       24.3461277124       -0.9942583062  MEMB      121             0.0000000000
     13921       121  SAPS      H18R           -5.6614748002       25.3354459342       -0.5734405932  MEMB      121             0.0000000000
     13922       121  SAPS      H18S           -5.0685294403       23.6611301739       -0.9412289820  MEMB      121             0.0000000000
     13923       121  SAPS      C219           -7.0179465194       23.8694921210        0.0418861668  MEMB      121             0.0000000000
     13924       121  SAPS      H19R           -6.5297717954       24.0852067957        1.0162944408  MEMB      121             0.0000000000
     13925       121  SAPS      H19S           -7.1858453640       22.7723110003       -0.0063333997  MEMB      121             0.0000000000
     13926       121  SAPS      C220           -8.3245099121       24.5747503204        0.0197710145  MEMB      121             0.0000000000
     13927       121  SAPS      H20R           -8.0375521911       25.6462896070       -0.0417085912  MEMB      121             0.0000000000
     13928       121  SAPS      H20S           -8.9516742040       24.4890654947        0.9328116935  MEMB      121             0.0000000000
     13929       121  SAPS      H20T           -8.8891418190       24.2388712071       -0.8761629114  MEMB      121             0.0000000000
     13930       121  SAPS      C33           -11.1853882467       19.2165845632      -15.0970809398  MEMB      121             0.0000000000
     13931       121  SAPS      H3X           -10.1218332905       19.4067636704      -15.3559322057  MEMB      121             0.0000000000
     13932       121  SAPS      H3Y           -11.5312239737       19.2737453199      -16.1513348597  MEMB      121             0.0000000000
     13933       121  SAPS      C34           -11.3705744384       17.8195844848      -14.5595492759  MEMB      121             0.0000000000
     13934       121  SAPS      H4X           -11.5684856380       17.0858646479      -15.3699859410  MEMB      121             0.0000000000
     13935       121  SAPS      H4Y           -12.2782330840       17.9021896635      -13.9242127718  MEMB      121             0.0000000000
     13936       121  SAPS      C35           -10.1762103722       17.2613912357      -13.8411785447  MEMB      121             0.0000000000
     13937       121  SAPS      H5X            -9.9264683345       17.8248361050      -12.9167978144  MEMB      121             0.0000000000
     13938       121  SAPS      H5Y            -9.3497150384       17.4445678245      -14.5606734980  MEMB      121             0.0000000000
     13939       121  SAPS      C36           -10.3542870573       15.7317453398      -13.5995750561  MEMB      121             0.0000000000
     13940       121  SAPS      H6X           -10.4638518008       15.2554819919      -14.5973176309  MEMB      121             0.0000000000
     13941       121  SAPS      H6Y           -11.2807297230       15.4561665578      -13.0517787070  MEMB      121             0.0000000000
     13942       121  SAPS      C37            -9.0853197720       15.1524760522      -12.9254787937  MEMB      121             0.0000000000
     13943       121  SAPS      H7X            -8.1346067305       15.4330148560      -13.4272391352  MEMB      121             0.0000000000
     13944       121  SAPS      H7Y            -9.1514126377       14.0439825036      -12.8909093213  MEMB      121             0.0000000000
     13945       121  SAPS      C38            -9.0699513241       15.6247517952      -11.5127998778  MEMB      121             0.0000000000
     13946       121  SAPS      H8X            -8.9219723601       16.7203510140      -11.4028667167  MEMB      121             0.0000000000
     13947       121  SAPS      H8Y            -8.2766571936       15.0344672838      -11.0062729542  MEMB      121             0.0000000000
     13948       121  SAPS      C39           -10.2996193082       15.3330869586      -10.6106709849  MEMB      121             0.0000000000
     13949       121  SAPS      H9X           -10.7598025749       14.3363848123      -10.7813663862  MEMB      121             0.0000000000
     13950       121  SAPS      H9Y           -11.0995778900       16.0405336652      -10.9171123806  MEMB      121             0.0000000000
     13951       121  SAPS      C310           -9.9145031379       15.6089189668       -9.1639637718  MEMB      121             0.0000000000
     13952       121  SAPS      H10X           -9.1500822619       14.8632324022       -8.8574789269  MEMB      121             0.0000000000
     13953       121  SAPS      H10Y          -10.7145534575       15.4270620345       -8.4148518297  MEMB      121             0.0000000000
     13954       121  SAPS      C311           -9.6098112768       17.0289867127       -8.6807105277  MEMB      121             0.0000000000
     13955       121  SAPS      H11X          -10.3332356109       17.7179149324       -9.1668756502  MEMB      121             0.0000000000
     13956       121  SAPS      H11Y           -8.6103101146       17.3204401560       -9.0684905144  MEMB      121             0.0000000000
     13957       121  SAPS      C312           -9.6799153892       17.3806223599       -7.1333680413  MEMB      121             0.0000000000
     13958       121  SAPS      H12X          -10.7062960416       17.2380583734       -6.7326941152  MEMB      121             0.0000000000
     13959       121  SAPS      H12Y           -9.3946062412       18.4543618608       -7.1351667105  MEMB      121             0.0000000000
     13960       121  SAPS      C313           -8.7313427519       16.4885363574       -6.3277771273  MEMB      121             0.0000000000
     13961       121  SAPS      H13X           -7.7717085283       16.4174409685       -6.8830865790  MEMB      121             0.0000000000
     13962       121  SAPS      H13Y           -9.0550147000       15.4300383138       -6.2321767856  MEMB      121             0.0000000000
     13963       121  SAPS      C314           -8.6325352327       17.0277507297       -4.8434002566  MEMB      121             0.0000000000
     13964       121  SAPS      H14X           -8.3207852616       16.0875267268       -4.3402976046  MEMB      121             0.0000000000
     13965       121  SAPS      H14Y           -9.6022722970       17.3292238750       -4.3927944987  MEMB      121             0.0000000000
     13966       121  SAPS      C315           -7.6975643882       18.1842370991       -4.6772040150  MEMB      121             0.0000000000
     13967       121  SAPS      H15X           -8.0025421888       18.9922098658       -5.3761247072  MEMB      121             0.0000000000
     13968       121  SAPS      H15Y           -6.6234194144       18.0105177130       -4.9016037753  MEMB      121             0.0000000000
     13969       121  SAPS      C316           -7.8611661394       18.7502434479       -3.2165200691  MEMB      121             0.0000000000
     13970       121  SAPS      H16X           -7.2621858671       18.1002671378       -2.5434118050  MEMB      121             0.0000000000
     13971       121  SAPS      H16Y           -8.9535852460       18.6950162480       -3.0218621611  MEMB      121             0.0000000000
     13972       121  SAPS      C317           -7.2551971686       20.0760918326       -2.9124631064  MEMB      121             0.0000000000
     13973       121  SAPS      H17X           -7.4350783979       20.3388265015       -1.8480688602  MEMB      121             0.0000000000
     13974       121  SAPS      H17Y           -7.6154064297       20.9065064837       -3.5566542918  MEMB      121             0.0000000000
     13975       121  SAPS      C318           -5.7365715889       19.9183119655       -3.0666722537  MEMB      121             0.0000000000
     13976       121  SAPS      H18X           -5.3260652368       19.0435844382       -2.5183493323  MEMB      121             0.0000000000
     13977       121  SAPS      H18Y           -5.3310697995       20.8458427270       -2.6088767660  MEMB      121             0.0000000000
     13978       121  SAPS      H18Z           -5.4539632383       19.8306470627       -4.1375439586  MEMB      121             0.0000000000
     13979       122  SAPE      N              19.4930489598        1.1416433466      -19.5882369116  MEMB      122             0.0000000000
     13980       122  SAPE      HN1            18.9870073343        1.8430335557      -19.0106787928  MEMB      122             0.0000000000
     13981       122  SAPE      HN2            20.4992025912        1.0581277848      -19.3386771789  MEMB      122             0.0000000000
     13982       122  SAPE      HN3            19.4109929802        1.4581514208      -20.5755005512  MEMB      122             0.0000000000
     13983       122  SAPE      C12            18.9306277291       -0.2815518826      -19.4101960211  MEMB      122             0.0000000000
     13984       122  SAPE      H12A           17.8250087712       -0.2078371008      -19.4907783468  MEMB      122             0.0000000000
     13985       122  SAPE      H12B           19.3291277460       -0.5775288737      -18.4162561589  MEMB      122             0.0000000000
     13986       122  SAPE      C11            19.2860128510       -1.4125938472      -20.3601931815  MEMB      122             0.0000000000
     13987       122  SAPE      H11A           18.8292923885       -1.2697991249      -21.3628581281  MEMB      122             0.0000000000
     13988       122  SAPE      H11B           18.8479113970       -2.3054089111      -19.8649463013  MEMB      122             0.0000000000
     13989       122  SAPE      P              21.5888155772       -2.7172694489      -20.1961277640  MEMB      122             0.0000000000
     13990       122  SAPE      O13            21.2191204969       -3.8589665628      -21.1179169901  MEMB      122             0.0000000000
     13991       122  SAPE      O14            22.9591688650       -2.2957798813      -20.0541634647  MEMB      122             0.0000000000
     13992       122  SAPE      O12            20.7422615932       -1.3955345821      -20.5494080232  MEMB      122             0.0000000000
     13993       122  SAPE      O11            21.0811991284       -3.1702299421      -18.7237576786  MEMB      122             0.0000000000
     13994       122  SAPE      C1             20.8280386300       -4.5635372233      -18.4622050543  MEMB      122             0.0000000000
     13995       122  SAPE      HA             19.8797345440       -4.8570833055      -18.9610748522  MEMB      122             0.0000000000
     13996       122  SAPE      HB             21.6694155775       -5.2445986395      -18.7123275643  MEMB      122             0.0000000000
     13997       122  SAPE      C2             20.7013867023       -4.8170840037      -16.9477986384  MEMB      122             0.0000000000
     13998       122  SAPE      HS             20.4533901362       -5.8923680459      -16.8190231293  MEMB      122             0.0000000000
     13999       122  SAPE      O21            19.6432495453       -4.0065279523      -16.3963636321  MEMB      122             0.0000000000
     14000       122  SAPE      C21            19.1419567806       -4.3073288334      -15.1501514924  MEMB      122             0.0000000000
     14001       122  SAPE      O22            19.5148040486       -5.2479416098      -14.4715055501  MEMB      122             0.0000000000
     14002       122  SAPE      C22            18.0576041738       -3.2849388703      -14.8143994257  MEMB      122             0.0000000000
     14003       122  SAPE      H2R            17.3778928628       -3.2103388520      -15.6900410541  MEMB      122             0.0000000000
     14004       122  SAPE      H2S            17.4822518158       -3.5207861692      -13.8937114082  MEMB      122             0.0000000000
     14005       122  SAPE      C3             22.0395860785       -4.4897124003      -16.2473821647  MEMB      122             0.0000000000
     14006       122  SAPE      HX             22.8499908694       -4.7233527098      -16.9705538225  MEMB      122             0.0000000000
     14007       122  SAPE      HY             22.2398610145       -5.1961531676      -15.4136242099  MEMB      122             0.0000000000
     14008       122  SAPE      O31            21.9862492748       -3.1136473791      -15.7356842247  MEMB      122             0.0000000000
     14009       122  SAPE      C31            23.1827282641       -2.7121762703      -15.3029476715  MEMB      122             0.0000000000
     14010       122  SAPE      O32            24.2125815139       -3.3411837531      -15.4887378010  MEMB      122             0.0000000000
     14011       122  SAPE      C32            23.1511958181       -1.5050173578      -14.3977405656  MEMB      122             0.0000000000
     14012       122  SAPE      H2X            22.1674224573       -0.9892248738      -14.3760864863  MEMB      122             0.0000000000
     14013       122  SAPE      H2Y            23.8252971963       -0.7708078688      -14.8885000658  MEMB      122             0.0000000000
     14014       122  SAPE      C23            18.7844346218       -1.9527001947      -14.4624469644  MEMB      122             0.0000000000
     14015       122  SAPE      H3R            19.2604445879       -1.5639495615      -15.3879780914  MEMB      122             0.0000000000
     14016       122  SAPE      H3S            19.5917203560       -2.1510796017      -13.7253875954  MEMB      122             0.0000000000
     14017       122  SAPE      C24            17.8014662347       -0.7615165003      -14.2740415548  MEMB      122             0.0000000000
     14018       122  SAPE      H4R            16.9723958701       -0.9542634247      -13.5600301817  MEMB      122             0.0000000000
     14019       122  SAPE      H4S            17.3617055330       -0.7489494891      -15.2942247103  MEMB      122             0.0000000000
     14020       122  SAPE      C25            18.4556922395        0.6017607405      -14.0068945879  MEMB      122             0.0000000000
     14021       122  SAPE      H5R            18.4283828026        1.2742039452      -14.8769946341  MEMB      122             0.0000000000
     14022       122  SAPE      C26            19.0796668843        0.8789591686      -12.8349950891  MEMB      122             0.0000000000
     14023       122  SAPE      H6R            19.6694546024        1.8074608195      -12.8409269309  MEMB      122             0.0000000000
     14024       122  SAPE      C27            19.2926248635        0.0398439948      -11.6083161986  MEMB      122             0.0000000000
     14025       122  SAPE      H7R            20.3604834884        0.0649625167      -11.3027543361  MEMB      122             0.0000000000
     14026       122  SAPE      H7S            19.0406220102       -1.0219286044      -11.8167729936  MEMB      122             0.0000000000
     14027       122  SAPE      C28            18.3861323985        0.4436032125      -10.4735614660  MEMB      122             0.0000000000
     14028       122  SAPE      H8R            17.3770408063        0.8667994986      -10.5859847957  MEMB      122             0.0000000000
     14029       122  SAPE      C29            18.6123492293        0.3220225617       -9.1791098979  MEMB      122             0.0000000000
     14030       122  SAPE      H9R            17.8813669366        0.7450335152       -8.4743208692  MEMB      122             0.0000000000
     14031       122  SAPE      C210           19.8677050309       -0.2140188928       -8.5393360778  MEMB      122             0.0000000000
     14032       122  SAPE      H10R           20.5852524686        0.5884912371       -8.8139703587  MEMB      122             0.0000000000
     14033       122  SAPE      H10S           20.2388089184       -1.1188816048       -9.0664277289  MEMB      122             0.0000000000
     14034       122  SAPE      C211           19.9231782998       -0.4762575086       -7.0428231882  MEMB      122             0.0000000000
     14035       122  SAPE      H11R           20.4477939636        0.3202381813       -6.4947600618  MEMB      122             0.0000000000
     14036       122  SAPE      C212           19.5053184407       -1.5548641926       -6.3469449593  MEMB      122             0.0000000000
     14037       122  SAPE      H12R           19.5813456807       -1.5775256166       -5.2498090080  MEMB      122             0.0000000000
     14038       122  SAPE      C213           18.8359261977       -2.7863133188       -6.8931971038  MEMB      122             0.0000000000
     14039       122  SAPE      H13R           18.4180124404       -2.4919212105       -7.8796060144  MEMB      122             0.0000000000
     14040       122  SAPE      H13S           17.8610460407       -2.7918266926       -6.3603756315  MEMB      122             0.0000000000
     14041       122  SAPE      C214           19.6244501083       -4.0423201047       -6.9960889353  MEMB      122             0.0000000000
     14042       122  SAPE      H14R           20.0429245517       -4.2098797780       -7.9994842403  MEMB      122             0.0000000000
     14043       122  SAPE      C215           20.0521473727       -4.8602966101       -6.0273043953  MEMB      122             0.0000000000
     14044       122  SAPE      H15R           20.7005710003       -5.7364157081       -6.1755011380  MEMB      122             0.0000000000
     14045       122  SAPE      C216           19.7434571903       -4.6528062615       -4.5758390413  MEMB      122             0.0000000000
     14046       122  SAPE      H16R           19.1957254811       -5.4522796271       -4.0325603517  MEMB      122             0.0000000000
     14047       122  SAPE      H16S           19.2069621412       -3.7150655548       -4.3167322326  MEMB      122             0.0000000000
     14048       122  SAPE      C217           21.1498785725       -4.6619605372       -3.9167255079  MEMB      122             0.0000000000
     14049       122  SAPE      H17R           21.0573859104       -4.3618488132       -2.8510335635  MEMB      122             0.0000000000
     14050       122  SAPE      H17S           21.7341852447       -3.8641087060       -4.4230248890  MEMB      122             0.0000000000
     14051       122  SAPE      C218           21.8592076455       -6.0210070141       -3.8832938234  MEMB      122             0.0000000000
     14052       122  SAPE      H18R           21.9942490706       -6.5871860712       -4.8296170644  MEMB      122             0.0000000000
     14053       122  SAPE      H18S           21.2698179661       -6.6102445584       -3.1486232219  MEMB      122             0.0000000000
     14054       122  SAPE      C219           23.3035264261       -6.0404432037       -3.2643927843  MEMB      122             0.0000000000
     14055       122  SAPE      H19R           23.8788460040       -5.1872204701       -3.6831275929  MEMB      122             0.0000000000
     14056       122  SAPE      H19S           23.7226761889       -7.0487127198       -3.4693980839  MEMB      122             0.0000000000
     14057       122  SAPE      C220           23.2004784954       -5.7135309361       -1.7095468537  MEMB      122             0.0000000000
     14058       122  SAPE      H20R           24.1664645436       -5.4942306791       -1.2064563477  MEMB      122             0.0000000000
     14059       122  SAPE      H20S           22.6262453706       -6.5751777153       -1.3068777199  MEMB      122             0.0000000000
     14060       122  SAPE      H20T           22.6021915618       -4.7800025907       -1.6395567116  MEMB      122             0.0000000000
     14061       122  SAPE      C33            23.2910959970       -1.8343134411      -12.9031407643  MEMB      122             0.0000000000
     14062       122  SAPE      H3X            23.3335355549       -0.8729559650      -12.3478827005  MEMB      122             0.0000000000
     14063       122  SAPE      H3Y            24.1693666701       -2.5147198021      -12.9060644144  MEMB      122             0.0000000000
     14064       122  SAPE      C34            22.1258227929       -2.5436110909      -12.2909492018  MEMB      122             0.0000000000
     14065       122  SAPE      H4X            21.9237993162       -3.4409741186      -12.9140436656  MEMB      122             0.0000000000
     14066       122  SAPE      H4Y            21.3920002173       -1.7353054750      -12.4970253176  MEMB      122             0.0000000000
     14067       122  SAPE      C35            22.1843640661       -3.0514851440      -10.7949446761  MEMB      122             0.0000000000
     14068       122  SAPE      H5X            22.5034465023       -4.1053422356      -10.6469829762  MEMB      122             0.0000000000
     14069       122  SAPE      H5Y            21.1483016351       -3.0958452648      -10.3962864501  MEMB      122             0.0000000000
     14070       122  SAPE      C36            23.2852022221       -2.3856880367       -9.8666122169  MEMB      122             0.0000000000
     14071       122  SAPE      H6X            23.1807438552       -1.2800445042       -9.8356014179  MEMB      122             0.0000000000
     14072       122  SAPE      H6Y            24.3049934730       -2.5787076685      -10.2629587311  MEMB      122             0.0000000000
     14073       122  SAPE      C37            23.1452938887       -2.8421747192       -8.3645670922  MEMB      122             0.0000000000
     14074       122  SAPE      H7X            23.1901536468       -3.9517589388       -8.3309308150  MEMB      122             0.0000000000
     14075       122  SAPE      H7Y            22.0924152013       -2.5826178585       -8.1229107135  MEMB      122             0.0000000000
     14076       122  SAPE      C38            24.1589835426       -2.3297726182       -7.4130403436  MEMB      122             0.0000000000
     14077       122  SAPE      H8X            24.4111497747       -1.2687112322       -7.6248935599  MEMB      122             0.0000000000
     14078       122  SAPE      H8Y            25.0705182932       -2.9633832098       -7.4573458863  MEMB      122             0.0000000000
     14079       122  SAPE      C39            23.6931471616       -2.4081949951       -5.9279775150  MEMB      122             0.0000000000
     14080       122  SAPE      H9X            23.6740916145       -3.4999566215       -5.7230024348  MEMB      122             0.0000000000
     14081       122  SAPE      H9Y            22.6727795372       -1.9687045064       -5.9235961537  MEMB      122             0.0000000000
     14082       122  SAPE      C310           24.5341879489       -1.6660481736       -4.8996834120  MEMB      122             0.0000000000
     14083       122  SAPE      H10X           25.5901623887       -1.7771686201       -5.2266267467  MEMB      122             0.0000000000
     14084       122  SAPE      H10Y           24.4525994823       -2.1080120131       -3.8836466505  MEMB      122             0.0000000000
     14085       122  SAPE      C311           24.2704771123       -0.0913616679       -4.9022082540  MEMB      122             0.0000000000
     14086       122  SAPE      H11X           24.4712425153        0.2677400350       -5.9342263778  MEMB      122             0.0000000000
     14087       122  SAPE      H11Y           25.0749905160        0.3539682395       -4.2787025926  MEMB      122             0.0000000000
     14088       122  SAPE      C312           22.9007937688        0.4886773611       -4.5397642710  MEMB      122             0.0000000000
     14089       122  SAPE      H12X           22.2212171922        0.1022409357       -5.3291707038  MEMB      122             0.0000000000
     14090       122  SAPE      H12Y           22.9227711904        1.5932660922       -4.6569026706  MEMB      122             0.0000000000
     14091       122  SAPE      C313           22.4386609368        0.1199628881       -3.1243962470  MEMB      122             0.0000000000
     14092       122  SAPE      H13X           23.3668911188        0.1618107851       -2.5153327254  MEMB      122             0.0000000000
     14093       122  SAPE      H13Y           21.9930964112       -0.8972402148       -3.0913639029  MEMB      122             0.0000000000
     14094       122  SAPE      C314           21.3893701059        1.1372567577       -2.4768719859  MEMB      122             0.0000000000
     14095       122  SAPE      H14X           21.5965812105        2.1792875779       -2.8017646712  MEMB      122             0.0000000000
     14096       122  SAPE      H14Y           21.4895780698        1.1734633756       -1.3709935381  MEMB      122             0.0000000000
     14097       122  SAPE      C315           19.8817404870        0.7935211032       -2.7952848437  MEMB      122             0.0000000000
     14098       122  SAPE      H15X           19.7208007728        0.3992247541       -3.8214185819  MEMB      122             0.0000000000
     14099       122  SAPE      H15Y           19.2703970216        1.7206033656       -2.7621301557  MEMB      122             0.0000000000
     14100       122  SAPE      C316           19.2705100113       -0.3504209895       -1.9956859482  MEMB      122             0.0000000000
     14101       122  SAPE      H16X           19.3730239342       -0.2634234083       -0.8928532089  MEMB      122             0.0000000000
     14102       122  SAPE      H16Y           19.7976829045       -1.3039452610       -2.2129459111  MEMB      122             0.0000000000
     14103       122  SAPE      C317           17.7923930160       -0.6690557603       -2.4747886119  MEMB      122             0.0000000000
     14104       122  SAPE      H17X           18.0172186326       -1.1024620074       -3.4727532762  MEMB      122             0.0000000000
     14105       122  SAPE      H17Y           17.3296653329        0.3158077356       -2.6989484462  MEMB      122             0.0000000000
     14106       122  SAPE      C318           16.9562699144       -1.6898129623       -1.7058149842  MEMB      122             0.0000000000
     14107       122  SAPE      H18X           17.5985910779       -2.4750062429       -1.2528075167  MEMB      122             0.0000000000
     14108       122  SAPE      H18Y           16.3109690232       -2.2495581906       -2.4161617790  MEMB      122             0.0000000000
     14109       122  SAPE      H18Z           16.3330608091       -1.2335400778       -0.9072260824  MEMB      122             0.0000000000
     14110       123  CHL1      C3            -12.2250383520      -17.4302445917      -17.3024200000  MEMB      123             0.0000000000
     14111       123  CHL1      H3            -13.0113031019      -16.6843635610      -17.0579600000  MEMB      123             0.0000000000
     14112       123  CHL1      O3            -12.0077578480      -17.3496054083      -18.6975800000  MEMB      123             0.0000000000
     14113       123  CHL1      H3'           -12.6702848599      -17.9474313280      -19.0515100000  MEMB      123             0.0000000000
     14114       123  CHL1      C4            -10.8971276191      -17.0574260515      -16.5802600000  MEMB      123             0.0000000000
     14115       123  CHL1      H4A           -10.0467578383      -17.6882196183      -16.9168200000  MEMB      123             0.0000000000
     14116       123  CHL1      H4B           -10.5940859378      -16.0203144257      -16.8388800000  MEMB      123             0.0000000000
     14117       123  CHL1      C5            -10.9688858397      -17.2178394635      -15.0706800000  MEMB      123             0.0000000000
     14118       123  CHL1      C6            -10.8603455722      -16.2045077673      -14.2014600000  MEMB      123             0.0000000000
     14119       123  CHL1      H6            -10.7237863253      -15.2671018223      -14.7605900000  MEMB      123             0.0000000000
     14120       123  CHL1      C7            -11.0313818136      -16.2120677035      -12.7384000000  MEMB      123             0.0000000000
     14121       123  CHL1      H7A           -10.2120921183      -15.7003978231      -12.1895200000  MEMB      123             0.0000000000
     14122       123  CHL1      H7B           -11.9714147459      -15.6483256247      -12.5571700000  MEMB      123             0.0000000000
     14123       123  CHL1      C8            -11.1246876084      -17.6033727984      -12.1481900000  MEMB      123             0.0000000000
     14124       123  CHL1      H8            -10.0933506536      -18.0012476472      -12.2594500000  MEMB      123             0.0000000000
     14125       123  CHL1      C14           -11.5921202898      -17.5715569444      -10.6595800000  MEMB      123             0.0000000000
     14126       123  CHL1      H14           -12.6596138369      -17.2658712410      -10.6961500000  MEMB      123             0.0000000000
     14127       123  CHL1      C15           -10.8484838743      -16.6734676864       -9.7062800000  MEMB      123             0.0000000000
     14128       123  CHL1      H15A           -9.7479819848      -16.6691548321       -9.8586400000  MEMB      123             0.0000000000
     14129       123  CHL1      H15B          -11.2900954899      -15.6680581101       -9.8749400000  MEMB      123             0.0000000000
     14130       123  CHL1      C16           -11.1861040070      -17.2989729283       -8.3169400000  MEMB      123             0.0000000000
     14131       123  CHL1      H16A          -10.2583887838      -17.4456090007       -7.7235000000  MEMB      123             0.0000000000
     14132       123  CHL1      H16B          -11.9351776483      -16.6824069488       -7.7756000000  MEMB      123             0.0000000000
     14133       123  CHL1      C17           -11.9507349072      -18.6185733198       -8.6135200000  MEMB      123             0.0000000000
     14134       123  CHL1      H17           -13.0283096110      -18.3907497887       -8.7593000000  MEMB      123             0.0000000000
     14135       123  CHL1      C13           -11.6097296810      -18.9503465692      -10.0388100000  MEMB      123             0.0000000000
     14136       123  CHL1      C18           -10.2191408943      -19.5679877628      -10.0338800000  MEMB      123             0.0000000000
     14137       123  CHL1      H18A           -9.8928449305      -19.8572769705      -11.0557300000  MEMB      123             0.0000000000
     14138       123  CHL1      H18B           -9.5325012958      -18.9142558402       -9.4546800000  MEMB      123             0.0000000000
     14139       123  CHL1      H18C          -10.2612406702      -20.5779635137       -9.5729000000  MEMB      123             0.0000000000
     14140       123  CHL1      C12           -12.6045555575      -19.7877141933      -10.8946900000  MEMB      123             0.0000000000
     14141       123  CHL1      H12A          -12.5503722477      -20.7755928761      -10.3892300000  MEMB      123             0.0000000000
     14142       123  CHL1      H12B          -13.5802241138      -19.2765474405      -10.7494300000  MEMB      123             0.0000000000
     14143       123  CHL1      C11           -12.2245397876      -19.8821214787      -12.3603100000  MEMB      123             0.0000000000
     14144       123  CHL1      H11A          -11.3119100659      -20.5136952090      -12.4108400000  MEMB      123             0.0000000000
     14145       123  CHL1      H11B          -13.0289484716      -20.4049181513      -12.9206100000  MEMB      123             0.0000000000
     14146       123  CHL1      C9            -11.9735505639      -18.4903847153      -13.0415700000  MEMB      123             0.0000000000
     14147       123  CHL1      H9            -12.9540899306      -17.9769199403      -13.1375900000  MEMB      123             0.0000000000
     14148       123  CHL1      C10           -11.5920499090      -18.5841736023      -14.5623700000  MEMB      123             0.0000000000
     14149       123  CHL1      C19           -10.5019544023      -19.6491507605      -14.8643700000  MEMB      123             0.0000000000
     14150       123  CHL1      H19A          -10.7561386501      -20.7196219004      -14.7101000000  MEMB      123             0.0000000000
     14151       123  CHL1      H19B          -10.1465742462      -19.5545117035      -15.9127400000  MEMB      123             0.0000000000
     14152       123  CHL1      H19C           -9.5858889458      -19.5214546753      -14.2488800000  MEMB      123             0.0000000000
     14153       123  CHL1      C1            -12.8332860394      -18.9914380868      -15.4364400000  MEMB      123             0.0000000000
     14154       123  CHL1      H1A           -13.0878981332      -20.0452324330      -15.1935200000  MEMB      123             0.0000000000
     14155       123  CHL1      H1B           -13.6122416700      -18.2847259835      -15.0785000000  MEMB      123             0.0000000000
     14156       123  CHL1      C2            -12.6716746967      -18.8257409486      -16.9449300000  MEMB      123             0.0000000000
     14157       123  CHL1      H2A           -13.5975156281      -19.0193093663      -17.5277400000  MEMB      123             0.0000000000
     14158       123  CHL1      H2B           -11.9078014431      -19.5786435097      -17.2346700000  MEMB      123             0.0000000000
     14159       123  CHL1      C20           -11.8397803817      -19.6489688117       -7.4597400000  MEMB      123             0.0000000000
     14160       123  CHL1      H20           -10.7529485235      -19.6967417591       -7.2343100000  MEMB      123             0.0000000000
     14161       123  CHL1      C21           -12.4130149622      -20.9774748253       -7.6907900000  MEMB      123             0.0000000000
     14162       123  CHL1      H21A          -11.9973598330      -21.4349935847       -8.6139500000  MEMB      123             0.0000000000
     14163       123  CHL1      H21B          -13.5239141435      -20.9628086802       -7.6917900000  MEMB      123             0.0000000000
     14164       123  CHL1      H21C          -12.1917961855      -21.6741579839       -6.8541100000  MEMB      123             0.0000000000
     14165       123  CHL1      C22           -12.4886148860      -19.0408865056       -6.1275000000  MEMB      123             0.0000000000
     14166       123  CHL1      H22A          -12.8486389591      -18.0236140545       -6.3918400000  MEMB      123             0.0000000000
     14167       123  CHL1      H22B          -13.4902790332      -19.4677314777       -5.9066200000  MEMB      123             0.0000000000
     14168       123  CHL1      C23           -11.4712611057      -18.9128012078       -4.9898200000  MEMB      123             0.0000000000
     14169       123  CHL1      H23A          -10.9585622088      -19.8742948173       -4.7730800000  MEMB      123             0.0000000000
     14170       123  CHL1      H23B          -10.6456153660      -18.1984926924       -5.1957200000  MEMB      123             0.0000000000
     14171       123  CHL1      C24           -12.0160227691      -18.3266220951       -3.7151800000  MEMB      123             0.0000000000
     14172       123  CHL1      H24A          -11.1995854045      -18.2197962804       -2.9692900000  MEMB      123             0.0000000000
     14173       123  CHL1      H24B          -12.3395425411      -17.2803265876       -3.9020400000  MEMB      123             0.0000000000
     14174       123  CHL1      C25           -13.3152550494      -19.0314124003       -3.1665400000  MEMB      123             0.0000000000
     14175       123  CHL1      H25           -14.0519336428      -18.9083171790       -3.9890200000  MEMB      123             0.0000000000
     14176       123  CHL1      C26           -13.2604426169      -20.5401457327       -2.8332200000  MEMB      123             0.0000000000
     14177       123  CHL1      H26A          -12.7538412186      -20.6428567262       -1.8497900000  MEMB      123             0.0000000000
     14178       123  CHL1      H26B          -14.1967351316      -21.1381801164       -2.8275900000  MEMB      123             0.0000000000
     14179       123  CHL1      H26C          -12.6640324809      -21.0212403890       -3.6376900000  MEMB      123             0.0000000000
     14180       123  CHL1      C27           -13.7228256733      -18.2781308392       -1.9250400000  MEMB      123             0.0000000000
     14181       123  CHL1      H27A          -12.8722499352      -18.3305188265       -1.2122300000  MEMB      123             0.0000000000
     14182       123  CHL1      H27B          -13.8430147476      -17.1914191542       -2.1223700000  MEMB      123             0.0000000000
     14183       123  CHL1      H27C          -14.6451986277      -18.6120219822       -1.4034500000  MEMB      123             0.0000000000
     14184       124  SAPE      N              16.7028222988       12.1100738015      -21.2126182126  MEMB      124             0.0000000000
     14185       124  SAPE      HN1            16.2057736006       11.5715496182      -21.9505437948  MEMB      124             0.0000000000
     14186       124  SAPE      HN2            16.2851978780       11.9490613521      -20.2738610928  MEMB      124             0.0000000000
     14187       124  SAPE      HN3            16.7921551553       13.1314057358      -21.3872629649  MEMB      124             0.0000000000
     14188       124  SAPE      C12            18.0878447200       11.6652667475      -21.2781679880  MEMB      124             0.0000000000
     14189       124  SAPE      H12A           18.5826496348       12.3158091288      -22.0306862022  MEMB      124             0.0000000000
     14190       124  SAPE      H12B           17.9992242639       10.6183282007      -21.6392592395  MEMB      124             0.0000000000
     14191       124  SAPE      C11            18.8339640886       11.8984243687      -19.9542303147  MEMB      124             0.0000000000
     14192       124  SAPE      H11A           18.4362493671       11.1131303893      -19.2763974704  MEMB      124             0.0000000000
     14193       124  SAPE      H11B           18.6116741636       12.8706390324      -19.4646318197  MEMB      124             0.0000000000
     14194       124  SAPE      P              21.0150333497       10.6161390913      -19.5582206137  MEMB      124             0.0000000000
     14195       124  SAPE      O13            20.4641079545        9.3617353542      -20.0626476919  MEMB      124             0.0000000000
     14196       124  SAPE      O14            22.4191042548       10.8171307438      -19.8546751650  MEMB      124             0.0000000000
     14197       124  SAPE      O12            20.1841595768       11.8539193821      -20.1086960567  MEMB      124             0.0000000000
     14198       124  SAPE      O11            20.7394205819       10.7391529144      -17.9707439390  MEMB      124             0.0000000000
     14199       124  SAPE      C1             21.0552866996       11.8608161973      -17.2117740809  MEMB      124             0.0000000000
     14200       124  SAPE      HA             20.6132355116       12.7373007193      -17.7320498049  MEMB      124             0.0000000000
     14201       124  SAPE      HB             20.4597059613       11.7818245378      -16.2772343238  MEMB      124             0.0000000000
     14202       124  SAPE      C2             22.6116064052       12.0270838763      -16.9158442551  MEMB      124             0.0000000000
     14203       124  SAPE      HS             23.3352611378       11.9424929531      -17.7545868872  MEMB      124             0.0000000000
     14204       124  SAPE      O21            22.9801761932       11.0735766246      -15.9674746266  MEMB      124             0.0000000000
     14205       124  SAPE      C21            24.2689984387       10.7850378917      -15.6835622295  MEMB      124             0.0000000000
     14206       124  SAPE      O22            25.2541239398       11.2459552484      -16.2403563934  MEMB      124             0.0000000000
     14207       124  SAPE      C22            24.3469138288        9.8545631755      -14.3902452637  MEMB      124             0.0000000000
     14208       124  SAPE      H2R            23.3296710215        9.4897451300      -14.1324741553  MEMB      124             0.0000000000
     14209       124  SAPE      H2S            25.0218211594        8.9944053567      -14.5876026682  MEMB      124             0.0000000000
     14210       124  SAPE      C3             22.7729847811       13.4868651306      -16.3410976183  MEMB      124             0.0000000000
     14211       124  SAPE      HX             22.3944565268       14.2995145048      -16.9973280627  MEMB      124             0.0000000000
     14212       124  SAPE      HY             23.8696715286       13.6402627391      -16.2512740873  MEMB      124             0.0000000000
     14213       124  SAPE      O31            22.2433206362       13.7116089063      -14.9656687405  MEMB      124             0.0000000000
     14214       124  SAPE      C31            21.0780428402       14.1475143847      -14.8308271696  MEMB      124             0.0000000000
     14215       124  SAPE      O32            20.3478219367       14.5779732334      -15.6994861824  MEMB      124             0.0000000000
     14216       124  SAPE      C32            20.5876659665       13.9593144930      -13.3723120846  MEMB      124             0.0000000000
     14217       124  SAPE      H2X            21.4406860454       13.5361126853      -12.7999677043  MEMB      124             0.0000000000
     14218       124  SAPE      H2Y            19.7497504698       13.2324769367      -13.4349680216  MEMB      124             0.0000000000
     14219       124  SAPE      C23            24.9924505630       10.6546949670      -13.2725547010  MEMB      124             0.0000000000
     14220       124  SAPE      H3R            24.7377857670       11.7334106488      -13.1961398498  MEMB      124             0.0000000000
     14221       124  SAPE      H3S            26.0795318058       10.7713719663      -13.4699417790  MEMB      124             0.0000000000
     14222       124  SAPE      C24            24.7854997147       10.0376051654      -11.8562835048  MEMB      124             0.0000000000
     14223       124  SAPE      H4R            25.4566416467       10.6148008989      -11.1849161439  MEMB      124             0.0000000000
     14224       124  SAPE      H4S            25.2090105054        9.0220447916      -11.7026713444  MEMB      124             0.0000000000
     14225       124  SAPE      C25            23.4051744586        9.9964781394      -11.3329494734  MEMB      124             0.0000000000
     14226       124  SAPE      H5R            22.7236865802        9.4316668282      -11.9860669427  MEMB      124             0.0000000000
     14227       124  SAPE      C26            22.9843920823       10.5530974236      -10.1705405939  MEMB      124             0.0000000000
     14228       124  SAPE      H6R            21.9057968574       10.5981875333       -9.9593554870  MEMB      124             0.0000000000
     14229       124  SAPE      C27            23.8366942935       11.3649397675       -9.2199586864  MEMB      124             0.0000000000
     14230       124  SAPE      H7R            23.1101845772       11.8110340419       -8.5075650010  MEMB      124             0.0000000000
     14231       124  SAPE      H7S            24.4533725318       12.0747126813       -9.8117787627  MEMB      124             0.0000000000
     14232       124  SAPE      C28            24.7479127335       10.4540201884       -8.4772315734  MEMB      124             0.0000000000
     14233       124  SAPE      H8R            25.1872630298        9.6179607198       -9.0411247387  MEMB      124             0.0000000000
     14234       124  SAPE      C29            25.4313929381       10.7677642560       -7.3379075457  MEMB      124             0.0000000000
     14235       124  SAPE      H9R            25.9763458595        9.9504244494       -6.8429504320  MEMB      124             0.0000000000
     14236       124  SAPE      C210           25.4123619689       12.0386764448       -6.5163865656  MEMB      124             0.0000000000
     14237       124  SAPE      H10R           25.0295839786       12.8798960601       -7.1329510958  MEMB      124             0.0000000000
     14238       124  SAPE      H10S           26.4332657972       12.3766694478       -6.2373939668  MEMB      124             0.0000000000
     14239       124  SAPE      C211           24.6669670886       11.9034011582       -5.2028280784  MEMB      124             0.0000000000
     14240       124  SAPE      H11R           25.1684352600       11.2427045032       -4.4803254912  MEMB      124             0.0000000000
     14241       124  SAPE      C212           23.5746726192       12.5837205563       -4.7466324821  MEMB      124             0.0000000000
     14242       124  SAPE      H12R           23.2305577516       12.4690286770       -3.7081577995  MEMB      124             0.0000000000
     14243       124  SAPE      C213           22.8793441359       13.6072467342       -5.5421697075  MEMB      124             0.0000000000
     14244       124  SAPE      H13R           23.3764742088       13.8091131324       -6.5150171732  MEMB      124             0.0000000000
     14245       124  SAPE      H13S           23.0747189710       14.5613349492       -5.0075059816  MEMB      124             0.0000000000
     14246       124  SAPE      C214           21.4167922973       13.4088638258       -5.8671755810  MEMB      124             0.0000000000
     14247       124  SAPE      H14R           21.2658015579       13.1061515948       -6.9138689501  MEMB      124             0.0000000000
     14248       124  SAPE      C215           20.3657742964       13.3789873790       -4.9747742753  MEMB      124             0.0000000000
     14249       124  SAPE      H15R           19.3722947515       13.2670694512       -5.4335478108  MEMB      124             0.0000000000
     14250       124  SAPE      C216           20.5629910860       13.5620474217       -3.4683440880  MEMB      124             0.0000000000
     14251       124  SAPE      H16R           21.5385240818       13.3109595939       -2.9997169064  MEMB      124             0.0000000000
     14252       124  SAPE      H16S           19.8345021076       12.9236771244       -2.9241857610  MEMB      124             0.0000000000
     14253       124  SAPE      C217           20.2731552874       15.0229479900       -3.0414568994  MEMB      124             0.0000000000
     14254       124  SAPE      H17R           19.2387489153       15.2516370137       -3.3761593344  MEMB      124             0.0000000000
     14255       124  SAPE      H17S           20.8022757278       15.6981347563       -3.7474845010  MEMB      124             0.0000000000
     14256       124  SAPE      C218           20.5404876733       15.4174177605       -1.5838089139  MEMB      124             0.0000000000
     14257       124  SAPE      H18R           21.6448265993       15.4604439139       -1.4702068416  MEMB      124             0.0000000000
     14258       124  SAPE      H18S           20.2609204218       14.5744121733       -0.9163472370  MEMB      124             0.0000000000
     14259       124  SAPE      C219           19.9771227503       16.7155135766       -1.1369732669  MEMB      124             0.0000000000
     14260       124  SAPE      H19R           18.9151173435       16.4728682383       -0.9188244795  MEMB      124             0.0000000000
     14261       124  SAPE      H19S           20.1812383726       17.4145018600       -1.9760633773  MEMB      124             0.0000000000
     14262       124  SAPE      C220           20.6527391588       17.2631074956        0.2082540576  MEMB      124             0.0000000000
     14263       124  SAPE      H20R           20.3829283920       18.3193841598        0.4222682836  MEMB      124             0.0000000000
     14264       124  SAPE      H20S           21.7207258565       17.0833300609       -0.0395475332  MEMB      124             0.0000000000
     14265       124  SAPE      H20T           20.4700942624       16.4855864206        0.9805378378  MEMB      124             0.0000000000
     14266       124  SAPE      C33            20.1117177526       15.2593752844      -12.7817816747  MEMB      124             0.0000000000
     14267       124  SAPE      H3X            19.0517419211       15.4791964689      -13.0316830929  MEMB      124             0.0000000000
     14268       124  SAPE      H3Y            20.6640557698       16.1518857305      -13.1460185712  MEMB      124             0.0000000000
     14269       124  SAPE      C34            20.1161462301       15.4141406147      -11.2357445787  MEMB      124             0.0000000000
     14270       124  SAPE      H4X            19.7750167646       16.4634564071      -11.1057906919  MEMB      124             0.0000000000
     14271       124  SAPE      H4Y            21.1465986816       15.3612645112      -10.8238071185  MEMB      124             0.0000000000
     14272       124  SAPE      C35            19.0818464193       14.5823067067      -10.4580146617  MEMB      124             0.0000000000
     14273       124  SAPE      H5X            18.1886269433       14.1921359807      -10.9911622430  MEMB      124             0.0000000000
     14274       124  SAPE      H5Y            18.6020067248       15.1261333497       -9.6163921579  MEMB      124             0.0000000000
     14275       124  SAPE      C36            19.7970820477       13.3521092173       -9.8020168306  MEMB      124             0.0000000000
     14276       124  SAPE      H6X            20.5278466092       13.6685089647       -9.0272942624  MEMB      124             0.0000000000
     14277       124  SAPE      H6Y            20.3121384760       12.9110826520      -10.6820931910  MEMB      124             0.0000000000
     14278       124  SAPE      C37            18.6756531808       12.3786602954       -9.3066515315  MEMB      124             0.0000000000
     14279       124  SAPE      H7X            17.8337665808       12.4464173332      -10.0284250452  MEMB      124             0.0000000000
     14280       124  SAPE      H7Y            18.2620398515       12.8789282165       -8.4049986951  MEMB      124             0.0000000000
     14281       124  SAPE      C38            19.2518879237       11.0355882845       -8.9950067586  MEMB      124             0.0000000000
     14282       124  SAPE      H8X            20.0561714165       11.2498310040       -8.2591065957  MEMB      124             0.0000000000
     14283       124  SAPE      H8Y            19.6833647238       10.5675573403       -9.9055545938  MEMB      124             0.0000000000
     14284       124  SAPE      C39            18.2007846144       10.0561179032       -8.5121130140  MEMB      124             0.0000000000
     14285       124  SAPE      H9X            17.3880892616       10.0013470239       -9.2676569220  MEMB      124             0.0000000000
     14286       124  SAPE      H9Y            17.7534510448       10.5376387706       -7.6163717793  MEMB      124             0.0000000000
     14287       124  SAPE      C310           18.6132023712        8.6769378933       -8.2660902465  MEMB      124             0.0000000000
     14288       124  SAPE      H10X           19.4510775146        8.5155122496       -8.9775870373  MEMB      124             0.0000000000
     14289       124  SAPE      H10Y           17.7921344764        7.9590175933       -8.4776526793  MEMB      124             0.0000000000
     14290       124  SAPE      C311           19.0011870236        8.3605945433       -6.8476255173  MEMB      124             0.0000000000
     14291       124  SAPE      H11X           19.2216165497        7.2746171305       -6.7677201207  MEMB      124             0.0000000000
     14292       124  SAPE      H11Y           18.1966459030        8.6382937615       -6.1335405467  MEMB      124             0.0000000000
     14293       124  SAPE      C312           20.2922401667        9.0367951265       -6.3774953867  MEMB      124             0.0000000000
     14294       124  SAPE      H12X           20.0486043891       10.1202742773       -6.3453130743  MEMB      124             0.0000000000
     14295       124  SAPE      H12Y           20.9996544254        8.8588285461       -7.2154770789  MEMB      124             0.0000000000
     14296       124  SAPE      C313           20.8348772980        8.5970517692       -5.0498618632  MEMB      124             0.0000000000
     14297       124  SAPE      H13X           21.1800278871        7.5416263119       -5.0854838306  MEMB      124             0.0000000000
     14298       124  SAPE      H13Y           20.0775362545        8.7971638606       -4.2620096903  MEMB      124             0.0000000000
     14299       124  SAPE      C314           21.9887213667        9.6261522985       -4.7045670442  MEMB      124             0.0000000000
     14300       124  SAPE      H14X           21.5126883878       10.6105991461       -4.5081530270  MEMB      124             0.0000000000
     14301       124  SAPE      H14Y           22.5932882008        9.6876974700       -5.6346373945  MEMB      124             0.0000000000
     14302       124  SAPE      C315           22.9483396661        9.2040126197       -3.5370352188  MEMB      124             0.0000000000
     14303       124  SAPE      H15X           23.9030299789        9.6617691962       -3.8737050498  MEMB      124             0.0000000000
     14304       124  SAPE      H15Y           23.0516872452        8.0981953056       -3.5086004756  MEMB      124             0.0000000000
     14305       124  SAPE      C316           22.6391880153        9.6357120476       -2.1103114456  MEMB      124             0.0000000000
     14306       124  SAPE      H16X           21.8148272906        9.0132337898       -1.7013236187  MEMB      124             0.0000000000
     14307       124  SAPE      H16Y           22.3352200343       10.6969031306       -2.2360013982  MEMB      124             0.0000000000
     14308       124  SAPE      C317           23.7108365141        9.6079112027       -1.0042637698  MEMB      124             0.0000000000
     14309       124  SAPE      H17X           23.8666022836        8.5573066126       -0.6782443178  MEMB      124             0.0000000000
     14310       124  SAPE      H17Y           23.5431449173       10.3422064740       -0.1875551851  MEMB      124             0.0000000000
     14311       124  SAPE      C318           25.0960032632       10.0991131839       -1.5344873844  MEMB      124             0.0000000000
     14312       124  SAPE      H18X           25.5639451109        9.3507753921       -2.2092771901  MEMB      124             0.0000000000
     14313       124  SAPE      H18Y           25.7900380266       10.2499556694       -0.6801549960  MEMB      124             0.0000000000
     14314       124  SAPE      H18Z           25.1204008048       11.0258782692       -2.1467222863  MEMB      124             0.0000000000
     14315       125  CHL1      C3             15.1871192644       17.9004239777      -17.3257000000  MEMB      125             0.0000000000
     14316       125  CHL1      H3             14.0826390206       18.0077494834      -17.2715200000  MEMB      125             0.0000000000
     14317       125  CHL1      O3             15.5803943356       17.7434780223      -18.6743000000  MEMB      125             0.0000000000
     14318       125  CHL1      H3'            15.1421194610       18.4718892199      -19.1203200000  MEMB      125             0.0000000000
     14319       125  CHL1      C4             15.6919540358       19.2484446523      -16.7728900000  MEMB      125             0.0000000000
     14320       125  CHL1      H4A            16.7839948540       19.1260112946      -16.9365400000  MEMB      125             0.0000000000
     14321       125  CHL1      H4B            15.3159438303       19.9990268100      -17.5006100000  MEMB      125             0.0000000000
     14322       125  CHL1      C5             15.3320033415       19.4716647739      -15.3348600000  MEMB      125             0.0000000000
     14323       125  CHL1      C6             14.7938280283       20.6928512558      -15.0404000000  MEMB      125             0.0000000000
     14324       125  CHL1      H6             14.5221560321       21.3059261170      -15.9123600000  MEMB      125             0.0000000000
     14325       125  CHL1      C7             14.3769852929       21.0936676703      -13.6198000000  MEMB      125             0.0000000000
     14326       125  CHL1      H7A            14.6952518136       22.1072887535      -13.2948400000  MEMB      125             0.0000000000
     14327       125  CHL1      H7B            13.2678821905       21.1478807022      -13.5842300000  MEMB      125             0.0000000000
     14328       125  CHL1      C8             14.8515049233       20.0260960124      -12.5370800000  MEMB      125             0.0000000000
     14329       125  CHL1      H8             15.9340989417       20.1939767881      -12.3523900000  MEMB      125             0.0000000000
     14330       125  CHL1      C14            14.1520247910       20.2065081202      -11.2148100000  MEMB      125             0.0000000000
     14331       125  CHL1      H14            13.0953132675       19.9498352138      -11.4424300000  MEMB      125             0.0000000000
     14332       125  CHL1      C15            14.2464065638       21.6245115637      -10.7779900000  MEMB      125             0.0000000000
     14333       125  CHL1      H15A           15.2723203990       21.9303937587      -11.0750900000  MEMB      125             0.0000000000
     14334       125  CHL1      H15B           13.4862198906       22.2997705229      -11.2257200000  MEMB      125             0.0000000000
     14335       125  CHL1      C16            14.0523759257       21.4592781325       -9.2138200000  MEMB      125             0.0000000000
     14336       125  CHL1      H16A           14.8715523873       21.9228999232       -8.6236300000  MEMB      125             0.0000000000
     14337       125  CHL1      H16B           13.1199145912       21.9813393190       -8.9100500000  MEMB      125             0.0000000000
     14338       125  CHL1      C17            13.8117762797       19.9369552826       -8.9746700000  MEMB      125             0.0000000000
     14339       125  CHL1      H17            12.7756223399       19.6174306663       -9.2168000000  MEMB      125             0.0000000000
     14340       125  CHL1      C13            14.5369278478       19.3000963938      -10.1508600000  MEMB      125             0.0000000000
     14341       125  CHL1      C18            16.1046006168       19.3842856097       -9.9811900000  MEMB      125             0.0000000000
     14342       125  CHL1      H18A           16.3522703723       18.6736584946       -9.1638700000  MEMB      125             0.0000000000
     14343       125  CHL1      H18B           16.5055490162       19.0514998066      -10.9624200000  MEMB      125             0.0000000000
     14344       125  CHL1      H18C           16.3582559215       20.4256816017       -9.6888600000  MEMB      125             0.0000000000
     14345       125  CHL1      C12            14.1968724930       17.8574860328      -10.5906300000  MEMB      125             0.0000000000
     14346       125  CHL1      H12A           14.4898232156       17.0583794821       -9.8765400000  MEMB      125             0.0000000000
     14347       125  CHL1      H12B           13.1120498755       17.8607081306      -10.8303500000  MEMB      125             0.0000000000
     14348       125  CHL1      C11            14.9576013446       17.5005508769      -11.9156700000  MEMB      125             0.0000000000
     14349       125  CHL1      H11A           16.0311833235       17.3447376488      -11.6759200000  MEMB      125             0.0000000000
     14350       125  CHL1      H11B           14.5726698988       16.5327344635      -12.3023000000  MEMB      125             0.0000000000
     14351       125  CHL1      C9             14.7356789926       18.5651478475      -13.0949800000  MEMB      125             0.0000000000
     14352       125  CHL1      H9             13.6819751083       18.5046833561      -13.4419300000  MEMB      125             0.0000000000
     14353       125  CHL1      C10            15.6421036340       18.3343454319      -14.2704700000  MEMB      125             0.0000000000
     14354       125  CHL1      C19            17.1757473271       18.2942780464      -14.0337100000  MEMB      125             0.0000000000
     14355       125  CHL1      H19A           17.3591111173       17.4985602890      -13.2803500000  MEMB      125             0.0000000000
     14356       125  CHL1      H19B           17.7700585283       18.1598355898      -14.9627100000  MEMB      125             0.0000000000
     14357       125  CHL1      H19C           17.6400420493       19.2378909815      -13.6754400000  MEMB      125             0.0000000000
     14358       125  CHL1      C1             15.3052977063       16.9497467983      -14.8924700000  MEMB      125             0.0000000000
     14359       125  CHL1      H1A            15.6382466544       16.1450512170      -14.2025900000  MEMB      125             0.0000000000
     14360       125  CHL1      H1B            14.2095876646       16.9238804793      -15.0743200000  MEMB      125             0.0000000000
     14361       125  CHL1      C2             15.7521285165       16.7965594230      -16.4105100000  MEMB      125             0.0000000000
     14362       125  CHL1      H2A            15.4975104022       15.7879123883      -16.8005300000  MEMB      125             0.0000000000
     14363       125  CHL1      H2B            16.8544257191       16.9234514804      -16.3543400000  MEMB      125             0.0000000000
     14364       125  CHL1      C20            14.3254582855       19.5541836375       -7.5501700000  MEMB      125             0.0000000000
     14365       125  CHL1      H20            15.4318593128       19.6218920517       -7.6250200000  MEMB      125             0.0000000000
     14366       125  CHL1      C21            13.9016632988       18.1907482457       -7.0962700000  MEMB      125             0.0000000000
     14367       125  CHL1      H21A           13.0809692051       18.2173000660       -6.3478900000  MEMB      125             0.0000000000
     14368       125  CHL1      H21B           14.7523834038       17.7290211316       -6.5509100000  MEMB      125             0.0000000000
     14369       125  CHL1      H21C           13.5001226771       17.5839201121       -7.9358100000  MEMB      125             0.0000000000
     14370       125  CHL1      C22            14.0214326255       20.5325190262       -6.4665200000  MEMB      125             0.0000000000
     14371       125  CHL1      H22A           14.2490530137       21.5593407627       -6.8245100000  MEMB      125             0.0000000000
     14372       125  CHL1      H22B           12.9571278304       20.4454070830       -6.1599700000  MEMB      125             0.0000000000
     14373       125  CHL1      C23            14.8261479419       20.3320589899       -5.0871000000  MEMB      125             0.0000000000
     14374       125  CHL1      H23A           14.3876166760       19.4288528712       -4.6114600000  MEMB      125             0.0000000000
     14375       125  CHL1      H23B           15.9238754390       20.2718690855       -5.2473600000  MEMB      125             0.0000000000
     14376       125  CHL1      C24            14.4981521353       21.5056310046       -4.0375000000  MEMB      125             0.0000000000
     14377       125  CHL1      H24A           14.8893164357       22.4050086664       -4.5594500000  MEMB      125             0.0000000000
     14378       125  CHL1      H24B           13.4038331878       21.6361525220       -3.8969900000  MEMB      125             0.0000000000
     14379       125  CHL1      C25            15.0201560972       21.3010632463       -2.6407800000  MEMB      125             0.0000000000
     14380       125  CHL1      H25            14.8707613578       22.2996506122       -2.1773000000  MEMB      125             0.0000000000
     14381       125  CHL1      C26            14.2425077529       20.2168299471       -1.8461700000  MEMB      125             0.0000000000
     14382       125  CHL1      H26A           14.8806292621       19.7888543818       -1.0437000000  MEMB      125             0.0000000000
     14383       125  CHL1      H26B           13.2487126210       20.5876135665       -1.5157000000  MEMB      125             0.0000000000
     14384       125  CHL1      H26C           14.1302937769       19.3519469182       -2.5344400000  MEMB      125             0.0000000000
     14385       125  CHL1      C27            16.5372821224       20.9813403678       -2.6868600000  MEMB      125             0.0000000000
     14386       125  CHL1      H27A           16.6592843629       19.9388732730       -3.0511100000  MEMB      125             0.0000000000
     14387       125  CHL1      H27B           16.9875349064       21.7459812985       -3.3553800000  MEMB      125             0.0000000000
     14388       125  CHL1      H27C           16.9052018424       21.3248068537       -1.6964100000  MEMB      125             0.0000000000
     14389       126  CHL1      C3            -22.8777138188       12.1171000919      -17.3084350000  MEMB      126             0.0000000000
     14390       126  CHL1      H3            -23.2796078338       13.1528673591      -17.3080550000  MEMB      126             0.0000000000
     14391       126  CHL1      O3            -22.8974647340       11.6801027401      -18.6915650000  MEMB      126             0.0000000000
     14392       126  CHL1      H3'           -23.6874726791       11.9726074968      -19.1519350000  MEMB      126             0.0000000000
     14393       126  CHL1      C4            -21.4180293326       12.2048040818      -16.7911850000  MEMB      126             0.0000000000
     14394       126  CHL1      H4A           -21.0504059772       11.1841942449      -17.0310350000  MEMB      126             0.0000000000
     14395       126  CHL1      H4B           -20.8251875017       12.9147557340      -17.4066850000  MEMB      126             0.0000000000
     14396       126  CHL1      C5            -21.2725330632       12.4600192236      -15.3159150000  MEMB      126             0.0000000000
     14397       126  CHL1      C6            -20.4234148448       13.4207657578      -14.9844550000  MEMB      126             0.0000000000
     14398       126  CHL1      H6            -19.7569055377       13.9592375843      -15.6742550000  MEMB      126             0.0000000000
     14399       126  CHL1      C7            -20.2389954399       13.7026921243      -13.4822850000  MEMB      126             0.0000000000
     14400       126  CHL1      H7A           -19.1444210845       13.6959465357      -13.2920450000  MEMB      126             0.0000000000
     14401       126  CHL1      H7B           -20.5716583415       14.7379239984      -13.2543250000  MEMB      126             0.0000000000
     14402       126  CHL1      C8            -20.8754298494       12.6834608621      -12.4986650000  MEMB      126             0.0000000000
     14403       126  CHL1      H8            -20.1829710351       11.8159510223      -12.4514050000  MEMB      126             0.0000000000
     14404       126  CHL1      C14           -21.0791833013       13.3028864933      -11.1102650000  MEMB      126             0.0000000000
     14405       126  CHL1      H14           -21.6702193704       14.2030319294      -11.3836450000  MEMB      126             0.0000000000
     14406       126  CHL1      C15           -19.8225769321       13.8511580239      -10.3537050000  MEMB      126             0.0000000000
     14407       126  CHL1      H15A          -18.9793704942       13.1278585253      -10.3408650000  MEMB      126             0.0000000000
     14408       126  CHL1      H15B          -19.4058943270       14.8210960112      -10.6999650000  MEMB      126             0.0000000000
     14409       126  CHL1      C16           -20.4138974160       13.9345856218       -8.8604250000  MEMB      126             0.0000000000
     14410       126  CHL1      H16A          -19.7558962771       13.3769200466       -8.1601550000  MEMB      126             0.0000000000
     14411       126  CHL1      H16B          -20.6273605349       14.9652060528       -8.5046750000  MEMB      126             0.0000000000
     14412       126  CHL1      C17           -21.8266036011       13.2920042364       -8.8632650000  MEMB      126             0.0000000000
     14413       126  CHL1      H17           -22.5178531196       14.1511669267       -8.9986750000  MEMB      126             0.0000000000
     14414       126  CHL1      C13           -21.8759491282       12.4179942411      -10.1153750000  MEMB      126             0.0000000000
     14415       126  CHL1      C18           -21.0758488366       11.1414774414       -9.7977350000  MEMB      126             0.0000000000
     14416       126  CHL1      H18A          -20.1998266889       11.5249310411       -9.2321550000  MEMB      126             0.0000000000
     14417       126  CHL1      H18B          -21.7891806079       10.5681132470       -9.1678650000  MEMB      126             0.0000000000
     14418       126  CHL1      H18C          -20.8034431066       10.4313150149      -10.6075350000  MEMB      126             0.0000000000
     14419       126  CHL1      C12           -23.2545321128       12.1342941560      -10.7357450000  MEMB      126             0.0000000000
     14420       126  CHL1      H12A          -23.8646985470       11.4847968222      -10.0722850000  MEMB      126             0.0000000000
     14421       126  CHL1      H12B          -23.8251005102       13.0874914480      -10.7496750000  MEMB      126             0.0000000000
     14422       126  CHL1      C11           -23.1645494839       11.5033447610      -12.0859650000  MEMB      126             0.0000000000
     14423       126  CHL1      H11A          -22.8028879057       10.4610972437      -11.9545650000  MEMB      126             0.0000000000
     14424       126  CHL1      H11B          -24.1475618371       11.4658684937      -12.6022950000  MEMB      126             0.0000000000
     14425       126  CHL1      C9            -22.2709392756       12.3405816550      -13.0037450000  MEMB      126             0.0000000000
     14426       126  CHL1      H9            -22.8316793017       13.2800062342      -13.1970950000  MEMB      126             0.0000000000
     14427       126  CHL1      C10           -22.2585829826       11.7694110387      -14.4414350000  MEMB      126             0.0000000000
     14428       126  CHL1      C19           -21.7172730371       10.3124220085      -14.3852750000  MEMB      126             0.0000000000
     14429       126  CHL1      H19A          -22.5542523027        9.7409046848      -13.9301450000  MEMB      126             0.0000000000
     14430       126  CHL1      H19B          -21.4655670397        9.8971467911      -15.3845350000  MEMB      126             0.0000000000
     14431       126  CHL1      H19C          -20.8112684088       10.3133155694      -13.7422550000  MEMB      126             0.0000000000
     14432       126  CHL1      C1            -23.7152316201       11.7338942946      -15.0510050000  MEMB      126             0.0000000000
     14433       126  CHL1      H1A           -24.3300166730       10.9895266243      -14.5012150000  MEMB      126             0.0000000000
     14434       126  CHL1      H1B           -24.2285887092       12.7118914415      -14.9313650000  MEMB      126             0.0000000000
     14435       126  CHL1      C2            -23.7519599867       11.1359642110      -16.4593950000  MEMB      126             0.0000000000
     14436       126  CHL1      H2A           -24.7987510845       11.1800310306      -16.8290050000  MEMB      126             0.0000000000
     14437       126  CHL1      H2B           -23.3554897567       10.0983131559      -16.4390350000  MEMB      126             0.0000000000
     14438       126  CHL1      C20           -22.0248412492       12.6859581133       -7.4510150000  MEMB      126             0.0000000000
     14439       126  CHL1      H20           -21.2442749025       11.9238505758       -7.2407250000  MEMB      126             0.0000000000
     14440       126  CHL1      C21           -23.4045201531       12.0533468684       -7.2572650000  MEMB      126             0.0000000000
     14441       126  CHL1      H21A          -24.2427272179       12.7469102061       -7.4824650000  MEMB      126             0.0000000000
     14442       126  CHL1      H21B          -23.5083370739       11.5419535838       -6.2764450000  MEMB      126             0.0000000000
     14443       126  CHL1      H21C          -23.5999309678       11.3141169522       -8.0632850000  MEMB      126             0.0000000000
     14444       126  CHL1      C22           -21.8187559769       13.7196753745       -6.3009150000  MEMB      126             0.0000000000
     14445       126  CHL1      H22A          -20.7964930387       14.1343685340       -6.1692850000  MEMB      126             0.0000000000
     14446       126  CHL1      H22B          -22.4640305772       14.5973871967       -6.5189850000  MEMB      126             0.0000000000
     14447       126  CHL1      C23           -22.2073405380       13.1824117841       -4.9328650000  MEMB      126             0.0000000000
     14448       126  CHL1      H23A          -23.3035840098       13.2051383786       -4.7538050000  MEMB      126             0.0000000000
     14449       126  CHL1      H23B          -21.9106601089       12.1343066946       -4.7142750000  MEMB      126             0.0000000000
     14450       126  CHL1      C24           -21.5874027287       14.0741499929       -3.8411550000  MEMB      126             0.0000000000
     14451       126  CHL1      H24A          -20.4948667923       14.1378927732       -4.0325050000  MEMB      126             0.0000000000
     14452       126  CHL1      H24B          -22.0264442314       15.0942815748       -3.8711050000  MEMB      126             0.0000000000
     14453       126  CHL1      C25           -21.6384476101       13.5027920583       -2.3548950000  MEMB      126             0.0000000000
     14454       126  CHL1      H25           -21.0581133972       12.5564399726       -2.3107950000  MEMB      126             0.0000000000
     14455       126  CHL1      C26           -21.1729356711       14.6532767363       -1.4636950000  MEMB      126             0.0000000000
     14456       126  CHL1      H26A          -22.0098343323       15.1877572083       -0.9654450000  MEMB      126             0.0000000000
     14457       126  CHL1      H26B          -20.4838006442       14.4387049565       -0.6190850000  MEMB      126             0.0000000000
     14458       126  CHL1      H26C          -20.5189776147       15.2418025397       -2.1421550000  MEMB      126             0.0000000000
     14459       126  CHL1      C27           -23.0871675706       13.3088357062       -1.8642050000  MEMB      126             0.0000000000
     14460       126  CHL1      H27A          -23.1617872857       13.1641448969       -0.7651950000  MEMB      126             0.0000000000
     14461       126  CHL1      H27B          -23.6513496496       14.2434160856       -2.0705350000  MEMB      126             0.0000000000
     14462       126  CHL1      H27C          -23.4929749681       12.4201747044       -2.3932850000  MEMB      126             0.0000000000
     14463       127  CHL1      C3              9.6457574177      -21.9437167612      -17.3025650000  MEMB      127             0.0000000000
     14464       127  CHL1      H3              9.7534512657      -20.8772162153      -17.0105050000  MEMB      127             0.0000000000
     14465       127  CHL1      O3              9.5329719023      -21.9863304388      -18.6974350000  MEMB      127             0.0000000000
     14466       127  CHL1      H3'            10.1961518920      -22.6213163878      -18.9777650000  MEMB      127             0.0000000000
     14467       127  CHL1      C4             10.8716185499      -22.6412546466      -16.7864550000  MEMB      127             0.0000000000
     14468       127  CHL1      H4A            11.0139333610      -23.6552937467      -17.2174950000  MEMB      127             0.0000000000
     14469       127  CHL1      H4B            11.6954415967      -21.9934404136      -17.1552050000  MEMB      127             0.0000000000
     14470       127  CHL1      C5             10.8779000047      -22.7006857649      -15.2470050000  MEMB      127             0.0000000000
     14471       127  CHL1      C6             11.9670674611      -22.2896510437      -14.6430450000  MEMB      127             0.0000000000
     14472       127  CHL1      H6             12.8131366953      -21.8004560685      -15.1478850000  MEMB      127             0.0000000000
     14473       127  CHL1      C7             12.1455340061      -22.4659407394      -13.1103250000  MEMB      127             0.0000000000
     14474       127  CHL1      H7A            13.1979421979      -22.7998295819      -12.9867350000  MEMB      127             0.0000000000
     14475       127  CHL1      H7B            12.1910446667      -21.3965709589      -12.8124750000  MEMB      127             0.0000000000
     14476       127  CHL1      C8             11.0956896195      -23.3119216309      -12.4653250000  MEMB      127             0.0000000000
     14477       127  CHL1      H8             11.3698156372      -24.3859163513      -12.5409550000  MEMB      127             0.0000000000
     14478       127  CHL1      C14            11.0694831726      -23.0145888465      -10.9494550000  MEMB      127             0.0000000000
     14479       127  CHL1      H14            10.8059260918      -21.9426258917      -10.8239150000  MEMB      127             0.0000000000
     14480       127  CHL1      C15            12.3299914174      -23.2751631562      -10.1543050000  MEMB      127             0.0000000000
     14481       127  CHL1      H15A           12.9799081708      -24.1109553470      -10.4910450000  MEMB      127             0.0000000000
     14482       127  CHL1      H15B           12.8887410116      -22.3150854927      -10.1350250000  MEMB      127             0.0000000000
     14483       127  CHL1      C16            11.8415235016      -23.4605027047       -8.6747150000  MEMB      127             0.0000000000
     14484       127  CHL1      H16A           12.3052723462      -24.4284272619       -8.3876850000  MEMB      127             0.0000000000
     14485       127  CHL1      H16B           12.1656153651      -22.5897273054       -8.0655750000  MEMB      127             0.0000000000
     14486       127  CHL1      C17            10.3469823912      -23.4277974029       -8.6858450000  MEMB      127             0.0000000000
     14487       127  CHL1      H17            10.1661292329      -22.3385041793       -8.5632050000  MEMB      127             0.0000000000
     14488       127  CHL1      C13             9.9650709937      -23.8070819026      -10.1268950000  MEMB      127             0.0000000000
     14489       127  CHL1      C18            10.0305866024      -25.3059977731      -10.2780850000  MEMB      127             0.0000000000
     14490       127  CHL1      H18A            9.9277511842      -25.6631229077      -11.3250850000  MEMB      127             0.0000000000
     14491       127  CHL1      H18B           10.9985865397      -25.6524698693       -9.8570550000  MEMB      127             0.0000000000
     14492       127  CHL1      H18C            9.1721303600      -25.7837278965       -9.7592950000  MEMB      127             0.0000000000
     14493       127  CHL1      C12             8.6521166710      -23.3575642355      -10.6820850000  MEMB      127             0.0000000000
     14494       127  CHL1      H12A            7.7464917175      -23.8009909597      -10.2156750000  MEMB      127             0.0000000000
     14495       127  CHL1      H12B            8.5775266722      -22.2526988242      -10.5924350000  MEMB      127             0.0000000000
     14496       127  CHL1      C11             8.5991517014      -23.6618902531      -12.1456450000  MEMB      127             0.0000000000
     14497       127  CHL1      H11A            8.4861043515      -24.7549323083      -12.3093050000  MEMB      127             0.0000000000
     14498       127  CHL1      H11B            7.6721232683      -23.2402328369      -12.5896350000  MEMB      127             0.0000000000
     14499       127  CHL1      C9              9.6771067702      -23.0519913085      -12.9849850000  MEMB      127             0.0000000000
     14500       127  CHL1      H9              9.5569922463      -21.9554513832      -12.8527450000  MEMB      127             0.0000000000
     14501       127  CHL1      C10             9.6334673017      -23.2512177337      -14.4988250000  MEMB      127             0.0000000000
     14502       127  CHL1      C19             9.5703771392      -24.7412439421      -14.8284450000  MEMB      127             0.0000000000
     14503       127  CHL1      H19A            8.7043940692      -25.3167561465      -14.4370750000  MEMB      127             0.0000000000
     14504       127  CHL1      H19B            9.4999621770      -24.9476607663      -15.9178350000  MEMB      127             0.0000000000
     14505       127  CHL1      H19C           10.4976002618      -25.3102062167      -14.6029150000  MEMB      127             0.0000000000
     14506       127  CHL1      C1              8.4118763315      -22.4837829198      -15.1267650000  MEMB      127             0.0000000000
     14507       127  CHL1      H1A             7.4174501687      -22.7987385647      -14.7443550000  MEMB      127             0.0000000000
     14508       127  CHL1      H1B             8.5506097478      -21.3982038730      -14.9354550000  MEMB      127             0.0000000000
     14509       127  CHL1      C2              8.3790412287      -22.5070745497      -16.7253750000  MEMB      127             0.0000000000
     14510       127  CHL1      H2A             7.5472810917      -21.8173741445      -16.9838350000  MEMB      127             0.0000000000
     14511       127  CHL1      H2B             8.0047469383      -23.4678528453      -17.1390650000  MEMB      127             0.0000000000
     14512       127  CHL1      C20             9.8062905344      -24.2679941158       -7.4624150000  MEMB      127             0.0000000000
     14513       127  CHL1      H20            10.0153213115      -25.3572541775       -7.5267150000  MEMB      127             0.0000000000
     14514       127  CHL1      C21             8.3163353589      -24.1059869589       -7.3002150000  MEMB      127             0.0000000000
     14515       127  CHL1      H21A            7.6662007090      -24.2681882197       -8.1864050000  MEMB      127             0.0000000000
     14516       127  CHL1      H21B            8.0680778448      -23.0408075844       -7.1050450000  MEMB      127             0.0000000000
     14517       127  CHL1      H21C            7.8866586176      -24.7107136130       -6.4731750000  MEMB      127             0.0000000000
     14518       127  CHL1      C22            10.4074032636      -23.5960306938       -6.1570750000  MEMB      127             0.0000000000
     14519       127  CHL1      H22A           11.4821220112      -23.8679606863       -6.0839250000  MEMB      127             0.0000000000
     14520       127  CHL1      H22B           10.3867750519      -22.5011607628       -6.3445450000  MEMB      127             0.0000000000
     14521       127  CHL1      C23             9.8485693493      -23.9957504390       -4.8309750000  MEMB      127             0.0000000000
     14522       127  CHL1      H23A            8.8435037213      -23.5326468502       -4.7325450000  MEMB      127             0.0000000000
     14523       127  CHL1      H23B            9.8002598928      -25.0452206783       -4.4695950000  MEMB      127             0.0000000000
     14524       127  CHL1      C24            10.7127151863      -23.3554029983       -3.6500050000  MEMB      127             0.0000000000
     14525       127  CHL1      H24A           10.2365718770      -23.7574611078       -2.7302450000  MEMB      127             0.0000000000
     14526       127  CHL1      H24B           11.7729856797      -23.6521507596       -3.7986150000  MEMB      127             0.0000000000
     14527       127  CHL1      C25            10.8582512832      -21.8910180925       -3.7487050000  MEMB      127             0.0000000000
     14528       127  CHL1      H25            11.1687211910      -21.6354314769       -4.7843650000  MEMB      127             0.0000000000
     14529       127  CHL1      C26             9.6258895484      -21.1200702414       -3.3824350000  MEMB      127             0.0000000000
     14530       127  CHL1      H26A            8.7212739788      -21.6522750645       -3.7467850000  MEMB      127             0.0000000000
     14531       127  CHL1      H26B            9.5404692572      -21.2250194427       -2.2797050000  MEMB      127             0.0000000000
     14532       127  CHL1      H26C            9.5573987644      -20.0702215528       -3.7394350000  MEMB      127             0.0000000000
     14533       127  CHL1      C27            11.9141856385      -21.3653194298       -2.8073050000  MEMB      127             0.0000000000
     14534       127  CHL1      H27A           11.6798693368      -21.4988611766       -1.7295350000  MEMB      127             0.0000000000
     14535       127  CHL1      H27B           12.8982086228      -21.8502165141       -2.9830450000  MEMB      127             0.0000000000
     14536       127  CHL1      H27C           12.0876673051      -20.2834811848       -2.9913050000  MEMB      127             0.0000000000
     14537       128  POPC      N              -0.1421965106      -26.6278758876      -18.6945818394  MEMB      128             0.0000000000
     14538       128  POPC      C12            -0.1553830714      -25.4312372911      -17.7215226914  MEMB      128             0.0000000000
     14539       128  POPC      H12A            0.2344304668      -25.7685761141      -16.7724978875  MEMB      128             0.0000000000
     14540       128  POPC      H12B           -1.1913472867      -25.2665891414      -17.4644832993  MEMB      128             0.0000000000
     14541       128  POPC      C13            -1.4286261580      -26.6783120978      -19.4304229213  MEMB      128             0.0000000000
     14542       128  POPC      H13A           -1.4371657723      -27.5755954388      -20.0314300431  MEMB      128             0.0000000000
     14543       128  POPC      H13B           -2.2488873707      -26.7277839425      -18.7296206015  MEMB      128             0.0000000000
     14544       128  POPC      H13C           -1.5525664237      -25.8242094508      -20.0796898344  MEMB      128             0.0000000000
     14545       128  POPC      C14             0.9837724821      -26.4116169658      -19.6119501894  MEMB      128             0.0000000000
     14546       128  POPC      H14A            1.0932895275      -25.4656662914      -20.1214431987  MEMB      128             0.0000000000
     14547       128  POPC      H14B            1.8989528177      -26.6635298895      -19.0967947484  MEMB      128             0.0000000000
     14548       128  POPC      H14C            0.9005221453      -27.1087218139      -20.4326293762  MEMB      128             0.0000000000
     14549       128  POPC      C15             0.0430107697      -27.8545654478      -17.8533919569  MEMB      128             0.0000000000
     14550       128  POPC      H15A            0.7772835267      -27.5320240238      -17.1300590336  MEMB      128             0.0000000000
     14551       128  POPC      H15B            0.4497668657      -28.7212537307      -18.3531927119  MEMB      128             0.0000000000
     14552       128  POPC      H15C           -0.9058877853      -28.0182233456      -17.3643031577  MEMB      128             0.0000000000
     14553       128  POPC      C11             0.4630746524      -24.0905200183      -18.1427476806  MEMB      128             0.0000000000
     14554       128  POPC      H11A            1.5715836235      -24.1306210742      -18.0801314333  MEMB      128             0.0000000000
     14555       128  POPC      H11B            0.0733739244      -23.4817425705      -17.2990390737  MEMB      128             0.0000000000
     14556       128  POPC      P              -0.9495687138      -22.3728616874      -19.6059124920  MEMB      128             0.0000000000
     14557       128  POPC      O13            -1.9009579935      -22.5290681476      -20.7855525005  MEMB      128             0.0000000000
     14558       128  POPC      O14            -0.2607936041      -21.0449657520      -19.5240606101  MEMB      128             0.0000000000
     14559       128  POPC      O12             0.0629868295      -23.6169516781      -19.3987147719  MEMB      128             0.0000000000
     14560       128  POPC      O11            -1.7802589155      -22.5042370516      -18.2311423475  MEMB      128             0.0000000000
     14561       128  POPC      C1             -3.1218905082      -21.9617127178      -18.0999835667  MEMB      128             0.0000000000
     14562       128  POPC      HA             -3.7434738427      -22.2041421438      -18.9883432506  MEMB      128             0.0000000000
     14563       128  POPC      HB             -3.1005409790      -20.8552743015      -18.0017017239  MEMB      128             0.0000000000
     14564       128  POPC      C2             -3.8546281165      -22.6159749540      -16.9431964238  MEMB      128             0.0000000000
     14565       128  POPC      HS             -4.9485032392      -22.4327908247      -17.0080142306  MEMB      128             0.0000000000
     14566       128  POPC      O21            -3.3440792162      -22.0552130856      -15.7507218829  MEMB      128             0.0000000000
     14567       128  POPC      C21            -4.1098574895      -21.3191686257      -14.9248805926  MEMB      128             0.0000000000
     14568       128  POPC      O22            -5.1253382951      -20.6945861202      -15.2105494557  MEMB      128             0.0000000000
     14569       128  POPC      C22            -3.3614857344      -21.1849362860      -13.5560399067  MEMB      128             0.0000000000
     14570       128  POPC      H2R            -2.2818068936      -20.9500670920      -13.6720184280  MEMB      128             0.0000000000
     14571       128  POPC      H2S            -3.4331656448      -22.1339594674      -12.9828572686  MEMB      128             0.0000000000
     14572       128  POPC      C3             -3.7090967655      -24.1443896112      -16.8695824313  MEMB      128             0.0000000000
     14573       128  POPC      HX             -2.9220838249      -24.3886274423      -17.6147534353  MEMB      128             0.0000000000
     14574       128  POPC      HY             -4.6930764028      -24.5640318980      -17.1695912227  MEMB      128             0.0000000000
     14575       128  POPC      O31            -3.3570318315      -24.6010070420      -15.5262882053  MEMB      128             0.0000000000
     14576       128  POPC      C31            -2.8815239445      -25.8080964470      -15.3205080399  MEMB      128             0.0000000000
     14577       128  POPC      O32            -3.0660438056      -26.7697626120      -16.0388794806  MEMB      128             0.0000000000
     14578       128  POPC      C32            -2.1024922726      -25.9508711557      -14.0352910502  MEMB      128             0.0000000000
     14579       128  POPC      H2X            -1.1164788598      -25.4415629987      -14.0872859133  MEMB      128             0.0000000000
     14580       128  POPC      H2Y            -1.7672988816      -26.9910988036      -13.8355592717  MEMB      128             0.0000000000
     14581       128  POPC      C23            -3.9631867917      -20.1526343084      -12.6324201355  MEMB      128             0.0000000000
     14582       128  POPC      H3R            -5.0659871519      -20.0421108222      -12.5553705315  MEMB      128             0.0000000000
     14583       128  POPC      H3S            -3.5645453938      -19.2494966494      -13.1420752815  MEMB      128             0.0000000000
     14584       128  POPC      C24            -3.2407945411      -20.0642624097      -11.2907457707  MEMB      128             0.0000000000
     14585       128  POPC      H4R            -3.5317349103      -19.0393880055      -10.9756152990  MEMB      128             0.0000000000
     14586       128  POPC      H4S            -2.1603133040      -20.0929083698      -11.5477682471  MEMB      128             0.0000000000
     14587       128  POPC      C25            -3.5082107471      -21.0159023260      -10.0968086815  MEMB      128             0.0000000000
     14588       128  POPC      H5R            -3.5659350883      -22.0467613845      -10.5070749930  MEMB      128             0.0000000000
     14589       128  POPC      H5S            -4.4856358353      -20.7247930152       -9.6561081616  MEMB      128             0.0000000000
     14590       128  POPC      C26            -2.4338523378      -20.8738648353       -9.0205252131  MEMB      128             0.0000000000
     14591       128  POPC      H6R            -2.5837578699      -19.9433664077       -8.4322882443  MEMB      128             0.0000000000
     14592       128  POPC      H6S            -1.4796985366      -20.9351288848       -9.5863502570  MEMB      128             0.0000000000
     14593       128  POPC      C27            -2.4568527721      -21.9584294705       -7.9678966436  MEMB      128             0.0000000000
     14594       128  POPC      H7R            -1.9002146647      -22.8587696927       -8.3053320779  MEMB      128             0.0000000000
     14595       128  POPC      H7S            -3.4493716747      -22.2895576432       -7.5942913207  MEMB      128             0.0000000000
     14596       128  POPC      C28            -1.8076855715      -21.6506935635       -6.5903272205  MEMB      128             0.0000000000
     14597       128  POPC      H8R            -1.9671874110      -22.4860866721       -5.8754856036  MEMB      128             0.0000000000
     14598       128  POPC      H8S            -2.5774921733      -20.9662218979       -6.1741334437  MEMB      128             0.0000000000
     14599       128  POPC      C29            -0.3759019772      -21.1289721461       -6.6729638798  MEMB      128             0.0000000000
     14600       128  POPC      H91            -0.2605185888      -20.1606867691       -7.1819925521  MEMB      128             0.0000000000
     14601       128  POPC      C210            0.7538267200      -21.6117787985       -6.2125625028  MEMB      128             0.0000000000
     14602       128  POPC      H101            1.6145604449      -20.9306759390       -6.2849241116  MEMB      128             0.0000000000
     14603       128  POPC      C211            1.0036786310      -22.8842759169       -5.4566892009  MEMB      128             0.0000000000
     14604       128  POPC      H11R            1.7433856426      -23.5349117356       -5.9703302800  MEMB      128             0.0000000000
     14605       128  POPC      H11S            0.0206098343      -23.3987583651       -5.5132968209  MEMB      128             0.0000000000
     14606       128  POPC      C212            1.2986009936      -22.8053694416       -3.9807662709  MEMB      128             0.0000000000
     14607       128  POPC      H12R            2.1441963410      -22.0860487078       -3.9375590009  MEMB      128             0.0000000000
     14608       128  POPC      H12S            1.6929028384      -23.7395602548       -3.5267460694  MEMB      128             0.0000000000
     14609       128  POPC      C213            0.0787397287      -22.2896234885       -3.1149569697  MEMB      128             0.0000000000
     14610       128  POPC      H13R           -0.4860449260      -23.1803298321       -2.7656990727  MEMB      128             0.0000000000
     14611       128  POPC      H13S           -0.5050510541      -21.5535379933       -3.7079892067  MEMB      128             0.0000000000
     14612       128  POPC      C214            0.4970881548      -21.4703405858       -1.9128390410  MEMB      128             0.0000000000
     14613       128  POPC      H14R            1.1785809762      -20.5995149513       -2.0203147728  MEMB      128             0.0000000000
     14614       128  POPC      H14S            0.9584477603      -22.2067040136       -1.2205695449  MEMB      128             0.0000000000
     14615       128  POPC      C215           -0.7366784845      -20.9827206560       -1.1085417565  MEMB      128             0.0000000000
     14616       128  POPC      H15R           -1.2426659097      -21.8406328592       -0.6163170146  MEMB      128             0.0000000000
     14617       128  POPC      H15S           -1.4181966738      -20.6407857064       -1.9165855137  MEMB      128             0.0000000000
     14618       128  POPC      C216           -0.5551220422      -19.7562721468       -0.1682477206  MEMB      128             0.0000000000
     14619       128  POPC      H16R           -1.5659652154      -19.5298259192        0.2332983214  MEMB      128             0.0000000000
     14620       128  POPC      H16S           -0.3454111847      -18.8460899122       -0.7698383856  MEMB      128             0.0000000000
     14621       128  POPC      C217            0.4495191528      -19.7784281306        1.0603802365  MEMB      128             0.0000000000
     14622       128  POPC      H17R            0.8564730909      -18.8007788591        1.3964037712  MEMB      128             0.0000000000
     14623       128  POPC      H17S            1.2533081573      -20.4321767754        0.6593095876  MEMB      128             0.0000000000
     14624       128  POPC      C218           -0.1938491060      -20.4421019817        2.2858375257  MEMB      128             0.0000000000
     14625       128  POPC      H18R           -0.8911186438      -21.2813635984        2.0766094952  MEMB      128             0.0000000000
     14626       128  POPC      H18S           -0.7003832134      -19.6952693590        2.9339016107  MEMB      128             0.0000000000
     14627       128  POPC      H18T            0.6980353700      -20.7917188402        2.8485386429  MEMB      128             0.0000000000
     14628       128  POPC      C33            -2.9945187518      -25.5118241519      -12.7497700782  MEMB      128             0.0000000000
     14629       128  POPC      H3X            -3.4708100461      -26.4630608030      -12.4294319713  MEMB      128             0.0000000000
     14630       128  POPC      H3Y            -3.9127131474      -24.9306946889      -12.9811321898  MEMB      128             0.0000000000
     14631       128  POPC      C34            -2.2205227409      -25.1216988925      -11.4496658464  MEMB      128             0.0000000000
     14632       128  POPC      H4X            -2.7140949237      -24.4066405444      -10.7572792624  MEMB      128             0.0000000000
     14633       128  POPC      H4Y            -1.3474679860      -24.5381464015      -11.8123818948  MEMB      128             0.0000000000
     14634       128  POPC      C35            -1.5958036415      -26.3195598225      -10.7164291792  MEMB      128             0.0000000000
     14635       128  POPC      H5X            -0.7241087131      -26.7670864808      -11.2400599701  MEMB      128             0.0000000000
     14636       128  POPC      H5Y            -2.3643197863      -27.0834896043      -10.4712455046  MEMB      128             0.0000000000
     14637       128  POPC      C36            -0.9654016204      -25.9616739723       -9.4023538995  MEMB      128             0.0000000000
     14638       128  POPC      H6X            -1.6759106054      -25.7733653174       -8.5692642268  MEMB      128             0.0000000000
     14639       128  POPC      H6Y            -0.4349273095      -25.0089190708       -9.6149002814  MEMB      128             0.0000000000
     14640       128  POPC      C37             0.0767921693      -26.9566912606       -8.8605745750  MEMB      128             0.0000000000
     14641       128  POPC      H7X             0.8458035734      -27.1352958516       -9.6422666693  MEMB      128             0.0000000000
     14642       128  POPC      H7Y            -0.5544053682      -27.8468936287       -8.6521264786  MEMB      128             0.0000000000
     14643       128  POPC      C38             0.7371945635      -26.5345033525       -7.5223108150  MEMB      128             0.0000000000
     14644       128  POPC      H8X             1.4228672935      -25.6976889478       -7.7751259710  MEMB      128             0.0000000000
     14645       128  POPC      H8Y             1.3165737136      -27.3914577481       -7.1170078905  MEMB      128             0.0000000000
     14646       128  POPC      C39            -0.1702430541      -25.9983315592       -6.4752313698  MEMB      128             0.0000000000
     14647       128  POPC      H9X            -0.6180669243      -25.1022601948       -6.9556799224  MEMB      128             0.0000000000
     14648       128  POPC      H9Y             0.3937737798      -25.6264287584       -5.5932482591  MEMB      128             0.0000000000
     14649       128  POPC      C310           -1.2223128631      -27.0563761662       -5.9864710922  MEMB      128             0.0000000000
     14650       128  POPC      H10X           -0.6707670362      -28.0203652538       -6.0155124314  MEMB      128             0.0000000000
     14651       128  POPC      H10Y           -2.0204872631      -27.1568841696       -6.7527192026  MEMB      128             0.0000000000
     14652       128  POPC      C311           -1.6959692838      -26.7333976287       -4.5187565277  MEMB      128             0.0000000000
     14653       128  POPC      H11X           -0.8104485202      -26.4732341252       -3.9002995417  MEMB      128             0.0000000000
     14654       128  POPC      H11Y           -2.2352533927      -27.5803150874       -4.0431256410  MEMB      128             0.0000000000
     14655       128  POPC      C312           -2.7475856087      -25.5359039844       -4.4333372862  MEMB      128             0.0000000000
     14656       128  POPC      H12X           -3.6795571213      -25.8543314178       -4.9474898173  MEMB      128             0.0000000000
     14657       128  POPC      H12Y           -2.3153057835      -24.6345990443       -4.9182131338  MEMB      128             0.0000000000
     14658       128  POPC      C313           -3.0906834553      -25.3186887496       -2.9101614870  MEMB      128             0.0000000000
     14659       128  POPC      H13X           -2.1187948919      -25.1698078842       -2.3928723618  MEMB      128             0.0000000000
     14660       128  POPC      H13Y           -3.8091177255      -26.0737440091       -2.5253692252  MEMB      128             0.0000000000
     14661       128  POPC      C314           -4.1240906460      -24.2001980300       -2.7265253398  MEMB      128             0.0000000000
     14662       128  POPC      H14X           -4.3216276426      -24.0423929557       -1.6446759543  MEMB      128             0.0000000000
     14663       128  POPC      H14Y           -5.0588163794      -24.4448364345       -3.2749416129  MEMB      128             0.0000000000
     14664       128  POPC      C315           -3.6339327997      -22.8603889981       -3.2899355947  MEMB      128             0.0000000000
     14665       128  POPC      H15X           -4.1311159037      -22.6883435399       -4.2684706773  MEMB      128             0.0000000000
     14666       128  POPC      H15Y           -2.5536646321      -22.7350101255       -3.5171401933  MEMB      128             0.0000000000
     14667       128  POPC      C316           -4.1074283785      -21.6911347859       -2.4187654014  MEMB      128             0.0000000000
     14668       128  POPC      H16X           -3.8912048813      -20.7011413465       -2.8742663687  MEMB      128             0.0000000000
     14669       128  POPC      H16Y           -3.6611085855      -21.7787537302       -1.4051357201  MEMB      128             0.0000000000
     14670       128  POPC      H16Z           -5.2177015677      -21.6577792215       -2.3963656697  MEMB      128             0.0000000000
     14671       129  SAPS      N             -24.3927858828        3.1800570143      -20.3688592545  MEMB      129             0.0000000000
     14672       129  SAPS      HN1           -23.8465782775        2.3945370027      -20.7765546012  MEMB      129             0.0000000000
     14673       129  SAPS      HN2           -24.4722482618        2.9935444252      -19.3488109017  MEMB      129             0.0000000000
     14674       129  SAPS      HN3           -25.3797303006        3.2379363070      -20.6916449775  MEMB      129             0.0000000000
     14675       129  SAPS      C12           -23.6754500231        4.4412635474      -20.7785587642  MEMB      129             0.0000000000
     14676       129  SAPS      H12A          -22.7078012703        4.4369425396      -20.2989367613  MEMB      129             0.0000000000
     14677       129  SAPS      C13           -23.3950746430        4.6065081052      -22.2641498544  MEMB      129             0.0000000000
     14678       129  SAPS      O13A          -23.8139813339        3.7643670778      -23.0351410302  MEMB      129             0.0000000000
     14679       129  SAPS      O13B          -22.7543067551        5.6106064916      -22.6508312690  MEMB      129             0.0000000000
     14680       129  SAPS      C11           -24.5837847377        5.5655149685      -20.3714183453  MEMB      129             0.0000000000
     14681       129  SAPS      H11A          -25.6513735448        5.5954893099      -20.6774848722  MEMB      129             0.0000000000
     14682       129  SAPS      H11B          -24.1688821057        6.4892605167      -20.8284422956  MEMB      129             0.0000000000
     14683       129  SAPS      P             -24.9575770336        6.8617178293      -18.1122366893  MEMB      129             0.0000000000
     14684       129  SAPS      O13           -25.3081592068        7.9802563563      -19.0270647881  MEMB      129             0.0000000000
     14685       129  SAPS      O14           -25.9725820423        6.5334787401      -17.0865601967  MEMB      129             0.0000000000
     14686       129  SAPS      O12           -24.5093462101        5.6186453395      -18.8983275859  MEMB      129             0.0000000000
     14687       129  SAPS      O11           -23.6012255254        7.2838158583      -17.4068521928  MEMB      129             0.0000000000
     14688       129  SAPS      C1            -22.3630862967        7.4506132932      -17.9197512199  MEMB      129             0.0000000000
     14689       129  SAPS      HA            -22.0198190712        6.4622780254      -18.2934918558  MEMB      129             0.0000000000
     14690       129  SAPS      HB            -22.3077040076        8.1898646801      -18.7472541877  MEMB      129             0.0000000000
     14691       129  SAPS      C2            -21.4671323243        7.8348392703      -16.6718004863  MEMB      129             0.0000000000
     14692       129  SAPS      HS            -20.3977210871        7.9878607785      -16.9311549026  MEMB      129             0.0000000000
     14693       129  SAPS      O21           -21.6361312225        6.8839275010      -15.6320687261  MEMB      129             0.0000000000
     14694       129  SAPS      C21           -20.7595793517        5.8546829783      -15.6051702692  MEMB      129             0.0000000000
     14695       129  SAPS      O22           -19.8470341412        5.7277741485      -16.4235400188  MEMB      129             0.0000000000
     14696       129  SAPS      C22           -21.1185109428        4.8517202960      -14.4167768341  MEMB      129             0.0000000000
     14697       129  SAPS      H2R           -20.5946516980        3.8914406234      -14.6110840638  MEMB      129             0.0000000000
     14698       129  SAPS      H2S           -20.7586557472        5.3290718531      -13.4803152924  MEMB      129             0.0000000000
     14699       129  SAPS      C3            -21.9856052524        9.2618445176      -16.1409906631  MEMB      129             0.0000000000
     14700       129  SAPS      HX            -23.0952703328        9.3117539473      -16.1192319625  MEMB      129             0.0000000000
     14701       129  SAPS      HY            -21.5872085773       10.0203434874      -16.8482958656  MEMB      129             0.0000000000
     14702       129  SAPS      O31           -21.5857162156        9.5556648680      -14.8468417959  MEMB      129             0.0000000000
     14703       129  SAPS      C31           -22.4914404293        9.9771123714      -13.9522897111  MEMB      129             0.0000000000
     14704       129  SAPS      O32           -23.6954925244       10.2009011066      -14.0680835348  MEMB      129             0.0000000000
     14705       129  SAPS      C32           -21.7418117868       10.2961130019      -12.6103190537  MEMB      129             0.0000000000
     14706       129  SAPS      H2X           -22.1514891085       11.2686862671      -12.2630634354  MEMB      129             0.0000000000
     14707       129  SAPS      H2Y           -20.6445449280       10.4366227637      -12.7131947893  MEMB      129             0.0000000000
     14708       129  SAPS      C23           -22.6772464217        4.4607352318      -14.2639235800  MEMB      129             0.0000000000
     14709       129  SAPS      H3R           -22.8720076002        3.7100334537      -15.0594335308  MEMB      129             0.0000000000
     14710       129  SAPS      H3S           -23.2478299851        5.4013066706      -14.4191029764  MEMB      129             0.0000000000
     14711       129  SAPS      C24           -23.1102760993        4.0862047047      -12.8309820628  MEMB      129             0.0000000000
     14712       129  SAPS      H4R           -22.3758965385        3.2823248965      -12.6101089863  MEMB      129             0.0000000000
     14713       129  SAPS      H4S           -24.0905272477        3.5760756989      -12.9458610262  MEMB      129             0.0000000000
     14714       129  SAPS      C25           -23.2749035065        5.1996136710      -11.7812838176  MEMB      129             0.0000000000
     14715       129  SAPS      H5R           -22.4746578182        5.1617877483      -11.0275096469  MEMB      129             0.0000000000
     14716       129  SAPS      C26           -24.3390626188        6.0565618784      -11.6396440570  MEMB      129             0.0000000000
     14717       129  SAPS      H6R           -24.2300811293        6.8782099893      -10.9164449663  MEMB      129             0.0000000000
     14718       129  SAPS      C27           -25.6674880069        6.1913777168      -12.4572288148  MEMB      129             0.0000000000
     14719       129  SAPS      H7R           -25.9903999550        5.1741049000      -12.7657812525  MEMB      129             0.0000000000
     14720       129  SAPS      H7S           -25.3993492666        6.7328391426      -13.3895603017  MEMB      129             0.0000000000
     14721       129  SAPS      C28           -26.7184670568        6.9312089162      -11.6463326026  MEMB      129             0.0000000000
     14722       129  SAPS      H8R           -26.7385294513        8.0296679361      -11.7009701612  MEMB      129             0.0000000000
     14723       129  SAPS      C29           -27.6224375164        6.3099632059      -10.8759917593  MEMB      129             0.0000000000
     14724       129  SAPS      H9R           -28.2844303524        6.8874531600      -10.2139710277  MEMB      129             0.0000000000
     14725       129  SAPS      C210          -27.7153038947        4.8399903739      -10.6705267361  MEMB      129             0.0000000000
     14726       129  SAPS      H10R          -26.8106401338        4.3996128431      -11.1416661789  MEMB      129             0.0000000000
     14727       129  SAPS      H10S          -28.6532098637        4.4498780474      -11.1204887550  MEMB      129             0.0000000000
     14728       129  SAPS      C211          -27.8542170107        4.5004798802       -9.2058251803  MEMB      129             0.0000000000
     14729       129  SAPS      H11R          -28.8302699450        4.0471498463       -8.9782020345  MEMB      129             0.0000000000
     14730       129  SAPS      C212          -27.0314000788        4.6673454672       -8.0990341712  MEMB      129             0.0000000000
     14731       129  SAPS      H12R          -27.3467194719        4.2998840817       -7.1113367596  MEMB      129             0.0000000000
     14732       129  SAPS      C213          -25.5929402361        5.2472445291       -8.0365358299  MEMB      129             0.0000000000
     14733       129  SAPS      H13R          -25.3246445853        5.5454382164       -9.0725946732  MEMB      129             0.0000000000
     14734       129  SAPS      H13S          -24.8926262509        4.4294490920       -7.7625063812  MEMB      129             0.0000000000
     14735       129  SAPS      C214          -25.3908750109        6.5063601361       -7.2217598119  MEMB      129             0.0000000000
     14736       129  SAPS      H14R          -24.9231804774        7.3104414823       -7.8088835283  MEMB      129             0.0000000000
     14737       129  SAPS      C215          -25.7934510357        6.8213900014       -6.0233761069  MEMB      129             0.0000000000
     14738       129  SAPS      H15R          -25.6706762206        7.8463615740       -5.6434293130  MEMB      129             0.0000000000
     14739       129  SAPS      C216          -26.6269572075        6.0092226203       -5.0457755160  MEMB      129             0.0000000000
     14740       129  SAPS      H16R          -26.1232012689        5.0195584347       -5.0791757422  MEMB      129             0.0000000000
     14741       129  SAPS      H16S          -27.6730477800        5.8599811781       -5.3889114712  MEMB      129             0.0000000000
     14742       129  SAPS      C217          -26.5693468727        6.4868288101       -3.5921484075  MEMB      129             0.0000000000
     14743       129  SAPS      H17R          -25.5591367649        6.3436579229       -3.1524907231  MEMB      129             0.0000000000
     14744       129  SAPS      H17S          -27.2583351133        5.8878644513       -2.9590143948  MEMB      129             0.0000000000
     14745       129  SAPS      C218          -27.1490088658        7.9081556017       -3.3347200447  MEMB      129             0.0000000000
     14746       129  SAPS      H18R          -28.1596275048        7.9935857187       -3.7882309212  MEMB      129             0.0000000000
     14747       129  SAPS      H18S          -26.5068179403        8.6752955581       -3.8178427959  MEMB      129             0.0000000000
     14748       129  SAPS      C219          -27.3384719440        8.2645543043       -1.8419254322  MEMB      129             0.0000000000
     14749       129  SAPS      H19R          -28.1432494946        7.6426509341       -1.3948345073  MEMB      129             0.0000000000
     14750       129  SAPS      H19S          -27.6013134794        9.3432081516       -1.8836558374  MEMB      129             0.0000000000
     14751       129  SAPS      C220          -26.0891884258        8.0873394546       -0.9210780619  MEMB      129             0.0000000000
     14752       129  SAPS      H20R          -26.5160577669        8.1420501475        0.1031827636  MEMB      129             0.0000000000
     14753       129  SAPS      H20S          -25.4124962719        8.9471948586       -1.1135813436  MEMB      129             0.0000000000
     14754       129  SAPS      H20T          -25.5257936670        7.1376135641       -1.0432572390  MEMB      129             0.0000000000
     14755       129  SAPS      C33           -22.2783978302        9.2931579163      -11.5258827184  MEMB      129             0.0000000000
     14756       129  SAPS      H3X           -22.3702668919        8.2173997316      -11.7878472261  MEMB      129             0.0000000000
     14757       129  SAPS      H3Y           -23.3152225267        9.6228349015      -11.3008748686  MEMB      129             0.0000000000
     14758       129  SAPS      C34           -21.3953162753        9.4952111824      -10.2791955244  MEMB      129             0.0000000000
     14759       129  SAPS      H4X           -21.5221230800       10.5827853060      -10.0909840956  MEMB      129             0.0000000000
     14760       129  SAPS      H4Y           -20.3547922292        9.2536042416      -10.5845747715  MEMB      129             0.0000000000
     14761       129  SAPS      C35           -21.8479229972        8.7477905666       -8.9628795173  MEMB      129             0.0000000000
     14762       129  SAPS      H5X           -21.4855172868        7.6984537635       -9.0061863865  MEMB      129             0.0000000000
     14763       129  SAPS      H5Y           -22.9522829679        8.7443369113       -8.8416439508  MEMB      129             0.0000000000
     14764       129  SAPS      C36           -21.3371889257        9.4650671999       -7.7028838802  MEMB      129             0.0000000000
     14765       129  SAPS      H6X           -21.7676794189       10.4869697061       -7.7715424738  MEMB      129             0.0000000000
     14766       129  SAPS      H6Y           -20.2420966226        9.5554070416       -7.8669961348  MEMB      129             0.0000000000
     14767       129  SAPS      C37           -21.8193208460        8.9044841124       -6.2749078149  MEMB      129             0.0000000000
     14768       129  SAPS      H7X           -22.9139132154        9.0106469188       -6.1170535372  MEMB      129             0.0000000000
     14769       129  SAPS      H7Y           -21.3293636154        9.5692048936       -5.5316651916  MEMB      129             0.0000000000
     14770       129  SAPS      C38           -21.6001111322        7.4383597551       -6.1060991200  MEMB      129             0.0000000000
     14771       129  SAPS      H8X           -20.6056480820        7.2101131910       -6.5457217869  MEMB      129             0.0000000000
     14772       129  SAPS      H8Y           -22.3581330660        6.9154410483       -6.7276132284  MEMB      129             0.0000000000
     14773       129  SAPS      C39           -21.6297530879        6.8875629740       -4.6523042619  MEMB      129             0.0000000000
     14774       129  SAPS      H9X           -22.7316717548        6.8911718742       -4.5105883935  MEMB      129             0.0000000000
     14775       129  SAPS      H9Y           -21.0951332422        7.5279155350       -3.9185111845  MEMB      129             0.0000000000
     14776       129  SAPS      C310          -21.0470475452        5.4445219108       -4.3008819395  MEMB      129             0.0000000000
     14777       129  SAPS      H10X          -19.9449384640        5.5459448667       -4.2039800657  MEMB      129             0.0000000000
     14778       129  SAPS      H10Y          -21.2647326983        4.6925035366       -5.0891727007  MEMB      129             0.0000000000
     14779       129  SAPS      C311          -21.4991357052        4.8837639815       -2.8545652681  MEMB      129             0.0000000000
     14780       129  SAPS      H11X          -20.7827332846        4.0556028751       -2.6668490915  MEMB      129             0.0000000000
     14781       129  SAPS      H11Y          -22.5182478277        4.4413532222       -2.8565710608  MEMB      129             0.0000000000
     14782       129  SAPS      C312          -21.3164336266        5.9040076189       -1.6246703169  MEMB      129             0.0000000000
     14783       129  SAPS      H12X          -21.9525339876        6.8001049079       -1.7880926204  MEMB      129             0.0000000000
     14784       129  SAPS      H12Y          -20.2608298100        6.2263060788       -1.7517340463  MEMB      129             0.0000000000
     14785       129  SAPS      C313          -21.5087914302        5.4397774894       -0.1082944899  MEMB      129             0.0000000000
     14786       129  SAPS      H13X          -20.6112464489        5.7575790350        0.4641873281  MEMB      129             0.0000000000
     14787       129  SAPS      H13Y          -21.6604607827        4.3531487764        0.0665064305  MEMB      129             0.0000000000
     14788       129  SAPS      C314          -22.6835701346        6.2055584736        0.4956306631  MEMB      129             0.0000000000
     14789       129  SAPS      H14X          -23.6519524222        5.7835113614        0.1514883926  MEMB      129             0.0000000000
     14790       129  SAPS      H14Y          -22.6343183344        7.2527353338        0.1277770784  MEMB      129             0.0000000000
     14791       129  SAPS      C315          -22.6684250215        6.1905537714        2.0087749977  MEMB      129             0.0000000000
     14792       129  SAPS      H15X          -21.8023277527        6.7760255969        2.3848327574  MEMB      129             0.0000000000
     14793       129  SAPS      H15Y          -22.5989027230        5.1655598161        2.4317110030  MEMB      129             0.0000000000
     14794       129  SAPS      C316          -23.8179113824        6.8638574216        2.5862451419  MEMB      129             0.0000000000
     14795       129  SAPS      H16X          -23.6886998378        6.9956488038        3.6818067213  MEMB      129             0.0000000000
     14796       129  SAPS      H16Y          -24.7872571374        6.3211636818        2.5730730587  MEMB      129             0.0000000000
     14797       129  SAPS      C317          -24.0264861881        8.2573225203        2.0801894307  MEMB      129             0.0000000000
     14798       129  SAPS      H17X          -24.0781367632        8.3941552037        0.9788595750  MEMB      129             0.0000000000
     14799       129  SAPS      H17Y          -23.1675608544        8.8906581295        2.3891464939  MEMB      129             0.0000000000
     14800       129  SAPS      C318          -25.2400484947        8.9258366782        2.6684812151  MEMB      129             0.0000000000
     14801       129  SAPS      H18X          -25.5069946797        8.6463514189        3.7100897910  MEMB      129             0.0000000000
     14802       129  SAPS      H18Y          -26.1393453795        8.8675671189        2.0187183289  MEMB      129             0.0000000000
     14803       129  SAPS      H18Z          -25.0323274012       10.0164014641        2.7113920664  MEMB      129             0.0000000000
     14804       130  OSM       N             -21.1439989921      -16.3309595821      -22.1625868958  MEMB      130             0.0000000000
     14805       130  OSM       C15           -21.8443792900      -17.6230438921      -22.2757395791  MEMB      130             0.0000000000
     14806       130  OSM       H15A          -22.8427421268      -17.7561548050      -21.8859274035  MEMB      130             0.0000000000
     14807       130  OSM       H15B          -21.2543087682      -18.3953228081      -21.8047812907  MEMB      130             0.0000000000
     14808       130  OSM       H15C          -21.9057295289      -17.8811094243      -23.3226580888  MEMB      130             0.0000000000
     14809       130  OSM       C14           -19.7710168421      -16.4369991023      -22.7258372034  MEMB      130             0.0000000000
     14810       130  OSM       H14A          -19.8537856303      -16.3096918607      -23.7951088931  MEMB      130             0.0000000000
     14811       130  OSM       H14B          -19.2487152753      -17.3231413244      -22.3966669100  MEMB      130             0.0000000000
     14812       130  OSM       H14C          -19.1604412197      -15.5934182191      -22.4395352253  MEMB      130             0.0000000000
     14813       130  OSM       C13           -21.9649773946      -15.2287802892      -22.7720899739  MEMB      130             0.0000000000
     14814       130  OSM       H13A          -22.8725585372      -15.3299827399      -22.1955016322  MEMB      130             0.0000000000
     14815       130  OSM       H13B          -22.1626488308      -15.4683030146      -23.8064761615  MEMB      130             0.0000000000
     14816       130  OSM       H13C          -21.6087552150      -14.2337848655      -22.5496266071  MEMB      130             0.0000000000
     14817       130  OSM       C12           -21.0206068868      -16.1122926206      -20.7011020064  MEMB      130             0.0000000000
     14818       130  OSM       H12A          -20.3011661593      -16.8156696537      -20.3085897842  MEMB      130             0.0000000000
     14819       130  OSM       H12B          -21.9125331860      -16.2339098824      -20.1043801518  MEMB      130             0.0000000000
     14820       130  OSM       C11           -20.5030940751      -14.8129341017      -20.1248279905  MEMB      130             0.0000000000
     14821       130  OSM       H11A          -20.4949124491      -14.8677933861      -19.0152133830  MEMB      130             0.0000000000
     14822       130  OSM       H11B          -21.2721632699      -14.0399615962      -20.3378233955  MEMB      130             0.0000000000
     14823       130  OSM       P             -17.8909525309      -14.5619430977      -20.0484869467  MEMB      130             0.0000000000
     14824       130  OSM       O13           -16.9105847510      -14.6188689091      -21.1433793617  MEMB      130             0.0000000000
     14825       130  OSM       O14           -17.5710022850      -13.7197573327      -18.8947181132  MEMB      130             0.0000000000
     14826       130  OSM       O11           -18.1888723507      -16.0133159669      -19.4204503457  MEMB      130             0.0000000000
     14827       130  OSM       O12           -19.3263564946      -14.2166749044      -20.7307815858  MEMB      130             0.0000000000
     14828       130  OSM       C1S           -17.3000886861      -16.6249820956      -18.5562980358  MEMB      130             0.0000000000
     14829       130  OSM       H1S           -16.3031995125      -16.1396255808      -18.6267383845  MEMB      130             0.0000000000
     14830       130  OSM       H1T           -17.0806494738      -17.6307709046      -18.9740976445  MEMB      130             0.0000000000
     14831       130  OSM       NF            -16.9023926750      -16.8351572388      -16.1848942068  MEMB      130             0.0000000000
     14832       130  OSM       HNF           -16.8435503350      -17.6885962660      -15.6728507261  MEMB      130             0.0000000000
     14833       130  OSM       C2S           -17.8792224268      -16.7943033472      -17.1445335060  MEMB      130             0.0000000000
     14834       130  OSM       H2S           -18.6367387257      -16.0215259723      -16.8929281345  MEMB      130             0.0000000000
     14835       130  OSM       C3S           -18.7267989564      -18.1100345487      -17.0939365309  MEMB      130             0.0000000000
     14836       130  OSM       H3S           -18.0818993590      -18.9982982690      -17.2654393299  MEMB      130             0.0000000000
     14837       130  OSM       O3            -19.6687710136      -18.0503888844      -18.1334467032  MEMB      130             0.0000000000
     14838       130  OSM       HO3           -19.3705855263      -17.2817406183      -18.6252448630  MEMB      130             0.0000000000
     14839       130  OSM       C4S           -19.4673947269      -18.2771818248      -15.7643680224  MEMB      130             0.0000000000
     14840       130  OSM       H4S           -20.4460856880      -17.7751275482      -15.7541078863  MEMB      130             0.0000000000
     14841       130  OSM       C5S           -19.0835025604      -18.9202930645      -14.6398609668  MEMB      130             0.0000000000
     14842       130  OSM       H5S           -18.0627891401      -19.3183842608      -14.5415382571  MEMB      130             0.0000000000
     14843       130  OSM       C6S           -20.0268414799      -18.9472577153      -13.4396776721  MEMB      130             0.0000000000
     14844       130  OSM       H6S           -20.1737351894      -19.9588936288      -13.0045502169  MEMB      130             0.0000000000
     14845       130  OSM       H6T           -21.0506393444      -18.5320755203      -13.5570773120  MEMB      130             0.0000000000
     14846       130  OSM       C7S           -19.4098124897      -18.1691806289      -12.3751284820  MEMB      130             0.0000000000
     14847       130  OSM       H7S           -18.9642207799      -17.2099152203      -12.7150973018  MEMB      130             0.0000000000
     14848       130  OSM       H7T           -18.5142186761      -18.7694899704      -12.1070595561  MEMB      130             0.0000000000
     14849       130  OSM       C8S           -20.1619351158      -18.1408734633      -11.0297298916  MEMB      130             0.0000000000
     14850       130  OSM       H8S           -20.7743969734      -19.0633141544      -10.9385480224  MEMB      130             0.0000000000
     14851       130  OSM       H8T           -20.9269240678      -17.3366508919      -10.9813648235  MEMB      130             0.0000000000
     14852       130  OSM       C9S           -19.2710472883      -18.1069605106       -9.7497475433  MEMB      130             0.0000000000
     14853       130  OSM       H9S           -18.9325371631      -17.0579598143       -9.6107174195  MEMB      130             0.0000000000
     14854       130  OSM       H9T           -18.3508270418      -18.6999485477       -9.9391695926  MEMB      130             0.0000000000
     14855       130  OSM       C10S          -19.9670998740      -18.6661593039       -8.5041083638  MEMB      130             0.0000000000
     14856       130  OSM       H10S          -20.1624188233      -19.7569181922       -8.5842084779  MEMB      130             0.0000000000
     14857       130  OSM       H10T          -20.8377552205      -18.0194606735       -8.2631502369  MEMB      130             0.0000000000
     14858       130  OSM       C11S          -19.0219198444      -18.4858120757       -7.2760811181  MEMB      130             0.0000000000
     14859       130  OSM       H11S          -18.7716354134      -17.4055984412       -7.2066734496  MEMB      130             0.0000000000
     14860       130  OSM       H11T          -18.0460521320      -19.0158551210       -7.3085942064  MEMB      130             0.0000000000
     14861       130  OSM       C12S          -19.7223561861      -18.7803695945       -5.9439716724  MEMB      130             0.0000000000
     14862       130  OSM       H12S          -19.6565062119      -19.8846675879       -5.8414472935  MEMB      130             0.0000000000
     14863       130  OSM       H12T          -20.8017832539      -18.5200176442       -5.9810534333  MEMB      130             0.0000000000
     14864       130  OSM       C13S          -19.0947170085      -18.0147999379       -4.7459630624  MEMB      130             0.0000000000
     14865       130  OSM       H13S          -19.6215841634      -18.2532494173       -3.7973463142  MEMB      130             0.0000000000
     14866       130  OSM       H13T          -19.1120868104      -16.9104817994       -4.8663838164  MEMB      130             0.0000000000
     14867       130  OSM       C14S          -17.5593515772      -18.2667238515       -4.5091697416  MEMB      130             0.0000000000
     14868       130  OSM       H14S          -17.0581093536      -17.7185783357       -5.3353744393  MEMB      130             0.0000000000
     14869       130  OSM       H14T          -17.2791916547      -19.3312382684       -4.6596351396  MEMB      130             0.0000000000
     14870       130  OSM       C15S          -16.9197207616      -17.7265794967       -3.1813576637  MEMB      130             0.0000000000
     14871       130  OSM       H15S          -16.0888852865      -18.4408649153       -2.9974285490  MEMB      130             0.0000000000
     14872       130  OSM       H15T          -17.6144509629      -17.7579447627       -2.3149360970  MEMB      130             0.0000000000
     14873       130  OSM       C16S          -16.3155814083      -16.2760412217       -3.2501118823  MEMB      130             0.0000000000
     14874       130  OSM       H16S          -17.1103301050      -15.4999592476       -3.2303003963  MEMB      130             0.0000000000
     14875       130  OSM       H16T          -15.7084265352      -16.1269489966       -4.1685102421  MEMB      130             0.0000000000
     14876       130  OSM       C17S          -15.5961023267      -15.9285871270       -1.9570121451  MEMB      130             0.0000000000
     14877       130  OSM       H17S          -16.2475760132      -16.1754043115       -1.0915730251  MEMB      130             0.0000000000
     14878       130  OSM       H17T          -15.5992041998      -14.8177092808       -1.9732066390  MEMB      130             0.0000000000
     14879       130  OSM       C18S          -14.2338218196      -16.5624973627       -1.8974731755  MEMB      130             0.0000000000
     14880       130  OSM       H18S          -13.6750898680      -16.3927964966       -2.8426414552  MEMB      130             0.0000000000
     14881       130  OSM       H18T          -14.1983880551      -17.6436445129       -1.6441231000  MEMB      130             0.0000000000
     14882       130  OSM       H18U          -13.6854009578      -16.0393177802       -1.0851701794  MEMB      130             0.0000000000
     14883       130  OSM       C1F           -16.1000996694      -15.8567219224      -15.7550509182  MEMB      130             0.0000000000
     14884       130  OSM       OF            -16.1637238401      -14.7310428808      -16.1368596680  MEMB      130             0.0000000000
     14885       130  OSM       C2F           -14.9609278419      -16.3073194050      -14.9133299494  MEMB      130             0.0000000000
     14886       130  OSM       H2F           -14.1457109070      -15.5526396553      -14.8991695606  MEMB      130             0.0000000000
     14887       130  OSM       H2G           -14.5129088488      -17.1922497444      -15.4138275712  MEMB      130             0.0000000000
     14888       130  OSM       C3F           -15.4191724091      -16.6369383633      -13.5387245795  MEMB      130             0.0000000000
     14889       130  OSM       H3F           -16.1806736557      -17.4389844059      -13.6443606110  MEMB      130             0.0000000000
     14890       130  OSM       H3G           -15.9040083495      -15.7006632344      -13.1885188715  MEMB      130             0.0000000000
     14891       130  OSM       C4F           -14.3609189081      -17.1083573240      -12.4938689482  MEMB      130             0.0000000000
     14892       130  OSM       H4F           -13.3973903932      -16.5950431318      -12.6998840971  MEMB      130             0.0000000000
     14893       130  OSM       H4G           -14.1069021328      -18.1714905354      -12.6927260557  MEMB      130             0.0000000000
     14894       130  OSM       C5F           -14.5749223883      -16.6861703408      -10.9938763476  MEMB      130             0.0000000000
     14895       130  OSM       H5F           -14.3601274292      -15.5985761339      -10.9209178932  MEMB      130             0.0000000000
     14896       130  OSM       H5G           -13.7878930034      -17.1513818021      -10.3626200965  MEMB      130             0.0000000000
     14897       130  OSM       C6F           -15.8672041931      -17.1598614678      -10.4255492714  MEMB      130             0.0000000000
     14898       130  OSM       H6F           -15.9826844700      -18.2432873591      -10.6427434876  MEMB      130             0.0000000000
     14899       130  OSM       H6G           -16.7189402782      -16.7238580996      -10.9901449037  MEMB      130             0.0000000000
     14900       130  OSM       C7F           -16.1240266643      -16.8736707704       -8.9748132777  MEMB      130             0.0000000000
     14901       130  OSM       H7F           -15.2845910487      -17.2316416844       -8.3411524836  MEMB      130             0.0000000000
     14902       130  OSM       H7G           -16.9789594578      -17.5337531074       -8.7146164719  MEMB      130             0.0000000000
     14903       130  OSM       C8F           -16.4385433728      -15.4447365660       -8.6876377080  MEMB      130             0.0000000000
     14904       130  OSM       H8F           -17.2056283655      -15.0542262127       -9.3900644841  MEMB      130             0.0000000000
     14905       130  OSM       H8G           -15.6117851313      -14.7756834613       -9.0088223975  MEMB      130             0.0000000000
     14906       130  OSM       C9F           -16.8979621449      -15.3830970128       -7.2367564464  MEMB      130             0.0000000000
     14907       130  OSM       H9F           -16.6787692307      -16.3291565496       -6.7201073152  MEMB      130             0.0000000000
     14908       130  OSM       C10F          -17.7189813550      -14.4902866237       -6.5629259722  MEMB      130             0.0000000000
     14909       130  OSM       H10F          -17.8203841950      -14.7787263476       -5.5062710965  MEMB      130             0.0000000000
     14910       130  OSM       C11F          -18.3448405329      -13.2818915611       -7.1678935515  MEMB      130             0.0000000000
     14911       130  OSM       H11F          -18.3877649106      -13.3507109890       -8.2759283849  MEMB      130             0.0000000000
     14912       130  OSM       H11G          -17.6271031935      -12.4460916267       -7.0243228212  MEMB      130             0.0000000000
     14913       130  OSM       C12F          -19.7545456796      -12.9354887678       -6.7042183226  MEMB      130             0.0000000000
     14914       130  OSM       H12F          -20.3853539444      -13.8467382235       -6.7818490402  MEMB      130             0.0000000000
     14915       130  OSM       H12G          -20.1951050877      -12.0879175632       -7.2715376333  MEMB      130             0.0000000000
     14916       130  OSM       C13F          -19.9002826645      -12.3819553785       -5.2452154272  MEMB      130             0.0000000000
     14917       130  OSM       H13F          -20.7662852453      -11.6894623822       -5.1758330421  MEMB      130             0.0000000000
     14918       130  OSM       H13G          -18.9823447778      -11.7800934076       -5.0735377140  MEMB      130             0.0000000000
     14919       130  OSM       C14F          -20.0688315687      -13.4132354044       -4.1315708959  MEMB      130             0.0000000000
     14920       130  OSM       H14F          -19.1840967911      -14.0851533419       -4.1411386558  MEMB      130             0.0000000000
     14921       130  OSM       H14G          -20.9763453552      -14.0299782004       -4.3058353566  MEMB      130             0.0000000000
     14922       130  OSM       C15F          -20.2206592398      -12.8433998327       -2.7079669303  MEMB      130             0.0000000000
     14923       130  OSM       H15F          -21.2620810256      -12.4566009384       -2.7201448866  MEMB      130             0.0000000000
     14924       130  OSM       H15G          -19.5562712411      -11.9842634896       -2.4738841291  MEMB      130             0.0000000000
     14925       130  OSM       C16F          -20.1001221890      -13.9822594924       -1.6981639541  MEMB      130             0.0000000000
     14926       130  OSM       H16F          -19.0160522009      -14.2252892157       -1.6910818724  MEMB      130             0.0000000000
     14927       130  OSM       H16G          -20.5984418618      -14.9043562871       -2.0665875366  MEMB      130             0.0000000000
     14928       130  OSM       C17F          -20.3613611945      -13.5341803806       -0.2791628205  MEMB      130             0.0000000000
     14929       130  OSM       H17F          -20.7932810914      -14.3363341376        0.3566955051  MEMB      130             0.0000000000
     14930       130  OSM       H17G          -21.1967280871      -12.8070497447       -0.1910485641  MEMB      130             0.0000000000
     14931       130  OSM       C18F          -19.0561020044      -13.0055671821        0.4417542387  MEMB      130             0.0000000000
     14932       130  OSM       H18F          -18.2332061641      -13.7510353758        0.4797083454  MEMB      130             0.0000000000
     14933       130  OSM       H18G          -19.3002335133      -12.8843730390        1.5188030753  MEMB      130             0.0000000000
     14934       130  OSM       H18H          -18.6902938908      -12.0556312715       -0.0033597557  MEMB      130             0.0000000000
     14935       131  SLPC      N               2.9071000734       26.5923612530      -18.3221768921  MEMB      131             0.0000000000
     14936       131  SLPC      C13             4.2397452254       25.9963581404      -18.2730311040  MEMB      131             0.0000000000
     14937       131  SLPC      H13A            5.0019410637       26.6769205729      -17.9233281048  MEMB      131             0.0000000000
     14938       131  SLPC      H13B            4.1209206152       25.2546123458      -17.4970839270  MEMB      131             0.0000000000
     14939       131  SLPC      H13C            4.5075773408       25.5966087460      -19.2399159994  MEMB      131             0.0000000000
     14940       131  SLPC      C14             1.8855383420       25.8060357457      -19.1472562224  MEMB      131             0.0000000000
     14941       131  SLPC      H14A            2.2677303031       25.5844819959      -20.1327729777  MEMB      131             0.0000000000
     14942       131  SLPC      H14B            1.6699150982       24.8876075295      -18.6215222959  MEMB      131             0.0000000000
     14943       131  SLPC      H14C            1.0584629666       26.4844309352      -19.2960058638  MEMB      131             0.0000000000
     14944       131  SLPC      C15             3.0813717500       27.9999083212      -18.8942859213  MEMB      131             0.0000000000
     14945       131  SLPC      H15A            3.8266800145       28.5770758929      -18.3672250436  MEMB      131             0.0000000000
     14946       131  SLPC      H15B            3.4574048544       27.9182604891      -19.9034106816  MEMB      131             0.0000000000
     14947       131  SLPC      H15C            2.1344340053       28.5177866645      -18.9331565303  MEMB      131             0.0000000000
     14948       131  SLPC      C12             2.4195346369       26.6208128541      -16.8110196984  MEMB      131             0.0000000000
     14949       131  SLPC      H12A            1.4266783277       27.0457220169      -16.8204328039  MEMB      131             0.0000000000
     14950       131  SLPC      H12B            3.1025620775       27.1700651598      -16.1799925100  MEMB      131             0.0000000000
     14951       131  SLPC      C11             2.1588322889       25.3096248842      -16.1083182476  MEMB      131             0.0000000000
     14952       131  SLPC      H11A            1.2502688778       24.7924884121      -16.4843545940  MEMB      131             0.0000000000
     14953       131  SLPC      H11B            1.8289968138       25.5084614469      -15.0662080170  MEMB      131             0.0000000000
     14954       131  SLPC      P               3.2771084218       22.9327831765      -15.9517446346  MEMB      131             0.0000000000
     14955       131  SLPC      O13             2.5239492096       22.4173907869      -17.1476907681  MEMB      131             0.0000000000
     14956       131  SLPC      O14             4.6990275418       22.3954187495      -15.8140220470  MEMB      131             0.0000000000
     14957       131  SLPC      O12             3.3857419506       24.4998640999      -15.9747640934  MEMB      131             0.0000000000
     14958       131  SLPC      O11             2.5266815923       22.6972895462      -14.5556903751  MEMB      131             0.0000000000
     14959       131  SLPC      C1              1.5902951806       21.5994639115      -14.4750391726  MEMB      131             0.0000000000
     14960       131  SLPC      HA              1.5409626120       20.9841078217      -15.3987403553  MEMB      131             0.0000000000
     14961       131  SLPC      HB              1.7937795321       20.8363255678      -13.6936718146  MEMB      131             0.0000000000
     14962       131  SLPC      C2              0.1343292046       22.1783679390      -14.4825779570  MEMB      131             0.0000000000
     14963       131  SLPC      HS              0.0490516462       22.7057573365      -15.4566976005  MEMB      131             0.0000000000
     14964       131  SLPC      O21            -0.0299484908       23.0421800441      -13.3463783424  MEMB      131             0.0000000000
     14965       131  SLPC      C21            -1.1150300977       23.8157590867      -13.3111777704  MEMB      131             0.0000000000
     14966       131  SLPC      O22            -1.9612463635       23.9639385554      -14.1802823513  MEMB      131             0.0000000000
     14967       131  SLPC      C22            -1.2155760101       24.5377476391      -11.9215562083  MEMB      131             0.0000000000
     14968       131  SLPC      H2R            -0.8152050258       25.5701107943      -12.0123885932  MEMB      131             0.0000000000
     14969       131  SLPC      H2S            -2.2918198284       24.6458981082      -11.6679360605  MEMB      131             0.0000000000
     14970       131  SLPC      C3             -0.8795093250       21.0268003944      -14.3858244286  MEMB      131             0.0000000000
     14971       131  SLPC      HX             -0.8096211168       20.4957241673      -15.3591665464  MEMB      131             0.0000000000
     14972       131  SLPC      HY             -1.9321900460       21.3789301444      -14.3390393833  MEMB      131             0.0000000000
     14973       131  SLPC      O31            -0.5030651894       20.1765199836      -13.3105634074  MEMB      131             0.0000000000
     14974       131  SLPC      C31            -1.3747667221       20.0009624320      -12.3331303935  MEMB      131             0.0000000000
     14975       131  SLPC      O32            -2.4230527534       20.5901211905      -12.2151917016  MEMB      131             0.0000000000
     14976       131  SLPC      C32            -0.9318298898       18.9183530238      -11.3696306677  MEMB      131             0.0000000000
     14977       131  SLPC      H2X            -0.2053974376       18.2875975162      -11.9252963497  MEMB      131             0.0000000000
     14978       131  SLPC      H2Y            -1.7449907999       18.3514867085      -10.8678808118  MEMB      131             0.0000000000
     14979       131  SLPC      C23            -0.6154645662       23.7246137667      -10.6504559211  MEMB      131             0.0000000000
     14980       131  SLPC      H3R             0.4256288644       23.4017833777      -10.8654577713  MEMB      131             0.0000000000
     14981       131  SLPC      H3S            -1.2222987653       22.8070023911      -10.4953349740  MEMB      131             0.0000000000
     14982       131  SLPC      C24            -0.6563628704       24.7848202733       -9.5144070788  MEMB      131             0.0000000000
     14983       131  SLPC      H4R            -1.6402096997       25.3007346529       -9.5285166951  MEMB      131             0.0000000000
     14984       131  SLPC      H4S             0.2136748970       25.4631561008       -9.6456165055  MEMB      131             0.0000000000
     14985       131  SLPC      C25            -0.4486293353       24.2005922825       -8.0342401155  MEMB      131             0.0000000000
     14986       131  SLPC      H5R            -0.5337949008       25.0602640554       -7.3356472608  MEMB      131             0.0000000000
     14987       131  SLPC      H5S             0.5958812943       23.8355277388       -8.1344716949  MEMB      131             0.0000000000
     14988       131  SLPC      C26            -1.2451662414       23.0094691450       -7.6871296567  MEMB      131             0.0000000000
     14989       131  SLPC      H6R            -1.0864592911       22.7180042561       -6.6268555942  MEMB      131             0.0000000000
     14990       131  SLPC      H6S            -1.0168086549       22.0960610518       -8.2769261249  MEMB      131             0.0000000000
     14991       131  SLPC      C27            -2.7422993091       23.3178458259       -7.8005067029  MEMB      131             0.0000000000
     14992       131  SLPC      H7R            -3.0355395722       22.5587377861       -8.5568706878  MEMB      131             0.0000000000
     14993       131  SLPC      H7S            -3.1115266570       24.1696961034       -8.4107061607  MEMB      131             0.0000000000
     14994       131  SLPC      C28            -3.5938356383       23.1454593725       -6.5093609623  MEMB      131             0.0000000000
     14995       131  SLPC      H8R            -3.0439172550       22.3643078732       -5.9421625282  MEMB      131             0.0000000000
     14996       131  SLPC      H8S            -4.5958168381       22.6674524518       -6.5525376824  MEMB      131             0.0000000000
     14997       131  SLPC      C29            -3.9026675676       24.4639726745       -5.8353160917  MEMB      131             0.0000000000
     14998       131  SLPC      H9R            -4.5715583627       25.2132487338       -6.2838357231  MEMB      131             0.0000000000
     14999       131  SLPC      C210           -3.5105238699       24.8386720111       -4.6067789779  MEMB      131             0.0000000000
     15000       131  SLPC      H10R           -3.6239087409       25.8951213410       -4.3220711752  MEMB      131             0.0000000000
     15001       131  SLPC      C211           -2.6567258594       24.0674905482       -3.5693471669  MEMB      131             0.0000000000
     15002       131  SLPC      H11R           -3.2431164676       23.1703398916       -3.2767925013  MEMB      131             0.0000000000
     15003       131  SLPC      H11S           -2.8017483510       24.5793564565       -2.5940098670  MEMB      131             0.0000000000
     15004       131  SLPC      C212           -1.1725227645       23.8854605130       -3.8639923310  MEMB      131             0.0000000000
     15005       131  SLPC      H12R           -0.6146371332       24.6991448608       -4.3504914111  MEMB      131             0.0000000000
     15006       131  SLPC      C213           -0.5049100297       22.6816338996       -3.6346280071  MEMB      131             0.0000000000
     15007       131  SLPC      H13R            0.5660742440       22.5847422640       -3.8661543853  MEMB      131             0.0000000000
     15008       131  SLPC      C214           -1.1676985721       21.4236197215       -3.1271347836  MEMB      131             0.0000000000
     15009       131  SLPC      H14R           -0.6712626373       20.5237484084       -3.5491583593  MEMB      131             0.0000000000
     15010       131  SLPC      H14S           -2.2018560580       21.4297324846       -3.5330927864  MEMB      131             0.0000000000
     15011       131  SLPC      C215           -1.2753605194       21.2900534262       -1.5934569883  MEMB      131             0.0000000000
     15012       131  SLPC      H15R           -2.1160985001       20.6262510153       -1.2987619497  MEMB      131             0.0000000000
     15013       131  SLPC      H15S           -1.3676536575       22.3057447263       -1.1528050718  MEMB      131             0.0000000000
     15014       131  SLPC      C216            0.0197685100       20.7027558596       -0.9416267509  MEMB      131             0.0000000000
     15015       131  SLPC      H16R            0.9240471769       21.2171849437       -1.3314509352  MEMB      131             0.0000000000
     15016       131  SLPC      H16S            0.0972883212       19.6250354883       -1.2001421668  MEMB      131             0.0000000000
     15017       131  SLPC      C217            0.1625341399       20.7300160663        0.5695407452  MEMB      131             0.0000000000
     15018       131  SLPC      H17R           -0.6944927862       20.1881499796        1.0236404847  MEMB      131             0.0000000000
     15019       131  SLPC      H17S            0.2008681077       21.7815822199        0.9259961932  MEMB      131             0.0000000000
     15020       131  SLPC      C218            1.4545122782       20.1347203090        1.2272457299  MEMB      131             0.0000000000
     15021       131  SLPC      H18R            1.4827092569       20.2578066915        2.3310465661  MEMB      131             0.0000000000
     15022       131  SLPC      H18S            2.2636920179       20.7888622888        0.8378291710  MEMB      131             0.0000000000
     15023       131  SLPC      H18T            1.5555732616       19.0589168910        0.9688766937  MEMB      131             0.0000000000
     15024       131  SLPC      C33            -0.2399272414       19.6235503262      -10.1668075039  MEMB      131             0.0000000000
     15025       131  SLPC      H3X            -0.0706254474       18.8180760395       -9.4205706294  MEMB      131             0.0000000000
     15026       131  SLPC      H3Y            -1.0219343043       20.2783369179       -9.7263069686  MEMB      131             0.0000000000
     15027       131  SLPC      C34             1.0510369847       20.3812768374      -10.4214099439  MEMB      131             0.0000000000
     15028       131  SLPC      H4X             0.9443747524       21.1765906890      -11.1897982316  MEMB      131             0.0000000000
     15029       131  SLPC      H4Y             1.6751543037       19.6303379598      -10.9513995753  MEMB      131             0.0000000000
     15030       131  SLPC      C35             1.8069995467       20.8793095654       -9.1814146366  MEMB      131             0.0000000000
     15031       131  SLPC      H5X             2.3264021607       20.0286663376       -8.6905501083  MEMB      131             0.0000000000
     15032       131  SLPC      H5Y             1.0346758326       21.2069688539       -8.4530764587  MEMB      131             0.0000000000
     15033       131  SLPC      C36             2.8475255837       21.9510012365       -9.4844635838  MEMB      131             0.0000000000
     15034       131  SLPC      H6X             2.4423671954       22.8319644098      -10.0267469978  MEMB      131             0.0000000000
     15035       131  SLPC      H6Y             3.5683618141       21.4029145386      -10.1281378446  MEMB      131             0.0000000000
     15036       131  SLPC      C37             3.5699595292       22.3985805858       -8.2243109683  MEMB      131             0.0000000000
     15037       131  SLPC      H7X             4.5896160656       21.9604865577       -8.1724001538  MEMB      131             0.0000000000
     15038       131  SLPC      H7Y             3.0546483246       21.9761540524       -7.3353060395  MEMB      131             0.0000000000
     15039       131  SLPC      C38             3.6285442838       23.9555235661       -8.1066053392  MEMB      131             0.0000000000
     15040       131  SLPC      H8X             2.5597390236       24.2414850310       -8.2076127372  MEMB      131             0.0000000000
     15041       131  SLPC      H8Y             4.1520536150       24.3452248651       -9.0057111944  MEMB      131             0.0000000000
     15042       131  SLPC      C39             4.2803664064       24.5928667786       -6.9095337208  MEMB      131             0.0000000000
     15043       131  SLPC      H9X             4.3753056791       25.6991254208       -6.9482548312  MEMB      131             0.0000000000
     15044       131  SLPC      H9Y             5.2851703118       24.1356329182       -6.7845254587  MEMB      131             0.0000000000
     15045       131  SLPC      C310            3.5326256499       24.2723534986       -5.5684076700  MEMB      131             0.0000000000
     15046       131  SLPC      H10X            3.4848702992       23.1877300984       -5.3325411575  MEMB      131             0.0000000000
     15047       131  SLPC      H10Y            2.4750560046       24.6068817747       -5.6313244558  MEMB      131             0.0000000000
     15048       131  SLPC      C311            4.1791683574       24.9742783932       -4.4337828161  MEMB      131             0.0000000000
     15049       131  SLPC      H11X            4.4994485509       26.0154255883       -4.6523084581  MEMB      131             0.0000000000
     15050       131  SLPC      H11Y            5.0630811255       24.3397364830       -4.2093372921  MEMB      131             0.0000000000
     15051       131  SLPC      C312            3.2900381356       25.1112355702       -3.1246101879  MEMB      131             0.0000000000
     15052       131  SLPC      H12X            3.9730213336       25.0107878659       -2.2541129079  MEMB      131             0.0000000000
     15053       131  SLPC      H12Y            2.6640190705       24.1943643938       -3.0825562288  MEMB      131             0.0000000000
     15054       131  SLPC      C313            2.5407256755       26.4668700091       -3.0665672611  MEMB      131             0.0000000000
     15055       131  SLPC      H13X            1.7014078741       26.5012941483       -3.7936724696  MEMB      131             0.0000000000
     15056       131  SLPC      H13Y            3.2776226079       27.2750337718       -3.2619512449  MEMB      131             0.0000000000
     15057       131  SLPC      C314            2.1376712551       26.6520824868       -1.5207071774  MEMB      131             0.0000000000
     15058       131  SLPC      H14X            1.8210773304       27.6918430870       -1.2905185611  MEMB      131             0.0000000000
     15059       131  SLPC      H14Y            3.1051610069       26.5702467337       -0.9807192760  MEMB      131             0.0000000000
     15060       131  SLPC      C315            1.0993149260       25.6207128227       -1.1168166802  MEMB      131             0.0000000000
     15061       131  SLPC      H15X            1.7161537130       24.7002751020       -1.0354218968  MEMB      131             0.0000000000
     15062       131  SLPC      H15Y            0.2633330193       25.4935321254       -1.8374277983  MEMB      131             0.0000000000
     15063       131  SLPC      C316            0.4976726095       25.9477794435        0.2698702383  MEMB      131             0.0000000000
     15064       131  SLPC      H16X            0.1913647701       27.0150393097        0.3079890460  MEMB      131             0.0000000000
     15065       131  SLPC      H16Y            1.3958689048       25.7294162893        0.8862155316  MEMB      131             0.0000000000
     15066       131  SLPC      C317           -0.5471903632       24.9447452850        0.6671860696  MEMB      131             0.0000000000
     15067       131  SLPC      H17X           -0.4058967194       24.7880095795        1.7579606498  MEMB      131             0.0000000000
     15068       131  SLPC      H17Y           -0.5107703431       23.9131988069        0.2562036694  MEMB      131             0.0000000000
     15069       131  SLPC      C318           -1.9388315592       25.3682830695        0.2486987251  MEMB      131             0.0000000000
     15070       131  SLPC      H18X           -2.6349527412       24.5224218061        0.4337794064  MEMB      131             0.0000000000
     15071       131  SLPC      H18Y           -1.9842726745       25.7908157627       -0.7778107514  MEMB      131             0.0000000000
     15072       131  SLPC      H18Z           -2.2611302342       26.2629662441        0.8231441463  MEMB      131             0.0000000000
     15073       132  SAPE      N              22.0294902601        4.9752747492      -18.4938557889  MEMB      132             0.0000000000
     15074       132  SAPE      HN1            22.0740047339        4.8638810714      -17.4607971651  MEMB      132             0.0000000000
     15075       132  SAPE      HN2            21.0367748298        5.0080785973      -18.8021415675  MEMB      132             0.0000000000
     15076       132  SAPE      HN3            22.4825744349        4.2372348076      -19.0697130762  MEMB      132             0.0000000000
     15077       132  SAPE      C12            22.6352379585        6.2066262687      -18.8068920076  MEMB      132             0.0000000000
     15078       132  SAPE      H12A           22.9790777834        6.6186077638      -17.8340782320  MEMB      132             0.0000000000
     15079       132  SAPE      H12B           21.8306068061        6.8231877843      -19.2615806140  MEMB      132             0.0000000000
     15080       132  SAPE      C11            23.8888997150        6.0581441726      -19.7022540511  MEMB      132             0.0000000000
     15081       132  SAPE      H11A           24.4225736515        7.0086041925      -19.4874544740  MEMB      132             0.0000000000
     15082       132  SAPE      H11B           23.5147385834        6.1432714178      -20.7448843031  MEMB      132             0.0000000000
     15083       132  SAPE      P              25.6903705658        4.3030361296      -20.6638069449  MEMB      132             0.0000000000
     15084       132  SAPE      O13            25.0175387324        4.3084146850      -21.9664607533  MEMB      132             0.0000000000
     15085       132  SAPE      O14            27.0284484515        4.9188333581      -20.6824463968  MEMB      132             0.0000000000
     15086       132  SAPE      O12            24.7171893551        4.8717052305      -19.4961484752  MEMB      132             0.0000000000
     15087       132  SAPE      O11            26.0724561651        2.8069610631      -20.1881355484  MEMB      132             0.0000000000
     15088       132  SAPE      C1             25.1325459223        1.8031450401      -20.2881969457  MEMB      132             0.0000000000
     15089       132  SAPE      HA             24.3733352592        1.9850159681      -21.0786670665  MEMB      132             0.0000000000
     15090       132  SAPE      HB             25.6570064587        0.9255763690      -20.7230939369  MEMB      132             0.0000000000
     15091       132  SAPE      C2             24.4627372049        1.4258188194      -18.8943011700  MEMB      132             0.0000000000
     15092       132  SAPE      HS             23.8832361888        2.3424252281      -18.6527801595  MEMB      132             0.0000000000
     15093       132  SAPE      O21            25.5339843977        1.1676546960      -17.9530417432  MEMB      132             0.0000000000
     15094       132  SAPE      C21            25.7677620307        2.1117026967      -17.0501915481  MEMB      132             0.0000000000
     15095       132  SAPE      O22            25.2223284401        3.2227759665      -17.0334452541  MEMB      132             0.0000000000
     15096       132  SAPE      C22            26.9369046494        1.7444756015      -16.1447460007  MEMB      132             0.0000000000
     15097       132  SAPE      H2R            27.3246470115        0.7588261203      -16.4801141431  MEMB      132             0.0000000000
     15098       132  SAPE      H2S            27.7501430144        2.4900148829      -16.2756484512  MEMB      132             0.0000000000
     15099       132  SAPE      C3             23.4428451763        0.2310383202      -19.0626476561  MEMB      132             0.0000000000
     15100       132  SAPE      HX             24.1084043372       -0.4725405561      -19.6070086668  MEMB      132             0.0000000000
     15101       132  SAPE      HY             22.6511906248        0.4603263396      -19.8076517435  MEMB      132             0.0000000000
     15102       132  SAPE      O31            23.0572579205       -0.3832152154      -17.8411970913  MEMB      132             0.0000000000
     15103       132  SAPE      C31            21.9889037148        0.2726108335      -17.2278777157  MEMB      132             0.0000000000
     15104       132  SAPE      O32            21.3992169951        1.2111226547      -17.7119663404  MEMB      132             0.0000000000
     15105       132  SAPE      C32            21.8780171774       -0.2079637793      -15.7613200639  MEMB      132             0.0000000000
     15106       132  SAPE      H2X            22.0665568854       -1.2685053999      -15.4892441199  MEMB      132             0.0000000000
     15107       132  SAPE      H2Y            20.8523073669        0.0178651154      -15.3990472591  MEMB      132             0.0000000000
     15108       132  SAPE      C23            26.4839181066        1.7437693823      -14.7025687795  MEMB      132             0.0000000000
     15109       132  SAPE      H3R            26.2427511387        0.6831377509      -14.4762503332  MEMB      132             0.0000000000
     15110       132  SAPE      H3S            25.5761531235        2.3442988944      -14.4797503285  MEMB      132             0.0000000000
     15111       132  SAPE      C24            27.5420115990        2.2247385591      -13.7232071087  MEMB      132             0.0000000000
     15112       132  SAPE      H4R            28.1040851301        3.1161864878      -14.0749387622  MEMB      132             0.0000000000
     15113       132  SAPE      H4S            28.3425262659        1.4574502534      -13.6541691451  MEMB      132             0.0000000000
     15114       132  SAPE      C25            26.9881221227        2.3195383243      -12.3042619345  MEMB      132             0.0000000000
     15115       132  SAPE      H5R            26.4463618986        1.4205842871      -11.9750550294  MEMB      132             0.0000000000
     15116       132  SAPE      C26            26.8582641398        3.5203781632      -11.6728421925  MEMB      132             0.0000000000
     15117       132  SAPE      H6R            26.5493168980        3.4726256214      -10.6182000532  MEMB      132             0.0000000000
     15118       132  SAPE      C27            27.1417947742        4.9826259320      -12.0531784979  MEMB      132             0.0000000000
     15119       132  SAPE      H7R            28.1656897856        5.1818004941      -12.4356561092  MEMB      132             0.0000000000
     15120       132  SAPE      H7S            27.0408046451        5.7074878863      -11.2172975864  MEMB      132             0.0000000000
     15121       132  SAPE      C28            26.1775004244        5.3559579984      -13.2184659413  MEMB      132             0.0000000000
     15122       132  SAPE      H8R            26.5711876724        5.1692188060      -14.2284851296  MEMB      132             0.0000000000
     15123       132  SAPE      C29            24.9341343614        5.7650615573      -13.0900516439  MEMB      132             0.0000000000
     15124       132  SAPE      H9R            24.3072552153        5.8928792301      -13.9848616545  MEMB      132             0.0000000000
     15125       132  SAPE      C210           24.2345381271        5.8749487057      -11.8484199698  MEMB      132             0.0000000000
     15126       132  SAPE      H10R           23.6219159827        6.7988856399      -11.9216048149  MEMB      132             0.0000000000
     15127       132  SAPE      H10S           24.9250211228        6.3016764361      -11.0898311308  MEMB      132             0.0000000000
     15128       132  SAPE      C211           23.3994864999        4.7018673950      -11.4805474219  MEMB      132             0.0000000000
     15129       132  SAPE      H11R           23.1612430222        4.1123041282      -12.3781306327  MEMB      132             0.0000000000
     15130       132  SAPE      C212           23.0757452599        4.2685812515      -10.2682684712  MEMB      132             0.0000000000
     15131       132  SAPE      H12R           22.4117587818        3.3927595145      -10.2229018544  MEMB      132             0.0000000000
     15132       132  SAPE      C213           23.4818229825        4.8660357459       -8.9990054991  MEMB      132             0.0000000000
     15133       132  SAPE      H13R           23.3965672277        5.9608826723       -9.1674181874  MEMB      132             0.0000000000
     15134       132  SAPE      H13S           24.5490864217        4.6490574474       -8.7794833724  MEMB      132             0.0000000000
     15135       132  SAPE      C214           22.4994061223        4.5997541385       -7.8221448798  MEMB      132             0.0000000000
     15136       132  SAPE      H14R           21.4403109140        4.6931224602       -8.1042785954  MEMB      132             0.0000000000
     15137       132  SAPE      C215           22.8608765835        4.5477104207       -6.5156302800  MEMB      132             0.0000000000
     15138       132  SAPE      H15R           22.0233168330        4.5763749737       -5.8031193535  MEMB      132             0.0000000000
     15139       132  SAPE      C216           24.2811542064        4.7341210165       -5.9329799182  MEMB      132             0.0000000000
     15140       132  SAPE      H16R           25.0182240595        4.7412901639       -6.7642427059  MEMB      132             0.0000000000
     15141       132  SAPE      H16S           24.4543722832        3.8584486007       -5.2715309770  MEMB      132             0.0000000000
     15142       132  SAPE      C217           24.4617525003        6.0168378769       -5.1317077942  MEMB      132             0.0000000000
     15143       132  SAPE      H17R           23.6836648781        6.1977705278       -4.3595905703  MEMB      132             0.0000000000
     15144       132  SAPE      H17S           24.5700350988        6.8779399346       -5.8253204973  MEMB      132             0.0000000000
     15145       132  SAPE      C218           25.8769592635        5.9271007222       -4.3645136503  MEMB      132             0.0000000000
     15146       132  SAPE      H18R           26.6225132500        5.8477621929       -5.1843764104  MEMB      132             0.0000000000
     15147       132  SAPE      H18S           25.8288691189        5.0617279277       -3.6694325493  MEMB      132             0.0000000000
     15148       132  SAPE      C219           26.3370828257        7.1772577066       -3.5916618709  MEMB      132             0.0000000000
     15149       132  SAPE      H19R           26.2698453356        8.0604642249       -4.2622940466  MEMB      132             0.0000000000
     15150       132  SAPE      H19S           27.4157662552        7.0322092760       -3.3686737519  MEMB      132             0.0000000000
     15151       132  SAPE      C220           25.4127737749        7.4289648304       -2.3791144723  MEMB      132             0.0000000000
     15152       132  SAPE      H20R           25.5426796251        6.6123426219       -1.6371078306  MEMB      132             0.0000000000
     15153       132  SAPE      H20S           24.4016547431        7.3954573544       -2.8382843256  MEMB      132             0.0000000000
     15154       132  SAPE      H20T           25.6107144459        8.3991470267       -1.8752423983  MEMB      132             0.0000000000
     15155       132  SAPE      C33            23.0248333436        0.4214655319      -14.8815876815  MEMB      132             0.0000000000
     15156       132  SAPE      H3X            23.0886357025        1.5294742924      -14.9322544207  MEMB      132             0.0000000000
     15157       132  SAPE      H3Y            24.0504352800        0.0761806922      -15.1330636810  MEMB      132             0.0000000000
     15158       132  SAPE      C34            22.8797656179       -0.1933937495      -13.4100852406  MEMB      132             0.0000000000
     15159       132  SAPE      H4X            23.8772346974        0.0177494780      -12.9687295255  MEMB      132             0.0000000000
     15160       132  SAPE      H4Y            22.5855813810       -1.2645582248      -13.3905166610  MEMB      132             0.0000000000
     15161       132  SAPE      C35            21.8523597884        0.6072654099      -12.5570904487  MEMB      132             0.0000000000
     15162       132  SAPE      H5X            20.9279684026        0.8377368014      -13.1286712140  MEMB      132             0.0000000000
     15163       132  SAPE      H5Y            22.3194140863        1.5970004619      -12.3657650372  MEMB      132             0.0000000000
     15164       132  SAPE      C36            21.5827514460       -0.0466634783      -11.2182994390  MEMB      132             0.0000000000
     15165       132  SAPE      H6X            21.2718238922       -1.1100490426      -11.3011024652  MEMB      132             0.0000000000
     15166       132  SAPE      H6Y            20.8444865541        0.5025952638      -10.5957233618  MEMB      132             0.0000000000
     15167       132  SAPE      C37            22.8915255968       -0.0003373276      -10.2867893946  MEMB      132             0.0000000000
     15168       132  SAPE      H7X            23.1818339124        1.0662926311      -10.1756905171  MEMB      132             0.0000000000
     15169       132  SAPE      H7Y            23.7816418397       -0.4676127747      -10.7597245364  MEMB      132             0.0000000000
     15170       132  SAPE      C38            22.7869039386       -0.6263367694       -8.8214172037  MEMB      132             0.0000000000
     15171       132  SAPE      H8X            22.4043834986       -1.6686931069       -8.8600553829  MEMB      132             0.0000000000
     15172       132  SAPE      H8Y            22.2543553719        0.0817836056       -8.1511346602  MEMB      132             0.0000000000
     15173       132  SAPE      C39            24.1548725677       -0.7855775637       -8.0580350436  MEMB      132             0.0000000000
     15174       132  SAPE      H9X            24.6887983054        0.1782416688       -7.9155659194  MEMB      132             0.0000000000
     15175       132  SAPE      H9Y            24.7647150798       -1.5361637562       -8.6048753917  MEMB      132             0.0000000000
     15176       132  SAPE      C310           23.9752939696       -1.3798554859       -6.6861104832  MEMB      132             0.0000000000
     15177       132  SAPE      H10X           24.9573104251       -1.7967018543       -6.3759434388  MEMB      132             0.0000000000
     15178       132  SAPE      H10Y           23.3557601102       -2.3004431495       -6.7410353270  MEMB      132             0.0000000000
     15179       132  SAPE      C311           23.3295445184       -0.4274873819       -5.6068605166  MEMB      132             0.0000000000
     15180       132  SAPE      H11X           22.8460619690       -0.9608817281       -4.7606586824  MEMB      132             0.0000000000
     15181       132  SAPE      H11Y           22.4866146474        0.1275384224       -6.0713348638  MEMB      132             0.0000000000
     15182       132  SAPE      C312           24.2359160753        0.6648030423       -5.0615214895  MEMB      132             0.0000000000
     15183       132  SAPE      H12X           23.6009446176        1.3096165448       -4.4170475369  MEMB      132             0.0000000000
     15184       132  SAPE      H12Y           24.5533595954        1.3648731697       -5.8636760436  MEMB      132             0.0000000000
     15185       132  SAPE      C313           25.5293475738        0.3725697833       -4.2889844555  MEMB      132             0.0000000000
     15186       132  SAPE      H13X           25.8836571448        1.3395441140       -3.8721556338  MEMB      132             0.0000000000
     15187       132  SAPE      H13Y           26.2933702777       -0.0969368425       -4.9448450266  MEMB      132             0.0000000000
     15188       132  SAPE      C314           25.3262890721       -0.6110374165       -3.1206801272  MEMB      132             0.0000000000
     15189       132  SAPE      H14X           26.2629807813       -1.1966395822       -3.0023595243  MEMB      132             0.0000000000
     15190       132  SAPE      H14Y           24.5129117301       -1.3376377031       -3.3323177013  MEMB      132             0.0000000000
     15191       132  SAPE      C315           25.1897164738        0.0208393668       -1.7112821557  MEMB      132             0.0000000000
     15192       132  SAPE      H15X           24.2030678726        0.5288353878       -1.6585037057  MEMB      132             0.0000000000
     15193       132  SAPE      H15Y           25.9756769793        0.7840280889       -1.5265392974  MEMB      132             0.0000000000
     15194       132  SAPE      C316           25.4432946034       -0.8467377673       -0.4576326640  MEMB      132             0.0000000000
     15195       132  SAPE      H16X           26.5403099630       -1.0224591220       -0.4573602881  MEMB      132             0.0000000000
     15196       132  SAPE      H16Y           24.8561586292       -1.7765437063       -0.6159160848  MEMB      132             0.0000000000
     15197       132  SAPE      C317           25.0157573519       -0.2021209381        0.9003369110  MEMB      132             0.0000000000
     15198       132  SAPE      H17X           25.1603746076       -0.9012871286        1.7515556437  MEMB      132             0.0000000000
     15199       132  SAPE      H17Y           23.9146454368       -0.0543786455        0.9070922928  MEMB      132             0.0000000000
     15200       132  SAPE      C318           25.6667126670        1.0212776928        1.3255186720  MEMB      132             0.0000000000
     15201       132  SAPE      H18X           26.7764976287        1.0698144511        1.3070148091  MEMB      132             0.0000000000
     15202       132  SAPE      H18Y           25.4065877162        1.0829553566        2.4038751284  MEMB      132             0.0000000000
     15203       132  SAPE      H18Z           25.3290348978        1.9163741883        0.7606323786  MEMB      132             0.0000000000
     15204       133  CHL1      C3            -23.8163124952       -8.4444233044      -17.2741900000  MEMB      133             0.0000000000
     15205       133  CHL1      H3            -22.7618371896       -8.2220511933      -17.0040800000  MEMB      133             0.0000000000
     15206       133  CHL1      O3            -23.9644139048       -8.3192626756      -18.7258100000  MEMB      133             0.0000000000
     15207       133  CHL1      H3'           -23.2620729931       -7.7675552486      -19.0778400000  MEMB      133             0.0000000000
     15208       133  CHL1      C4            -24.1619705712       -9.8456407254      -16.8436200000  MEMB      133             0.0000000000
     15209       133  CHL1      H4A           -25.2293321773      -10.1041357939      -17.0117100000  MEMB      133             0.0000000000
     15210       133  CHL1      H4B           -23.6703364518      -10.7006011369      -17.3551600000  MEMB      133             0.0000000000
     15211       133  CHL1      C5            -23.9200768249       -9.8767161519      -15.3813400000  MEMB      133             0.0000000000
     15212       133  CHL1      C6            -23.1441346703      -10.7992695334      -14.7590500000  MEMB      133             0.0000000000
     15213       133  CHL1      H6            -22.6071827843      -11.5165615926      -15.3971500000  MEMB      133             0.0000000000
     15214       133  CHL1      C7            -22.9315302570      -10.9151474308      -13.2562800000  MEMB      133             0.0000000000
     15215       133  CHL1      H7A           -22.6114251534      -11.9318160178      -12.9428200000  MEMB      133             0.0000000000
     15216       133  CHL1      H7B           -21.9909599005      -10.3551033281      -13.0666000000  MEMB      133             0.0000000000
     15217       133  CHL1      C8            -24.0557630987      -10.2265876678      -12.4284200000  MEMB      133             0.0000000000
     15218       133  CHL1      H8            -24.9222262412      -10.9217168290      -12.4477500000  MEMB      133             0.0000000000
     15219       133  CHL1      C14           -23.5911170053      -10.0001940121      -11.0476400000  MEMB      133             0.0000000000
     15220       133  CHL1      H14           -22.7299280122       -9.3001717998      -11.0989500000  MEMB      133             0.0000000000
     15221       133  CHL1      C15           -23.0436998294      -11.2308724203      -10.3976600000  MEMB      133             0.0000000000
     15222       133  CHL1      H15A          -23.6893511616      -12.1060756341      -10.6245400000  MEMB      133             0.0000000000
     15223       133  CHL1      H15B          -21.9685145797      -11.2530139587      -10.6765700000  MEMB      133             0.0000000000
     15224       133  CHL1      C16           -23.0769465918      -10.8568469500       -8.9012000000  MEMB      133             0.0000000000
     15225       133  CHL1      H16A          -23.6156248182      -11.6648843119       -8.3615600000  MEMB      133             0.0000000000
     15226       133  CHL1      H16B          -22.0165472972      -10.7378900895       -8.5918000000  MEMB      133             0.0000000000
     15227       133  CHL1      C17           -23.7946452294       -9.4656568425       -8.8284400000  MEMB      133             0.0000000000
     15228       133  CHL1      H17           -23.0244961340       -8.6971129904       -9.0532100000  MEMB      133             0.0000000000
     15229       133  CHL1      C13           -24.5731045044       -9.4428940727      -10.1103300000  MEMB      133             0.0000000000
     15230       133  CHL1      C18           -25.8098362641      -10.3557212706       -9.8667000000  MEMB      133             0.0000000000
     15231       133  CHL1      H18A          -25.4425486142      -11.3700371951       -9.6010500000  MEMB      133             0.0000000000
     15232       133  CHL1      H18B          -26.5159331537      -10.0186613630       -9.0779400000  MEMB      133             0.0000000000
     15233       133  CHL1      H18C          -26.3880724896      -10.5153509638      -10.8018400000  MEMB      133             0.0000000000
     15234       133  CHL1      C12           -25.0864627402       -8.0788618254      -10.6013700000  MEMB      133             0.0000000000
     15235       133  CHL1      H12A          -26.0246166637       -7.8370257078      -10.0575700000  MEMB      133             0.0000000000
     15236       133  CHL1      H12B          -24.3348799278       -7.2606816526      -10.6068100000  MEMB      133             0.0000000000
     15237       133  CHL1      C11           -25.4768896398       -8.1568476447      -12.0753300000  MEMB      133             0.0000000000
     15238       133  CHL1      H11A          -26.3983249897       -8.7774882987      -12.0660800000  MEMB      133             0.0000000000
     15239       133  CHL1      H11B          -25.7580464363       -7.1463487073      -12.4416100000  MEMB      133             0.0000000000
     15240       133  CHL1      C9            -24.4167234762       -8.8875509762      -13.0161000000  MEMB      133             0.0000000000
     15241       133  CHL1      H9            -23.5341870442       -8.2134456649      -12.9841100000  MEMB      133             0.0000000000
     15242       133  CHL1      C10           -24.8194230520       -8.8856551693      -14.5347600000  MEMB      133             0.0000000000
     15243       133  CHL1      C19           -26.3056287034       -9.1001968976      -14.6547300000  MEMB      133             0.0000000000
     15244       133  CHL1      H19A          -26.5271186032      -10.0732931725      -14.1665500000  MEMB      133             0.0000000000
     15245       133  CHL1      H19B          -26.8341865154       -8.2675719718      -14.1431900000  MEMB      133             0.0000000000
     15246       133  CHL1      H19C          -26.6549692366       -9.2561345642      -15.6977900000  MEMB      133             0.0000000000
     15247       133  CHL1      C1            -24.5484414700       -7.4375745714      -15.0752400000  MEMB      133             0.0000000000
     15248       133  CHL1      H1A           -25.3186766275       -6.7532095187      -14.6596700000  MEMB      133             0.0000000000
     15249       133  CHL1      H1B           -23.5520612934       -7.1427953855      -14.6819900000  MEMB      133             0.0000000000
     15250       133  CHL1      C2            -24.6183124570       -7.3302691345      -16.6312700000  MEMB      133             0.0000000000
     15251       133  CHL1      H2A           -24.3898620678       -6.2881132361      -16.9411800000  MEMB      133             0.0000000000
     15252       133  CHL1      H2B           -25.6778932066       -7.4896237286      -16.9249000000  MEMB      133             0.0000000000
     15253       133  CHL1      C20           -24.3695887852       -9.2375106215       -7.4165200000  MEMB      133             0.0000000000
     15254       133  CHL1      H20           -25.0813213177      -10.0719757810       -7.2392500000  MEMB      133             0.0000000000
     15255       133  CHL1      C21           -25.0941297657       -7.9270134062       -7.2806200000  MEMB      133             0.0000000000
     15256       133  CHL1      H21A          -24.3370942619       -7.1317312760       -7.4501400000  MEMB      133             0.0000000000
     15257       133  CHL1      H21B          -25.7076808494       -7.8551227131       -6.3571900000  MEMB      133             0.0000000000
     15258       133  CHL1      H21C          -25.8072181838       -7.8656878944       -8.1303700000  MEMB      133             0.0000000000
     15259       133  CHL1      C22           -23.2515404380       -9.3154390747       -6.3109900000  MEMB      133             0.0000000000
     15260       133  CHL1      H22A          -22.6906460231      -10.2611133482       -6.4703700000  MEMB      133             0.0000000000
     15261       133  CHL1      H22B          -22.5004375670       -8.4972513979       -6.2836300000  MEMB      133             0.0000000000
     15262       133  CHL1      C23           -23.8646740966       -9.3818818130       -4.9342800000  MEMB      133             0.0000000000
     15263       133  CHL1      H23A          -24.4903693660       -8.5131538836       -4.6374000000  MEMB      133             0.0000000000
     15264       133  CHL1      H23B          -24.5866195452      -10.2260484952       -4.9569400000  MEMB      133             0.0000000000
     15265       133  CHL1      C24           -22.6959689758       -9.6574263559       -3.9633100000  MEMB      133             0.0000000000
     15266       133  CHL1      H24A          -22.0177693304      -10.4955813725       -4.2313800000  MEMB      133             0.0000000000
     15267       133  CHL1      H24B          -22.1162837000       -8.7110931737       -4.0158200000  MEMB      133             0.0000000000
     15268       133  CHL1      C25           -23.2145187117       -9.8599643974       -2.5094500000  MEMB      133             0.0000000000
     15269       133  CHL1      H25           -24.1637301812       -9.2846246552       -2.4614200000  MEMB      133             0.0000000000
     15270       133  CHL1      C26           -23.5561860535      -11.2790763942       -1.9833100000  MEMB      133             0.0000000000
     15271       133  CHL1      H26A          -24.0157001777      -12.0100719474       -2.6824700000  MEMB      133             0.0000000000
     15272       133  CHL1      H26B          -22.5437415806      -11.6788132248       -1.7608800000  MEMB      133             0.0000000000
     15273       133  CHL1      H26C          -24.1841826408      -11.1997489595       -1.0702700000  MEMB      133             0.0000000000
     15274       133  CHL1      C27           -22.3072500238       -9.1743943350       -1.5384100000  MEMB      133             0.0000000000
     15275       133  CHL1      H27A          -22.1653606406       -8.1482571489       -1.9399300000  MEMB      133             0.0000000000
     15276       133  CHL1      H27B          -22.7713281193       -9.1041206148       -0.5314400000  MEMB      133             0.0000000000
     15277       133  CHL1      H27C          -21.3281700698       -9.6797024655       -1.3955800000  MEMB      133             0.0000000000
     15278       134  SAPS      N              -3.1674839131       29.2653649833      -21.7028221129  MEMB      134             0.0000000000
     15279       134  SAPS      HN1            -2.5896679182       29.2119135054      -22.5658814718  MEMB      134             0.0000000000
     15280       134  SAPS      HN2            -3.9489634088       29.9390330318      -21.8334399926  MEMB      134             0.0000000000
     15281       134  SAPS      HN3            -2.5157606972       29.6370965815      -20.9826328599  MEMB      134             0.0000000000
     15282       134  SAPS      C12            -3.4834553713       27.8045277647      -21.4187768565  MEMB      134             0.0000000000
     15283       134  SAPS      H12A           -3.8377860471       27.3957030925      -22.3535026703  MEMB      134             0.0000000000
     15284       134  SAPS      C13            -2.1828774808       26.9418829375      -20.9636820682  MEMB      134             0.0000000000
     15285       134  SAPS      O13A           -1.0011487656       27.4081079505      -20.9196630963  MEMB      134             0.0000000000
     15286       134  SAPS      O13B           -2.3751887097       25.7246428026      -21.2520064658  MEMB      134             0.0000000000
     15287       134  SAPS      C11            -4.4892128259       27.7024447648      -20.2018371244  MEMB      134             0.0000000000
     15288       134  SAPS      H11A           -5.2632605388       28.4250037000      -20.5381103326  MEMB      134             0.0000000000
     15289       134  SAPS      H11B           -3.9990286765       28.0971133522      -19.2862623093  MEMB      134             0.0000000000
     15290       134  SAPS      P              -5.8163748956       26.1682966998      -18.6347692426  MEMB      134             0.0000000000
     15291       134  SAPS      O13            -5.5807420484       27.2912927003      -17.6829306288  MEMB      134             0.0000000000
     15292       134  SAPS      O14            -7.2213115731       25.8325811265      -18.9575069866  MEMB      134             0.0000000000
     15293       134  SAPS      O12            -5.0190503546       26.4084015930      -20.0015061993  MEMB      134             0.0000000000
     15294       134  SAPS      O11            -4.9329405803       24.8600479235      -18.2644992134  MEMB      134             0.0000000000
     15295       134  SAPS      C1             -4.8905755252       23.7119527744      -19.0780711301  MEMB      134             0.0000000000
     15296       134  SAPS      HA             -5.8689146956       23.1912226288      -19.1556160971  MEMB      134             0.0000000000
     15297       134  SAPS      HB             -4.5160658033       24.0818747356      -20.0564480066  MEMB      134             0.0000000000
     15298       134  SAPS      C2             -3.7565921174       22.7740153162      -18.5514384150  MEMB      134             0.0000000000
     15299       134  SAPS      HS             -3.8964101163       21.7714503049      -19.0092983114  MEMB      134             0.0000000000
     15300       134  SAPS      O21            -3.8322967652       22.7427697859      -17.1029579078  MEMB      134             0.0000000000
     15301       134  SAPS      C21            -4.8759926437       22.0445771058      -16.6140272521  MEMB      134             0.0000000000
     15302       134  SAPS      O22            -5.8575111267       21.6933508627      -17.2568749883  MEMB      134             0.0000000000
     15303       134  SAPS      C22            -4.4718965367       21.6250826797      -15.2246790070  MEMB      134             0.0000000000
     15304       134  SAPS      H2R            -4.6217323578       20.5399742597      -15.0391787824  MEMB      134             0.0000000000
     15305       134  SAPS      H2S            -3.3908391477       21.8614101045      -15.1257591185  MEMB      134             0.0000000000
     15306       134  SAPS      C3             -2.3220436494       23.2767343499      -18.9342247816  MEMB      134             0.0000000000
     15307       134  SAPS      HX             -2.3108926384       23.3989840372      -20.0384220817  MEMB      134             0.0000000000
     15308       134  SAPS      HY             -1.6374105243       22.4251329862      -18.7332930540  MEMB      134             0.0000000000
     15309       134  SAPS      O31            -1.9206195351       24.5574702804      -18.3848927178  MEMB      134             0.0000000000
     15310       134  SAPS      C31            -1.2337704954       24.4987859901      -17.1873250128  MEMB      134             0.0000000000
     15311       134  SAPS      O32            -0.8018104575       23.4874035640      -16.6214148611  MEMB      134             0.0000000000
     15312       134  SAPS      C32            -1.0846104088       25.9004292895      -16.5327966313  MEMB      134             0.0000000000
     15313       134  SAPS      H2X            -1.6938935924       26.6207504472      -17.1195099391  MEMB      134             0.0000000000
     15314       134  SAPS      H2Y            -0.0539732129       26.3095229173      -16.6017195647  MEMB      134             0.0000000000
     15315       134  SAPS      C23            -5.1472765619       22.3062678405      -14.1237569444  MEMB      134             0.0000000000
     15316       134  SAPS      H3R            -5.0207611995       21.7451082514      -13.1732754900  MEMB      134             0.0000000000
     15317       134  SAPS      H3S            -6.2242612271       22.2173176708      -14.3816578543  MEMB      134             0.0000000000
     15318       134  SAPS      C24            -4.6751978441       23.7000235830      -13.7224542334  MEMB      134             0.0000000000
     15319       134  SAPS      H4R            -3.5654269178       23.7216337979      -13.6748888024  MEMB      134             0.0000000000
     15320       134  SAPS      H4S            -4.9824653413       23.8262114472      -12.6622731742  MEMB      134             0.0000000000
     15321       134  SAPS      C25            -5.3418243339       24.6966577554      -14.6457530079  MEMB      134             0.0000000000
     15322       134  SAPS      H5R            -5.1107374698       24.6726679756      -15.7209383007  MEMB      134             0.0000000000
     15323       134  SAPS      C26            -6.2204086547       25.6931079794      -14.2640555104  MEMB      134             0.0000000000
     15324       134  SAPS      H6R            -6.7023317732       26.2761083489      -15.0627173694  MEMB      134             0.0000000000
     15325       134  SAPS      C27            -6.7079787619       26.0027306349      -12.8818168634  MEMB      134             0.0000000000
     15326       134  SAPS      H7R            -5.9296119744       25.7010640135      -12.1486979637  MEMB      134             0.0000000000
     15327       134  SAPS      H7S            -7.5253424113       25.3004027585      -12.6116815682  MEMB      134             0.0000000000
     15328       134  SAPS      C28            -7.0323896372       27.4180758736      -12.5948468647  MEMB      134             0.0000000000
     15329       134  SAPS      H8R            -6.6812089268       28.0608569542      -13.4155205983  MEMB      134             0.0000000000
     15330       134  SAPS      C29            -7.7327420559       27.9251900740      -11.5198073626  MEMB      134             0.0000000000
     15331       134  SAPS      H9R            -7.8294541995       29.0198477680      -11.4711149775  MEMB      134             0.0000000000
     15332       134  SAPS      C210           -8.3814927816       27.1511386988      -10.4011547931  MEMB      134             0.0000000000
     15333       134  SAPS      H10R           -8.3706449322       26.0633159812      -10.6266433676  MEMB      134             0.0000000000
     15334       134  SAPS      H10S           -9.4465443106       27.4648109598      -10.4411009804  MEMB      134             0.0000000000
     15335       134  SAPS      C211           -7.9476344257       27.3309922068       -8.9170347734  MEMB      134             0.0000000000
     15336       134  SAPS      H11R           -8.1755733823       28.3172913203       -8.4866188800  MEMB      134             0.0000000000
     15337       134  SAPS      C212           -7.5674862348       26.3102877869       -8.0640177987  MEMB      134             0.0000000000
     15338       134  SAPS      H12R           -7.4110664590       26.6286549728       -7.0227809741  MEMB      134             0.0000000000
     15339       134  SAPS      C213           -7.4435606876       24.7967629762       -8.2710654979  MEMB      134             0.0000000000
     15340       134  SAPS      H13R           -6.3774704794       24.6305822696       -8.0061941288  MEMB      134             0.0000000000
     15341       134  SAPS      H13S           -7.2887192462       24.5833960804       -9.3503334621  MEMB      134             0.0000000000
     15342       134  SAPS      C214           -8.6408673018       23.9391914019       -7.7625803215  MEMB      134             0.0000000000
     15343       134  SAPS      H14R           -9.5282345157       23.8093576258       -8.3995436934  MEMB      134             0.0000000000
     15344       134  SAPS      C215           -8.6264074623       23.3230569771       -6.5934947526  MEMB      134             0.0000000000
     15345       134  SAPS      H15R           -9.5073313242       22.7832670911       -6.2158703853  MEMB      134             0.0000000000
     15346       134  SAPS      C216           -7.4358623714       23.3750894848       -5.6263201681  MEMB      134             0.0000000000
     15347       134  SAPS      H16R           -7.4933383804       24.3410359093       -5.0804584515  MEMB      134             0.0000000000
     15348       134  SAPS      H16S           -6.4629180716       23.1628380110       -6.1189150128  MEMB      134             0.0000000000
     15349       134  SAPS      C217           -7.4860718281       22.3301609067       -4.4550441517  MEMB      134             0.0000000000
     15350       134  SAPS      H17R           -7.7155439296       21.3217628720       -4.8609955812  MEMB      134             0.0000000000
     15351       134  SAPS      H17S           -8.3453847292       22.5349181273       -3.7812651276  MEMB      134             0.0000000000
     15352       134  SAPS      C218           -6.2347146115       22.1470223484       -3.6668782504  MEMB      134             0.0000000000
     15353       134  SAPS      H18R           -5.4556085490       21.7609922163       -4.3584666527  MEMB      134             0.0000000000
     15354       134  SAPS      H18S           -6.2407441988       21.3736083163       -2.8693096838  MEMB      134             0.0000000000
     15355       134  SAPS      C219           -5.7551071718       23.4122105293       -3.0082952527  MEMB      134             0.0000000000
     15356       134  SAPS      H19R           -6.6201033651       23.8635293830       -2.4768703401  MEMB      134             0.0000000000
     15357       134  SAPS      H19S           -5.5497082568       24.0939695960       -3.8611367103  MEMB      134             0.0000000000
     15358       134  SAPS      C220           -4.4934392097       23.2340184782       -2.1315605466  MEMB      134             0.0000000000
     15359       134  SAPS      H20R           -4.6687632421       22.3850893017       -1.4366501635  MEMB      134             0.0000000000
     15360       134  SAPS      H20S           -4.2409606160       24.1358374948       -1.5338160233  MEMB      134             0.0000000000
     15361       134  SAPS      H20T           -3.5615764000       22.9579317489       -2.6698249913  MEMB      134             0.0000000000
     15362       134  SAPS      C33            -1.3036833017       25.8925870833      -14.9460945567  MEMB      134             0.0000000000
     15363       134  SAPS      H3X            -0.5857205256       25.1856339995      -14.4780475822  MEMB      134             0.0000000000
     15364       134  SAPS      H3Y            -2.3201832264       25.5227109822      -14.6926376697  MEMB      134             0.0000000000
     15365       134  SAPS      C34            -1.2639835139       27.3075947488      -14.2392856647  MEMB      134             0.0000000000
     15366       134  SAPS      H4X            -2.3001211004       27.6831830002      -14.3795469793  MEMB      134             0.0000000000
     15367       134  SAPS      H4Y            -0.5182492132       27.8847757555      -14.8267069194  MEMB      134             0.0000000000
     15368       134  SAPS      C35            -0.8728106205       27.3098840680      -12.7398574897  MEMB      134             0.0000000000
     15369       134  SAPS      H5X            -1.0596419133       28.3129694058      -12.3002725604  MEMB      134             0.0000000000
     15370       134  SAPS      H5Y             0.2103018253       27.0819189277      -12.6438358874  MEMB      134             0.0000000000
     15371       134  SAPS      C36            -1.6040098494       26.3558294050      -11.8344795548  MEMB      134             0.0000000000
     15372       134  SAPS      H6X            -1.1298502252       26.0961781484      -10.8638745412  MEMB      134             0.0000000000
     15373       134  SAPS      H6Y            -1.6867076932       25.3959588625      -12.3877703625  MEMB      134             0.0000000000
     15374       134  SAPS      C37            -3.0455011373       26.7383399392      -11.5728088468  MEMB      134             0.0000000000
     15375       134  SAPS      H7X            -3.4566208062       25.9811171895      -10.8714423376  MEMB      134             0.0000000000
     15376       134  SAPS      H7Y            -3.5102271375       26.7630573959      -12.5816401486  MEMB      134             0.0000000000
     15377       134  SAPS      C38            -3.3947241538       28.1034252143      -11.0087430529  MEMB      134             0.0000000000
     15378       134  SAPS      H8X            -4.4881961425       28.2918641185      -11.0646959935  MEMB      134             0.0000000000
     15379       134  SAPS      H8Y            -3.0023068342       28.9236652141      -11.6471283564  MEMB      134             0.0000000000
     15380       134  SAPS      C39            -2.7270080270       28.2572153644       -9.6173408915  MEMB      134             0.0000000000
     15381       134  SAPS      H9X            -1.6751078383       28.5537760507       -9.8170373533  MEMB      134             0.0000000000
     15382       134  SAPS      H9Y            -2.7501377477       27.3465823127       -8.9813113686  MEMB      134             0.0000000000
     15383       134  SAPS      C310           -3.4040314400       29.3038976966       -8.6949036771  MEMB      134             0.0000000000
     15384       134  SAPS      H10X           -4.5086591051       29.2437881400       -8.7973987434  MEMB      134             0.0000000000
     15385       134  SAPS      H10Y           -3.1428036578       30.3188769173       -9.0635473932  MEMB      134             0.0000000000
     15386       134  SAPS      C311           -2.7987054565       29.3096026271       -7.2370444585  MEMB      134             0.0000000000
     15387       134  SAPS      H11X           -3.3064074958       30.1094602775       -6.6567107180  MEMB      134             0.0000000000
     15388       134  SAPS      H11Y           -1.7412320023       29.6502611575       -7.2322894542  MEMB      134             0.0000000000
     15389       134  SAPS      C312           -3.0287411123       28.0004948213       -6.4220956336  MEMB      134             0.0000000000
     15390       134  SAPS      H12X           -2.5760270893       28.1568580546       -5.4196376178  MEMB      134             0.0000000000
     15391       134  SAPS      H12Y           -2.4751595005       27.1476383182       -6.8698728203  MEMB      134             0.0000000000
     15392       134  SAPS      C313           -4.4990466896       27.5805682987       -6.1563355513  MEMB      134             0.0000000000
     15393       134  SAPS      H13X           -4.9350333654       27.2376415443       -7.1189560917  MEMB      134             0.0000000000
     15394       134  SAPS      H13Y           -5.0715281335       28.4158028515       -5.6992036766  MEMB      134             0.0000000000
     15395       134  SAPS      C314           -4.5878249685       26.3375818009       -5.2258907231  MEMB      134             0.0000000000
     15396       134  SAPS      H14X           -3.7718960389       25.5865147417       -5.2928184967  MEMB      134             0.0000000000
     15397       134  SAPS      H14Y           -5.5866823168       25.8761507089       -5.3797952896  MEMB      134             0.0000000000
     15398       134  SAPS      C315           -4.4721168207       26.7951446019       -3.7906728085  MEMB      134             0.0000000000
     15399       134  SAPS      H15X           -3.5442279064       27.4002117488       -3.7056023139  MEMB      134             0.0000000000
     15400       134  SAPS      H15Y           -4.1910012417       25.9541034805       -3.1213851237  MEMB      134             0.0000000000
     15401       134  SAPS      C316           -5.6497781881       27.5945758248       -3.1796119484  MEMB      134             0.0000000000
     15402       134  SAPS      H16X           -6.6560617351       27.1883777705       -3.4177671501  MEMB      134             0.0000000000
     15403       134  SAPS      H16Y           -5.6875687706       28.5849927173       -3.6815743207  MEMB      134             0.0000000000
     15404       134  SAPS      C317           -5.5442860680       27.8562494347       -1.6122200395  MEMB      134             0.0000000000
     15405       134  SAPS      H17X           -6.1581100232       28.7230203916       -1.2862615837  MEMB      134             0.0000000000
     15406       134  SAPS      H17Y           -4.5432102572       28.3314011360       -1.5322266267  MEMB      134             0.0000000000
     15407       134  SAPS      C318           -5.7932594448       26.6215457619       -0.7448703492  MEMB      134             0.0000000000
     15408       134  SAPS      H18X           -4.7845537123       26.2283231503       -0.4954508725  MEMB      134             0.0000000000
     15409       134  SAPS      H18Y           -6.4280253613       25.8226151249       -1.1843048435  MEMB      134             0.0000000000
     15410       134  SAPS      H18Z           -6.3004699004       26.8726126066        0.2111774981  MEMB      134             0.0000000000
     15411       135  SOPE      N             -14.4630956452       19.0681719744      -21.4360925225  MEMB      135             0.0000000000
     15412       135  SOPE      HN1           -15.0328887852       18.2084967527      -21.3023224102  MEMB      135             0.0000000000
     15413       135  SOPE      HN2           -13.6698977912       18.9702807431      -22.1015655169  MEMB      135             0.0000000000
     15414       135  SOPE      HN3           -14.1298601412       19.5641314011      -20.5848709513  MEMB      135             0.0000000000
     15415       135  SOPE      C12           -15.4127573854       20.1206321251      -21.9295883515  MEMB      135             0.0000000000
     15416       135  SOPE      H12A          -16.1174321578       19.7337899174      -22.6964700308  MEMB      135             0.0000000000
     15417       135  SOPE      H12B          -14.9095323402       21.0258200548      -22.3317331926  MEMB      135             0.0000000000
     15418       135  SOPE      C11           -16.5115503079       20.5172337449      -20.8696616989  MEMB      135             0.0000000000
     15419       135  SOPE      H11A          -17.1965387881       21.2971135166      -21.2657669816  MEMB      135             0.0000000000
     15420       135  SOPE      H11B          -15.8680712930       21.1064266972      -20.1818335701  MEMB      135             0.0000000000
     15421       135  SOPE      P             -18.4027479551       18.7671790554      -20.8119364355  MEMB      135             0.0000000000
     15422       135  SOPE      O13           -18.5800549478       17.4452893403      -20.1685969238  MEMB      135             0.0000000000
     15423       135  SOPE      O14           -18.2928204580       18.9224932184      -22.3001636872  MEMB      135             0.0000000000
     15424       135  SOPE      O12           -17.1244426260       19.4264298997      -20.1766308101  MEMB      135             0.0000000000
     15425       135  SOPE      O11           -19.4712117646       19.7436410454      -20.3073295745  MEMB      135             0.0000000000
     15426       135  SOPE      C1            -20.4374618210       19.3548591093      -19.2928542684  MEMB      135             0.0000000000
     15427       135  SOPE      HA            -20.8155932806       18.3194523965      -19.4316726832  MEMB      135             0.0000000000
     15428       135  SOPE      HB            -21.3686915446       19.9570693113      -19.3597521955  MEMB      135             0.0000000000
     15429       135  SOPE      C2            -19.9899325461       19.7817805742      -17.8630798933  MEMB      135             0.0000000000
     15430       135  SOPE      HS            -20.0038606701       20.8820763772      -17.7098612332  MEMB      135             0.0000000000
     15431       135  SOPE      O21           -18.6707160245       19.2817085829      -17.6770851141  MEMB      135             0.0000000000
     15432       135  SOPE      C21           -17.8890075702       19.8714168832      -16.7412479198  MEMB      135             0.0000000000
     15433       135  SOPE      O22           -18.1476887726       20.9320727739      -16.2281533202  MEMB      135             0.0000000000
     15434       135  SOPE      C22           -16.5698313630       19.1181736941      -16.5423690475  MEMB      135             0.0000000000
     15435       135  SOPE      H2R           -15.7449273277       19.7721968793      -16.8974859986  MEMB      135             0.0000000000
     15436       135  SOPE      H2S           -16.6462958006       18.1741351718      -17.1231145481  MEMB      135             0.0000000000
     15437       135  SOPE      C3            -21.0090668587       19.1586684158      -16.9577176382  MEMB      135             0.0000000000
     15438       135  SOPE      HX            -20.9784128117       18.0825673572      -17.2322861508  MEMB      135             0.0000000000
     15439       135  SOPE      HY            -22.0259505303       19.5677552397      -17.1391470455  MEMB      135             0.0000000000
     15440       135  SOPE      O31           -20.5076603818       19.5424205669      -15.6831672133  MEMB      135             0.0000000000
     15441       135  SOPE      C31           -21.3415375182       19.7276316027      -14.6986499358  MEMB      135             0.0000000000
     15442       135  SOPE      O32           -22.5103085741       19.4017759855      -14.6973982305  MEMB      135             0.0000000000
     15443       135  SOPE      C32           -20.5678193247       20.4264948182      -13.6657312918  MEMB      135             0.0000000000
     15444       135  SOPE      H2X           -19.6410606895       20.9319510855      -14.0120744551  MEMB      135             0.0000000000
     15445       135  SOPE      H2Y           -20.3782631042       19.6864915779      -12.8590189566  MEMB      135             0.0000000000
     15446       135  SOPE      C23           -16.3986432736       18.8331658730      -15.0327119871  MEMB      135             0.0000000000
     15447       135  SOPE      H3R           -16.3145682777       19.6476840911      -14.2818376542  MEMB      135             0.0000000000
     15448       135  SOPE      H3S           -15.4966932064       18.1853544938      -14.9988421717  MEMB      135             0.0000000000
     15449       135  SOPE      C24           -17.5303347686       17.9587038245      -14.5601439882  MEMB      135             0.0000000000
     15450       135  SOPE      H4R           -18.4103924685       18.6366761415      -14.5732847536  MEMB      135             0.0000000000
     15451       135  SOPE      H4S           -17.7697432131       17.0107428347      -15.0877562869  MEMB      135             0.0000000000
     15452       135  SOPE      C25           -17.2538277491       17.5336554089      -13.1169902401  MEMB      135             0.0000000000
     15453       135  SOPE      H5R           -16.4348671123       16.7842784941      -13.0716213140  MEMB      135             0.0000000000
     15454       135  SOPE      H5S           -16.9160943065       18.3818571246      -12.4838939381  MEMB      135             0.0000000000
     15455       135  SOPE      C26           -18.4932702335       16.9571786513      -12.4142260370  MEMB      135             0.0000000000
     15456       135  SOPE      H6R           -19.0931947400       17.8814420239      -12.2722789487  MEMB      135             0.0000000000
     15457       135  SOPE      H6S           -19.0509231647       16.1950607311      -12.9994786683  MEMB      135             0.0000000000
     15458       135  SOPE      C27           -18.4367142739       16.2434734733      -11.0929580555  MEMB      135             0.0000000000
     15459       135  SOPE      H7R           -19.4787259207       15.9656130378      -10.8258878163  MEMB      135             0.0000000000
     15460       135  SOPE      H7S           -17.9054991273       15.2735156115      -11.1993218125  MEMB      135             0.0000000000
     15461       135  SOPE      C28           -17.7472195740       16.9739720041       -9.8919196424  MEMB      135             0.0000000000
     15462       135  SOPE      H8R           -17.8526369660       16.4061171736       -8.9428419659  MEMB      135             0.0000000000
     15463       135  SOPE      H8S           -16.6748340820       16.9574133535      -10.1818108113  MEMB      135             0.0000000000
     15464       135  SOPE      C29           -18.2749759532       18.3418924142       -9.7128229946  MEMB      135             0.0000000000
     15465       135  SOPE      H91           -17.8854431511       19.0808773364      -10.4284800148  MEMB      135             0.0000000000
     15466       135  SOPE      C210          -19.1817936945       18.8403678373       -8.8691380321  MEMB      135             0.0000000000
     15467       135  SOPE      H101          -19.1978760779       19.9209355104       -8.6639186146  MEMB      135             0.0000000000
     15468       135  SOPE      C211          -19.9087512021       18.0525105766       -7.8453772841  MEMB      135             0.0000000000
     15469       135  SOPE      H11R          -19.8307873272       16.9779145156       -8.1164600424  MEMB      135             0.0000000000
     15470       135  SOPE      H11S          -20.9866232145       18.3215695894       -7.8344242431  MEMB      135             0.0000000000
     15471       135  SOPE      C212          -19.2777993395       18.1122086629       -6.4847632967  MEMB      135             0.0000000000
     15472       135  SOPE      H12R          -19.2057632484       19.1484622708       -6.0906688514  MEMB      135             0.0000000000
     15473       135  SOPE      H12S          -18.2599734216       17.6683261665       -6.5210885245  MEMB      135             0.0000000000
     15474       135  SOPE      C213          -20.0088994753       17.2925301537       -5.4670469035  MEMB      135             0.0000000000
     15475       135  SOPE      H13R          -19.5170453126       17.4877190693       -4.4901633792  MEMB      135             0.0000000000
     15476       135  SOPE      H13S          -20.0716198383       16.2031548945       -5.6759705292  MEMB      135             0.0000000000
     15477       135  SOPE      C214          -21.4705856526       17.7886187281       -5.3460426144  MEMB      135             0.0000000000
     15478       135  SOPE      H14R          -21.8800334035       17.3424185597       -6.2774819266  MEMB      135             0.0000000000
     15479       135  SOPE      H14S          -21.5088506478       18.8938370844       -5.4525750485  MEMB      135             0.0000000000
     15480       135  SOPE      C215          -22.2863024513       17.2169563810       -4.1864827509  MEMB      135             0.0000000000
     15481       135  SOPE      H15R          -23.3212314969       17.6202715365       -4.1623823870  MEMB      135             0.0000000000
     15482       135  SOPE      H15S          -21.7613334761       17.5156521064       -3.2540074530  MEMB      135             0.0000000000
     15483       135  SOPE      C216          -22.5271938616       15.6893567087       -4.1492851725  MEMB      135             0.0000000000
     15484       135  SOPE      H16R          -21.5499242657       15.2018715560       -4.3533049444  MEMB      135             0.0000000000
     15485       135  SOPE      H16S          -23.1512221603       15.5188837131       -5.0525291120  MEMB      135             0.0000000000
     15486       135  SOPE      C217          -23.2804314700       15.2316057461       -2.8942184220  MEMB      135             0.0000000000
     15487       135  SOPE      H17R          -23.9484288231       14.4415261043       -3.2990329674  MEMB      135             0.0000000000
     15488       135  SOPE      H17S          -24.0023493676       16.0228217292       -2.5990351184  MEMB      135             0.0000000000
     15489       135  SOPE      C218          -22.4076312211       14.8900098372       -1.7213066246  MEMB      135             0.0000000000
     15490       135  SOPE      H18R          -21.6066353028       15.6533310888       -1.6209714893  MEMB      135             0.0000000000
     15491       135  SOPE      H18S          -21.8759538025       13.9654843523       -2.0325820133  MEMB      135             0.0000000000
     15492       135  SOPE      H18T          -22.9532051037       14.6747171380       -0.7777401513  MEMB      135             0.0000000000
     15493       135  SOPE      C33           -21.3840492919       21.6219753475      -13.1390947255  MEMB      135             0.0000000000
     15494       135  SOPE      H3X           -21.4740598632       22.2971918624      -14.0167628618  MEMB      135             0.0000000000
     15495       135  SOPE      H3Y           -20.8072831955       22.2623965378      -12.4380081423  MEMB      135             0.0000000000
     15496       135  SOPE      C34           -22.7570522334       21.3570736927      -12.4522100062  MEMB      135             0.0000000000
     15497       135  SOPE      H4X           -23.6656623143       21.1832623192      -13.0674651329  MEMB      135             0.0000000000
     15498       135  SOPE      H4Y           -23.0768066560       22.2164478939      -11.8248718336  MEMB      135             0.0000000000
     15499       135  SOPE      C35           -22.7924191044       20.2922363795      -11.3404998334  MEMB      135             0.0000000000
     15500       135  SOPE      H5X           -22.6245082459       19.2906838637      -11.7910764268  MEMB      135             0.0000000000
     15501       135  SOPE      H5Y           -23.8464800573       20.2519664689      -10.9917094970  MEMB      135             0.0000000000
     15502       135  SOPE      C36           -21.8263959254       20.3816174753      -10.1753383442  MEMB      135             0.0000000000
     15503       135  SOPE      H6X           -20.7741225507       20.5734771905      -10.4757246347  MEMB      135             0.0000000000
     15504       135  SOPE      H6Y           -21.7604382937       19.3935051457       -9.6717467174  MEMB      135             0.0000000000
     15505       135  SOPE      C37           -22.2751708542       21.4908010240       -9.1710707450  MEMB      135             0.0000000000
     15506       135  SOPE      H7X           -23.3796829807       21.5032584185       -9.2903131770  MEMB      135             0.0000000000
     15507       135  SOPE      H7Y           -21.9033205683       22.4980001808       -9.4567254164  MEMB      135             0.0000000000
     15508       135  SOPE      C38           -22.0516543609       21.2780405590       -7.6170536072  MEMB      135             0.0000000000
     15509       135  SOPE      H8X           -21.0901602206       20.7776264874       -7.3732590428  MEMB      135             0.0000000000
     15510       135  SOPE      H8Y           -22.8558676434       20.5858079088       -7.2878470513  MEMB      135             0.0000000000
     15511       135  SOPE      C39           -22.0977412757       22.5632237938       -6.7837214521  MEMB      135             0.0000000000
     15512       135  SOPE      H9X           -23.1197677666       22.9432259475       -6.9967495905  MEMB      135             0.0000000000
     15513       135  SOPE      H9Y           -21.3303427906       23.3303568465       -7.0223169001  MEMB      135             0.0000000000
     15514       135  SOPE      C310          -21.8373874402       22.4235802841       -5.1994290845  MEMB      135             0.0000000000
     15515       135  SOPE      H10X          -21.7793860231       23.4605956239       -4.8050240544  MEMB      135             0.0000000000
     15516       135  SOPE      H10Y          -20.9022778799       21.8300717406       -5.1120288673  MEMB      135             0.0000000000
     15517       135  SOPE      C311          -22.9374605273       21.5742807133       -4.4638817956  MEMB      135             0.0000000000
     15518       135  SOPE      H11X          -22.7543822078       20.5193944725       -4.7605605586  MEMB      135             0.0000000000
     15519       135  SOPE      H11Y          -23.9755449342       21.8564735486       -4.7414952788  MEMB      135             0.0000000000
     15520       135  SOPE      C312          -22.9096552405       21.5366843933       -2.8858244850  MEMB      135             0.0000000000
     15521       135  SOPE      H12X          -23.6754650298       20.8314272054       -2.4979195812  MEMB      135             0.0000000000
     15522       135  SOPE      H12Y          -23.2733530600       22.5288166174       -2.5427228050  MEMB      135             0.0000000000
     15523       135  SOPE      C313          -21.5071556730       21.2000671110       -2.3161559544  MEMB      135             0.0000000000
     15524       135  SOPE      H13X          -20.7366489179       21.9753277720       -2.5151831125  MEMB      135             0.0000000000
     15525       135  SOPE      H13Y          -21.0569535642       20.3256554972       -2.8329193075  MEMB      135             0.0000000000
     15526       135  SOPE      C314          -21.4190795799       20.8985251509       -0.7579736813  MEMB      135             0.0000000000
     15527       135  SOPE      H14X          -22.2209433033       21.5309270469       -0.3204778832  MEMB      135             0.0000000000
     15528       135  SOPE      H14Y          -20.5377967489       21.1049481560       -0.1137285950  MEMB      135             0.0000000000
     15529       135  SOPE      C315          -21.6651117895       19.4427978027       -0.4643766051  MEMB      135             0.0000000000
     15530       135  SOPE      H15X          -20.9954326553       18.7791400881       -1.0520919932  MEMB      135             0.0000000000
     15531       135  SOPE      H15Y          -22.6671122543       19.1727348201       -0.8610904027  MEMB      135             0.0000000000
     15532       135  SOPE      C316          -21.6215342015       19.0772613907        0.9676886016  MEMB      135             0.0000000000
     15533       135  SOPE      H16X          -22.5597731422       19.3094095909        1.5155359008  MEMB      135             0.0000000000
     15534       135  SOPE      H16Y          -20.7800241587       19.6824743980        1.3675621007  MEMB      135             0.0000000000
     15535       135  SOPE      C317          -21.2917527781       17.5766069123        1.2721881818  MEMB      135             0.0000000000
     15536       135  SOPE      H17X          -20.9370247374       17.4880880969        2.3213083255  MEMB      135             0.0000000000
     15537       135  SOPE      H17Y          -20.5026401581       17.2101699935        0.5812876473  MEMB      135             0.0000000000
     15538       135  SOPE      C318          -22.5298106915       16.6054169681        1.1490117520  MEMB      135             0.0000000000
     15539       135  SOPE      H18X          -22.3120636905       15.5167547201        1.1905058768  MEMB      135             0.0000000000
     15540       135  SOPE      H18Y          -23.1904964203       16.7165475289        0.2627475707  MEMB      135             0.0000000000
     15541       135  SOPE      H18Z          -23.2048527214       16.6731982176        2.0288095610  MEMB      135             0.0000000000
     15542       136  CHL1      C3             -8.3660017088      -24.6321444621      -17.2942900000  MEMB      136             0.0000000000
     15543       136  CHL1      H3             -7.3566888669      -24.3623577246      -16.9163900000  MEMB      136             0.0000000000
     15544       136  CHL1      O3             -8.2682231512      -24.5886089379      -18.7057100000  MEMB      136             0.0000000000
     15545       136  CHL1      H3'            -7.6865525788      -25.2859626588      -19.0170700000  MEMB      136             0.0000000000
     15546       136  CHL1      C4             -8.7029902639      -25.9956232239      -16.7835600000  MEMB      136             0.0000000000
     15547       136  CHL1      H4A            -9.6823174973      -26.2484396877      -17.2432400000  MEMB      136             0.0000000000
     15548       136  CHL1      H4B            -7.9163735755      -26.6966314454      -17.1359000000  MEMB      136             0.0000000000
     15549       136  CHL1      C5             -8.7333353901      -25.9563726212      -15.2758600000  MEMB      136             0.0000000000
     15550       136  CHL1      C6             -7.8405123913      -26.6842147135      -14.5465500000  MEMB      136             0.0000000000
     15551       136  CHL1      H6             -7.2022151247      -27.4441096401      -15.0210400000  MEMB      136             0.0000000000
     15552       136  CHL1      C7             -7.8147432571      -26.6996979858      -13.0436000000  MEMB      136             0.0000000000
     15553       136  CHL1      H7A            -7.8928905625      -27.7540285247      -12.7021100000  MEMB      136             0.0000000000
     15554       136  CHL1      H7B            -6.8917813349      -26.2525798736      -12.6163500000  MEMB      136             0.0000000000
     15555       136  CHL1      C8             -9.0741403009      -25.9878484544      -12.4254900000  MEMB      136             0.0000000000
     15556       136  CHL1      H8             -9.9072681293      -26.7226343348      -12.4429900000  MEMB      136             0.0000000000
     15557       136  CHL1      C14            -8.7536911876      -25.7312511444      -10.9345500000  MEMB      136             0.0000000000
     15558       136  CHL1      H14            -7.8708572774      -25.0615738075      -11.0148900000  MEMB      136             0.0000000000
     15559       136  CHL1      C15            -8.2775709673      -26.9078773641      -10.0747900000  MEMB      136             0.0000000000
     15560       136  CHL1      H15A           -8.8420213007      -27.8386584131      -10.2969700000  MEMB      136             0.0000000000
     15561       136  CHL1      H15B           -7.1941145805      -27.1536319470      -10.0677100000  MEMB      136             0.0000000000
     15562       136  CHL1      C16            -8.6234931447      -26.4656041642       -8.5774800000  MEMB      136             0.0000000000
     15563       136  CHL1      H16A           -9.2730615169      -27.1644307938       -8.0082400000  MEMB      136             0.0000000000
     15564       136  CHL1      H16B           -7.6324087287      -26.4174354471       -8.0777200000  MEMB      136             0.0000000000
     15565       136  CHL1      C17            -9.3119571613      -25.1039005038       -8.7589700000  MEMB      136             0.0000000000
     15566       136  CHL1      H17            -8.5049967235      -24.3426855076       -8.8197400000  MEMB      136             0.0000000000
     15567       136  CHL1      C13            -9.8798360697      -25.1188089689      -10.2361600000  MEMB      136             0.0000000000
     15568       136  CHL1      C18           -11.1375193908      -25.9875637704      -10.1495900000  MEMB      136             0.0000000000
     15569       136  CHL1      H18A          -11.5467369789      -26.1416591786      -11.1709200000  MEMB      136             0.0000000000
     15570       136  CHL1      H18B          -10.9890412034      -26.9888947798       -9.6917500000  MEMB      136             0.0000000000
     15571       136  CHL1      H18C          -11.9232991746      -25.4783569099       -9.5516200000  MEMB      136             0.0000000000
     15572       136  CHL1      C12           -10.1726519448      -23.7081541142      -10.8834400000  MEMB      136             0.0000000000
     15573       136  CHL1      H12A          -11.0885955904      -23.3384466430      -10.3748400000  MEMB      136             0.0000000000
     15574       136  CHL1      H12B           -9.2643283705      -23.0903247206      -10.7173900000  MEMB      136             0.0000000000
     15575       136  CHL1      C11           -10.4306125916      -23.8133451556      -12.3541700000  MEMB      136             0.0000000000
     15576       136  CHL1      H11A          -11.3481165772      -24.4355969638      -12.4270800000  MEMB      136             0.0000000000
     15577       136  CHL1      H11B          -10.5138937438      -22.8217381534      -12.8482300000  MEMB      136             0.0000000000
     15578       136  CHL1      C9             -9.3522514939      -24.6125829840      -13.1696200000  MEMB      136             0.0000000000
     15579       136  CHL1      H9             -8.3852504824      -24.0966933107      -12.9877000000  MEMB      136             0.0000000000
     15580       136  CHL1      C10            -9.7572313567      -24.8865134409      -14.6336500000  MEMB      136             0.0000000000
     15581       136  CHL1      C19           -11.1484971958      -25.4860717131      -14.8767400000  MEMB      136             0.0000000000
     15582       136  CHL1      H19A          -11.3108507105      -25.7873216447      -15.9337200000  MEMB      136             0.0000000000
     15583       136  CHL1      H19B          -11.3138548896      -26.3580467043      -14.2084400000  MEMB      136             0.0000000000
     15584       136  CHL1      H19C          -11.8486404777      -24.6443533510      -14.6879500000  MEMB      136             0.0000000000
     15585       136  CHL1      C1             -9.7164739005      -23.5644618233      -15.3579500000  MEMB      136             0.0000000000
     15586       136  CHL1      H1A           -10.6007311861      -22.9282429980      -15.1396900000  MEMB      136             0.0000000000
     15587       136  CHL1      H1B            -8.8208468264      -23.0695012386      -14.9252900000  MEMB      136             0.0000000000
     15588       136  CHL1      C2             -9.4423351521      -23.6228831296      -16.8755200000  MEMB      136             0.0000000000
     15589       136  CHL1      H2A            -9.0221879294      -22.6697542226      -17.2619900000  MEMB      136             0.0000000000
     15590       136  CHL1      H2B           -10.4560014439      -23.7844650037      -17.3005900000  MEMB      136             0.0000000000
     15591       136  CHL1      C20           -10.1865566967      -24.7356580766       -7.5369700000  MEMB      136             0.0000000000
     15592       136  CHL1      H20           -11.0280384516      -25.4549374321       -7.4427100000  MEMB      136             0.0000000000
     15593       136  CHL1      C21           -10.8248769981      -23.3724068281       -7.6973600000  MEMB      136             0.0000000000
     15594       136  CHL1      H21A          -10.1563879336      -22.5499370935       -8.0304900000  MEMB      136             0.0000000000
     15595       136  CHL1      H21B          -11.1840655723      -22.9120342218       -6.7521900000  MEMB      136             0.0000000000
     15596       136  CHL1      H21C          -11.7069781155      -23.5634323463       -8.3452300000  MEMB      136             0.0000000000
     15597       136  CHL1      C22            -9.4129357186      -24.8933535120       -6.2486400000  MEMB      136             0.0000000000
     15598       136  CHL1      H22A           -8.9226609411      -25.8902123133       -6.2338400000  MEMB      136             0.0000000000
     15599       136  CHL1      H22B           -8.5255188826      -24.2249665206       -6.2574000000  MEMB      136             0.0000000000
     15600       136  CHL1      C23           -10.2209774147      -24.5968106122       -4.9662400000  MEMB      136             0.0000000000
     15601       136  CHL1      H23A          -10.6832118691      -23.5869403204       -4.9376000000  MEMB      136             0.0000000000
     15602       136  CHL1      H23B          -11.0440711995      -25.3385700690       -5.0475800000  MEMB      136             0.0000000000
     15603       136  CHL1      C24            -9.3930198689      -24.9069459485       -3.7426800000  MEMB      136             0.0000000000
     15604       136  CHL1      H24A           -8.9946195587      -25.9439152168       -3.7256300000  MEMB      136             0.0000000000
     15605       136  CHL1      H24B           -8.4551851955      -24.3135577790       -3.6910900000  MEMB      136             0.0000000000
     15606       136  CHL1      C25           -10.2100708288      -24.5601977267       -2.3698600000  MEMB      136             0.0000000000
     15607       136  CHL1      H25           -10.5914308857      -23.5218415310       -2.4733500000  MEMB      136             0.0000000000
     15608       136  CHL1      C26           -11.4292299063      -25.5784030807       -2.1173400000  MEMB      136             0.0000000000
     15609       136  CHL1      H26A          -12.1668876579      -25.4054344518       -2.9299000000  MEMB      136             0.0000000000
     15610       136  CHL1      H26B          -11.1352785083      -26.6497729091       -2.1077200000  MEMB      136             0.0000000000
     15611       136  CHL1      H26C          -11.8628507456      -25.3146906231       -1.1290300000  MEMB      136             0.0000000000
     15612       136  CHL1      C27            -9.2611860468      -24.7237225312       -1.1721100000  MEMB      136             0.0000000000
     15613       136  CHL1      H27A           -8.8710482853      -25.7458632497       -0.9788500000  MEMB      136             0.0000000000
     15614       136  CHL1      H27B           -8.3128003959      -24.1703757711       -1.3415200000  MEMB      136             0.0000000000
     15615       136  CHL1      H27C           -9.6344737593      -24.3542552685       -0.1931000000  MEMB      136             0.0000000000
     15616       137  CHL1      C3             21.5853547069      -15.1350577202      -17.3682200000  MEMB      137             0.0000000000
     15617       137  CHL1      H3             22.1306983308      -16.0932075455      -17.5055800000  MEMB      137             0.0000000000
     15618       137  CHL1      O3             21.1973316931      -14.6489458798      -18.6317800000  MEMB      137             0.0000000000
     15619       137  CHL1      H3'            20.6046242425      -15.3689247086      -18.8596600000  MEMB      137             0.0000000000
     15620       137  CHL1      C4             20.3151813300      -15.4166714827      -16.5320100000  MEMB      137             0.0000000000
     15621       137  CHL1      H4A            19.7398248698      -14.4829905367      -16.3544300000  MEMB      137             0.0000000000
     15622       137  CHL1      H4B            19.6405163198      -16.1297090694      -17.0523300000  MEMB      137             0.0000000000
     15623       137  CHL1      C5             20.5279797603      -15.8066565532      -15.0940000000  MEMB      137             0.0000000000
     15624       137  CHL1      C6             20.2426501510      -17.0092392498      -14.5317000000  MEMB      137             0.0000000000
     15625       137  CHL1      H6             19.5199313104      -17.6478969879      -15.0606500000  MEMB      137             0.0000000000
     15626       137  CHL1      C7             20.5173649785      -17.3273470398      -13.0489000000  MEMB      137             0.0000000000
     15627       137  CHL1      H7A            19.6521826964      -17.9053540744      -12.6594300000  MEMB      137             0.0000000000
     15628       137  CHL1      H7B            21.4038778480      -17.9967517218      -13.0663200000  MEMB      137             0.0000000000
     15629       137  CHL1      C8             20.8670250764      -16.1090187681      -12.2386000000  MEMB      137             0.0000000000
     15630       137  CHL1      H8             19.9739527305      -15.4579231268      -12.1252900000  MEMB      137             0.0000000000
     15631       137  CHL1      C14            21.3711478745      -16.5110179710      -10.8915200000  MEMB      137             0.0000000000
     15632       137  CHL1      H14            22.2595144880      -17.1624035816      -11.0357800000  MEMB      137             0.0000000000
     15633       137  CHL1      C15            20.3700016289      -17.4075041767      -10.1498000000  MEMB      137             0.0000000000
     15634       137  CHL1      H15A           19.4577963036      -16.7733762607      -10.1583800000  MEMB      137             0.0000000000
     15635       137  CHL1      H15B           20.1814958558      -18.4070076404      -10.5967600000  MEMB      137             0.0000000000
     15636       137  CHL1      C16            20.9769882157      -17.4674542396       -8.7080300000  MEMB      137             0.0000000000
     15637       137  CHL1      H16A           20.1403722689      -17.3211421593       -7.9918000000  MEMB      137             0.0000000000
     15638       137  CHL1      H16B           21.4092594163      -18.4587256092       -8.4534200000  MEMB      137             0.0000000000
     15639       137  CHL1      C17            22.1383867428      -16.3058908225       -8.6962600000  MEMB      137             0.0000000000
     15640       137  CHL1      H17            23.0812730367      -16.8743360120       -8.8451100000  MEMB      137             0.0000000000
     15641       137  CHL1      C13            21.8662427617      -15.5046639234       -9.9138400000  MEMB      137             0.0000000000
     15642       137  CHL1      C18            20.7429042812      -14.3838811657       -9.6166600000  MEMB      137             0.0000000000
     15643       137  CHL1      H18A           21.1820544386      -13.4000435387       -9.3455000000  MEMB      137             0.0000000000
     15644       137  CHL1      H18B           20.2414996691      -14.2260804640      -10.5954400000  MEMB      137             0.0000000000
     15645       137  CHL1      H18C           19.9286997997      -14.7067855975       -8.9332100000  MEMB      137             0.0000000000
     15646       137  CHL1      C12            23.0908083023      -14.8971898303      -10.6396300000  MEMB      137             0.0000000000
     15647       137  CHL1      H12A           23.5521527246      -14.1335061449       -9.9776100000  MEMB      137             0.0000000000
     15648       137  CHL1      H12B           23.8360353256      -15.6942480832      -10.8485600000  MEMB      137             0.0000000000
     15649       137  CHL1      C11            22.6444232558      -14.3097434133      -12.0180400000  MEMB      137             0.0000000000
     15650       137  CHL1      H11A           21.9788253697      -13.4571310454      -11.7643300000  MEMB      137             0.0000000000
     15651       137  CHL1      H11B           23.5625945600      -13.8546885907      -12.4472300000  MEMB      137             0.0000000000
     15652       137  CHL1      C9             21.9772690923      -15.3721009209      -12.9548200000  MEMB      137             0.0000000000
     15653       137  CHL1      H9             22.7407891578      -16.1737857395      -13.0479000000  MEMB      137             0.0000000000
     15654       137  CHL1      C10            21.4678809447      -14.8208095900      -14.3130000000  MEMB      137             0.0000000000
     15655       137  CHL1      C19            20.5123591209      -13.6206083626      -14.0119000000  MEMB      137             0.0000000000
     15656       137  CHL1      H19A           19.5420617846      -13.9591792456      -13.5897500000  MEMB      137             0.0000000000
     15657       137  CHL1      H19B           20.8649495306      -12.9096044507      -13.2344200000  MEMB      137             0.0000000000
     15658       137  CHL1      H19C           20.2790611738      -13.0147195655      -14.9134600000  MEMB      137             0.0000000000
     15659       137  CHL1      C1             22.7504971769      -14.3592620860      -15.0996600000  MEMB      137             0.0000000000
     15660       137  CHL1      H1A            23.1753805623      -13.5084495582      -14.5252700000  MEMB      137             0.0000000000
     15661       137  CHL1      H1B            23.5609027465      -15.1129109066      -15.0018300000  MEMB      137             0.0000000000
     15662       137  CHL1      C2             22.3573954462      -14.0643364387      -16.6178500000  MEMB      137             0.0000000000
     15663       137  CHL1      H2A            23.2503110147      -13.8957156629      -17.2570700000  MEMB      137             0.0000000000
     15664       137  CHL1      H2B            21.7851885257      -13.1122524767      -16.5970300000  MEMB      137             0.0000000000
     15665       137  CHL1      C20            22.2187234094      -15.6313532876       -7.2919500000  MEMB      137             0.0000000000
     15666       137  CHL1      H20            21.2516882634      -15.1012506574       -7.1572800000  MEMB      137             0.0000000000
     15667       137  CHL1      C21            23.4495715311      -14.8391787328       -7.1777200000  MEMB      137             0.0000000000
     15668       137  CHL1      H21A           24.2691254683      -15.3079620704       -7.7632900000  MEMB      137             0.0000000000
     15669       137  CHL1      H21B           23.7290153906      -14.5434164594       -6.1439100000  MEMB      137             0.0000000000
     15670       137  CHL1      H21C           23.2535905292      -13.8665384923       -7.6776000000  MEMB      137             0.0000000000
     15671       137  CHL1      C22            22.0886000024      -16.6507526359       -6.1154900000  MEMB      137             0.0000000000
     15672       137  CHL1      H22A           21.0510610204      -17.0460474854       -6.0759100000  MEMB      137             0.0000000000
     15673       137  CHL1      H22B           22.8127612926      -17.4325730515       -6.4296000000  MEMB      137             0.0000000000
     15674       137  CHL1      C23            22.5033025986      -16.2246324891       -4.6998100000  MEMB      137             0.0000000000
     15675       137  CHL1      H23A           23.6136854695      -16.1894173790       -4.6877500000  MEMB      137             0.0000000000
     15676       137  CHL1      H23B           22.0787131308      -15.2561572590       -4.3590900000  MEMB      137             0.0000000000
     15677       137  CHL1      C24            22.1857009973      -17.3020234282       -3.6947800000  MEMB      137             0.0000000000
     15678       137  CHL1      H24A           21.0949793149      -17.2997052229       -3.4835000000  MEMB      137             0.0000000000
     15679       137  CHL1      H24B           22.3898410889      -18.2389098542       -4.2559400000  MEMB      137             0.0000000000
     15680       137  CHL1      C25            23.0700457571      -17.3809877594       -2.4440100000  MEMB      137             0.0000000000
     15681       137  CHL1      H25            24.1285332147      -17.3032559682       -2.7724700000  MEMB      137             0.0000000000
     15682       137  CHL1      C26            22.8458807516      -16.1909169450       -1.5205500000  MEMB      137             0.0000000000
     15683       137  CHL1      H26A           21.7578691221      -15.9773721466       -1.4502300000  MEMB      137             0.0000000000
     15684       137  CHL1      H26B           23.1639503119      -16.3568498828       -0.4690600000  MEMB      137             0.0000000000
     15685       137  CHL1      H26C           23.3510637653      -15.2879380806       -1.9252000000  MEMB      137             0.0000000000
     15686       137  CHL1      C27            22.9399781715      -18.6582423147       -1.5675300000  MEMB      137             0.0000000000
     15687       137  CHL1      H27A           23.1673128701      -19.5674327498       -2.1642000000  MEMB      137             0.0000000000
     15688       137  CHL1      H27B           23.5363536525      -18.6321017826       -0.6305200000  MEMB      137             0.0000000000
     15689       137  CHL1      H27C           21.8763609968      -18.7161669152       -1.2518200000  MEMB      137             0.0000000000
     15690       138  OSM       N              26.1133508446       -8.4049162663      -22.8548452155  MEMB      138             0.0000000000
     15691       138  OSM       C15            27.4426044757       -8.0944486103      -23.6310066914  MEMB      138             0.0000000000
     15692       138  OSM       H15A           27.4969715993       -7.0784838468      -23.9933044728  MEMB      138             0.0000000000
     15693       138  OSM       H15B           27.6014373594       -8.7869321748      -24.4444183587  MEMB      138             0.0000000000
     15694       138  OSM       H15C           28.3130924804       -8.2375978339      -23.0079828114  MEMB      138             0.0000000000
     15695       138  OSM       C14            24.9380031780       -8.2801579716      -23.7967836536  MEMB      138             0.0000000000
     15696       138  OSM       H14A           23.9979478443       -8.4888053312      -23.3077413897  MEMB      138             0.0000000000
     15697       138  OSM       H14B           25.0333352143       -8.9607806265      -24.6298889824  MEMB      138             0.0000000000
     15698       138  OSM       H14C           25.0202658096       -7.2609456558      -24.1444027404  MEMB      138             0.0000000000
     15699       138  OSM       C13            26.0996246431       -9.8594212968      -22.4879162914  MEMB      138             0.0000000000
     15700       138  OSM       H13A           27.0234215619      -10.1015253257      -21.9835502972  MEMB      138             0.0000000000
     15701       138  OSM       H13B           25.9034052421      -10.3878694526      -23.4091331621  MEMB      138             0.0000000000
     15702       138  OSM       H13C           25.3079212878      -10.0574233804      -21.7805260884  MEMB      138             0.0000000000
     15703       138  OSM       C12            26.0339539666       -7.4740677455      -21.6312710449  MEMB      138             0.0000000000
     15704       138  OSM       H12A           26.1069170873       -6.4502773378      -21.9673208702  MEMB      138             0.0000000000
     15705       138  OSM       H12B           26.9740732586       -7.7079547022      -21.1539111274  MEMB      138             0.0000000000
     15706       138  OSM       C11            24.8666250018       -7.6517269701      -20.6055627540  MEMB      138             0.0000000000
     15707       138  OSM       H11A           24.0117755810       -7.2061660601      -21.1578570180  MEMB      138             0.0000000000
     15708       138  OSM       H11B           25.0930952949       -6.9823140402      -19.7482888250  MEMB      138             0.0000000000
     15709       138  OSM       P              23.4880246422       -9.2964937818      -19.2226004472  MEMB      138             0.0000000000
     15710       138  OSM       O13            22.4235641345       -8.3141607121      -19.4720984953  MEMB      138             0.0000000000
     15711       138  OSM       O14            23.0954691454      -10.7707977766      -19.3747745785  MEMB      138             0.0000000000
     15712       138  OSM       O11            24.0926932792       -9.1306096495      -17.7144363776  MEMB      138             0.0000000000
     15713       138  OSM       O12            24.6368239700       -9.0061325451      -20.2087044165  MEMB      138             0.0000000000
     15714       138  OSM       C1S            24.4826241433      -10.3274213727      -16.9996228587  MEMB      138             0.0000000000
     15715       138  OSM       H1S            25.2543608830      -10.8281351159      -17.6225427870  MEMB      138             0.0000000000
     15716       138  OSM       H1T            23.6461761345      -11.0325787700      -16.8061577793  MEMB      138             0.0000000000
     15717       138  OSM       NF             24.3379489552       -9.1183637050      -14.9349858334  MEMB      138             0.0000000000
     15718       138  OSM       HNF            24.8085211466       -8.2394391718      -14.9428883944  MEMB      138             0.0000000000
     15719       138  OSM       C2S            25.1278254933      -10.0412863073      -15.6584072452  MEMB      138             0.0000000000
     15720       138  OSM       H2S            25.0760249410      -11.0073202719      -15.1121323451  MEMB      138             0.0000000000
     15721       138  OSM       C3S            26.6114191546       -9.4824049482      -15.7542015650  MEMB      138             0.0000000000
     15722       138  OSM       H3S            26.6090617417       -8.5583238080      -16.3709588983  MEMB      138             0.0000000000
     15723       138  OSM       O3             27.4317255839      -10.4853393841      -16.3731354970  MEMB      138             0.0000000000
     15724       138  OSM       HO3            26.8128009406      -11.2189638540      -16.3912318637  MEMB      138             0.0000000000
     15725       138  OSM       C4S            27.0841404507       -9.1273320230      -14.4604295402  MEMB      138             0.0000000000
     15726       138  OSM       H4S            27.0566027331       -9.9178908777      -13.6960615775  MEMB      138             0.0000000000
     15727       138  OSM       C5S            27.4923781655       -7.9361487425      -14.1408340167  MEMB      138             0.0000000000
     15728       138  OSM       H5S            27.5065846971       -7.1917902802      -14.9506048924  MEMB      138             0.0000000000
     15729       138  OSM       C6S            28.0113887287       -7.4233844023      -12.7711074810  MEMB      138             0.0000000000
     15730       138  OSM       H6S            27.2297412947       -6.7149374907      -12.4226080668  MEMB      138             0.0000000000
     15731       138  OSM       H6T            28.9167793086       -6.8181496676      -12.9908345651  MEMB      138             0.0000000000
     15732       138  OSM       C7S            28.3139790769       -8.3834338574      -11.6801851178  MEMB      138             0.0000000000
     15733       138  OSM       H7S            28.8730230414       -7.6844998111      -11.0219424512  MEMB      138             0.0000000000
     15734       138  OSM       H7T            28.9252265126       -9.2322283062      -12.0546781393  MEMB      138             0.0000000000
     15735       138  OSM       C8S            27.1289970100       -8.9192460162      -10.9241033232  MEMB      138             0.0000000000
     15736       138  OSM       H8S            26.5355295172       -9.6984515717      -11.4484664092  MEMB      138             0.0000000000
     15737       138  OSM       H8T            26.5437069175       -8.0068710222      -10.6805294072  MEMB      138             0.0000000000
     15738       138  OSM       C9S            27.5566627142       -9.6335294854       -9.5750054139  MEMB      138             0.0000000000
     15739       138  OSM       H9S            28.2073136808       -8.9218262387       -9.0232336657  MEMB      138             0.0000000000
     15740       138  OSM       H9T            28.2060824839      -10.5133263366       -9.7713031968  MEMB      138             0.0000000000
     15741       138  OSM       C10S           26.3540185819       -9.8667018094       -8.6627340791  MEMB      138             0.0000000000
     15742       138  OSM       H10S           25.9098324975      -10.8699154553       -8.8376119224  MEMB      138             0.0000000000
     15743       138  OSM       H10T           25.5852464317       -9.0708427739       -8.7623257811  MEMB      138             0.0000000000
     15744       138  OSM       C11S           26.8123150664       -9.8653433272       -7.2280303208  MEMB      138             0.0000000000
     15745       138  OSM       H11S           26.9373156373       -8.7806685328       -7.0226602673  MEMB      138             0.0000000000
     15746       138  OSM       H11T           27.7211558014      -10.4693873308       -7.0195583988  MEMB      138             0.0000000000
     15747       138  OSM       C12S           25.6745985561      -10.3894143842       -6.2947602455  MEMB      138             0.0000000000
     15748       138  OSM       H12S           25.5523093725      -11.4932311891       -6.3256610164  MEMB      138             0.0000000000
     15749       138  OSM       H12T           24.6781606866       -9.9720138779       -6.5540079723  MEMB      138             0.0000000000
     15750       138  OSM       C13S           26.0272159198      -10.1608607926       -4.7688536846  MEMB      138             0.0000000000
     15751       138  OSM       H13S           26.9569694475      -10.7294111448       -4.5529144523  MEMB      138             0.0000000000
     15752       138  OSM       H13T           25.2213970675      -10.5794034308       -4.1286977206  MEMB      138             0.0000000000
     15753       138  OSM       C14S           26.2572320942       -8.7099388881       -4.4885442885  MEMB      138             0.0000000000
     15754       138  OSM       H14S           25.3132255333       -8.2254518705       -4.8178549959  MEMB      138             0.0000000000
     15755       138  OSM       H14T           27.0492792054       -8.3629353507       -5.1860911948  MEMB      138             0.0000000000
     15756       138  OSM       C15S           26.5902470472       -8.4198313917       -3.0442295364  MEMB      138             0.0000000000
     15757       138  OSM       H15S           27.4886662311       -9.0269495336       -2.8022147483  MEMB      138             0.0000000000
     15758       138  OSM       H15T           25.7666070401       -8.7484414304       -2.3749362577  MEMB      138             0.0000000000
     15759       138  OSM       C16S           26.9356916912       -7.0091479649       -2.6924597805  MEMB      138             0.0000000000
     15760       138  OSM       H16S           26.0567535996       -6.3466143906       -2.5413361666  MEMB      138             0.0000000000
     15761       138  OSM       H16T           27.4727527057       -6.5991704887       -3.5743914207  MEMB      138             0.0000000000
     15762       138  OSM       C17S           27.9813205818       -6.9871745075       -1.5470892712  MEMB      138             0.0000000000
     15763       138  OSM       H17S           28.7896738920       -7.7306223084       -1.7149317585  MEMB      138             0.0000000000
     15764       138  OSM       H17T           27.4628383910       -7.2761920080       -0.6079586767  MEMB      138             0.0000000000
     15765       138  OSM       C18S           28.6823232062       -5.6680588908       -1.3259040034  MEMB      138             0.0000000000
     15766       138  OSM       H18S           29.5583915206       -5.7415979059       -0.6466257865  MEMB      138             0.0000000000
     15767       138  OSM       H18T           27.9507719035       -4.9629506388       -0.8764868137  MEMB      138             0.0000000000
     15768       138  OSM       H18U           29.0540463275       -5.2395508647       -2.2811641553  MEMB      138             0.0000000000
     15769       138  OSM       C1F            23.1398110464       -9.3677162436      -14.4106321881  MEMB      138             0.0000000000
     15770       138  OSM       OF             22.7720876167      -10.4581841337      -14.0398442250  MEMB      138             0.0000000000
     15771       138  OSM       C2F            22.2978035178       -8.1907575649      -14.2454494300  MEMB      138             0.0000000000
     15772       138  OSM       H2F            21.2417521826       -8.5342644344      -14.2783076776  MEMB      138             0.0000000000
     15773       138  OSM       H2G            22.5195901073       -7.4897090822      -15.0783139832  MEMB      138             0.0000000000
     15774       138  OSM       C3F            22.3850116243       -7.4654362465      -12.8545739597  MEMB      138             0.0000000000
     15775       138  OSM       H3F            21.6546093253       -6.6303069805      -12.7963265846  MEMB      138             0.0000000000
     15776       138  OSM       H3G            23.4150655669       -7.0580443868      -12.9402578253  MEMB      138             0.0000000000
     15777       138  OSM       C4F            22.2395690099       -8.5035926514      -11.7020673714  MEMB      138             0.0000000000
     15778       138  OSM       H4F            23.1694565045       -9.1063827136      -11.6228557350  MEMB      138             0.0000000000
     15779       138  OSM       H4G            21.4031171598       -9.2193286648      -11.8517035034  MEMB      138             0.0000000000
     15780       138  OSM       C5F            22.0868782233       -7.8692003236      -10.2964385582  MEMB      138             0.0000000000
     15781       138  OSM       H5F            21.2997272147       -7.0944959634      -10.1758260102  MEMB      138             0.0000000000
     15782       138  OSM       H5G            23.0877118385       -7.3983328686      -10.1918597356  MEMB      138             0.0000000000
     15783       138  OSM       C6F            21.7903590752       -8.9457984972       -9.2597063294  MEMB      138             0.0000000000
     15784       138  OSM       H6F            22.7002403942       -9.5816209673       -9.2131580618  MEMB      138             0.0000000000
     15785       138  OSM       H6G            21.0224304908       -9.6603019304       -9.6258911459  MEMB      138             0.0000000000
     15786       138  OSM       C7F            21.4737840608       -8.3657883865       -7.9016276067  MEMB      138             0.0000000000
     15787       138  OSM       H7F            20.4270106040       -7.9936128066       -7.9100879675  MEMB      138             0.0000000000
     15788       138  OSM       H7G            22.1011522433       -7.4905302487       -7.6284006315  MEMB      138             0.0000000000
     15789       138  OSM       C8F            21.7139836925       -9.4147625641       -6.7503267334  MEMB      138             0.0000000000
     15790       138  OSM       H8F            22.6521696899       -9.9408515376       -7.0284600435  MEMB      138             0.0000000000
     15791       138  OSM       H8G            20.8740452042      -10.1419579510       -6.7536661578  MEMB      138             0.0000000000
     15792       138  OSM       C9F            21.6580439035       -8.7465167615       -5.3624163031  MEMB      138             0.0000000000
     15793       138  OSM       H9F            21.8456526465       -7.6676029083       -5.4660873400  MEMB      138             0.0000000000
     15794       138  OSM       C10F           21.4399333049       -9.1706277376       -4.1357564571  MEMB      138             0.0000000000
     15795       138  OSM       H10F           21.5274516311       -8.3484237434       -3.4102768659  MEMB      138             0.0000000000
     15796       138  OSM       C11F           21.2646708907      -10.6366513966       -3.7683068321  MEMB      138             0.0000000000
     15797       138  OSM       H11F           22.2810033320      -10.8216484308       -3.3594488910  MEMB      138             0.0000000000
     15798       138  OSM       H11G           21.1658487854      -11.3588801501       -4.6067224866  MEMB      138             0.0000000000
     15799       138  OSM       C12F           20.0809245977      -10.9615139945       -2.7845921736  MEMB      138             0.0000000000
     15800       138  OSM       H12F           20.4506707370      -11.8138086324       -2.1753282484  MEMB      138             0.0000000000
     15801       138  OSM       H12G           19.2367628395      -11.2843828598       -3.4307099407  MEMB      138             0.0000000000
     15802       138  OSM       C13F           19.7622402527       -9.8056367991       -1.8240354769  MEMB      138             0.0000000000
     15803       138  OSM       H13F           18.8773892917      -10.1283208311       -1.2347694863  MEMB      138             0.0000000000
     15804       138  OSM       H13G           19.6458170303       -8.7776113713       -2.2289179215  MEMB      138             0.0000000000
     15805       138  OSM       C14F           20.9179624345       -9.6003304098       -0.8064244712  MEMB      138             0.0000000000
     15806       138  OSM       H14F           21.8369517754       -9.4158720220       -1.4028749146  MEMB      138             0.0000000000
     15807       138  OSM       H14G           21.1098836174      -10.5037990477       -0.1889841315  MEMB      138             0.0000000000
     15808       138  OSM       C15F           20.8744321835       -8.3753438310        0.1039802583  MEMB      138             0.0000000000
     15809       138  OSM       H15F           20.0168867936       -8.4525862454        0.8060991464  MEMB      138             0.0000000000
     15810       138  OSM       H15G           20.7808451912       -7.5158251472       -0.5937234601  MEMB      138             0.0000000000
     15811       138  OSM       C16F           22.1069481455       -8.1224856264        0.8239550225  MEMB      138             0.0000000000
     15812       138  OSM       H16F           22.9644658536       -8.1633030487        0.1187465274  MEMB      138             0.0000000000
     15813       138  OSM       H16G           22.0409497967       -8.8770637757        1.6367142038  MEMB      138             0.0000000000
     15814       138  OSM       C17F           22.1154390804       -6.7303182058        1.6678134610  MEMB      138             0.0000000000
     15815       138  OSM       H17F           22.3623774738       -5.9668996320        0.8993508713  MEMB      138             0.0000000000
     15816       138  OSM       H17G           22.6998204292       -6.7374148864        2.6126787482  MEMB      138             0.0000000000
     15817       138  OSM       C18F           20.7429089638       -6.4589384826        2.2811549040  MEMB      138             0.0000000000
     15818       138  OSM       H18F           19.9526224941       -6.3190734510        1.5129068200  MEMB      138             0.0000000000
     15819       138  OSM       H18G           20.7409956760       -5.6065826810        2.9937603463  MEMB      138             0.0000000000
     15820       138  OSM       H18H           20.4429462860       -7.3660224287        2.8482027097  MEMB      138             0.0000000000
     15821       139  SAPE      N              11.2667204222       20.8085118695      -19.5866995950  MEMB      139             0.0000000000
     15822       139  SAPE      HN1            12.2042636988       21.1471655894      -19.2901758892  MEMB      139             0.0000000000
     15823       139  SAPE      HN2            11.0710430411       19.8942338873      -19.1312808004  MEMB      139             0.0000000000
     15824       139  SAPE      HN3            11.3780525427       20.7230446569      -20.6171851544  MEMB      139             0.0000000000
     15825       139  SAPE      C12            10.1824433748       21.7908179989      -19.1823377363  MEMB      139             0.0000000000
     15826       139  SAPE      H12A           10.3880519724       22.0510712542      -18.1220008779  MEMB      139             0.0000000000
     15827       139  SAPE      H12B            9.2993224738       21.1171558970      -19.2067842911  MEMB      139             0.0000000000
     15828       139  SAPE      C11            10.1168788387       22.9367597253      -20.1191055186  MEMB      139             0.0000000000
     15829       139  SAPE      H11A            9.3536861098       23.6875906807      -19.8222709135  MEMB      139             0.0000000000
     15830       139  SAPE      H11B            9.9860820858       22.5170417200      -21.1394240997  MEMB      139             0.0000000000
     15831       139  SAPE      P              11.6021432344       25.0323907935      -20.2993096333  MEMB      139             0.0000000000
     15832       139  SAPE      O13            12.9651449942       25.2146856133      -20.8465260168  MEMB      139             0.0000000000
     15833       139  SAPE      O14            10.4607829908       25.5056052900      -21.1596040470  MEMB      139             0.0000000000
     15834       139  SAPE      O12            11.3945652980       23.5371761325      -19.9771416712  MEMB      139             0.0000000000
     15835       139  SAPE      O11            11.4075464963       25.6286109382      -18.8292757911  MEMB      139             0.0000000000
     15836       139  SAPE      C1             12.2692001148       26.6890310254      -18.4028445516  MEMB      139             0.0000000000
     15837       139  SAPE      HA             13.3353059026       26.5327765596      -18.6736281621  MEMB      139             0.0000000000
     15838       139  SAPE      HB             11.9431205153       27.6667448177      -18.8176559310  MEMB      139             0.0000000000
     15839       139  SAPE      C2             12.2029912086       26.5547282555      -16.8432122720  MEMB      139             0.0000000000
     15840       139  SAPE      HS             12.7268308263       27.4421566476      -16.4280208591  MEMB      139             0.0000000000
     15841       139  SAPE      O21            12.9651253421       25.3968972328      -16.5528425014  MEMB      139             0.0000000000
     15842       139  SAPE      C21            13.4978841101       25.3636690738      -15.3137685207  MEMB      139             0.0000000000
     15843       139  SAPE      O22            13.4191543594       26.2364969889      -14.4848349804  MEMB      139             0.0000000000
     15844       139  SAPE      C22            14.1264350756       23.9733163305      -15.2058301229  MEMB      139             0.0000000000
     15845       139  SAPE      H2R            14.6613850323       23.7155688772      -16.1448274440  MEMB      139             0.0000000000
     15846       139  SAPE      H2S            14.8971402125       24.0640317056      -14.4107796623  MEMB      139             0.0000000000
     15847       139  SAPE      C3             10.7117611515       26.4277291901      -16.3080241614  MEMB      139             0.0000000000
     15848       139  SAPE      HX             10.1064562948       27.1616151965      -16.8819041615  MEMB      139             0.0000000000
     15849       139  SAPE      HY             10.7791638738       26.6333438841      -15.2182994544  MEMB      139             0.0000000000
     15850       139  SAPE      O31            10.0708101585       25.1169252574      -16.5032976726  MEMB      139             0.0000000000
     15851       139  SAPE      C31             8.9026199354       25.0554002110      -15.9640755226  MEMB      139             0.0000000000
     15852       139  SAPE      O32             8.2062983436       25.9790760580      -15.6140801183  MEMB      139             0.0000000000
     15853       139  SAPE      C32             8.4613594420       23.6157875231      -15.8045268712  MEMB      139             0.0000000000
     15854       139  SAPE      H2X             9.3263490359       22.9202258020      -15.7564847789  MEMB      139             0.0000000000
     15855       139  SAPE      H2Y             7.8455368588       23.4142407720      -16.7070026414  MEMB      139             0.0000000000
     15856       139  SAPE      C23            12.9942883352       23.0692471513      -14.6774807104  MEMB      139             0.0000000000
     15857       139  SAPE      H3R            12.1784945488       23.0191006449      -15.4300009937  MEMB      139             0.0000000000
     15858       139  SAPE      H3S            12.5690828076       23.4239813471      -13.7143170394  MEMB      139             0.0000000000
     15859       139  SAPE      C24            13.4694953679       21.6241941246      -14.3970546614  MEMB      139             0.0000000000
     15860       139  SAPE      H4R            14.1673979453       21.6172630042      -13.5326442597  MEMB      139             0.0000000000
     15861       139  SAPE      H4S            13.9609817932       21.1278821510      -15.2610204206  MEMB      139             0.0000000000
     15862       139  SAPE      C25            12.3740396841       20.6482335568      -14.0707072064  MEMB      139             0.0000000000
     15863       139  SAPE      H5R            12.0690099835       20.0051223370      -14.9093757243  MEMB      139             0.0000000000
     15864       139  SAPE      C26            11.8219124156       20.5160504659      -12.8793163663  MEMB      139             0.0000000000
     15865       139  SAPE      H6R            11.0132231788       19.7771225742      -12.7792815766  MEMB      139             0.0000000000
     15866       139  SAPE      C27            12.1175698495       21.2559858915      -11.5737638200  MEMB      139             0.0000000000
     15867       139  SAPE      H7R            11.2018418997       21.8440627754      -11.3503165085  MEMB      139             0.0000000000
     15868       139  SAPE      H7S            12.9959794533       21.9241564802      -11.7013006246  MEMB      139             0.0000000000
     15869       139  SAPE      C28            12.5743396092       20.4206858963      -10.3246192940  MEMB      139             0.0000000000
     15870       139  SAPE      H8R            13.2569635412       19.5923376160      -10.5651674571  MEMB      139             0.0000000000
     15871       139  SAPE      C29            12.0582312751       20.4760501975       -9.1120728051  MEMB      139             0.0000000000
     15872       139  SAPE      H9R            12.5193967337       19.8325252106       -8.3483961852  MEMB      139             0.0000000000
     15873       139  SAPE      C210           10.9642943702       21.4680632408       -8.6800155195  MEMB      139             0.0000000000
     15874       139  SAPE      H10R           10.0727788340       21.0481765638       -8.1669694996  MEMB      139             0.0000000000
     15875       139  SAPE      H10S           10.4484096722       22.0198476732       -9.4947040380  MEMB      139             0.0000000000
     15876       139  SAPE      C211           11.6586718919       22.5840293550       -7.9498746890  MEMB      139             0.0000000000
     15877       139  SAPE      H11R           11.9254315241       23.5144795699       -8.4724655128  MEMB      139             0.0000000000
     15878       139  SAPE      C212           11.9557217274       22.4753270460       -6.6454600955  MEMB      139             0.0000000000
     15879       139  SAPE      H12R           12.4577209131       23.2875848912       -6.0993522761  MEMB      139             0.0000000000
     15880       139  SAPE      C213           11.6714099452       21.2933864030       -5.7335777961  MEMB      139             0.0000000000
     15881       139  SAPE      H13R           11.5220961483       20.3227017463       -6.2529984215  MEMB      139             0.0000000000
     15882       139  SAPE      H13S           10.7520940740       21.4254861247       -5.1238823015  MEMB      139             0.0000000000
     15883       139  SAPE      C214           12.8594972679       20.9130840151       -4.8835005233  MEMB      139             0.0000000000
     15884       139  SAPE      H14R           13.7938946178       21.0203219287       -5.4539402369  MEMB      139             0.0000000000
     15885       139  SAPE      C215           12.8545203366       20.5353917483       -3.5536484405  MEMB      139             0.0000000000
     15886       139  SAPE      H15R           13.7649595519       20.4063952911       -2.9499432194  MEMB      139             0.0000000000
     15887       139  SAPE      C216           11.6039084209       20.3931241933       -2.7430386554  MEMB      139             0.0000000000
     15888       139  SAPE      H16R           10.9633326627       19.5892248776       -3.1646190022  MEMB      139             0.0000000000
     15889       139  SAPE      H16S           11.1711908088       21.4163787526       -2.7378585864  MEMB      139             0.0000000000
     15890       139  SAPE      C217           11.7979558320       19.8709319298       -1.2751316215  MEMB      139             0.0000000000
     15891       139  SAPE      H17R           12.5476516696       19.0691970662       -1.4468821779  MEMB      139             0.0000000000
     15892       139  SAPE      H17S           10.9013245600       19.3070723200       -0.9398169216  MEMB      139             0.0000000000
     15893       139  SAPE      C218           12.2185073318       20.9029102379       -0.2565942262  MEMB      139             0.0000000000
     15894       139  SAPE      H18R           12.8941096761       21.6513557819       -0.7231895501  MEMB      139             0.0000000000
     15895       139  SAPE      H18S           12.8356526720       20.4289752720        0.5363996369  MEMB      139             0.0000000000
     15896       139  SAPE      C219           11.1201592131       21.6636029069        0.4183501703  MEMB      139             0.0000000000
     15897       139  SAPE      H19R           10.4919483768       20.9447260691        0.9865820810  MEMB      139             0.0000000000
     15898       139  SAPE      H19S           10.5226227970       22.0596934723       -0.4304042881  MEMB      139             0.0000000000
     15899       139  SAPE      C220           11.5427672621       22.7711025994        1.3295608765  MEMB      139             0.0000000000
     15900       139  SAPE      H20R           10.7258750546       23.5137897645        1.4537526791  MEMB      139             0.0000000000
     15901       139  SAPE      H20S           12.2611111642       23.3947106834        0.7556111887  MEMB      139             0.0000000000
     15902       139  SAPE      H20T           11.9595053970       22.4167021892        2.2965407488  MEMB      139             0.0000000000
     15903       139  SAPE      C33             7.5546015392       23.4338432249      -14.5470539400  MEMB      139             0.0000000000
     15904       139  SAPE      H3X             7.3008083899       22.3568489754      -14.4470879041  MEMB      139             0.0000000000
     15905       139  SAPE      H3Y             6.6244771943       24.0334620322      -14.6452723760  MEMB      139             0.0000000000
     15906       139  SAPE      C34             8.1758119586       23.6980403834      -13.2048477033  MEMB      139             0.0000000000
     15907       139  SAPE      H4X             8.4907192025       24.7617878830      -13.2648105675  MEMB      139             0.0000000000
     15908       139  SAPE      H4Y             9.0644905552       23.0440674028      -13.0748839623  MEMB      139             0.0000000000
     15909       139  SAPE      C35             7.3003129928       23.4338234227      -11.9857648579  MEMB      139             0.0000000000
     15910       139  SAPE      H5X             7.0257445223       22.3733119951      -11.8007016800  MEMB      139             0.0000000000
     15911       139  SAPE      H5Y             6.3646147966       24.0325992964      -12.0018073196  MEMB      139             0.0000000000
     15912       139  SAPE      C36             7.9483486289       23.9311468873      -10.7358167095  MEMB      139             0.0000000000
     15913       139  SAPE      H6X             8.8982669408       23.3575436251      -10.6814518429  MEMB      139             0.0000000000
     15914       139  SAPE      H6Y             7.2416922909       23.6898216302       -9.9131865500  MEMB      139             0.0000000000
     15915       139  SAPE      C37             8.2432699411       25.3963303513      -10.7875106427  MEMB      139             0.0000000000
     15916       139  SAPE      H7X             7.3751533656       26.0423811971      -11.0391315094  MEMB      139             0.0000000000
     15917       139  SAPE      H7Y             8.9680633348       25.5242531706      -11.6197558606  MEMB      139             0.0000000000
     15918       139  SAPE      C38             8.8115667518       25.9486447887       -9.5130933366  MEMB      139             0.0000000000
     15919       139  SAPE      H8X             8.9150731661       27.0370232537       -9.7106789964  MEMB      139             0.0000000000
     15920       139  SAPE      H8Y             9.7933443450       25.5173613048       -9.2225284293  MEMB      139             0.0000000000
     15921       139  SAPE      C39             7.9558035016       25.5761544646       -8.1978213474  MEMB      139             0.0000000000
     15922       139  SAPE      H9X             8.2488934919       24.5324515286       -7.9547102819  MEMB      139             0.0000000000
     15923       139  SAPE      H9Y             6.8617813596       25.5052319120       -8.3778395482  MEMB      139             0.0000000000
     15924       139  SAPE      C310            8.0251169056       26.6159729347       -7.0193623528  MEMB      139             0.0000000000
     15925       139  SAPE      H10X            7.3626632136       26.3815886904       -6.1588164407  MEMB      139             0.0000000000
     15926       139  SAPE      H10Y            7.5803160921       27.5910137851       -7.3122249956  MEMB      139             0.0000000000
     15927       139  SAPE      C311            9.4325580743       27.0086775703       -6.5546160305  MEMB      139             0.0000000000
     15928       139  SAPE      H11X            9.4772462450       27.6635073682       -5.6582218269  MEMB      139             0.0000000000
     15929       139  SAPE      H11Y            9.9773931585       27.5002357502       -7.3887897659  MEMB      139             0.0000000000
     15930       139  SAPE      C312           10.4053964563       25.8206196250       -6.1912796781  MEMB      139             0.0000000000
     15931       139  SAPE      H12X           10.4736541583       25.0918344137       -7.0270629314  MEMB      139             0.0000000000
     15932       139  SAPE      H12Y            9.7835749561       25.2339584698       -5.4817115170  MEMB      139             0.0000000000
     15933       139  SAPE      C313           11.8438485317       26.2394501574       -5.7424209663  MEMB      139             0.0000000000
     15934       139  SAPE      H13X           12.2647737141       26.8915035758       -6.5373864614  MEMB      139             0.0000000000
     15935       139  SAPE      H13Y           12.5459680756       25.3798612190       -5.6928632815  MEMB      139             0.0000000000
     15936       139  SAPE      C314           11.9249280615       26.8457567165       -4.2994433768  MEMB      139             0.0000000000
     15937       139  SAPE      H14X           11.4825983319       27.8629623661       -4.3623589262  MEMB      139             0.0000000000
     15938       139  SAPE      H14Y           12.9581652715       27.0199086636       -3.9301021467  MEMB      139             0.0000000000
     15939       139  SAPE      C315           11.3677995560       26.0761228845       -3.0976720299  MEMB      139             0.0000000000
     15940       139  SAPE      H15X           11.8652238867       25.0832790537       -3.0637388440  MEMB      139             0.0000000000
     15941       139  SAPE      H15Y           10.3503856082       25.7074968827       -3.3492758779  MEMB      139             0.0000000000
     15942       139  SAPE      C316           11.4362827716       26.9388035815       -1.8155469582  MEMB      139             0.0000000000
     15943       139  SAPE      H16X           10.8248010675       27.8657686288       -1.8494093314  MEMB      139             0.0000000000
     15944       139  SAPE      H16Y           12.5092581369       27.2014021129       -1.6968599969  MEMB      139             0.0000000000
     15945       139  SAPE      C317           10.8418698146       26.2873103818       -0.4953812318  MEMB      139             0.0000000000
     15946       139  SAPE      H17X           11.2937360375       25.2982329177       -0.2676464912  MEMB      139             0.0000000000
     15947       139  SAPE      H17Y            9.7880593053       25.9705694425       -0.6486102497  MEMB      139             0.0000000000
     15948       139  SAPE      C318           10.9302914159       27.1171033751        0.7733944489  MEMB      139             0.0000000000
     15949       139  SAPE      H18X           10.4125513499       26.5306240395        1.5622603778  MEMB      139             0.0000000000
     15950       139  SAPE      H18Y           10.4476497218       28.1060287341        0.6204085732  MEMB      139             0.0000000000
     15951       139  SAPE      H18Z           12.0115178651       27.2258356884        1.0045820274  MEMB      139             0.0000000000
     15952       140  SLPC      N              19.5234172858      -21.2262672901      -18.0940739915  MEMB      140             0.0000000000
     15953       140  SLPC      C13            20.9942090242      -21.4152672981      -17.9087299943  MEMB      140             0.0000000000
     15954       140  SLPC      H13A           21.5945944157      -20.7142340971      -18.4695236977  MEMB      140             0.0000000000
     15955       140  SLPC      H13B           21.3476276813      -21.4895701678      -16.8909017032  MEMB      140             0.0000000000
     15956       140  SLPC      H13C           21.2186348148      -22.3741153239      -18.3521750312  MEMB      140             0.0000000000
     15957       140  SLPC      C14            19.1317057893      -21.0302392810      -19.5681252930  MEMB      140             0.0000000000
     15958       140  SLPC      H14A           19.8698509454      -20.3145451764      -19.8987666244  MEMB      140             0.0000000000
     15959       140  SLPC      H14B           19.2547431966      -21.9759369899      -20.0749957278  MEMB      140             0.0000000000
     15960       140  SLPC      H14C           18.1866847108      -20.5216180649      -19.6891202075  MEMB      140             0.0000000000
     15961       140  SLPC      C15            19.1073660547      -20.0278283724      -17.2163409577  MEMB      140             0.0000000000
     15962       140  SLPC      H15A           19.7823014532      -19.2158939458      -17.4435509847  MEMB      140             0.0000000000
     15963       140  SLPC      H15B           18.0829087786      -19.7664564325      -17.4367317421  MEMB      140             0.0000000000
     15964       140  SLPC      H15C           19.1726767988      -20.2645768523      -16.1646352999  MEMB      140             0.0000000000
     15965       140  SLPC      C12            18.8038997351      -22.4967099533      -17.6575339308  MEMB      140             0.0000000000
     15966       140  SLPC      H12A           19.0563432230      -22.6427172566      -16.6176521350  MEMB      140             0.0000000000
     15967       140  SLPC      H12B           19.1711453006      -23.2509281535      -18.3377439740  MEMB      140             0.0000000000
     15968       140  SLPC      C11            17.2822352830      -22.6102310450      -17.8886316793  MEMB      140             0.0000000000
     15969       140  SLPC      H11A           16.9429063859      -23.6433719012      -17.6610423657  MEMB      140             0.0000000000
     15970       140  SLPC      H11B           16.9625561468      -22.4590453700      -18.9418501367  MEMB      140             0.0000000000
     15971       140  SLPC      P              16.0935441599      -21.8823154420      -15.6726714650  MEMB      140             0.0000000000
     15972       140  SLPC      O13            17.1928521993      -21.9582750811      -14.6711665288  MEMB      140             0.0000000000
     15973       140  SLPC      O14            15.0517916805      -20.8517045351      -15.3856479538  MEMB      140             0.0000000000
     15974       140  SLPC      O12            16.5812123673      -21.6601006350      -17.1720623659  MEMB      140             0.0000000000
     15975       140  SLPC      O11            15.3603566922      -23.3031905168      -15.7650158169  MEMB      140             0.0000000000
     15976       140  SLPC      C1             14.1835615334      -23.4885712582      -16.5616852869  MEMB      140             0.0000000000
     15977       140  SLPC      HA             13.4011023935      -22.7034089009      -16.6365098457  MEMB      140             0.0000000000
     15978       140  SLPC      HB             14.4164121289      -23.5571548858      -17.6458429821  MEMB      140             0.0000000000
     15979       140  SLPC      C2             13.3757688330      -24.7232632097      -16.1028371337  MEMB      140             0.0000000000
     15980       140  SLPC      HS             12.3222623628      -24.5844505641      -16.4271460053  MEMB      140             0.0000000000
     15981       140  SLPC      O21            13.4363788947      -25.0132916103      -14.7254456995  MEMB      140             0.0000000000
     15982       140  SLPC      C21            12.7742007338      -24.2426069046      -13.8771356283  MEMB      140             0.0000000000
     15983       140  SLPC      O22            12.0168478044      -23.3139636277      -14.1508343473  MEMB      140             0.0000000000
     15984       140  SLPC      C22            13.0546782562      -24.6722524189      -12.4566179406  MEMB      140             0.0000000000
     15985       140  SLPC      H2R            14.1305706617      -24.8758673284      -12.2686888557  MEMB      140             0.0000000000
     15986       140  SLPC      H2S            12.7258629314      -23.7943455817      -11.8603954272  MEMB      140             0.0000000000
     15987       140  SLPC      C3             13.9655282306      -25.9995418969      -16.8057371469  MEMB      140             0.0000000000
     15988       140  SLPC      HX             13.8476024921      -25.9036030242      -17.9062871757  MEMB      140             0.0000000000
     15989       140  SLPC      HY             13.2585813914      -26.7862567415      -16.4656980607  MEMB      140             0.0000000000
     15990       140  SLPC      O31            15.3698784962      -26.2352706489      -16.3598939957  MEMB      140             0.0000000000
     15991       140  SLPC      C31            15.7029370637      -27.3528986653      -15.7184637017  MEMB      140             0.0000000000
     15992       140  SLPC      O32            14.9711097382      -28.3142338813      -15.5592054628  MEMB      140             0.0000000000
     15993       140  SLPC      C32            17.1262948295      -27.1124487903      -15.2453363961  MEMB      140             0.0000000000
     15994       140  SLPC      H2X            17.1943035512      -26.0115219649      -15.1124603286  MEMB      140             0.0000000000
     15995       140  SLPC      H2Y            17.7527577512      -27.4685289269      -16.0909558006  MEMB      140             0.0000000000
     15996       140  SLPC      C23            12.2671452952      -25.9609142220      -12.0605002071  MEMB      140             0.0000000000
     15997       140  SLPC      H3R            12.4598505300      -26.8648170060      -12.6770597657  MEMB      140             0.0000000000
     15998       140  SLPC      H3S            11.2413778150      -25.7702544633      -12.4423005014  MEMB      140             0.0000000000
     15999       140  SLPC      C24            12.3578800596      -26.1822554086      -10.5859520814  MEMB      140             0.0000000000
     16000       140  SLPC      H4R            11.6226986503      -26.9774778974      -10.3380591435  MEMB      140             0.0000000000
     16001       140  SLPC      H4S            12.0348371394      -25.3403845606       -9.9369391614  MEMB      140             0.0000000000
     16002       140  SLPC      C25            13.7293403799      -26.8178606032      -10.2450172832  MEMB      140             0.0000000000
     16003       140  SLPC      H5R            14.4774293828      -25.9970643518      -10.2762815553  MEMB      140             0.0000000000
     16004       140  SLPC      H5S            13.9527385290      -27.5806046573      -11.0213131710  MEMB      140             0.0000000000
     16005       140  SLPC      C26            13.8252029965      -27.5272138607       -8.9164640276  MEMB      140             0.0000000000
     16006       140  SLPC      H6R            13.1387544602      -28.3959222193       -9.0084163852  MEMB      140             0.0000000000
     16007       140  SLPC      H6S            13.3913853570      -26.8483675975       -8.1514208716  MEMB      140             0.0000000000
     16008       140  SLPC      C27            15.2426580557      -28.0059971582       -8.4702781904  MEMB      140             0.0000000000
     16009       140  SLPC      H7R            15.6393775615      -28.7330150681       -9.2108045387  MEMB      140             0.0000000000
     16010       140  SLPC      H7S            15.1766562115      -28.4594403090       -7.4581744902  MEMB      140             0.0000000000
     16011       140  SLPC      C28            16.4050584622      -26.9540480699       -8.3378427643  MEMB      140             0.0000000000
     16012       140  SLPC      H8R            16.7069074188      -26.5786068369       -9.3389685897  MEMB      140             0.0000000000
     16013       140  SLPC      H8S            17.2099097692      -27.5320877637       -7.8354432130  MEMB      140             0.0000000000
     16014       140  SLPC      C29            16.0017933033      -25.8363355753       -7.4341715245  MEMB      140             0.0000000000
     16015       140  SLPC      H9R            15.2329155172      -25.1830929065       -7.8724654229  MEMB      140             0.0000000000
     16016       140  SLPC      C210           16.1052506529      -25.6906718486       -6.1250370001  MEMB      140             0.0000000000
     16017       140  SLPC      H10R           15.6708951954      -24.8073701862       -5.6340041302  MEMB      140             0.0000000000
     16018       140  SLPC      C211           16.6415818454      -26.7474461869       -5.1533566681  MEMB      140             0.0000000000
     16019       140  SLPC      H11R           17.0685045557      -27.6405271944       -5.6578012417  MEMB      140             0.0000000000
     16020       140  SLPC      H11S           15.7804809771      -27.1874937591       -4.6063785300  MEMB      140             0.0000000000
     16021       140  SLPC      C212           17.5879249595      -26.0677606703       -4.1656879123  MEMB      140             0.0000000000
     16022       140  SLPC      H12R           18.3248401062      -25.4188402473       -4.6615295817  MEMB      140             0.0000000000
     16023       140  SLPC      C213           17.6196008665      -26.2334364658       -2.8299807016  MEMB      140             0.0000000000
     16024       140  SLPC      H13R           18.3711594750      -25.7690509076       -2.1746138048  MEMB      140             0.0000000000
     16025       140  SLPC      C214           16.7354579611      -27.1986360832       -2.0587134693  MEMB      140             0.0000000000
     16026       140  SLPC      H14R           17.3587808805      -27.7770522544       -1.3437136258  MEMB      140             0.0000000000
     16027       140  SLPC      H14S           16.2558643490      -27.9759990963       -2.6911830368  MEMB      140             0.0000000000
     16028       140  SLPC      C215           15.6743472841      -26.5420676673       -1.1366435607  MEMB      140             0.0000000000
     16029       140  SLPC      H15R           15.0534232724      -25.8425259699       -1.7361566002  MEMB      140             0.0000000000
     16030       140  SLPC      H15S           16.3071072639      -25.9091540731       -0.4783453611  MEMB      140             0.0000000000
     16031       140  SLPC      C216           14.7423178307      -27.3068064637       -0.1554665167  MEMB      140             0.0000000000
     16032       140  SLPC      H16R           15.3397836046      -27.4099519480        0.7755093476  MEMB      140             0.0000000000
     16033       140  SLPC      H16S           14.6029502554      -28.3372124479       -0.5468246058  MEMB      140             0.0000000000
     16034       140  SLPC      C217           13.3261043168      -26.7567290904        0.0472043030  MEMB      140             0.0000000000
     16035       140  SLPC      H17R           12.6086215205      -27.4611573213        0.5197707986  MEMB      140             0.0000000000
     16036       140  SLPC      H17S           12.9004834759      -26.5574674735       -0.9595059747  MEMB      140             0.0000000000
     16037       140  SLPC      C218           13.4208588748      -25.4676496389        0.7774716716  MEMB      140             0.0000000000
     16038       140  SLPC      H18R           12.4106118128      -25.0122694442        0.8571622266  MEMB      140             0.0000000000
     16039       140  SLPC      H18S           14.0677605983      -24.7500259884        0.2289700478  MEMB      140             0.0000000000
     16040       140  SLPC      H18T           13.7504708875      -25.6316570189        1.8256986163  MEMB      140             0.0000000000
     16041       140  SLPC      C33            17.4835719102      -27.9943345803      -14.0219258396  MEMB      140             0.0000000000
     16042       140  SLPC      H3X            17.3612863840      -29.0183442521      -14.4351700859  MEMB      140             0.0000000000
     16043       140  SLPC      H3Y            16.6604657036      -27.7401601796      -13.3203471957  MEMB      140             0.0000000000
     16044       140  SLPC      C34            18.9128636341      -27.8132808632      -13.5290941261  MEMB      140             0.0000000000
     16045       140  SLPC      H4X            19.4981833658      -27.8887350819      -14.4703850234  MEMB      140             0.0000000000
     16046       140  SLPC      H4Y            19.2382612522      -28.5788767984      -12.7926840530  MEMB      140             0.0000000000
     16047       140  SLPC      C35            19.1803360239      -26.3851646196      -13.0521554066  MEMB      140             0.0000000000
     16048       140  SLPC      H5X            19.1484473910      -25.6740927793      -13.9051980019  MEMB      140             0.0000000000
     16049       140  SLPC      H5Y            20.2617168731      -26.3189207777      -12.8060898840  MEMB      140             0.0000000000
     16050       140  SLPC      C36            18.4425543054      -25.9039958932      -11.7893516514  MEMB      140             0.0000000000
     16051       140  SLPC      H6X            19.1503697259      -26.2372899498      -11.0005339668  MEMB      140             0.0000000000
     16052       140  SLPC      H6Y            17.4795961589      -26.3936159015      -11.5299198140  MEMB      140             0.0000000000
     16053       140  SLPC      C37            18.1053746069      -24.3815635848      -11.8922328529  MEMB      140             0.0000000000
     16054       140  SLPC      H7X            17.4416675705      -24.4552384265      -12.7801435670  MEMB      140             0.0000000000
     16055       140  SLPC      H7Y            19.0053592634      -23.7321343504      -11.9431271901  MEMB      140             0.0000000000
     16056       140  SLPC      C38            17.3842293321      -23.6985626032      -10.7430555192  MEMB      140             0.0000000000
     16057       140  SLPC      H8X            18.0488151146      -23.7761433265       -9.8561350877  MEMB      140             0.0000000000
     16058       140  SLPC      H8Y            16.3917692135      -24.1341512524      -10.4989118079  MEMB      140             0.0000000000
     16059       140  SLPC      C39            17.1126464309      -22.2340993728      -10.9831224930  MEMB      140             0.0000000000
     16060       140  SLPC      H9X            16.6159446735      -22.0678577394      -11.9629044295  MEMB      140             0.0000000000
     16061       140  SLPC      H9Y            18.0827188812      -21.6925756469      -10.9888431299  MEMB      140             0.0000000000
     16062       140  SLPC      C310           16.1540502009      -21.6060687136       -9.8887582036  MEMB      140             0.0000000000
     16063       140  SLPC      H10X           15.8835920405      -20.5729710737      -10.1951618016  MEMB      140             0.0000000000
     16064       140  SLPC      H10Y           16.7277726772      -21.5768618308       -8.9378059369  MEMB      140             0.0000000000
     16065       140  SLPC      C311           14.7033116583      -22.1699378508       -9.8297587294  MEMB      140             0.0000000000
     16066       140  SLPC      H11X           14.7940236578      -23.2432589171       -9.5575930767  MEMB      140             0.0000000000
     16067       140  SLPC      H11Y           14.2826983794      -22.1891002343      -10.8578824552  MEMB      140             0.0000000000
     16068       140  SLPC      C312           13.7989112809      -21.2811217893       -9.0844523516  MEMB      140             0.0000000000
     16069       140  SLPC      H12X           13.6008161523      -20.2955346546       -9.5574197708  MEMB      140             0.0000000000
     16070       140  SLPC      H12Y           14.2249140227      -20.9983144728       -8.0981146425  MEMB      140             0.0000000000
     16071       140  SLPC      C313           12.4125338726      -21.9161958915       -8.7620285815  MEMB      140             0.0000000000
     16072       140  SLPC      H13X           11.9370297025      -22.1125276495       -9.7467470547  MEMB      140             0.0000000000
     16073       140  SLPC      H13Y           11.7636294270      -21.1931809124       -8.2230543852  MEMB      140             0.0000000000
     16074       140  SLPC      C314           12.3584792359      -23.1393686085       -7.8797694838  MEMB      140             0.0000000000
     16075       140  SLPC      H14X           12.8741720407      -23.9526013785       -8.4338765211  MEMB      140             0.0000000000
     16076       140  SLPC      H14Y           11.3480140891      -23.5718150373       -7.7176844682  MEMB      140             0.0000000000
     16077       140  SLPC      C315           13.0465088903      -22.9857351782       -6.4837140164  MEMB      140             0.0000000000
     16078       140  SLPC      H15X           12.5818162231      -22.1698309020       -5.8898434586  MEMB      140             0.0000000000
     16079       140  SLPC      H15Y           14.1122120248      -22.7371237337       -6.6755202735  MEMB      140             0.0000000000
     16080       140  SLPC      C316           12.7505875960      -24.2903863662       -5.7060871444  MEMB      140             0.0000000000
     16081       140  SLPC      H16X           13.1960520151      -25.1861232699       -6.1893448658  MEMB      140             0.0000000000
     16082       140  SLPC      H16Y           11.6781924379      -24.5442951883       -5.8468703024  MEMB      140             0.0000000000
     16083       140  SLPC      C317           13.1272162169      -24.3383640286       -4.2312253966  MEMB      140             0.0000000000
     16084       140  SLPC      H17X           14.1447683932      -23.9020914719       -4.1386244388  MEMB      140             0.0000000000
     16085       140  SLPC      H17Y           13.1010630168      -25.3762095505       -3.8356070041  MEMB      140             0.0000000000
     16086       140  SLPC      C318           12.1780839682      -23.4989637193       -3.4208253352  MEMB      140             0.0000000000
     16087       140  SLPC      H18X           12.1706316871      -22.4407892607       -3.7592518420  MEMB      140             0.0000000000
     16088       140  SLPC      H18Y           12.4419717728      -23.3937901445       -2.3467566682  MEMB      140             0.0000000000
     16089       140  SLPC      H18Z           11.1014994438      -23.7634758193       -3.4937620548  MEMB      140             0.0000000000
     16090       141  SLPC      N             -29.8245058430       -0.5631050590      -17.8238805197  MEMB      141             0.0000000000
     16091       141  SLPC      C13           -31.1421443503       -1.3421885965      -17.5723299630  MEMB      141             0.0000000000
     16092       141  SLPC      H13A          -31.9427616001       -0.7866637145      -17.1067074067  MEMB      141             0.0000000000
     16093       141  SLPC      H13B          -31.4390280513       -1.7981183740      -18.5052759538  MEMB      141             0.0000000000
     16094       141  SLPC      H13C          -30.8152764772       -2.1859139754      -16.9826818978  MEMB      141             0.0000000000
     16095       141  SLPC      C14           -29.4919872169        0.0474200153      -16.4544039588  MEMB      141             0.0000000000
     16096       141  SLPC      H14A          -28.4750507601        0.4072893821      -16.5066940679  MEMB      141             0.0000000000
     16097       141  SLPC      H14B          -30.1855600772        0.8431026537      -16.2258304573  MEMB      141             0.0000000000
     16098       141  SLPC      H14C          -29.4133042456       -0.7789332008      -15.7634991451  MEMB      141             0.0000000000
     16099       141  SLPC      C15           -30.1986604451        0.4855507941      -18.8195764749  MEMB      141             0.0000000000
     16100       141  SLPC      H15A          -29.2811205492        0.9244816216      -19.1827023184  MEMB      141             0.0000000000
     16101       141  SLPC      H15B          -30.5721778422       -0.0366138328      -19.6880398565  MEMB      141             0.0000000000
     16102       141  SLPC      H15C          -30.8607979556        1.2073427122      -18.3646147068  MEMB      141             0.0000000000
     16103       141  SLPC      C12           -28.7200523453       -1.5124346012      -18.3597869348  MEMB      141             0.0000000000
     16104       141  SLPC      H12A          -27.8850081676       -0.8799627121      -18.6226185864  MEMB      141             0.0000000000
     16105       141  SLPC      H12B          -29.0416939027       -1.8966328107      -19.3165200922  MEMB      141             0.0000000000
     16106       141  SLPC      C11           -28.2136365693       -2.6518534816      -17.3838401115  MEMB      141             0.0000000000
     16107       141  SLPC      H11A          -27.5515689880       -3.3310442466      -17.9623618914  MEMB      141             0.0000000000
     16108       141  SLPC      H11B          -29.0345359903       -3.3367005281      -17.0814671555  MEMB      141             0.0000000000
     16109       141  SLPC      P             -26.0286549748       -1.9472651312      -16.1721309605  MEMB      141             0.0000000000
     16110       141  SLPC      O13           -25.5092581127       -1.6736927165      -17.5132787423  MEMB      141             0.0000000000
     16111       141  SLPC      O14           -25.7442236738       -0.9726462889      -15.1081059280  MEMB      141             0.0000000000
     16112       141  SLPC      O12           -27.5486246053       -2.1747158277      -16.2411357936  MEMB      141             0.0000000000
     16113       141  SLPC      O11           -25.4870574189       -3.3174046571      -15.5515306105  MEMB      141             0.0000000000
     16114       141  SLPC      C1            -26.2434724175       -4.4711646810      -15.3590039367  MEMB      141             0.0000000000
     16115       141  SLPC      HA            -27.1664383655       -4.4803138657      -15.9773656747  MEMB      141             0.0000000000
     16116       141  SLPC      HB            -25.5458331980       -5.2605219031      -15.7119003667  MEMB      141             0.0000000000
     16117       141  SLPC      C2            -26.6342822075       -4.5401577854      -13.8780675363  MEMB      141             0.0000000000
     16118       141  SLPC      HS            -27.2205099241       -5.4603527660      -13.6685460243  MEMB      141             0.0000000000
     16119       141  SLPC      O21           -27.3717248156       -3.3579214986      -13.5747761062  MEMB      141             0.0000000000
     16120       141  SLPC      C21           -28.0490082455       -3.3265826847      -12.3850493147  MEMB      141             0.0000000000
     16121       141  SLPC      O22           -27.9428647590       -4.1803230822      -11.5659445019  MEMB      141             0.0000000000
     16122       141  SLPC      C22           -28.8164449341       -2.0385105251      -12.3140829612  MEMB      141             0.0000000000
     16123       141  SLPC      H2R           -28.0873461527       -1.2236452112      -12.5108833307  MEMB      141             0.0000000000
     16124       141  SLPC      H2S           -29.5820440240       -2.0155392452      -13.1188506729  MEMB      141             0.0000000000
     16125       141  SLPC      C3            -25.4794833939       -4.5749291397      -12.8372695417  MEMB      141             0.0000000000
     16126       141  SLPC      HX            -24.7608634395       -5.3336067450      -13.2145163504  MEMB      141             0.0000000000
     16127       141  SLPC      HY            -25.9064918162       -4.8889391291      -11.8608564895  MEMB      141             0.0000000000
     16128       141  SLPC      O31           -24.8061998283       -3.2999490338      -12.7955249593  MEMB      141             0.0000000000
     16129       141  SLPC      C31           -24.6399822745       -2.7956880757      -11.5690370138  MEMB      141             0.0000000000
     16130       141  SLPC      O32           -24.8503189027       -3.4056214693      -10.5091783189  MEMB      141             0.0000000000
     16131       141  SLPC      C32           -24.2927760048       -1.2836154069      -11.7010940839  MEMB      141             0.0000000000
     16132       141  SLPC      H2X           -25.0889233496       -0.5906934158      -12.0479798124  MEMB      141             0.0000000000
     16133       141  SLPC      H2Y           -23.4802742297       -1.2245157651      -12.4565207503  MEMB      141             0.0000000000
     16134       141  SLPC      C23           -29.5127215763       -1.8290171494      -10.9413719046  MEMB      141             0.0000000000
     16135       141  SLPC      H3R           -30.2657289674       -2.5993317313      -10.6694967359  MEMB      141             0.0000000000
     16136       141  SLPC      H3S           -30.1558177281       -0.9306876594      -11.0586429754  MEMB      141             0.0000000000
     16137       141  SLPC      C24           -28.5980462813       -1.4668409949       -9.7871323157  MEMB      141             0.0000000000
     16138       141  SLPC      H4R           -28.0250951227       -0.5683907637      -10.1015129635  MEMB      141             0.0000000000
     16139       141  SLPC      H4S           -27.7752609641       -2.1834644006       -9.5778566663  MEMB      141             0.0000000000
     16140       141  SLPC      C25           -29.3815771073       -1.0041266898       -8.5945717243  MEMB      141             0.0000000000
     16141       141  SLPC      H5R           -30.0584832400       -1.7983158104       -8.2132801844  MEMB      141             0.0000000000
     16142       141  SLPC      H5S           -29.9714048564       -0.1840934286       -9.0571399357  MEMB      141             0.0000000000
     16143       141  SLPC      C26           -28.5258157091       -0.5925737472       -7.4093401513  MEMB      141             0.0000000000
     16144       141  SLPC      H6R           -27.7234927574        0.0997237783       -7.7429902237  MEMB      141             0.0000000000
     16145       141  SLPC      H6S           -27.8409106234       -1.4317420494       -7.1623125795  MEMB      141             0.0000000000
     16146       141  SLPC      C27           -29.2923631411       -0.1543333547       -6.1841988996  MEMB      141             0.0000000000
     16147       141  SLPC      H7R           -29.9774425206       -0.9560885350       -5.8346622254  MEMB      141             0.0000000000
     16148       141  SLPC      H7S           -30.1049829026        0.5601306679       -6.4362134902  MEMB      141             0.0000000000
     16149       141  SLPC      C28           -28.4624891111        0.1843912008       -4.9539128229  MEMB      141             0.0000000000
     16150       141  SLPC      H8R           -28.0315061312       -0.8102833799       -4.7106083706  MEMB      141             0.0000000000
     16151       141  SLPC      H8S           -29.0290856194        0.3551061900       -4.0136221267  MEMB      141             0.0000000000
     16152       141  SLPC      C29           -27.4698701114        1.2805534466       -5.2030401421  MEMB      141             0.0000000000
     16153       141  SLPC      H9R           -26.5502818529        0.9520290286       -5.7094286234  MEMB      141             0.0000000000
     16154       141  SLPC      C210          -27.6911570535        2.5791877458       -4.9393582355  MEMB      141             0.0000000000
     16155       141  SLPC      H10R          -27.0064917993        3.3571632838       -5.3081227364  MEMB      141             0.0000000000
     16156       141  SLPC      C211          -28.9350242826        3.1027674608       -4.3323539688  MEMB      141             0.0000000000
     16157       141  SLPC      H11R          -29.8312339083        2.4467831971       -4.3608827877  MEMB      141             0.0000000000
     16158       141  SLPC      H11S          -29.2149030615        3.8315301125       -5.1228558144  MEMB      141             0.0000000000
     16159       141  SLPC      C212          -28.7698361829        3.9516059250       -3.1043708968  MEMB      141             0.0000000000
     16160       141  SLPC      H12R          -28.8313019922        5.0472242762       -3.1808045077  MEMB      141             0.0000000000
     16161       141  SLPC      C213          -28.5463293918        3.4803454280       -1.8158152868  MEMB      141             0.0000000000
     16162       141  SLPC      H13R          -28.4454658141        4.1804043437       -0.9733529230  MEMB      141             0.0000000000
     16163       141  SLPC      C214          -28.3626241200        2.0208525175       -1.3445903991  MEMB      141             0.0000000000
     16164       141  SLPC      H14R          -27.5348225701        1.9848017588       -0.6044775084  MEMB      141             0.0000000000
     16165       141  SLPC      H14S          -28.1181708362        1.2922834512       -2.1469310405  MEMB      141             0.0000000000
     16166       141  SLPC      C215          -29.6064688169        1.4678836572       -0.6280929418  MEMB      141             0.0000000000
     16167       141  SLPC      H15R          -29.8108540406        1.8925979605        0.3779709951  MEMB      141             0.0000000000
     16168       141  SLPC      H15S          -29.3190967485        0.4554698555       -0.2720649344  MEMB      141             0.0000000000
     16169       141  SLPC      C216          -30.8337356401        1.2828781185       -1.5671961940  MEMB      141             0.0000000000
     16170       141  SLPC      H16R          -30.6390257478        1.8397642375       -2.5086242361  MEMB      141             0.0000000000
     16171       141  SLPC      H16S          -31.7446340244        1.7214892369       -1.1065396843  MEMB      141             0.0000000000
     16172       141  SLPC      C217          -31.0138795770       -0.1730115004       -2.0136330322  MEMB      141             0.0000000000
     16173       141  SLPC      H17R          -31.4549301176       -0.8577045352       -1.2579934269  MEMB      141             0.0000000000
     16174       141  SLPC      H17S          -29.9727279724       -0.4611818332       -2.2730202765  MEMB      141             0.0000000000
     16175       141  SLPC      C218          -31.9273129126       -0.4850857172       -3.1954692897  MEMB      141             0.0000000000
     16176       141  SLPC      H18R          -31.6498280870        0.0701364233       -4.1169084375  MEMB      141             0.0000000000
     16177       141  SLPC      H18S          -32.9412630050       -0.1346259103       -2.9066714723  MEMB      141             0.0000000000
     16178       141  SLPC      H18T          -31.8994482134       -1.5666678584       -3.4479066799  MEMB      141             0.0000000000
     16179       141  SLPC      C33           -23.7162045716       -0.7277964546      -10.3342019359  MEMB      141             0.0000000000
     16180       141  SLPC      H3X           -22.9172717103        0.0041008968      -10.5798712803  MEMB      141             0.0000000000
     16181       141  SLPC      H3Y           -23.2703573107       -1.5935681786       -9.7994305012  MEMB      141             0.0000000000
     16182       141  SLPC      C34           -24.7959870695        0.1381294708       -9.5108915761  MEMB      141             0.0000000000
     16183       141  SLPC      H4X           -25.7723207235       -0.3914527030       -9.5361241196  MEMB      141             0.0000000000
     16184       141  SLPC      H4Y           -24.8606343831        1.0585058362      -10.1298013086  MEMB      141             0.0000000000
     16185       141  SLPC      C35           -24.4522324931        0.6671157358       -8.0789346947  MEMB      141             0.0000000000
     16186       141  SLPC      H5X           -25.3649888937        1.1404602791       -7.6580518096  MEMB      141             0.0000000000
     16187       141  SLPC      H5Y           -23.7445824642        1.5230381223       -8.1097559857  MEMB      141             0.0000000000
     16188       141  SLPC      C36           -23.7811111063       -0.4020502391       -7.1745268782  MEMB      141             0.0000000000
     16189       141  SLPC      H6X           -23.5582069707       -0.1806445670       -6.1088750476  MEMB      141             0.0000000000
     16190       141  SLPC      H6Y           -22.7859134289       -0.6064097051       -7.6241262141  MEMB      141             0.0000000000
     16191       141  SLPC      C37           -24.5612451130       -1.7083432078       -7.1489183485  MEMB      141             0.0000000000
     16192       141  SLPC      H7X           -24.6832146603       -1.9369319373       -8.2292850405  MEMB      141             0.0000000000
     16193       141  SLPC      H7Y           -25.5460847674       -1.7006721157       -6.6347662902  MEMB      141             0.0000000000
     16194       141  SLPC      C38           -23.5906620949       -2.7245874582       -6.5823033841  MEMB      141             0.0000000000
     16195       141  SLPC      H8X           -23.8882019430       -2.7745256466       -5.5130525405  MEMB      141             0.0000000000
     16196       141  SLPC      H8Y           -22.5108754005       -2.6434887442       -6.8309090563  MEMB      141             0.0000000000
     16197       141  SLPC      C39           -23.9773594988       -4.0509874324       -7.2451642520  MEMB      141             0.0000000000
     16198       141  SLPC      H9X           -23.3567432328       -4.8632805400       -6.8100363145  MEMB      141             0.0000000000
     16199       141  SLPC      H9Y           -23.5333888934       -4.0172141894       -8.2630398415  MEMB      141             0.0000000000
     16200       141  SLPC      C310          -25.5065920642       -4.4744464841       -7.2620676951  MEMB      141             0.0000000000
     16201       141  SLPC      H10X          -25.7252640232       -5.3411336844       -7.9218835317  MEMB      141             0.0000000000
     16202       141  SLPC      H10Y          -26.0836114987       -3.6817083403       -7.7845002054  MEMB      141             0.0000000000
     16203       141  SLPC      C311          -26.0713049060       -4.8823297680       -5.9198469406  MEMB      141             0.0000000000
     16204       141  SLPC      H11X          -25.3538589252       -5.5087863158       -5.3478815306  MEMB      141             0.0000000000
     16205       141  SLPC      H11Y          -26.9936532578       -5.4867916982       -6.0548297140  MEMB      141             0.0000000000
     16206       141  SLPC      C312          -26.7151443049       -3.8199883386       -4.9903418651  MEMB      141             0.0000000000
     16207       141  SLPC      H12X          -27.5865281646       -3.3430373697       -5.4878644835  MEMB      141             0.0000000000
     16208       141  SLPC      H12Y          -25.9536735964       -3.0151584268       -4.9082920181  MEMB      141             0.0000000000
     16209       141  SLPC      C313          -26.9564506910       -4.4193643670       -3.5350742099  MEMB      141             0.0000000000
     16210       141  SLPC      H13X          -26.1122336361       -5.0401617079       -3.1659810823  MEMB      141             0.0000000000
     16211       141  SLPC      H13Y          -27.8113172602       -5.1289488750       -3.5388274187  MEMB      141             0.0000000000
     16212       141  SLPC      C314          -27.3234751171       -3.4097027458       -2.4607539443  MEMB      141             0.0000000000
     16213       141  SLPC      H14X          -28.4178279001       -3.2221927765       -2.5001638794  MEMB      141             0.0000000000
     16214       141  SLPC      H14Y          -26.7034997427       -2.5020743031       -2.6225005918  MEMB      141             0.0000000000
     16215       141  SLPC      C315          -26.9836092986       -3.8301245664       -1.0486044060  MEMB      141             0.0000000000
     16216       141  SLPC      H15X          -25.8896366112       -3.8620412909       -0.8574870423  MEMB      141             0.0000000000
     16217       141  SLPC      H15Y          -27.2889040048       -4.8347799198       -0.6855849575  MEMB      141             0.0000000000
     16218       141  SLPC      C316          -27.5716160770       -2.7638677010       -0.0616681522  MEMB      141             0.0000000000
     16219       141  SLPC      H16X          -27.3643865317       -1.7037105677       -0.3213668709  MEMB      141             0.0000000000
     16220       141  SLPC      H16Y          -27.1055296751       -2.8552965689        0.9426854835  MEMB      141             0.0000000000
     16221       141  SLPC      C317          -29.1408876084       -2.8807557886        0.1890342134  MEMB      141             0.0000000000
     16222       141  SLPC      H17X          -29.3661921892       -3.9377996915        0.4463603340  MEMB      141             0.0000000000
     16223       141  SLPC      H17Y          -29.6611425287       -2.6367686031       -0.7618212136  MEMB      141             0.0000000000
     16224       141  SLPC      C318          -29.7573866629       -1.9985158253        1.2470820257  MEMB      141             0.0000000000
     16225       141  SLPC      H18X          -30.8571348690       -1.8578249426        1.1758007057  MEMB      141             0.0000000000
     16226       141  SLPC      H18Y          -29.3335921130       -0.9990590057        1.4833126860  MEMB      141             0.0000000000
     16227       141  SLPC      H18Z          -29.6492511318       -2.5993656801        2.1753092997  MEMB      141             0.0000000000
     16228       142  OSM       N              30.8593154356       -0.4970807412      -21.9359163055  MEMB      142             0.0000000000
     16229       142  OSM       C15            31.3790187329       -1.4168809667      -20.8787357113  MEMB      142             0.0000000000
     16230       142  OSM       H15A           31.9183526262       -0.8200823882      -20.1580760642  MEMB      142             0.0000000000
     16231       142  OSM       H15B           32.0069466120       -2.1386635636      -21.3798710527  MEMB      142             0.0000000000
     16232       142  OSM       H15C           30.5377204065       -1.9432315498      -20.4526228305  MEMB      142             0.0000000000
     16233       142  OSM       C14            31.8962255865        0.5135159914      -22.4818392509  MEMB      142             0.0000000000
     16234       142  OSM       H14A           31.5790091970        1.1315006756      -23.3088027147  MEMB      142             0.0000000000
     16235       142  OSM       H14B           32.6512059216       -0.0455620169      -23.0146022384  MEMB      142             0.0000000000
     16236       142  OSM       H14C           32.3127692312        1.1402896987      -21.7072126701  MEMB      142             0.0000000000
     16237       142  OSM       C13            30.3155083384       -1.3117669796      -23.0763155531  MEMB      142             0.0000000000
     16238       142  OSM       H13A           29.9704300454       -0.6349491783      -23.8439342064  MEMB      142             0.0000000000
     16239       142  OSM       H13B           29.4472004816       -1.8939109941      -22.8051146456  MEMB      142             0.0000000000
     16240       142  OSM       H13C           31.0699469774       -1.9004514840      -23.5769878487  MEMB      142             0.0000000000
     16241       142  OSM       C12            29.7384602222        0.2353418070      -21.1542364176  MEMB      142             0.0000000000
     16242       142  OSM       H12A           29.1959827811        0.8004044799      -21.8977566784  MEMB      142             0.0000000000
     16243       142  OSM       H12B           30.3580250247        0.8573933148      -20.5252758643  MEMB      142             0.0000000000
     16244       142  OSM       C11            28.6941613082       -0.4428120606      -20.3242524494  MEMB      142             0.0000000000
     16245       142  OSM       H11A           27.8729576305        0.2264508014      -19.9895397559  MEMB      142             0.0000000000
     16246       142  OSM       H11B           29.1670559899       -0.8955943594      -19.4266557309  MEMB      142             0.0000000000
     16247       142  OSM       P              27.6256007349       -2.8272343584      -20.2545075629  MEMB      142             0.0000000000
     16248       142  OSM       O13            26.2996069090       -3.2229775341      -20.7852484763  MEMB      142             0.0000000000
     16249       142  OSM       O14            28.7918654175       -3.7553631741      -20.3844363445  MEMB      142             0.0000000000
     16250       142  OSM       O11            27.4981714685       -2.4021151856      -18.7259102202  MEMB      142             0.0000000000
     16251       142  OSM       O12            27.9833285811       -1.4480644479      -20.9986017126  MEMB      142             0.0000000000
     16252       142  OSM       C1S            26.7441609684       -3.1442154435      -17.7530561020  MEMB      142             0.0000000000
     16253       142  OSM       H1S            27.2451742523       -4.1088647680      -17.5233636758  MEMB      142             0.0000000000
     16254       142  OSM       H1T            25.7281609954       -3.4310467038      -18.0991670182  MEMB      142             0.0000000000
     16255       142  OSM       NF             26.1082405428       -3.4468922792      -15.3822022947  MEMB      142             0.0000000000
     16256       142  OSM       HNF            25.2324302282       -3.2448296028      -14.9507668785  MEMB      142             0.0000000000
     16257       142  OSM       C2S            26.6919583092       -2.4601390140      -16.3314890588  MEMB      142             0.0000000000
     16258       142  OSM       H2S            27.7482787565       -2.3701475738      -15.9992089597  MEMB      142             0.0000000000
     16259       142  OSM       C3S            25.9283295223       -1.0973266982      -16.2806357754  MEMB      142             0.0000000000
     16260       142  OSM       H3S            24.8412831580       -1.1802991427      -16.4945681768  MEMB      142             0.0000000000
     16261       142  OSM       O3             26.4211807602       -0.2098643340      -17.2135728145  MEMB      142             0.0000000000
     16262       142  OSM       HO3            27.1695889140       -0.6020208692      -17.6693122762  MEMB      142             0.0000000000
     16263       142  OSM       C4S            26.0572264673       -0.5386887414      -14.9154778877  MEMB      142             0.0000000000
     16264       142  OSM       H4S            27.0930099852       -0.5433746446      -14.5451663419  MEMB      142             0.0000000000
     16265       142  OSM       C5S            25.0829895398       -0.1113358018      -14.1365035447  MEMB      142             0.0000000000
     16266       142  OSM       H5S            24.0230566553       -0.0870253886      -14.4296774661  MEMB      142             0.0000000000
     16267       142  OSM       C6S            25.3358818094        0.4271494751      -12.7695284446  MEMB      142             0.0000000000
     16268       142  OSM       H6S            25.2286014585       -0.3885797938      -12.0229375018  MEMB      142             0.0000000000
     16269       142  OSM       H6T            24.5022376156        1.0957967154      -12.4657710818  MEMB      142             0.0000000000
     16270       142  OSM       C7S            26.5494846236        1.3310817506      -12.3868570553  MEMB      142             0.0000000000
     16271       142  OSM       H7S            26.2495799829        2.3993316696      -12.4436079688  MEMB      142             0.0000000000
     16272       142  OSM       H7T            27.3547516084        1.1919549947      -13.1395259466  MEMB      142             0.0000000000
     16273       142  OSM       C8S            27.0937007330        1.0552377816      -11.0333807071  MEMB      142             0.0000000000
     16274       142  OSM       H8S            26.3450776631        1.2958594588      -10.2485327505  MEMB      142             0.0000000000
     16275       142  OSM       H8T            27.9941154010        1.6642473922      -10.8038546668  MEMB      142             0.0000000000
     16276       142  OSM       C9S            27.6191136220       -0.4046013260      -10.7254687574  MEMB      142             0.0000000000
     16277       142  OSM       H9S            28.3711061847       -0.6963155268      -11.4894923763  MEMB      142             0.0000000000
     16278       142  OSM       H9T            26.7818371768       -1.1342349257      -10.7558647181  MEMB      142             0.0000000000
     16279       142  OSM       C10S           28.3090549993       -0.5245568316       -9.3327945882  MEMB      142             0.0000000000
     16280       142  OSM       H10S           28.6787616805        0.4991149041       -9.1097835954  MEMB      142             0.0000000000
     16281       142  OSM       H10T           29.2428046535       -1.1075013502       -9.4831553357  MEMB      142             0.0000000000
     16282       142  OSM       C11S           27.5177288153       -1.0597545693       -8.1656582352  MEMB      142             0.0000000000
     16283       142  OSM       H11S           26.9056159347       -1.9174396616       -8.5178162480  MEMB      142             0.0000000000
     16284       142  OSM       H11T           26.7537315771       -0.3673506327       -7.7518878410  MEMB      142             0.0000000000
     16285       142  OSM       C12S           28.4413037147       -1.3692802029       -6.9401158277  MEMB      142             0.0000000000
     16286       142  OSM       H12S           28.9327695328       -0.4008775893       -6.7056408746  MEMB      142             0.0000000000
     16287       142  OSM       H12T           29.1979068381       -2.1315305887       -7.2244521799  MEMB      142             0.0000000000
     16288       142  OSM       C13S           27.6786037142       -1.9559043824       -5.7342586434  MEMB      142             0.0000000000
     16289       142  OSM       H13S           28.4619502583       -2.5356276420       -5.2007703196  MEMB      142             0.0000000000
     16290       142  OSM       H13T           26.8808364560       -2.6655945976       -6.0412249281  MEMB      142             0.0000000000
     16291       142  OSM       C14S           27.1542963964       -0.9820767622       -4.7498975281  MEMB      142             0.0000000000
     16292       142  OSM       H14S           26.4787399558       -0.2335269042       -5.2163916923  MEMB      142             0.0000000000
     16293       142  OSM       H14T           28.0115181601       -0.4755562650       -4.2570181443  MEMB      142             0.0000000000
     16294       142  OSM       C15S           26.2975048306       -1.6402093466       -3.6427267937  MEMB      142             0.0000000000
     16295       142  OSM       H15S           25.2773622552       -1.8499270181       -4.0295733749  MEMB      142             0.0000000000
     16296       142  OSM       H15T           26.1271408256       -0.8982543435       -2.8335296915  MEMB      142             0.0000000000
     16297       142  OSM       C16S           26.9159141347       -2.8694737156       -3.0240279833  MEMB      142             0.0000000000
     16298       142  OSM       H16S           27.9422222748       -2.6621801871       -2.6524864335  MEMB      142             0.0000000000
     16299       142  OSM       H16T           26.9562367711       -3.7505989845       -3.6995372547  MEMB      142             0.0000000000
     16300       142  OSM       C17S           26.1267800961       -3.2367414527       -1.7526881708  MEMB      142             0.0000000000
     16301       142  OSM       H17S           25.0796156705       -2.8658472006       -1.7670363773  MEMB      142             0.0000000000
     16302       142  OSM       H17T           26.5606943691       -2.6838594338       -0.8922463905  MEMB      142             0.0000000000
     16303       142  OSM       C18S           26.2718128557       -4.7238388012       -1.5191822930  MEMB      142             0.0000000000
     16304       142  OSM       H18S           25.8931517888       -5.3516124900       -2.3539496743  MEMB      142             0.0000000000
     16305       142  OSM       H18T           25.6269274896       -5.0647256885       -0.6811839874  MEMB      142             0.0000000000
     16306       142  OSM       H18U           27.3402778946       -4.9714803707       -1.3420440049  MEMB      142             0.0000000000
     16307       142  OSM       C1F            26.6929528839       -4.6563194550      -15.1852457194  MEMB      142             0.0000000000
     16308       142  OSM       OF             27.8425900578       -4.9942145458      -15.5265085688  MEMB      142             0.0000000000
     16309       142  OSM       C2F            25.8690948787       -5.6372204768      -14.4742997605  MEMB      142             0.0000000000
     16310       142  OSM       H2F            25.6123616085       -6.4327489862      -15.2061077441  MEMB      142             0.0000000000
     16311       142  OSM       H2G            24.9392952070       -5.0930010865      -14.2029722226  MEMB      142             0.0000000000
     16312       142  OSM       C3F            26.6257036996       -6.2805090378      -13.2434958783  MEMB      142             0.0000000000
     16313       142  OSM       H3F            27.6690856346       -6.5415137368      -13.5219767073  MEMB      142             0.0000000000
     16314       142  OSM       H3G            26.1311897699       -7.2750356311      -13.2171580471  MEMB      142             0.0000000000
     16315       142  OSM       C4F            26.8424595593       -5.4982362159      -11.9508291938  MEMB      142             0.0000000000
     16316       142  OSM       H4F            25.8847891463       -5.2094676367      -11.4672992269  MEMB      142             0.0000000000
     16317       142  OSM       H4G            27.3932079929       -4.6015400419      -12.3071059212  MEMB      142             0.0000000000
     16318       142  OSM       C5F            27.7426556891       -6.1688287397      -10.9480252859  MEMB      142             0.0000000000
     16319       142  OSM       H5F            28.5889534970       -6.7322162467      -11.3960158403  MEMB      142             0.0000000000
     16320       142  OSM       H5G            27.0681540588       -6.7856540361      -10.3164444291  MEMB      142             0.0000000000
     16321       142  OSM       C6F            28.2562709143       -5.3496862737       -9.7639612936  MEMB      142             0.0000000000
     16322       142  OSM       H6F            27.3510396557       -5.0581550469       -9.1896041397  MEMB      142             0.0000000000
     16323       142  OSM       H6G            28.7978605630       -4.4427483388      -10.1081490422  MEMB      142             0.0000000000
     16324       142  OSM       C7F            29.1365684340       -6.3346653289       -8.8999992054  MEMB      142             0.0000000000
     16325       142  OSM       H7F            29.9605530783       -6.7325491291       -9.5301254627  MEMB      142             0.0000000000
     16326       142  OSM       H7G            28.6206838980       -7.2757134469       -8.6125749824  MEMB      142             0.0000000000
     16327       142  OSM       C8F            29.5434743076       -5.6387723429       -7.5971608030  MEMB      142             0.0000000000
     16328       142  OSM       H8F            28.5565308734       -5.4947425668       -7.1077544443  MEMB      142             0.0000000000
     16329       142  OSM       H8G            30.0965491316       -4.7268946473       -7.9084621354  MEMB      142             0.0000000000
     16330       142  OSM       C9F            30.2847792169       -6.5699212212       -6.7106354642  MEMB      142             0.0000000000
     16331       142  OSM       H9F            30.2066053236       -7.6466124713       -6.9218808040  MEMB      142             0.0000000000
     16332       142  OSM       C10F           31.1041741403       -6.1562155246       -5.6953317205  MEMB      142             0.0000000000
     16333       142  OSM       H10F           31.6896056511       -6.8779693500       -5.1068228554  MEMB      142             0.0000000000
     16334       142  OSM       C11F           31.4499710386       -4.7074621826       -5.2653398203  MEMB      142             0.0000000000
     16335       142  OSM       H11F           31.5264499535       -3.9172429129       -6.0425297419  MEMB      142             0.0000000000
     16336       142  OSM       H11G           32.4797516312       -4.7007367119       -4.8484140742  MEMB      142             0.0000000000
     16337       142  OSM       C12F           30.5129773978       -4.1379292294       -4.1367290541  MEMB      142             0.0000000000
     16338       142  OSM       H12F           29.4721415873       -4.1783259457       -4.5231876177  MEMB      142             0.0000000000
     16339       142  OSM       H12G           30.7356903962       -3.0844623282       -3.8630003124  MEMB      142             0.0000000000
     16340       142  OSM       C13F           30.6604201710       -4.8620963702       -2.7595289151  MEMB      142             0.0000000000
     16341       142  OSM       H13F           30.9978068957       -5.9066249835       -2.9311421766  MEMB      142             0.0000000000
     16342       142  OSM       H13G           29.7523892961       -4.9198910498       -2.1219862576  MEMB      142             0.0000000000
     16343       142  OSM       C14F           31.9561796019       -4.3651888738       -2.0046234035  MEMB      142             0.0000000000
     16344       142  OSM       H14F           31.9565124841       -3.2655491038       -2.1630959265  MEMB      142             0.0000000000
     16345       142  OSM       H14G           32.8065604373       -4.9022013643       -2.4766295538  MEMB      142             0.0000000000
     16346       142  OSM       C15F           31.9203382010       -4.5788225242       -0.5191790762  MEMB      142             0.0000000000
     16347       142  OSM       H15F           32.9169915779       -4.8594154203       -0.1163492959  MEMB      142             0.0000000000
     16348       142  OSM       H15G           31.2476428060       -5.4251707153       -0.2632559942  MEMB      142             0.0000000000
     16349       142  OSM       C16F           31.3417149130       -3.3652061231        0.2250162553  MEMB      142             0.0000000000
     16350       142  OSM       H16F           32.0178531063       -2.4837049334        0.2356869023  MEMB      142             0.0000000000
     16351       142  OSM       H16G           31.1795174938       -3.7482883837        1.2551928065  MEMB      142             0.0000000000
     16352       142  OSM       C17F           30.0017274473       -2.8679903241       -0.3116741227  MEMB      142             0.0000000000
     16353       142  OSM       H17F           29.4126247416       -3.8058923821       -0.3989594242  MEMB      142             0.0000000000
     16354       142  OSM       H17G           30.1777974339       -2.5059596656       -1.3471705055  MEMB      142             0.0000000000
     16355       142  OSM       C18F           29.1640658672       -1.9809267154        0.6696578517  MEMB      142             0.0000000000
     16356       142  OSM       H18F           29.6559220261       -1.0052801026        0.8709335764  MEMB      142             0.0000000000
     16357       142  OSM       H18G           29.1076083493       -2.4495923625        1.6753827985  MEMB      142             0.0000000000
     16358       142  OSM       H18H           28.1549375119       -1.8608944751        0.2206887798  MEMB      142             0.0000000000
     16359       143  SAPS      N               5.5866674562      -26.3203827851      -19.6815552083  MEMB      143             0.0000000000
     16360       143  SAPS      HN1             5.7305449216      -25.7368691403      -20.5303254430  MEMB      143             0.0000000000
     16361       143  SAPS      HN2             4.9108497159      -25.8146917740      -19.0739805828  MEMB      143             0.0000000000
     16362       143  SAPS      HN3             6.4686529340      -26.4085636107      -19.1375647233  MEMB      143             0.0000000000
     16363       143  SAPS      C12             5.1046921260      -27.6630471967      -20.0732068067  MEMB      143             0.0000000000
     16364       143  SAPS      H12A            4.8771157788      -28.1257009065      -19.1242280987  MEMB      143             0.0000000000
     16365       143  SAPS      C13             3.8965462302      -27.7093131719      -21.0388018706  MEMB      143             0.0000000000
     16366       143  SAPS      O13A            3.3787474327      -26.5753026891      -21.3467934215  MEMB      143             0.0000000000
     16367       143  SAPS      O13B            3.4377400584      -28.8567194843      -21.3857422574  MEMB      143             0.0000000000
     16368       143  SAPS      C11             6.2563349420      -28.4399401859      -20.6586586314  MEMB      143             0.0000000000
     16369       143  SAPS      H11A            6.5693021624      -27.9934847661      -21.6266720897  MEMB      143             0.0000000000
     16370       143  SAPS      H11B            5.9408263973      -29.4762497111      -20.9053122229  MEMB      143             0.0000000000
     16371       143  SAPS      P               7.9518277297      -29.8150044600      -19.1577864007  MEMB      143             0.0000000000
     16372       143  SAPS      O13             8.1287244783      -30.7963089542      -20.2921504814  MEMB      143             0.0000000000
     16373       143  SAPS      O14             9.2006471695      -29.5468323869      -18.4144900731  MEMB      143             0.0000000000
     16374       143  SAPS      O12             7.4180700918      -28.4432563513      -19.7836293335  MEMB      143             0.0000000000
     16375       143  SAPS      O11             6.8471684549      -30.4127800603      -18.1671855150  MEMB      143             0.0000000000
     16376       143  SAPS      C1              6.4102786714      -29.5133875491      -17.1199527006  MEMB      143             0.0000000000
     16377       143  SAPS      HA              6.6749722151      -28.4540749923      -17.3251728535  MEMB      143             0.0000000000
     16378       143  SAPS      HB              5.3182844996      -29.7178950950      -17.1267665246  MEMB      143             0.0000000000
     16379       143  SAPS      C2              7.1044985740      -29.8383182000      -15.7899013704  MEMB      143             0.0000000000
     16380       143  SAPS      HS              8.0427563344      -29.2697303342      -15.6146839450  MEMB      143             0.0000000000
     16381       143  SAPS      O21             7.1879051894      -31.3045544742      -15.6898419967  MEMB      143             0.0000000000
     16382       143  SAPS      C21             8.0449415366      -31.9310491672      -14.9774359798  MEMB      143             0.0000000000
     16383       143  SAPS      O22             8.9143871179      -31.4397872161      -14.3017541749  MEMB      143             0.0000000000
     16384       143  SAPS      C22             7.8946306087      -33.4269704111      -15.3046956080  MEMB      143             0.0000000000
     16385       143  SAPS      H2R             6.9718461826      -33.5530070550      -15.9104222790  MEMB      143             0.0000000000
     16386       143  SAPS      H2S             8.7678067048      -33.6392803807      -15.9580013172  MEMB      143             0.0000000000
     16387       143  SAPS      C3              6.3241838006      -29.2213902836      -14.6491596623  MEMB      143             0.0000000000
     16388       143  SAPS      HX              5.4043958600      -29.8431738396      -14.6903463126  MEMB      143             0.0000000000
     16389       143  SAPS      HY              6.1800642053      -28.1413689293      -14.8661952212  MEMB      143             0.0000000000
     16390       143  SAPS      O31             6.9156083642      -29.3991296506      -13.3585789609  MEMB      143             0.0000000000
     16391       143  SAPS      C31             7.9090644595      -28.5428248696      -12.9442812203  MEMB      143             0.0000000000
     16392       143  SAPS      O32             8.3570513224      -27.6276034100      -13.6219485657  MEMB      143             0.0000000000
     16393       143  SAPS      C32             8.3210937432      -28.9631640783      -11.5676081620  MEMB      143             0.0000000000
     16394       143  SAPS      H2X             9.2612595935      -28.4365925738      -11.2971794928  MEMB      143             0.0000000000
     16395       143  SAPS      H2Y             8.3929447501      -30.0707170451      -11.5177578165  MEMB      143             0.0000000000
     16396       143  SAPS      C23             7.8326683856      -34.3353510564      -14.0580159557  MEMB      143             0.0000000000
     16397       143  SAPS      H3R             8.9131264106      -34.5055408160      -13.8631642148  MEMB      143             0.0000000000
     16398       143  SAPS      H3S             7.4262333892      -35.3074801428      -14.4102892251  MEMB      143             0.0000000000
     16399       143  SAPS      C24             7.2534921289      -33.8130393003      -12.7765904174  MEMB      143             0.0000000000
     16400       143  SAPS      H4R             6.4330619455      -33.1046877516      -13.0204206416  MEMB      143             0.0000000000
     16401       143  SAPS      H4S             7.7736537898      -33.1061166165      -12.0954052257  MEMB      143             0.0000000000
     16402       143  SAPS      C25             6.8034428302      -34.9291014286      -11.8743329400  MEMB      143             0.0000000000
     16403       143  SAPS      H5R             7.3043440745      -35.9083187546      -11.8591001121  MEMB      143             0.0000000000
     16404       143  SAPS      C26             5.7918868929      -34.8312018404      -11.0063864890  MEMB      143             0.0000000000
     16405       143  SAPS      H6R             5.4723790561      -35.7326136763      -10.4629062350  MEMB      143             0.0000000000
     16406       143  SAPS      C27             4.8949392842      -33.6410617243      -10.7385873247  MEMB      143             0.0000000000
     16407       143  SAPS      H7R             4.0521214495      -33.7365923186      -11.4561193685  MEMB      143             0.0000000000
     16408       143  SAPS      H7S             5.4051025030      -32.6971517330      -11.0268376881  MEMB      143             0.0000000000
     16409       143  SAPS      C28             4.4292043124      -33.6272592249       -9.3090489657  MEMB      143             0.0000000000
     16410       143  SAPS      H8R             3.4484299716      -34.0933890026       -9.1335370554  MEMB      143             0.0000000000
     16411       143  SAPS      C29             5.0748024855      -33.0599073279       -8.2799301438  MEMB      143             0.0000000000
     16412       143  SAPS      H9R             4.5926588653      -33.1847659979       -7.2991411990  MEMB      143             0.0000000000
     16413       143  SAPS      C210            6.3998657184      -32.2613607878       -8.2101713586  MEMB      143             0.0000000000
     16414       143  SAPS      H10R            6.2877969084      -31.2469148925       -7.7712395054  MEMB      143             0.0000000000
     16415       143  SAPS      H10S            6.6521571036      -32.0628903358       -9.2737871548  MEMB      143             0.0000000000
     16416       143  SAPS      C211            7.4399470236      -33.2138129146       -7.6037017407  MEMB      143             0.0000000000
     16417       143  SAPS      H11R            7.7447786636      -34.1504518142       -8.0933804958  MEMB      143             0.0000000000
     16418       143  SAPS      C212            8.2231935256      -32.8359756669       -6.5557969805  MEMB      143             0.0000000000
     16419       143  SAPS      H12R            9.0601875397      -33.4939633108       -6.2792235065  MEMB      143             0.0000000000
     16420       143  SAPS      C213            8.2572200528      -31.5263873960       -5.7981183633  MEMB      143             0.0000000000
     16421       143  SAPS      H13R            7.2793873279      -31.0105244835       -5.9078885792  MEMB      143             0.0000000000
     16422       143  SAPS      H13S            9.0339731164      -30.8539208521       -6.2209234362  MEMB      143             0.0000000000
     16423       143  SAPS      C214            8.3494308554      -31.7640285827       -4.3276438414  MEMB      143             0.0000000000
     16424       143  SAPS      H14R            9.2718235248      -31.2978765080       -3.9509557114  MEMB      143             0.0000000000
     16425       143  SAPS      C215            7.5661764858      -32.4197742741       -3.4018770883  MEMB      143             0.0000000000
     16426       143  SAPS      H15R            7.8669155951      -32.3991686762       -2.3439879556  MEMB      143             0.0000000000
     16427       143  SAPS      C216            6.2501631746      -33.1016737688       -3.6221536484  MEMB      143             0.0000000000
     16428       143  SAPS      H16R            5.9222793714      -33.5964541895       -2.6830028699  MEMB      143             0.0000000000
     16429       143  SAPS      H16S            6.5063598854      -33.9473307595       -4.2956139542  MEMB      143             0.0000000000
     16430       143  SAPS      C217            5.1047006665      -32.2120873237       -4.0569638655  MEMB      143             0.0000000000
     16431       143  SAPS      H17R            4.2642780251      -32.8097959275       -4.4701892544  MEMB      143             0.0000000000
     16432       143  SAPS      H17S            5.4988823774      -31.6956156868       -4.9581850948  MEMB      143             0.0000000000
     16433       143  SAPS      C218            4.5481879594      -31.1697604762       -3.0984517719  MEMB      143             0.0000000000
     16434       143  SAPS      H18R            3.8638939868      -30.5009694731       -3.6630589792  MEMB      143             0.0000000000
     16435       143  SAPS      H18S            5.3575502534      -30.5687629181       -2.6314873784  MEMB      143             0.0000000000
     16436       143  SAPS      C219            3.6069088591      -31.8148939143       -2.0361640959  MEMB      143             0.0000000000
     16437       143  SAPS      H19R            4.0764093229      -32.4619807515       -1.2646916901  MEMB      143             0.0000000000
     16438       143  SAPS      H19S            2.7970887190      -32.4318404823       -2.4810109404  MEMB      143             0.0000000000
     16439       143  SAPS      C220            2.8880430167      -30.6422460257       -1.2611981113  MEMB      143             0.0000000000
     16440       143  SAPS      H20R            2.3865044587      -29.9930058492       -2.0103756493  MEMB      143             0.0000000000
     16441       143  SAPS      H20S            3.6520881662      -29.9908599684       -0.7855375217  MEMB      143             0.0000000000
     16442       143  SAPS      H20T            2.1429292044      -31.0520381121       -0.5462177203  MEMB      143             0.0000000000
     16443       143  SAPS      C33             7.1851120377      -28.6677232161      -10.5773468899  MEMB      143             0.0000000000
     16444       143  SAPS      H3X             6.3602078776      -29.4086833311      -10.6468597811  MEMB      143             0.0000000000
     16445       143  SAPS      H3Y             6.6853983749      -27.6904374491      -10.7491602507  MEMB      143             0.0000000000
     16446       143  SAPS      C34             7.6948424865      -28.4832629891       -9.0837135123  MEMB      143             0.0000000000
     16447       143  SAPS      H4X             8.5921076631      -29.1064335942       -8.8814892960  MEMB      143             0.0000000000
     16448       143  SAPS      H4Y             6.9540506536      -28.8535211872       -8.3431346603  MEMB      143             0.0000000000
     16449       143  SAPS      C35             8.1689500035      -27.0960759828       -8.6343436087  MEMB      143             0.0000000000
     16450       143  SAPS      H5X             7.2420613259      -26.5122623224       -8.4489790606  MEMB      143             0.0000000000
     16451       143  SAPS      H5Y             8.8083878154      -26.5885507243       -9.3879069538  MEMB      143             0.0000000000
     16452       143  SAPS      C36             8.9828871363      -27.1750027405       -7.2500265184  MEMB      143             0.0000000000
     16453       143  SAPS      H6X             9.5287842291      -26.2157867185       -7.1226601742  MEMB      143             0.0000000000
     16454       143  SAPS      H6Y             9.8449023930      -27.8409653609       -7.4685317724  MEMB      143             0.0000000000
     16455       143  SAPS      C37             8.1941900756      -27.7135237647       -6.0354971184  MEMB      143             0.0000000000
     16456       143  SAPS      H7X             8.9055245933      -28.2098977863       -5.3412802591  MEMB      143             0.0000000000
     16457       143  SAPS      H7Y             7.5614065912      -28.5261152426       -6.4521517202  MEMB      143             0.0000000000
     16458       143  SAPS      C38             7.2560543488      -26.7239911162       -5.3258623339  MEMB      143             0.0000000000
     16459       143  SAPS      H8X             6.6479374258      -26.2775248755       -6.1414490660  MEMB      143             0.0000000000
     16460       143  SAPS      H8Y             7.8804708563      -26.0207842887       -4.7343170337  MEMB      143             0.0000000000
     16461       143  SAPS      C39             6.4116619392      -27.2179543664       -4.2291245716  MEMB      143             0.0000000000
     16462       143  SAPS      H9X             7.1288018049      -27.6084813010       -3.4757855578  MEMB      143             0.0000000000
     16463       143  SAPS      H9Y             5.9076949648      -28.1757917212       -4.4798950081  MEMB      143             0.0000000000
     16464       143  SAPS      C310            5.3705830383      -26.2631264138       -3.5861832491  MEMB      143             0.0000000000
     16465       143  SAPS      H10X            4.6151480410      -26.1621872815       -4.3945457177  MEMB      143             0.0000000000
     16466       143  SAPS      H10Y            5.7139410638      -25.2173489256       -3.4352666219  MEMB      143             0.0000000000
     16467       143  SAPS      C311            4.5883400782      -26.9346981854       -2.4326242878  MEMB      143             0.0000000000
     16468       143  SAPS      H11X            3.9267263617      -27.7571607121       -2.7792409518  MEMB      143             0.0000000000
     16469       143  SAPS      H11Y            3.9493961918      -26.1648989935       -1.9494248204  MEMB      143             0.0000000000
     16470       143  SAPS      C312            5.5832357314      -27.4279135017       -1.3092795925  MEMB      143             0.0000000000
     16471       143  SAPS      H12X            6.4252998368      -26.7032977317       -1.2958108918  MEMB      143             0.0000000000
     16472       143  SAPS      H12Y            5.8317849510      -28.4761169575       -1.5809668810  MEMB      143             0.0000000000
     16473       143  SAPS      C313            4.8943409120      -27.3757797318        0.0861012958  MEMB      143             0.0000000000
     16474       143  SAPS      H13X            3.9283686828      -27.9059347250       -0.0558642918  MEMB      143             0.0000000000
     16475       143  SAPS      H13Y            4.5653828902      -26.3361107510        0.2986939911  MEMB      143             0.0000000000
     16476       143  SAPS      C314            5.6808988109      -27.8851201072        1.2401071839  MEMB      143             0.0000000000
     16477       143  SAPS      H14X            6.4339326704      -27.0704841675        1.3003493078  MEMB      143             0.0000000000
     16478       143  SAPS      H14Y            6.1607572018      -28.8813083536        1.1320966976  MEMB      143             0.0000000000
     16479       143  SAPS      C315            4.9131914443      -27.7008035178        2.5777836234  MEMB      143             0.0000000000
     16480       143  SAPS      H15X            4.3984588547      -26.7196708844        2.4956257158  MEMB      143             0.0000000000
     16481       143  SAPS      H15Y            5.6433181120      -27.4003677783        3.3594318437  MEMB      143             0.0000000000
     16482       143  SAPS      C316            3.9845197860      -28.8341006859        3.0174011046  MEMB      143             0.0000000000
     16483       143  SAPS      H16X            4.2575792985      -29.2436181602        4.0134216082  MEMB      143             0.0000000000
     16484       143  SAPS      H16Y            4.1411719397      -29.6800822499        2.3144815663  MEMB      143             0.0000000000
     16485       143  SAPS      C317            2.5077588501      -28.4271255816        3.0821782401  MEMB      143             0.0000000000
     16486       143  SAPS      H17X            2.3724625568      -27.6039895764        3.8159795984  MEMB      143             0.0000000000
     16487       143  SAPS      H17Y            1.9524210323      -29.2447149860        3.5895938446  MEMB      143             0.0000000000
     16488       143  SAPS      C318            1.8177754444      -27.9351224139        1.7839560431  MEMB      143             0.0000000000
     16489       143  SAPS      H18X            1.8381214055      -28.6982766332        0.9767994198  MEMB      143             0.0000000000
     16490       143  SAPS      H18Y            2.2918305712      -27.0013236256        1.4129933283  MEMB      143             0.0000000000
     16491       143  SAPS      H18Z            0.7930618540      -27.5690485199        2.0081735982  MEMB      143             0.0000000000
     16492       144  SLPC      N             -10.6190766426       26.0766134950      -15.1408312632  MEMB      144             0.0000000000
     16493       144  SLPC      C13           -10.5768799175       24.6963184096      -15.7881555603  MEMB      144             0.0000000000
     16494       144  SLPC      H13A          -10.7366499989       23.8510731972      -15.1351364343  MEMB      144             0.0000000000
     16495       144  SLPC      H13B          -11.3207841104       24.6775142426      -16.5708770035  MEMB      144             0.0000000000
     16496       144  SLPC      H13C           -9.6159986356       24.6524170487      -16.2792561253  MEMB      144             0.0000000000
     16497       144  SLPC      C14            -9.3759677417       26.3755076112      -14.3409286025  MEMB      144             0.0000000000
     16498       144  SLPC      H14A           -9.5047715874       27.2549127013      -13.7273681451  MEMB      144             0.0000000000
     16499       144  SLPC      H14B           -9.2473873392       25.6511372758      -13.5502612390  MEMB      144             0.0000000000
     16500       144  SLPC      H14C           -8.4876067602       26.2414377804      -14.9402951027  MEMB      144             0.0000000000
     16501       144  SLPC      C15           -11.7246541082       26.2055057440      -14.1678976162  MEMB      144             0.0000000000
     16502       144  SLPC      H15A          -11.7845553039       27.1580394876      -13.6624362990  MEMB      144             0.0000000000
     16503       144  SLPC      H15B          -12.6921683913       25.9973834747      -14.6003340658  MEMB      144             0.0000000000
     16504       144  SLPC      H15C          -11.5948347596       25.4451462908      -13.4119873067  MEMB      144             0.0000000000
     16505       144  SLPC      C12           -10.6597375260       27.1403702417      -16.2612814021  MEMB      144             0.0000000000
     16506       144  SLPC      H12A           -9.7886037258       27.1839004555      -16.8981730412  MEMB      144             0.0000000000
     16507       144  SLPC      H12B          -10.4466003637       28.0398115776      -15.7027315904  MEMB      144             0.0000000000
     16508       144  SLPC      C11           -11.9419605503       27.3426376926      -16.9682374419  MEMB      144             0.0000000000
     16509       144  SLPC      H11A          -11.8595394438       28.2682050542      -17.5772142314  MEMB      144             0.0000000000
     16510       144  SLPC      H11B          -12.8720615306       27.5196807408      -16.3869552193  MEMB      144             0.0000000000
     16511       144  SLPC      P             -13.3065901255       26.4755729426      -18.9634300605  MEMB      144             0.0000000000
     16512       144  SLPC      O13           -13.0098406103       27.6947294038      -19.6655544799  MEMB      144             0.0000000000
     16513       144  SLPC      O14           -13.5349025872       25.3054303833      -19.7657124253  MEMB      144             0.0000000000
     16514       144  SLPC      O12           -12.1828283315       26.2511143704      -17.8999875390  MEMB      144             0.0000000000
     16515       144  SLPC      O11           -14.5889559273       26.6715741102      -18.0379835899  MEMB      144             0.0000000000
     16516       144  SLPC      C1            -15.0655919452       25.5202640906      -17.3799643562  MEMB      144             0.0000000000
     16517       144  SLPC      HA            -15.4353726614       24.8159088909      -18.1555073681  MEMB      144             0.0000000000
     16518       144  SLPC      HB            -14.2443647915       25.0578804914      -16.7916544337  MEMB      144             0.0000000000
     16519       144  SLPC      C2            -16.2736435439       25.8717466097      -16.4060874969  MEMB      144             0.0000000000
     16520       144  SLPC      HS            -17.0069798301       26.3939328470      -17.0571329660  MEMB      144             0.0000000000
     16521       144  SLPC      O21           -15.7960342612       26.6015833507      -15.2880126776  MEMB      144             0.0000000000
     16522       144  SLPC      C21           -16.6035968395       27.2025111580      -14.4270459607  MEMB      144             0.0000000000
     16523       144  SLPC      O22           -17.8183666976       27.2441775477      -14.4048428892  MEMB      144             0.0000000000
     16524       144  SLPC      C22           -15.7289045682       27.9177078284      -13.3793492716  MEMB      144             0.0000000000
     16525       144  SLPC      H2R           -15.0777121004       27.1503837643      -12.9087292265  MEMB      144             0.0000000000
     16526       144  SLPC      H2S           -15.1034225428       28.6902258442      -13.8756443407  MEMB      144             0.0000000000
     16527       144  SLPC      C3            -16.8467320880       24.4765458745      -15.9228598511  MEMB      144             0.0000000000
     16528       144  SLPC      HX            -17.3538241486       23.9954080694      -16.7863907785  MEMB      144             0.0000000000
     16529       144  SLPC      HY            -17.5548459418       24.7451919708      -15.1100099636  MEMB      144             0.0000000000
     16530       144  SLPC      O31           -15.7227286103       23.6433518465      -15.4643107191  MEMB      144             0.0000000000
     16531       144  SLPC      C31           -15.8788388377       23.1222070786      -14.2652840368  MEMB      144             0.0000000000
     16532       144  SLPC      O32           -16.7236486460       23.3548357604      -13.4407601129  MEMB      144             0.0000000000
     16533       144  SLPC      C32           -14.9249306456       21.9665177071      -13.9557769597  MEMB      144             0.0000000000
     16534       144  SLPC      H2X           -14.3236847235       21.6860532276      -14.8469356066  MEMB      144             0.0000000000
     16535       144  SLPC      H2Y           -15.3800188246       21.1049005868      -13.4220809176  MEMB      144             0.0000000000
     16536       144  SLPC      C23           -16.5543845534       28.7999977134      -12.4623925834  MEMB      144             0.0000000000
     16537       144  SLPC      H3R           -17.4413257324       29.2736112228      -12.9349883575  MEMB      144             0.0000000000
     16538       144  SLPC      H3S           -15.9854193306       29.6897223075      -12.1174438180  MEMB      144             0.0000000000
     16539       144  SLPC      C24           -16.7880257387       28.1796947381      -11.1007111390  MEMB      144             0.0000000000
     16540       144  SLPC      H4R           -17.4506698843       28.8193641826      -10.4793845601  MEMB      144             0.0000000000
     16541       144  SLPC      H4S           -15.8263779334       27.9812214972      -10.5809395008  MEMB      144             0.0000000000
     16542       144  SLPC      C25           -17.5581711089       26.8832775757      -11.1344158297  MEMB      144             0.0000000000
     16543       144  SLPC      H5R           -17.1155919913       26.0761640215      -11.7565189236  MEMB      144             0.0000000000
     16544       144  SLPC      H5S           -18.5349859126       27.0418121745      -11.6394110293  MEMB      144             0.0000000000
     16545       144  SLPC      C26           -17.8824321651       26.2685086933       -9.7820272278  MEMB      144             0.0000000000
     16546       144  SLPC      H6R           -18.5158842690       25.4378473383      -10.1602619449  MEMB      144             0.0000000000
     16547       144  SLPC      H6S           -18.3579616471       26.9810542257       -9.0745877894  MEMB      144             0.0000000000
     16548       144  SLPC      C27           -16.6136970651       25.7968684283       -9.0510975553  MEMB      144             0.0000000000
     16549       144  SLPC      H7R           -15.9297061968       26.6186567140       -8.7492011611  MEMB      144             0.0000000000
     16550       144  SLPC      H7S           -16.0963213736       25.1349978547       -9.7781263423  MEMB      144             0.0000000000
     16551       144  SLPC      C28           -16.9557741008       25.0821329794       -7.7518305726  MEMB      144             0.0000000000
     16552       144  SLPC      H8R           -17.6989890044       25.7133721407       -7.2193941241  MEMB      144             0.0000000000
     16553       144  SLPC      H8S           -16.0312222944       25.0556823939       -7.1363429470  MEMB      144             0.0000000000
     16554       144  SLPC      C29           -17.5727833293       23.7221893586       -8.0442336090  MEMB      144             0.0000000000
     16555       144  SLPC      H9R           -18.5960575364       23.6582218968       -8.4427535806  MEMB      144             0.0000000000
     16556       144  SLPC      C210          -16.9067610886       22.5889938420       -7.7850445153  MEMB      144             0.0000000000
     16557       144  SLPC      H10R          -17.4497941531       21.6422460481       -7.9220984887  MEMB      144             0.0000000000
     16558       144  SLPC      C211          -15.4736376866       22.2643481166       -7.2777826104  MEMB      144             0.0000000000
     16559       144  SLPC      H11R          -14.6465582196       23.0061292761       -7.2824277750  MEMB      144             0.0000000000
     16560       144  SLPC      H11S          -15.0192527493       21.4820023537       -7.9226011544  MEMB      144             0.0000000000
     16561       144  SLPC      C212          -15.5335440562       21.5296782940       -5.9368967076  MEMB      144             0.0000000000
     16562       144  SLPC      H12R          -16.4006360695       20.8695619393       -5.7872381559  MEMB      144             0.0000000000
     16563       144  SLPC      C213          -14.6143090470       21.4846028497       -4.9171857682  MEMB      144             0.0000000000
     16564       144  SLPC      H13R          -14.8280938498       20.7685457644       -4.1099946840  MEMB      144             0.0000000000
     16565       144  SLPC      C214          -13.2537966208       22.2291155249       -4.9186639412  MEMB      144             0.0000000000
     16566       144  SLPC      H14R          -12.8191523688       22.1864878851       -5.9402250151  MEMB      144             0.0000000000
     16567       144  SLPC      H14S          -12.5488658675       21.8231606359       -4.1619646466  MEMB      144             0.0000000000
     16568       144  SLPC      C215          -13.4883887643       23.6821476991       -4.3754627905  MEMB      144             0.0000000000
     16569       144  SLPC      H15R          -14.3717845093       24.1705320057       -4.8395898724  MEMB      144             0.0000000000
     16570       144  SLPC      H15S          -12.5625303643       24.2730057633       -4.5427769890  MEMB      144             0.0000000000
     16571       144  SLPC      C216          -13.8111004219       23.7349814579       -2.8499112820  MEMB      144             0.0000000000
     16572       144  SLPC      H16R          -12.9161888868       23.3575494380       -2.3104672845  MEMB      144             0.0000000000
     16573       144  SLPC      H16S          -14.6707526495       23.0875864813       -2.5738698299  MEMB      144             0.0000000000
     16574       144  SLPC      C217          -14.1314288594       25.1093383908       -2.4072231269  MEMB      144             0.0000000000
     16575       144  SLPC      H17R          -15.2363523304       25.1997271058       -2.4799905331  MEMB      144             0.0000000000
     16576       144  SLPC      H17S          -13.7105261348       25.8181872492       -3.1520019949  MEMB      144             0.0000000000
     16577       144  SLPC      C218          -13.5538225124       25.4255364049       -1.0344364055  MEMB      144             0.0000000000
     16578       144  SLPC      H18R          -12.4807125860       25.7059014563       -1.0988695822  MEMB      144             0.0000000000
     16579       144  SLPC      H18S          -13.6699268665       24.6395476537       -0.2578651996  MEMB      144             0.0000000000
     16580       144  SLPC      H18T          -14.1086323302       26.3077796053       -0.6495303422  MEMB      144             0.0000000000
     16581       144  SLPC      C33           -13.8765568514       22.6583138904      -12.9389641284  MEMB      144             0.0000000000
     16582       144  SLPC      H3X           -14.4094766958       23.2923230948      -12.1984577123  MEMB      144             0.0000000000
     16583       144  SLPC      H3Y           -13.2653650193       23.3046991522      -13.6045099043  MEMB      144             0.0000000000
     16584       144  SLPC      C34           -12.8275348197       21.6654735599      -12.4606187204  MEMB      144             0.0000000000
     16585       144  SLPC      H4X           -12.2540233146       21.2679219558      -13.3251174358  MEMB      144             0.0000000000
     16586       144  SLPC      H4Y           -13.4849551544       20.8459247586      -12.0994279110  MEMB      144             0.0000000000
     16587       144  SLPC      C35           -11.7945836479       22.3932433879      -11.5119678909  MEMB      144             0.0000000000
     16588       144  SLPC      H5X           -11.2114678698       23.0964477455      -12.1442660937  MEMB      144             0.0000000000
     16589       144  SLPC      H5Y           -11.0653262364       21.6713837416      -11.0860304353  MEMB      144             0.0000000000
     16590       144  SLPC      C36           -12.4307340927       23.0318029241      -10.2233740845  MEMB      144             0.0000000000
     16591       144  SLPC      H6X           -12.4531141363       22.3733709207       -9.3287864793  MEMB      144             0.0000000000
     16592       144  SLPC      H6Y           -13.4994377498       23.2130014612      -10.4670144998  MEMB      144             0.0000000000
     16593       144  SLPC      C37           -11.7410303435       24.3053900668       -9.6994588001  MEMB      144             0.0000000000
     16594       144  SLPC      H7X           -10.6662116138       24.0243331476       -9.7091049458  MEMB      144             0.0000000000
     16595       144  SLPC      H7Y           -12.0016091956       24.3598292459       -8.6208227279  MEMB      144             0.0000000000
     16596       144  SLPC      C38           -12.0525858436       25.5591717186      -10.5765839472  MEMB      144             0.0000000000
     16597       144  SLPC      H8X           -13.1399568079       25.5550014443      -10.8044614933  MEMB      144             0.0000000000
     16598       144  SLPC      H8Y           -11.5042635004       25.3739558393      -11.5249290508  MEMB      144             0.0000000000
     16599       144  SLPC      C39           -11.5007317480       26.9218491319      -10.1209812659  MEMB      144             0.0000000000
     16600       144  SLPC      H9X           -11.6961972180       27.6954559407      -10.8940574628  MEMB      144             0.0000000000
     16601       144  SLPC      H9Y           -10.4019582860       26.7598037111      -10.1485397151  MEMB      144             0.0000000000
     16602       144  SLPC      C310          -12.1151038029       27.3831158532       -8.7049039065  MEMB      144             0.0000000000
     16603       144  SLPC      H10X          -11.6614188728       26.8803136584       -7.8241761303  MEMB      144             0.0000000000
     16604       144  SLPC      H10Y          -13.1955878359       27.1937720930       -8.8810416376  MEMB      144             0.0000000000
     16605       144  SLPC      C311          -12.1885566074       28.8352468043       -8.3642771186  MEMB      144             0.0000000000
     16606       144  SLPC      H11X          -13.0532049971       29.3615285630       -8.8222420821  MEMB      144             0.0000000000
     16607       144  SLPC      H11Y          -11.2761155055       29.2554814499       -8.8388023544  MEMB      144             0.0000000000
     16608       144  SLPC      C312          -12.3613478054       29.1104918563       -6.8439183487  MEMB      144             0.0000000000
     16609       144  SLPC      H12X          -11.9191752391       30.1187251099       -6.6946864710  MEMB      144             0.0000000000
     16610       144  SLPC      H12Y          -11.7674444825       28.3075494244       -6.3572116291  MEMB      144             0.0000000000
     16611       144  SLPC      C313          -13.7409712069       28.9505779331       -6.2130080333  MEMB      144             0.0000000000
     16612       144  SLPC      H13X          -14.0877138441       27.9319947502       -6.4897367014  MEMB      144             0.0000000000
     16613       144  SLPC      H13Y          -14.5517416320       29.6168623408       -6.5777510027  MEMB      144             0.0000000000
     16614       144  SLPC      C314          -13.7332952881       29.1521603154       -4.7251978995  MEMB      144             0.0000000000
     16615       144  SLPC      H14X          -13.2424923620       30.1041474266       -4.4299790018  MEMB      144             0.0000000000
     16616       144  SLPC      H14Y          -13.0514790758       28.4515510266       -4.1973776117  MEMB      144             0.0000000000
     16617       144  SLPC      C315          -15.1609272278       29.2153276132       -4.0564382734  MEMB      144             0.0000000000
     16618       144  SLPC      H15X          -15.8648368082       28.4638843337       -4.4737695653  MEMB      144             0.0000000000
     16619       144  SLPC      H15Y          -15.6624640736       30.1857710460       -4.2589757915  MEMB      144             0.0000000000
     16620       144  SLPC      C316          -15.1105949295       29.2449716267       -2.5096402720  MEMB      144             0.0000000000
     16621       144  SLPC      H16X          -14.6077787905       30.1680635230       -2.1499208134  MEMB      144             0.0000000000
     16622       144  SLPC      H16Y          -14.4478881954       28.4108437336       -2.1944082356  MEMB      144             0.0000000000
     16623       144  SLPC      C317          -16.4913695716       29.2920020508       -1.7456214185  MEMB      144             0.0000000000
     16624       144  SLPC      H17X          -17.2072163175       29.8777935452       -2.3610339227  MEMB      144             0.0000000000
     16625       144  SLPC      H17Y          -16.5508705051       29.7419328749       -0.7315489892  MEMB      144             0.0000000000
     16626       144  SLPC      C318          -16.9756900672       27.8358834207       -1.5443771758  MEMB      144             0.0000000000
     16627       144  SLPC      H18X          -17.7602271890       27.7958339325       -0.7587432723  MEMB      144             0.0000000000
     16628       144  SLPC      H18Y          -16.1102217664       27.1698297692       -1.3402741504  MEMB      144             0.0000000000
     16629       144  SLPC      H18Z          -17.3681170518       27.5052935856       -2.5297863125  MEMB      144             0.0000000000
     16630       145  SAPS      N              26.4290298661       17.4921164716      -19.8352773491  MEMB      145             0.0000000000
     16631       145  SAPS      HN1            26.5169598887       17.6269972198      -18.8078166217  MEMB      145             0.0000000000
     16632       145  SAPS      HN2            26.1064142221       16.5050220404      -19.8915238997  MEMB      145             0.0000000000
     16633       145  SAPS      HN3            27.3073699729       17.6051221638      -20.3805740546  MEMB      145             0.0000000000
     16634       145  SAPS      C12            25.2424386667       18.3309289994      -20.2004689923  MEMB      145             0.0000000000
     16635       145  SAPS      H12A           25.5020784456       19.2825003206      -19.7605833958  MEMB      145             0.0000000000
     16636       145  SAPS      C13            24.9802992949       18.3574806846      -21.7469493426  MEMB      145             0.0000000000
     16637       145  SAPS      O13A           25.7194333267       17.7046548982      -22.5328892006  MEMB      145             0.0000000000
     16638       145  SAPS      O13B           23.8990996827       18.9478724880      -22.1146700825  MEMB      145             0.0000000000
     16639       145  SAPS      C11            23.9702582532       17.6607133152      -19.6315765720  MEMB      145             0.0000000000
     16640       145  SAPS      H11A           24.2067114278       17.6975184846      -18.5466543704  MEMB      145             0.0000000000
     16641       145  SAPS      H11B           23.8672177176       16.6114298562      -19.9818733215  MEMB      145             0.0000000000
     16642       145  SAPS      P              21.6458660388       17.9751430312      -18.8421929916  MEMB      145             0.0000000000
     16643       145  SAPS      O13            20.4228423043       18.7726062570      -19.1350008102  MEMB      145             0.0000000000
     16644       145  SAPS      O14            21.5737429783       16.4837174732      -18.7120523662  MEMB      145             0.0000000000
     16645       145  SAPS      O12            22.8250703625       18.3833681339      -19.7648159802  MEMB      145             0.0000000000
     16646       145  SAPS      O11            22.1965674259       18.5048011476      -17.4841062781  MEMB      145             0.0000000000
     16647       145  SAPS      C1             22.5103488358       19.8676557064      -17.3003152293  MEMB      145             0.0000000000
     16648       145  SAPS      HA             23.5067210078       20.0208133182      -17.7673334804  MEMB      145             0.0000000000
     16649       145  SAPS      HB             21.7001546860       20.4962419080      -17.7278499101  MEMB      145             0.0000000000
     16650       145  SAPS      C2             22.6906703758       20.1765790343      -15.8022562389  MEMB      145             0.0000000000
     16651       145  SAPS      HS             23.1100027845       21.2034774933      -15.7393208215  MEMB      145             0.0000000000
     16652       145  SAPS      O21            23.5169362488       19.1799269987      -15.1813632762  MEMB      145             0.0000000000
     16653       145  SAPS      C21            24.8248816613       19.3839800267      -15.4955578166  MEMB      145             0.0000000000
     16654       145  SAPS      O22            25.3414640751       20.3373364489      -16.0130309464  MEMB      145             0.0000000000
     16655       145  SAPS      C22            25.6307569756       18.3193470694      -14.8085859406  MEMB      145             0.0000000000
     16656       145  SAPS      H2R            26.5988414410       18.6854207252      -14.4047006023  MEMB      145             0.0000000000
     16657       145  SAPS      H2S            25.1641147142       18.0556813817      -13.8354229671  MEMB      145             0.0000000000
     16658       145  SAPS      C3             21.2954389898       20.1768867739      -15.0900504403  MEMB      145             0.0000000000
     16659       145  SAPS      HX             20.5683105829       20.7948552081      -15.6590148905  MEMB      145             0.0000000000
     16660       145  SAPS      HY             21.2837255499       20.5307167072      -14.0369657448  MEMB      145             0.0000000000
     16661       145  SAPS      O31            21.0441109519       18.7790371096      -15.1289742995  MEMB      145             0.0000000000
     16662       145  SAPS      C31            19.9279072798       18.3013260434      -14.6491114427  MEMB      145             0.0000000000
     16663       145  SAPS      O32            19.0059408353       18.9862940257      -14.1584928334  MEMB      145             0.0000000000
     16664       145  SAPS      C32            20.1396450151       16.7505785908      -14.6254271851  MEMB      145             0.0000000000
     16665       145  SAPS      H2X            21.2170637389       16.4834686186      -14.6717120639  MEMB      145             0.0000000000
     16666       145  SAPS      H2Y            19.6840697788       16.2082073867      -15.4813509751  MEMB      145             0.0000000000
     16667       145  SAPS      C23            25.9626756253       17.1498075844      -15.7139620337  MEMB      145             0.0000000000
     16668       145  SAPS      H3R            26.8606858343       17.2637319945      -16.3581048378  MEMB      145             0.0000000000
     16669       145  SAPS      H3S            25.0929032220       16.8826259297      -16.3514814564  MEMB      145             0.0000000000
     16670       145  SAPS      C24            26.2921509202       15.8317578629      -14.9586801782  MEMB      145             0.0000000000
     16671       145  SAPS      H4R            26.6962079350       15.0697873075      -15.6590089019  MEMB      145             0.0000000000
     16672       145  SAPS      H4S            25.2822993164       15.3980258060      -14.7962078007  MEMB      145             0.0000000000
     16673       145  SAPS      C25            27.1835523133       16.0161663874      -13.7330586260  MEMB      145             0.0000000000
     16674       145  SAPS      H5R            28.2224419026       16.1969244658      -14.0461634929  MEMB      145             0.0000000000
     16675       145  SAPS      C26            27.0550514453       15.7256223768      -12.3794842914  MEMB      145             0.0000000000
     16676       145  SAPS      H6R            27.9458142572       15.8088560330      -11.7394734968  MEMB      145             0.0000000000
     16677       145  SAPS      C27            25.9635678233       15.1129630021      -11.6321475104  MEMB      145             0.0000000000
     16678       145  SAPS      H7R            26.1607717931       15.1665841255      -10.5401051645  MEMB      145             0.0000000000
     16679       145  SAPS      H7S            25.9390583892       14.0025437582      -11.6584106106  MEMB      145             0.0000000000
     16680       145  SAPS      C28            24.5569927199       15.6220862398      -11.9420072011  MEMB      145             0.0000000000
     16681       145  SAPS      H8R            23.9165241080       15.1378517419      -12.6938823820  MEMB      145             0.0000000000
     16682       145  SAPS      C29            23.9340041759       16.7305708979      -11.4426247815  MEMB      145             0.0000000000
     16683       145  SAPS      H9R            22.9240724290       16.8770361889      -11.8532172603  MEMB      145             0.0000000000
     16684       145  SAPS      C210           24.3958421092       17.7311149547      -10.3991853637  MEMB      145             0.0000000000
     16685       145  SAPS      H10R           25.4559776616       17.4715167020      -10.1917180411  MEMB      145             0.0000000000
     16686       145  SAPS      H10S           23.7945303710       17.4722692580       -9.5015523493  MEMB      145             0.0000000000
     16687       145  SAPS      C211           24.2872450988       19.1731461738      -10.6270702623  MEMB      145             0.0000000000
     16688       145  SAPS      H11R           24.6126670236       19.4215963534      -11.6480361812  MEMB      145             0.0000000000
     16689       145  SAPS      C212           23.7619892627       20.1122915433       -9.8581530482  MEMB      145             0.0000000000
     16690       145  SAPS      H12R           23.5345152504       21.0413888103      -10.4013231275  MEMB      145             0.0000000000
     16691       145  SAPS      C213           23.0940142912       19.9823795362       -8.4657781378  MEMB      145             0.0000000000
     16692       145  SAPS      H13R           22.1747233670       19.3693120755       -8.5814227451  MEMB      145             0.0000000000
     16693       145  SAPS      H13S           22.7064970107       21.0060386969       -8.2753225005  MEMB      145             0.0000000000
     16694       145  SAPS      C214           23.8748817559       19.2391863272       -7.4430206418  MEMB      145             0.0000000000
     16695       145  SAPS      H14R           24.2861613807       18.2777570461       -7.7843457960  MEMB      145             0.0000000000
     16696       145  SAPS      C215           24.0851466768       19.8126279764       -6.1972553705  MEMB      145             0.0000000000
     16697       145  SAPS      H15R           24.6696393934       19.1898157256       -5.5040937585  MEMB      145             0.0000000000
     16698       145  SAPS      C216           23.6479222170       21.1307271429       -5.6359948698  MEMB      145             0.0000000000
     16699       145  SAPS      H16R           23.4303340256       21.8361863608       -6.4662377664  MEMB      145             0.0000000000
     16700       145  SAPS      H16S           24.4169992679       21.5996623098       -4.9856558749  MEMB      145             0.0000000000
     16701       145  SAPS      C217           22.3553008879       21.0623132265       -4.7894522378  MEMB      145             0.0000000000
     16702       145  SAPS      H17R           21.6050356001       20.5530091824       -5.4313502153  MEMB      145             0.0000000000
     16703       145  SAPS      H17S           22.0710519112       22.1031824790       -4.5246601138  MEMB      145             0.0000000000
     16704       145  SAPS      C218           22.4435977568       20.3151658075       -3.4894842198  MEMB      145             0.0000000000
     16705       145  SAPS      H18R           22.8237976594       19.2789032517       -3.6156917065  MEMB      145             0.0000000000
     16706       145  SAPS      H18S           21.4998485422       20.3020504880       -2.9034060775  MEMB      145             0.0000000000
     16707       145  SAPS      C219           23.4115268975       21.0889269554       -2.5852103556  MEMB      145             0.0000000000
     16708       145  SAPS      H19R           23.1539923983       22.1649031085       -2.4838596555  MEMB      145             0.0000000000
     16709       145  SAPS      H19S           24.4321932168       20.9256665499       -2.9925281349  MEMB      145             0.0000000000
     16710       145  SAPS      C220           23.4107643565       20.3455445650       -1.1876449312  MEMB      145             0.0000000000
     16711       145  SAPS      H20R           22.4293774043       20.0825414406       -0.7381681392  MEMB      145             0.0000000000
     16712       145  SAPS      H20S           24.0102300593       20.9121143381       -0.4433607414  MEMB      145             0.0000000000
     16713       145  SAPS      H20T           23.8754750546       19.3374967544       -1.2345972581  MEMB      145             0.0000000000
     16714       145  SAPS      C33            19.4574742225       16.1231157186      -13.4182953728  MEMB      145             0.0000000000
     16715       145  SAPS      H3X            19.0617771442       15.1721557970      -13.8347321580  MEMB      145             0.0000000000
     16716       145  SAPS      H3Y            18.6000029228       16.7510794168      -13.0946816083  MEMB      145             0.0000000000
     16717       145  SAPS      C34            20.4379573290       15.7900783135      -12.1932508415  MEMB      145             0.0000000000
     16718       145  SAPS      H4X            20.8797186561       16.7547299365      -11.8636823722  MEMB      145             0.0000000000
     16719       145  SAPS      H4Y            21.1865490927       15.0905156866      -12.6228366027  MEMB      145             0.0000000000
     16720       145  SAPS      C35            19.7642960012       15.2706982137      -10.9258028204  MEMB      145             0.0000000000
     16721       145  SAPS      H5X            19.0117616181       14.5821075759      -11.3660934751  MEMB      145             0.0000000000
     16722       145  SAPS      H5Y            19.1200017279       16.0514508307      -10.4679470964  MEMB      145             0.0000000000
     16723       145  SAPS      C36            20.6047563623       14.6206849188       -9.8214947154  MEMB      145             0.0000000000
     16724       145  SAPS      H6X            21.3565477803       13.9508757142      -10.2910541586  MEMB      145             0.0000000000
     16725       145  SAPS      H6Y            19.9595351903       13.8923582419       -9.2852566401  MEMB      145             0.0000000000
     16726       145  SAPS      C37            21.1193616244       15.7334667380       -8.7616734903  MEMB      145             0.0000000000
     16727       145  SAPS      H7X            20.1867432351       16.0205726525       -8.2305296768  MEMB      145             0.0000000000
     16728       145  SAPS      H7Y            21.4641052405       16.6840093614       -9.2220445478  MEMB      145             0.0000000000
     16729       145  SAPS      C38            22.1747721189       15.1996253422       -7.8055296709  MEMB      145             0.0000000000
     16730       145  SAPS      H8X            23.0468781918       14.8668491284       -8.4080344287  MEMB      145             0.0000000000
     16731       145  SAPS      H8Y            21.8552384636       14.2036433099       -7.4310444333  MEMB      145             0.0000000000
     16732       145  SAPS      C39            22.4807196231       16.0573428491       -6.5703139637  MEMB      145             0.0000000000
     16733       145  SAPS      H9X            21.5135807589       16.5416673112       -6.3165556808  MEMB      145             0.0000000000
     16734       145  SAPS      H9Y            23.1289053380       16.8606215434       -6.9813123413  MEMB      145             0.0000000000
     16735       145  SAPS      C310           23.1710266971       15.4473550877       -5.2783908460  MEMB      145             0.0000000000
     16736       145  SAPS      H10X           24.0443287413       14.8153490949       -5.5471523081  MEMB      145             0.0000000000
     16737       145  SAPS      H10Y           22.4421419382       14.7441689269       -4.8216881779  MEMB      145             0.0000000000
     16738       145  SAPS      C311           23.5589093312       16.4879351874       -4.2683452079  MEMB      145             0.0000000000
     16739       145  SAPS      H11X           22.6599001427       16.9824534424       -3.8422524399  MEMB      145             0.0000000000
     16740       145  SAPS      H11Y           24.1220617019       17.3712882830       -4.6383016877  MEMB      145             0.0000000000
     16741       145  SAPS      C312           24.3704089174       15.8520649575       -3.1538081690  MEMB      145             0.0000000000
     16742       145  SAPS      H12X           23.8535452574       14.9062675946       -2.8842890542  MEMB      145             0.0000000000
     16743       145  SAPS      H12Y           24.2724599094       16.4337170967       -2.2123144388  MEMB      145             0.0000000000
     16744       145  SAPS      C313           25.8400509520       15.6029583858       -3.5273580055  MEMB      145             0.0000000000
     16745       145  SAPS      H13X           25.7458993755       14.8956331701       -4.3789140539  MEMB      145             0.0000000000
     16746       145  SAPS      H13Y           26.3403082368       15.0841814085       -2.6818196624  MEMB      145             0.0000000000
     16747       145  SAPS      C314           26.6958545552       16.7660576858       -3.9599331521  MEMB      145             0.0000000000
     16748       145  SAPS      H14X           26.2796738170       17.3282256116       -4.8231157427  MEMB      145             0.0000000000
     16749       145  SAPS      H14Y           27.6974447928       16.3709477449       -4.2338428896  MEMB      145             0.0000000000
     16750       145  SAPS      C315           27.0582107474       17.7751854247       -2.8152237447  MEMB      145             0.0000000000
     16751       145  SAPS      H15X           27.4878074495       17.4225572536       -1.8532345815  MEMB      145             0.0000000000
     16752       145  SAPS      H15Y           26.0668255952       18.0452065163       -2.3926542768  MEMB      145             0.0000000000
     16753       145  SAPS      C316           27.8292385577       19.0281474916       -3.1740652999  MEMB      145             0.0000000000
     16754       145  SAPS      H16X           27.3399921898       19.4580279280       -4.0741559114  MEMB      145             0.0000000000
     16755       145  SAPS      H16Y           28.8850445765       18.7033153973       -3.2927197050  MEMB      145             0.0000000000
     16756       145  SAPS      C317           27.5154085194       19.9938586624       -2.0643281631  MEMB      145             0.0000000000
     16757       145  SAPS      H17X           27.6973105963       19.6129851291       -1.0366273094  MEMB      145             0.0000000000
     16758       145  SAPS      H17Y           26.4077819526       20.0149468251       -2.1482296393  MEMB      145             0.0000000000
     16759       145  SAPS      C318           28.0197894711       21.3816892479       -2.1833363808  MEMB      145             0.0000000000
     16760       145  SAPS      H18X           29.1239371592       21.4231584577       -2.2993515218  MEMB      145             0.0000000000
     16761       145  SAPS      H18Y           27.7543250796       22.0330982817       -1.3233857203  MEMB      145             0.0000000000
     16762       145  SAPS      H18Z           27.5777924562       21.8582154437       -3.0843819165  MEMB      145             0.0000000000
     16763       146  CHL1      C3            -16.0545203682      -24.8589301373      -17.3420450000  MEMB      146             0.0000000000
     16764       146  CHL1      H3            -15.0465025593      -25.3258957360      -17.3297350000  MEMB      146             0.0000000000
     16765       146  CHL1      O3            -16.4714086318      -24.8152586627      -18.6579550000  MEMB      146             0.0000000000
     16766       146  CHL1      H3'           -16.1829092845      -25.6261195136      -19.0832450000  MEMB      146             0.0000000000
     16767       146  CHL1      C4            -16.9971684947      -25.7955573644      -16.6225850000  MEMB      146             0.0000000000
     16768       146  CHL1      H4A           -17.9854289813      -25.3111103722      -16.7741850000  MEMB      146             0.0000000000
     16769       146  CHL1      H4B           -16.9111292649      -26.8120989477      -17.0625350000  MEMB      146             0.0000000000
     16770       146  CHL1      C5            -16.6983570360      -25.9366600031      -15.1392750000  MEMB      146             0.0000000000
     16771       146  CHL1      C6            -16.4513149661      -27.1109661591      -14.5200050000  MEMB      146             0.0000000000
     16772       146  CHL1      H6            -16.5628943572      -28.0380372918      -15.1014550000  MEMB      146             0.0000000000
     16773       146  CHL1      C7            -16.0786998995      -27.3534853899      -13.0990550000  MEMB      146             0.0000000000
     16774       146  CHL1      H7A           -16.6737027604      -28.2199966573      -12.7392550000  MEMB      146             0.0000000000
     16775       146  CHL1      H7B           -15.0203041426      -27.6533612631      -12.9435350000  MEMB      146             0.0000000000
     16776       146  CHL1      C8            -16.2838876835      -26.0268859466      -12.2699750000  MEMB      146             0.0000000000
     16777       146  CHL1      H8            -17.3593676260      -25.9696693230      -11.9972550000  MEMB      146             0.0000000000
     16778       146  CHL1      C14           -15.4214819297      -26.0682659327      -10.9697550000  MEMB      146             0.0000000000
     16779       146  CHL1      H14           -14.3754304755      -25.9329992389      -11.3187550000  MEMB      146             0.0000000000
     16780       146  CHL1      C15           -15.4838427995      -27.3507033847      -10.1921450000  MEMB      146             0.0000000000
     16781       146  CHL1      H15A          -16.5338855100      -27.7105187538      -10.2395850000  MEMB      146             0.0000000000
     16782       146  CHL1      H15B          -14.9434226861      -28.1762033624      -10.7028450000  MEMB      146             0.0000000000
     16783       146  CHL1      C16           -14.9409342013      -26.9092220295       -8.7810950000  MEMB      146             0.0000000000
     16784       146  CHL1      H16A          -15.6248285402      -27.1256868899       -7.9327150000  MEMB      146             0.0000000000
     16785       146  CHL1      H16B          -14.0445437724      -27.5422491485       -8.6076750000  MEMB      146             0.0000000000
     16786       146  CHL1      C17           -14.7434495449      -25.3751586360       -8.8212050000  MEMB      146             0.0000000000
     16787       146  CHL1      H17           -13.7651187356      -25.1990038174       -9.3173550000  MEMB      146             0.0000000000
     16788       146  CHL1      C13           -15.6406672910      -24.9813345939      -10.0066350000  MEMB      146             0.0000000000
     16789       146  CHL1      C18           -17.1713217294      -24.9900485345       -9.5440550000  MEMB      146             0.0000000000
     16790       146  CHL1      H18A          -17.4036696750      -24.1529831328       -8.8514850000  MEMB      146             0.0000000000
     16791       146  CHL1      H18B          -17.8391313478      -24.8715077514      -10.4239950000  MEMB      146             0.0000000000
     16792       146  CHL1      H18C          -17.3839212926      -25.8811718244       -8.9155450000  MEMB      146             0.0000000000
     16793       146  CHL1      C12           -15.4438961541      -23.5831882287      -10.6445550000  MEMB      146             0.0000000000
     16794       146  CHL1      H12A          -15.7973784129      -22.7203557421      -10.0404950000  MEMB      146             0.0000000000
     16795       146  CHL1      H12B          -14.3537155381      -23.4308776744      -10.7949650000  MEMB      146             0.0000000000
     16796       146  CHL1      C11           -16.1182611395      -23.5029009064      -12.0367150000  MEMB      146             0.0000000000
     16797       146  CHL1      H11A          -17.1990609152      -23.3301083620      -11.8461050000  MEMB      146             0.0000000000
     16798       146  CHL1      H11B          -15.7114619405      -22.6188724667      -12.5727450000  MEMB      146             0.0000000000
     16799       146  CHL1      C9            -15.9164194903      -24.7292648531      -12.9599050000  MEMB      146             0.0000000000
     16800       146  CHL1      H9            -14.8235876289      -24.7578381911      -13.1579450000  MEMB      146             0.0000000000
     16801       146  CHL1      C10           -16.5211316694      -24.5570534481      -14.4552750000  MEMB      146             0.0000000000
     16802       146  CHL1      C19           -17.9542045290      -24.0464406553      -14.2931750000  MEMB      146             0.0000000000
     16803       146  CHL1      H19A          -18.0208932367      -23.0889007525      -13.7337150000  MEMB      146             0.0000000000
     16804       146  CHL1      H19B          -18.4656232473      -23.7808798081      -15.2430450000  MEMB      146             0.0000000000
     16805       146  CHL1      H19C          -18.6448047274      -24.7758422073      -13.8184350000  MEMB      146             0.0000000000
     16806       146  CHL1      C1            -15.5312303542      -23.6281702417      -15.2255350000  MEMB      146             0.0000000000
     16807       146  CHL1      H1A           -15.3798122769      -22.6198803871      -14.7842350000  MEMB      146             0.0000000000
     16808       146  CHL1      H1B           -14.5260337098      -24.0894461363      -15.3309850000  MEMB      146             0.0000000000
     16809       146  CHL1      C2            -16.0309492882      -23.4579181640      -16.7077850000  MEMB      146             0.0000000000
     16810       146  CHL1      H2A           -15.4007098532      -22.7364530246      -17.2704650000  MEMB      146             0.0000000000
     16811       146  CHL1      H2B           -17.0612773668      -23.0453862127      -16.7584350000  MEMB      146             0.0000000000
     16812       146  CHL1      C20           -14.8300202845      -24.6936292054       -7.3853150000  MEMB      146             0.0000000000
     16813       146  CHL1      H20           -15.8809071648      -24.4118293736       -7.1604850000  MEMB      146             0.0000000000
     16814       146  CHL1      C21           -14.1084516603      -23.3412938352       -7.4431450000  MEMB      146             0.0000000000
     16815       146  CHL1      H21A          -14.5487498367      -22.7920208213       -8.3026550000  MEMB      146             0.0000000000
     16816       146  CHL1      H21B          -13.0401548799      -23.5252270129       -7.6864950000  MEMB      146             0.0000000000
     16817       146  CHL1      H21C          -14.1691541474      -22.7485643332       -6.5054350000  MEMB      146             0.0000000000
     16818       146  CHL1      C22           -14.2581372221      -25.6791670606       -6.2908050000  MEMB      146             0.0000000000
     16819       146  CHL1      H22A          -15.0022412221      -26.4785442956       -6.0868050000  MEMB      146             0.0000000000
     16820       146  CHL1      H22B          -13.3256913900      -26.1552370999       -6.6625750000  MEMB      146             0.0000000000
     16821       146  CHL1      C23           -14.1301414144      -24.9794047818       -4.9150650000  MEMB      146             0.0000000000
     16822       146  CHL1      H23A          -13.5526930848      -24.0391711234       -5.0447850000  MEMB      146             0.0000000000
     16823       146  CHL1      H23B          -15.1305253198      -24.5111938642       -4.7953050000  MEMB      146             0.0000000000
     16824       146  CHL1      C24           -13.6822292917      -25.8730927802       -3.7715750000  MEMB      146             0.0000000000
     16825       146  CHL1      H24A          -14.3975409719      -26.7217211595       -3.7217750000  MEMB      146             0.0000000000
     16826       146  CHL1      H24B          -12.6768685981      -26.3038443961       -3.9665750000  MEMB      146             0.0000000000
     16827       146  CHL1      C25           -13.5840447910      -25.2356316158       -2.3718450000  MEMB      146             0.0000000000
     16828       146  CHL1      H25           -13.1405925762      -24.2374777862       -2.5752250000  MEMB      146             0.0000000000
     16829       146  CHL1      C26           -14.9376731270      -24.9953714888       -1.8647850000  MEMB      146             0.0000000000
     16830       146  CHL1      H26A          -15.7602826378      -24.7583714055       -2.5729250000  MEMB      146             0.0000000000
     16831       146  CHL1      H26B          -15.2738414272      -26.0012509993       -1.5338550000  MEMB      146             0.0000000000
     16832       146  CHL1      H26C          -15.0138795155      -24.2469015038       -1.0472850000  MEMB      146             0.0000000000
     16833       146  CHL1      C27           -12.7391966981      -25.9629861211       -1.3030150000  MEMB      146             0.0000000000
     16834       146  CHL1      H27A          -11.7321190082      -26.1154877374       -1.7467150000  MEMB      146             0.0000000000
     16835       146  CHL1      H27B          -12.6121846869      -25.3524494072       -0.3835350000  MEMB      146             0.0000000000
     16836       146  CHL1      H27C          -13.1465447105      -26.9718535852       -1.0781550000  MEMB      146             0.0000000000
     16837       147  CHL1      C3             28.1335008071       11.5595830795      -17.3509500000  MEMB      147             0.0000000000
     16838       147  CHL1      H3             27.7042652074       10.5354524830      -17.3156900000  MEMB      147             0.0000000000
     16839       147  CHL1      O3             28.1059695929       12.0062047205      -18.6490500000  MEMB      147             0.0000000000
     16840       147  CHL1      H3'            28.8651968627       11.5708201029      -19.0435300000  MEMB      147             0.0000000000
     16841       147  CHL1      C4             27.3382642826       12.4799988594      -16.4334200000  MEMB      147             0.0000000000
     16842       147  CHL1      H4A            27.6471194248       13.5284133281      -16.6328300000  MEMB      147             0.0000000000
     16843       147  CHL1      H4B            26.2668470310       12.3347745100      -16.6889500000  MEMB      147             0.0000000000
     16844       147  CHL1      C5             27.4325761733       12.0399585366      -14.9739600000  MEMB      147             0.0000000000
     16845       147  CHL1      C6             26.3847131378       11.7055751987      -14.2113100000  MEMB      147             0.0000000000
     16846       147  CHL1      H6             25.3864231018       11.8491013753      -14.6504100000  MEMB      147             0.0000000000
     16847       147  CHL1      C7             26.5288450754       11.3458984983      -12.7736700000  MEMB      147             0.0000000000
     16848       147  CHL1      H7A            25.7049989337       11.8095333036      -12.1900200000  MEMB      147             0.0000000000
     16849       147  CHL1      H7B            26.3057419622       10.2655112536      -12.6421200000  MEMB      147             0.0000000000
     16850       147  CHL1      C8             27.8904595230       11.6126611804      -12.0690900000  MEMB      147             0.0000000000
     16851       147  CHL1      H8             27.8851464744       12.7003694961      -11.8428700000  MEMB      147             0.0000000000
     16852       147  CHL1      C14            28.0306322685       10.8196588277      -10.8039000000  MEMB      147             0.0000000000
     16853       147  CHL1      H14            28.1246101689        9.7566720360      -11.1130100000  MEMB      147             0.0000000000
     16854       147  CHL1      C15            26.9387462096       10.7372644912       -9.6454500000  MEMB      147             0.0000000000
     16855       147  CHL1      H15A           26.4387440998       11.7288108640       -9.6113400000  MEMB      147             0.0000000000
     16856       147  CHL1      H15B           26.2207148485        9.9299604900       -9.9043100000  MEMB      147             0.0000000000
     16857       147  CHL1      C16            27.6535465123       10.4834801079       -8.3544700000  MEMB      147             0.0000000000
     16858       147  CHL1      H16A           27.4698073861       11.4030495640       -7.7586900000  MEMB      147             0.0000000000
     16859       147  CHL1      H16B           27.3431698794        9.5727188657       -7.7990400000  MEMB      147             0.0000000000
     16860       147  CHL1      C17            29.1641696248       10.3862888088       -8.7129200000  MEMB      147             0.0000000000
     16861       147  CHL1      H17            29.3376138427        9.3524774122       -9.0809800000  MEMB      147             0.0000000000
     16862       147  CHL1      C13            29.4102669189       11.1324661869      -10.0480100000  MEMB      147             0.0000000000
     16863       147  CHL1      C18            29.4333584343       12.6393191856       -9.5919000000  MEMB      147             0.0000000000
     16864       147  CHL1      H18A           29.5439156034       13.2299360448      -10.5263900000  MEMB      147             0.0000000000
     16865       147  CHL1      H18B           28.5781415410       12.9006588794       -8.9326400000  MEMB      147             0.0000000000
     16866       147  CHL1      H18C           30.3727632982       12.7828794381       -9.0163600000  MEMB      147             0.0000000000
     16867       147  CHL1      C12            30.5676821112       10.6716676893      -11.0595200000  MEMB      147             0.0000000000
     16868       147  CHL1      H12A           31.6201951464       10.8031609535      -10.7290000000  MEMB      147             0.0000000000
     16869       147  CHL1      H12B           30.4090798441        9.6205833686      -11.3826300000  MEMB      147             0.0000000000
     16870       147  CHL1      C11            30.4756320686       11.5280418217      -12.3356000000  MEMB      147             0.0000000000
     16871       147  CHL1      H11A           30.7418808566       12.6021902170      -12.2374300000  MEMB      147             0.0000000000
     16872       147  CHL1      H11B           31.1785002133       11.1311278412      -13.0989800000  MEMB      147             0.0000000000
     16873       147  CHL1      C9             29.0818409490       11.2839385699      -12.9954800000  MEMB      147             0.0000000000
     16874       147  CHL1      H9             29.1431609609       10.1850376025      -13.1471200000  MEMB      147             0.0000000000
     16875       147  CHL1      C10            28.8611902310       12.0011730373      -14.4318800000  MEMB      147             0.0000000000
     16876       147  CHL1      C19            29.2941218339       13.4768247947      -14.3729800000  MEMB      147             0.0000000000
     16877       147  CHL1      H19A           29.1455321333       13.9541286809      -15.3651600000  MEMB      147             0.0000000000
     16878       147  CHL1      H19B           28.7122475039       14.1427543683      -13.7004600000  MEMB      147             0.0000000000
     16879       147  CHL1      H19C           30.3539018395       13.5916288186      -14.0599200000  MEMB      147             0.0000000000
     16880       147  CHL1      C1             29.7129184658       11.2059027613      -15.4786600000  MEMB      147             0.0000000000
     16881       147  CHL1      H1A            30.7765513845       11.4980991145      -15.3458800000  MEMB      147             0.0000000000
     16882       147  CHL1      H1B            29.6737409574       10.1014471908      -15.3648200000  MEMB      147             0.0000000000
     16883       147  CHL1      C2             29.6057705709       11.6383835872      -16.9127300000  MEMB      147             0.0000000000
     16884       147  CHL1      H2A            30.3074667044       11.1059796063      -17.5898500000  MEMB      147             0.0000000000
     16885       147  CHL1      H2B            29.9804126554       12.6838356539      -16.8814700000  MEMB      147             0.0000000000
     16886       147  CHL1      C20            30.0707240100       10.4944743380       -7.4406900000  MEMB      147             0.0000000000
     16887       147  CHL1      H20            29.8456402545       11.5214353215       -7.0815100000  MEMB      147             0.0000000000
     16888       147  CHL1      C21            31.6144327235       10.5445391298       -7.7950600000  MEMB      147             0.0000000000
     16889       147  CHL1      H21A           32.2801131206       10.5253104983       -6.9057800000  MEMB      147             0.0000000000
     16890       147  CHL1      H21B           31.9381704739       11.4037718698       -8.4205400000  MEMB      147             0.0000000000
     16891       147  CHL1      H21C           31.8348294574        9.5886420974       -8.3166100000  MEMB      147             0.0000000000
     16892       147  CHL1      C22            29.6540159677        9.5885365146       -6.2931700000  MEMB      147             0.0000000000
     16893       147  CHL1      H22A           28.5797759575        9.7834645748       -6.0874200000  MEMB      147             0.0000000000
     16894       147  CHL1      H22B           29.8669784428        8.5013251082       -6.3765000000  MEMB      147             0.0000000000
     16895       147  CHL1      C23            30.3651101735       10.0329990562       -4.9508100000  MEMB      147             0.0000000000
     16896       147  CHL1      H23A           31.4447256301        9.7964811585       -5.0639900000  MEMB      147             0.0000000000
     16897       147  CHL1      H23B           30.3254509223       11.1413888142       -4.8858500000  MEMB      147             0.0000000000
     16898       147  CHL1      C24            29.5988841929        9.3440728297       -3.7431600000  MEMB      147             0.0000000000
     16899       147  CHL1      H24A           28.5101639149        9.5312659017       -3.8612700000  MEMB      147             0.0000000000
     16900       147  CHL1      H24B           29.8040549564        8.2524009604       -3.7649700000  MEMB      147             0.0000000000
     16901       147  CHL1      C25            30.0159752882        9.9431107296       -2.4205900000  MEMB      147             0.0000000000
     16902       147  CHL1      H25            29.8460114776       11.0336616783       -2.5476000000  MEMB      147             0.0000000000
     16903       147  CHL1      C26            29.1990200546        9.3947628507       -1.2635700000  MEMB      147             0.0000000000
     16904       147  CHL1      H26A           29.3914002313        8.3116948112       -1.1077800000  MEMB      147             0.0000000000
     16905       147  CHL1      H26B           29.4167372998        9.9052901507       -0.3011300000  MEMB      147             0.0000000000
     16906       147  CHL1      H26C           28.1036938924        9.5652383633       -1.3377700000  MEMB      147             0.0000000000
     16907       147  CHL1      C27            31.4560726114        9.5223122841       -2.0183800000  MEMB      147             0.0000000000
     16908       147  CHL1      H27A           32.2055564185       10.1186170458       -2.5814000000  MEMB      147             0.0000000000
     16909       147  CHL1      H27B           31.6065824148        9.6625484032       -0.9265900000  MEMB      147             0.0000000000
     16910       147  CHL1      H27C           31.6303610616        8.4931863620       -2.3989600000  MEMB      147             0.0000000000
     16911       148  CHL1      C3            -28.5311208867       12.8296281298      -17.3453650000  MEMB      148             0.0000000000
     16912       148  CHL1      H3            -27.6726466857       13.5171196838      -17.1882450000  MEMB      148             0.0000000000
     16913       148  CHL1      O3            -28.5492189133       12.3311204702      -18.6546350000  MEMB      148             0.0000000000
     16914       148  CHL1      H3'           -28.7936769386       13.1073646275      -19.1638350000  MEMB      148             0.0000000000
     16915       148  CHL1      C4            -28.3366840588       11.6237827711      -16.4619050000  MEMB      148             0.0000000000
     16916       148  CHL1      H4A           -29.1364140079       10.8729513830      -16.6380450000  MEMB      148             0.0000000000
     16917       148  CHL1      H4B           -27.3517568251       11.1494756607      -16.6601150000  MEMB      148             0.0000000000
     16918       148  CHL1      C5            -28.4118428200       11.9085772905      -14.9508150000  MEMB      148             0.0000000000
     16919       148  CHL1      C6            -27.3237430106       11.5891828258      -14.1552450000  MEMB      148             0.0000000000
     16920       148  CHL1      H6            -26.4812250459       11.0052764995      -14.5542650000  MEMB      148             0.0000000000
     16921       148  CHL1      C7            -27.3180625606       11.8190475090      -12.6617850000  MEMB      148             0.0000000000
     16922       148  CHL1      H7A           -27.1064902711       10.8576089521      -12.1468350000  MEMB      148             0.0000000000
     16923       148  CHL1      H7B           -26.5835868403       12.6320964574      -12.4778950000  MEMB      148             0.0000000000
     16924       148  CHL1      C8            -28.7194623876       12.2722918787      -12.1349750000  MEMB      148             0.0000000000
     16925       148  CHL1      H8            -29.3029925939       11.3279937261      -12.0890450000  MEMB      148             0.0000000000
     16926       148  CHL1      C14           -28.4960283247       12.8351390188      -10.7381150000  MEMB      148             0.0000000000
     16927       148  CHL1      H14           -27.9417533246       13.7891980890      -10.8679950000  MEMB      148             0.0000000000
     16928       148  CHL1      C15           -27.6789241204       12.0506781468       -9.6686150000  MEMB      148             0.0000000000
     16929       148  CHL1      H15A          -27.9155571078       10.9651775068       -9.6686450000  MEMB      148             0.0000000000
     16930       148  CHL1      H15B          -26.5759009690       12.1159843720       -9.7843150000  MEMB      148             0.0000000000
     16931       148  CHL1      C16           -28.0495381269       12.7087208824       -8.3338750000  MEMB      148             0.0000000000
     16932       148  CHL1      H16A          -28.4120981959       11.8435996422       -7.7385250000  MEMB      148             0.0000000000
     16933       148  CHL1      H16B          -27.2017084190       13.1248283881       -7.7487750000  MEMB      148             0.0000000000
     16934       148  CHL1      C17           -29.2907498666       13.5821631960       -8.6168450000  MEMB      148             0.0000000000
     16935       148  CHL1      H17           -28.8786715081       14.6051270928       -8.7512550000  MEMB      148             0.0000000000
     16936       148  CHL1      C13           -29.7841979373       13.1923063832      -10.0006950000  MEMB      148             0.0000000000
     16937       148  CHL1      C18           -30.7024848302       11.9127350930       -9.9105050000  MEMB      148             0.0000000000
     16938       148  CHL1      H18A          -31.2111514823       11.6293909878      -10.8567050000  MEMB      148             0.0000000000
     16939       148  CHL1      H18B          -30.1696185656       11.0666157123       -9.4262950000  MEMB      148             0.0000000000
     16940       148  CHL1      H18C          -31.5742845522       12.1474254362       -9.2630550000  MEMB      148             0.0000000000
     16941       148  CHL1      C12           -30.4788181749       14.3142452390      -10.8497750000  MEMB      148             0.0000000000
     16942       148  CHL1      H12A          -31.4154442277       14.5754763685      -10.3123650000  MEMB      148             0.0000000000
     16943       148  CHL1      H12B          -29.9032501981       15.2633764653      -10.8029450000  MEMB      148             0.0000000000
     16944       148  CHL1      C11           -30.7467456811       13.8435974367      -12.3137050000  MEMB      148             0.0000000000
     16945       148  CHL1      H11A          -31.5215387319       13.0616738696      -12.1632950000  MEMB      148             0.0000000000
     16946       148  CHL1      H11B          -31.1365898523       14.6321909685      -12.9922750000  MEMB      148             0.0000000000
     16947       148  CHL1      C9            -29.4397852465       13.2868991467      -13.0477950000  MEMB      148             0.0000000000
     16948       148  CHL1      H9            -28.7237729804       14.1300816189      -13.1511150000  MEMB      148             0.0000000000
     16949       148  CHL1      C10           -29.6417713665       12.7834408889      -14.4507650000  MEMB      148             0.0000000000
     16950       148  CHL1      C19           -30.8118432951       11.7802954817      -14.3425050000  MEMB      148             0.0000000000
     16951       148  CHL1      H19A          -30.7575489682       11.0726047567      -13.4877950000  MEMB      148             0.0000000000
     16952       148  CHL1      H19B          -31.7152565176       12.4266139711      -14.3634750000  MEMB      148             0.0000000000
     16953       148  CHL1      H19C          -30.8801316928       11.1126415376      -15.2278950000  MEMB      148             0.0000000000
     16954       148  CHL1      C1            -29.8894776987       13.9845876188      -15.4387150000  MEMB      148             0.0000000000
     16955       148  CHL1      H1A           -30.8084084863       14.5417712542      -15.1568950000  MEMB      148             0.0000000000
     16956       148  CHL1      H1B           -29.0402763377       14.6790941952      -15.2630950000  MEMB      148             0.0000000000
     16957       148  CHL1      C2            -29.8274259046       13.5372361976      -16.9871750000  MEMB      148             0.0000000000
     16958       148  CHL1      H2A           -29.9221081362       14.5028437928      -17.5284350000  MEMB      148             0.0000000000
     16959       148  CHL1      H2B           -30.6946919007       12.8939705595      -17.2486650000  MEMB      148             0.0000000000
     16960       148  CHL1      C20           -30.3007849747       13.6733383727       -7.4103450000  MEMB      148             0.0000000000
     16961       148  CHL1      H20           -30.6797119094       12.6338402661       -7.3094550000  MEMB      148             0.0000000000
     16962       148  CHL1      C21           -31.6443586500       14.4378892102       -7.6225050000  MEMB      148             0.0000000000
     16963       148  CHL1      H21A          -31.5789740122       15.5083773200       -7.9125050000  MEMB      148             0.0000000000
     16964       148  CHL1      H21B          -32.2579821882       14.3529521540       -6.7002350000  MEMB      148             0.0000000000
     16965       148  CHL1      H21C          -32.1214024017       13.8511745980       -8.4364450000  MEMB      148             0.0000000000
     16966       148  CHL1      C22           -29.5848735363       14.2992037118       -6.2320850000  MEMB      148             0.0000000000
     16967       148  CHL1      H22A          -28.4956804988       14.0851919225       -6.1854250000  MEMB      148             0.0000000000
     16968       148  CHL1      H22B          -29.6601852452       15.4070197845       -6.2695050000  MEMB      148             0.0000000000
     16969       148  CHL1      C23           -30.0692642497       13.9168064083       -4.8347650000  MEMB      148             0.0000000000
     16970       148  CHL1      H23A          -29.6790791143       14.6434441022       -4.0904050000  MEMB      148             0.0000000000
     16971       148  CHL1      H23B          -31.1777768904       13.9075473374       -4.9085350000  MEMB      148             0.0000000000
     16972       148  CHL1      C24           -29.6336820163       12.4919981065       -4.5219150000  MEMB      148             0.0000000000
     16973       148  CHL1      H24A          -30.1061080506       11.7470791037       -5.1973750000  MEMB      148             0.0000000000
     16974       148  CHL1      H24B          -28.5291049755       12.4094848850       -4.6080650000  MEMB      148             0.0000000000
     16975       148  CHL1      C25           -29.8236872571       12.0380941132       -3.0954850000  MEMB      148             0.0000000000
     16976       148  CHL1      H25           -30.8826518023       12.2992017279       -2.8839450000  MEMB      148             0.0000000000
     16977       148  CHL1      C26           -29.4937829840       10.5394254899       -2.8910150000  MEMB      148             0.0000000000
     16978       148  CHL1      H26A          -28.4688680542       10.3080327433       -3.2520350000  MEMB      148             0.0000000000
     16979       148  CHL1      H26B          -29.4681066877       10.1996915341       -1.8335450000  MEMB      148             0.0000000000
     16980       148  CHL1      H26C          -30.2769493750        9.9276904819       -3.3877450000  MEMB      148             0.0000000000
     16981       148  CHL1      C27           -28.9007531620       12.7840169247       -2.0842650000  MEMB      148             0.0000000000
     16982       148  CHL1      H27A          -29.2010033491       12.5380599446       -1.0432750000  MEMB      148             0.0000000000
     16983       148  CHL1      H27B          -27.8544838820       12.4220098515       -2.1770150000  MEMB      148             0.0000000000
     16984       148  CHL1      H27C          -28.9734577570       13.8811089190       -2.2436750000  MEMB      148             0.0000000000
     16985       149  SOPE      N              18.4383845289       25.2129484135      -23.5548560141  MEMB      149             0.0000000000
     16986       149  SOPE      HN1            18.8391236436       25.7309651116      -24.3627338405  MEMB      149             0.0000000000
     16987       149  SOPE      HN2            19.1252756851       24.4534107614      -23.3735190891  MEMB      149             0.0000000000
     16988       149  SOPE      HN3            17.4961548605       24.8585549272      -23.8160236734  MEMB      149             0.0000000000
     16989       149  SOPE      C12            18.4691070984       26.2099859174      -22.4519713554  MEMB      149             0.0000000000
     16990       149  SOPE      H12A           18.0229352013       27.1626695858      -22.8092463131  MEMB      149             0.0000000000
     16991       149  SOPE      H12B           19.5486378945       26.3978143024      -22.2685186492  MEMB      149             0.0000000000
     16992       149  SOPE      C11            17.8931586032       25.7017612236      -21.1307308388  MEMB      149             0.0000000000
     16993       149  SOPE      H11A           16.7911146819       25.8272441909      -21.1945601757  MEMB      149             0.0000000000
     16994       149  SOPE      H11B           18.2970235333       26.4928401574      -20.4633416039  MEMB      149             0.0000000000
     16995       149  SOPE      P              19.7640762590       24.0978920821      -20.1919330675  MEMB      149             0.0000000000
     16996       149  SOPE      O13            20.4064487907       25.2117792980      -19.4053884490  MEMB      149             0.0000000000
     16997       149  SOPE      O14            20.5234851277       23.5980572075      -21.3637832065  MEMB      149             0.0000000000
     16998       149  SOPE      O12            18.2553198597       24.4369567971      -20.6634835893  MEMB      149             0.0000000000
     16999       149  SOPE      O11            19.5523205265       22.9210046664      -19.2378534761  MEMB      149             0.0000000000
     17000       149  SOPE      C1             19.0413276209       21.6613351056      -19.6673352089  MEMB      149             0.0000000000
     17001       149  SOPE      HA             19.7813434584       21.1784849530      -20.3407988451  MEMB      149             0.0000000000
     17002       149  SOPE      HB             18.1592380555       21.8428865125      -20.3179334120  MEMB      149             0.0000000000
     17003       149  SOPE      C2             18.7821024446       20.8009949073      -18.4548781572  MEMB      149             0.0000000000
     17004       149  SOPE      HS             18.0213677309       21.3534483075      -17.8629332093  MEMB      149             0.0000000000
     17005       149  SOPE      O21            19.9825299960       20.6018451204      -17.7134989107  MEMB      149             0.0000000000
     17006       149  SOPE      C21            20.0604371855       21.2959195345      -16.5380415631  MEMB      149             0.0000000000
     17007       149  SOPE      O22            19.1836866037       21.9374800549      -16.0079836331  MEMB      149             0.0000000000
     17008       149  SOPE      C22            21.4794327257       21.2774257423      -15.9965813548  MEMB      149             0.0000000000
     17009       149  SOPE      H2R            22.0956619617       21.6617036693      -16.8373626253  MEMB      149             0.0000000000
     17010       149  SOPE      H2S            21.8632250361       20.2710084640      -15.7242799760  MEMB      149             0.0000000000
     17011       149  SOPE      C3             18.1588420011       19.4389089644      -18.8893566043  MEMB      149             0.0000000000
     17012       149  SOPE      HX             19.0637760089       18.8549864934      -19.1622120368  MEMB      149             0.0000000000
     17013       149  SOPE      HY             17.5038808236       19.6723624519      -19.7558704284  MEMB      149             0.0000000000
     17014       149  SOPE      O31            17.4105622907       18.8781179373      -17.8258394043  MEMB      149             0.0000000000
     17015       149  SOPE      C31            17.9553874367       17.9326054741      -16.9852076922  MEMB      149             0.0000000000
     17016       149  SOPE      O32            19.0711417341       17.4435759223      -17.0649759924  MEMB      149             0.0000000000
     17017       149  SOPE      C32            17.1260859357       17.6559078010      -15.7401034857  MEMB      149             0.0000000000
     17018       149  SOPE      H2X            16.6420878414       16.6615844301      -15.8468178693  MEMB      149             0.0000000000
     17019       149  SOPE      H2Y            16.2855413655       18.3819199816      -15.7667877794  MEMB      149             0.0000000000
     17020       149  SOPE      C23            21.6062384288       22.3775966100      -14.9201393321  MEMB      149             0.0000000000
     17021       149  SOPE      H3R            21.1051164317       23.2834882208      -15.3233238349  MEMB      149             0.0000000000
     17022       149  SOPE      H3S            22.6824947886       22.6315178140      -14.8128198249  MEMB      149             0.0000000000
     17023       149  SOPE      C24            21.1422606371       22.0816428834      -13.4329966110  MEMB      149             0.0000000000
     17024       149  SOPE      H4R            21.1864214056       23.0955060742      -12.9808324515  MEMB      149             0.0000000000
     17025       149  SOPE      H4S            20.0678463364       21.7989498399      -13.4267048816  MEMB      149             0.0000000000
     17026       149  SOPE      C25            21.9744667419       20.9585088701      -12.8055566924  MEMB      149             0.0000000000
     17027       149  SOPE      H5R            21.7405764081       19.9612879893      -13.2358668890  MEMB      149             0.0000000000
     17028       149  SOPE      H5S            23.0197154721       21.2257962182      -13.0707612507  MEMB      149             0.0000000000
     17029       149  SOPE      C26            21.7850401336       20.8895445801      -11.2847601252  MEMB      149             0.0000000000
     17030       149  SOPE      H6R            20.7663935590       20.6747310294      -10.8967711691  MEMB      149             0.0000000000
     17031       149  SOPE      H6S            22.4038785991       20.0066325952      -11.0167559661  MEMB      149             0.0000000000
     17032       149  SOPE      C27            22.1529372418       22.1324993572      -10.4806136186  MEMB      149             0.0000000000
     17033       149  SOPE      H7R            23.0897684831       22.5022095675      -10.9496364116  MEMB      149             0.0000000000
     17034       149  SOPE      H7S            21.3816674726       22.9287620385      -10.5542994850  MEMB      149             0.0000000000
     17035       149  SOPE      C28            22.3840320105       21.7533337737       -8.9990637532  MEMB      149             0.0000000000
     17036       149  SOPE      H8R            23.1278816592       20.9421263256       -8.8475658221  MEMB      149             0.0000000000
     17037       149  SOPE      H8S            22.8203445625       22.6323188400       -8.4781627286  MEMB      149             0.0000000000
     17038       149  SOPE      C29            21.1409797450       21.5221376571       -8.1606660298  MEMB      149             0.0000000000
     17039       149  SOPE      H91            20.6130472414       22.4851844372       -8.0987948278  MEMB      149             0.0000000000
     17040       149  SOPE      C210           20.5315141467       20.4729447479       -7.5118612645  MEMB      149             0.0000000000
     17041       149  SOPE      H101           19.6662017136       20.6508966376       -6.8564476242  MEMB      149             0.0000000000
     17042       149  SOPE      C211           21.1855340324       19.0842910938       -7.4394066599  MEMB      149             0.0000000000
     17043       149  SOPE      H11R           21.8441810127       19.0159977201       -8.3315057727  MEMB      149             0.0000000000
     17044       149  SOPE      H11S           20.3614226905       18.4169945192       -7.7708834327  MEMB      149             0.0000000000
     17045       149  SOPE      C212           21.7757529192       18.7394349211       -6.0854200137  MEMB      149             0.0000000000
     17046       149  SOPE      H12R           22.6405981002       19.3819542221       -5.8142510342  MEMB      149             0.0000000000
     17047       149  SOPE      H12S           22.1736177769       17.7191940700       -6.2728583876  MEMB      149             0.0000000000
     17048       149  SOPE      C213           20.7671418059       18.6626532497       -4.9008950845  MEMB      149             0.0000000000
     17049       149  SOPE      H13R           19.9371593273       18.0241484035       -5.2720576810  MEMB      149             0.0000000000
     17050       149  SOPE      H13S           20.3518500040       19.6697875416       -4.6828710775  MEMB      149             0.0000000000
     17051       149  SOPE      C214           21.3721271761       18.1195706579       -3.6019098113  MEMB      149             0.0000000000
     17052       149  SOPE      H14R           22.1308453732       17.3410581990       -3.8312261952  MEMB      149             0.0000000000
     17053       149  SOPE      H14S           20.5163579163       17.6094706325       -3.1102011440  MEMB      149             0.0000000000
     17054       149  SOPE      C215           22.1225728916       19.1284297763       -2.6918303713  MEMB      149             0.0000000000
     17055       149  SOPE      H15R           21.4371618161       19.9780123410       -2.4850887209  MEMB      149             0.0000000000
     17056       149  SOPE      H15S           23.0635194318       19.5279265103       -3.1269659415  MEMB      149             0.0000000000
     17057       149  SOPE      C216           22.3730877680       18.5197710708       -1.3322768173  MEMB      149             0.0000000000
     17058       149  SOPE      H16R           21.4750218835       18.4738406090       -0.6798295525  MEMB      149             0.0000000000
     17059       149  SOPE      H16S           22.9249983893       19.2576634156       -0.7116078149  MEMB      149             0.0000000000
     17060       149  SOPE      C217           23.0870047988       17.2030197078       -1.3652301551  MEMB      149             0.0000000000
     17061       149  SOPE      H17R           22.4861718131       16.4346556210       -1.8971483182  MEMB      149             0.0000000000
     17062       149  SOPE      H17S           23.2461932229       16.7545169083       -0.3613234646  MEMB      149             0.0000000000
     17063       149  SOPE      C218           24.4118228292       17.1751666493       -2.1648533686  MEMB      149             0.0000000000
     17064       149  SOPE      H18R           25.2742003107       17.5078467051       -1.5484517839  MEMB      149             0.0000000000
     17065       149  SOPE      H18S           24.5129338184       17.7686847051       -3.0985729127  MEMB      149             0.0000000000
     17066       149  SOPE      H18T           24.5663842459       16.1138113357       -2.4546064733  MEMB      149             0.0000000000
     17067       149  SOPE      C33            17.9944910946       17.7822872310      -14.5277174141  MEMB      149             0.0000000000
     17068       149  SOPE      H3X            18.5391080847       18.7506210775      -14.5211772699  MEMB      149             0.0000000000
     17069       149  SOPE      H3Y            18.6739317856       16.9042127292      -14.4868945655  MEMB      149             0.0000000000
     17070       149  SOPE      C34            17.2588487165       17.8480853451      -13.2036294183  MEMB      149             0.0000000000
     17071       149  SOPE      H4X            16.5862275033       16.9665105057      -13.1348789465  MEMB      149             0.0000000000
     17072       149  SOPE      H4Y            16.6694489342       18.7804590236      -13.0709320717  MEMB      149             0.0000000000
     17073       149  SOPE      C35            18.1904543281       17.7069195780      -11.9467232835  MEMB      149             0.0000000000
     17074       149  SOPE      H5X            18.7616459815       18.6584689620      -11.8955838827  MEMB      149             0.0000000000
     17075       149  SOPE      H5Y            18.8193295410       16.8153933632      -12.1565276990  MEMB      149             0.0000000000
     17076       149  SOPE      C36            17.4136876217       17.5345335000      -10.6716015785  MEMB      149             0.0000000000
     17077       149  SOPE      H6X            16.8376046663       16.5892728970      -10.7661125087  MEMB      149             0.0000000000
     17078       149  SOPE      H6Y            16.5997897570       18.2465501338      -10.4168004111  MEMB      149             0.0000000000
     17079       149  SOPE      C37            18.2524711487       17.4909955282       -9.3732629114  MEMB      149             0.0000000000
     17080       149  SOPE      H7X            18.5828781858       18.4888167367       -9.0133947578  MEMB      149             0.0000000000
     17081       149  SOPE      H7Y            19.1231513099       16.8227388657       -9.5455128574  MEMB      149             0.0000000000
     17082       149  SOPE      C38            17.4580870645       17.0002602534       -8.1629318203  MEMB      149             0.0000000000
     17083       149  SOPE      H8X            18.2509610174       16.6861102347       -7.4509060340  MEMB      149             0.0000000000
     17084       149  SOPE      H8Y            16.8749868573       16.0721107635       -8.3441854065  MEMB      149             0.0000000000
     17085       149  SOPE      C39            16.5859525067       18.1143700100       -7.5781980299  MEMB      149             0.0000000000
     17086       149  SOPE      H9X            15.5077103503       17.8878398954       -7.4353732216  MEMB      149             0.0000000000
     17087       149  SOPE      H9Y            16.7017573707       18.9621865113       -8.2868006659  MEMB      149             0.0000000000
     17088       149  SOPE      C310           17.2224874402       18.6683279890       -6.2708652434  MEMB      149             0.0000000000
     17089       149  SOPE      H10X           18.2457254061       19.0836009571       -6.3927389848  MEMB      149             0.0000000000
     17090       149  SOPE      H10Y           17.2290643866       17.8977988064       -5.4705135698  MEMB      149             0.0000000000
     17091       149  SOPE      C311           16.3796773427       19.8227906453       -5.6269124801  MEMB      149             0.0000000000
     17092       149  SOPE      H11X           15.4491423015       19.3638627610       -5.2296579064  MEMB      149             0.0000000000
     17093       149  SOPE      H11Y           16.1873295160       20.6407601806       -6.3537203525  MEMB      149             0.0000000000
     17094       149  SOPE      C312           17.0760355978       20.4102968597       -4.3569122316  MEMB      149             0.0000000000
     17095       149  SOPE      H12X           18.0478301306       20.8822856502       -4.6160706657  MEMB      149             0.0000000000
     17096       149  SOPE      H12Y           17.1384846938       19.5500371311       -3.6566448875  MEMB      149             0.0000000000
     17097       149  SOPE      C313           16.0552006227       21.4660230654       -3.7569691185  MEMB      149             0.0000000000
     17098       149  SOPE      H13X           15.0727356554       20.9827307472       -3.5685235571  MEMB      149             0.0000000000
     17099       149  SOPE      H13Y           15.8586346790       22.2508461834       -4.5183743530  MEMB      149             0.0000000000
     17100       149  SOPE      C314           16.7211384215       22.0230496608       -2.5299157100  MEMB      149             0.0000000000
     17101       149  SOPE      H14X           16.0158746234       22.7292527995       -2.0418579154  MEMB      149             0.0000000000
     17102       149  SOPE      H14Y           17.6031477107       22.5688415008       -2.9280261329  MEMB      149             0.0000000000
     17103       149  SOPE      C315           17.0184933023       21.0354509932       -1.4481631138  MEMB      149             0.0000000000
     17104       149  SOPE      H15X           17.6792387102       21.5932945748       -0.7506338217  MEMB      149             0.0000000000
     17105       149  SOPE      H15Y           17.4905655609       20.0755941440       -1.7484026989  MEMB      149             0.0000000000
     17106       149  SOPE      C316           15.8071232477       20.8482043918       -0.5218929864  MEMB      149             0.0000000000
     17107       149  SOPE      H16X           14.8991626552       20.6933898421       -1.1431500005  MEMB      149             0.0000000000
     17108       149  SOPE      H16Y           15.6236118286       21.8503993857       -0.0788914319  MEMB      149             0.0000000000
     17109       149  SOPE      C317           15.8004884216       19.7671212179        0.5040976591  MEMB      149             0.0000000000
     17110       149  SOPE      H17X           14.7971063071       19.6388154182        0.9635346128  MEMB      149             0.0000000000
     17111       149  SOPE      H17Y           16.5156649830       19.9202344795        1.3403988543  MEMB      149             0.0000000000
     17112       149  SOPE      C318           16.2547131595       18.3844156908       -0.1082185420  MEMB      149             0.0000000000
     17113       149  SOPE      H18X           17.3265372048       18.2651310462       -0.3752129839  MEMB      149             0.0000000000
     17114       149  SOPE      H18Y           15.5886584099       18.0979900694       -0.9500334007  MEMB      149             0.0000000000
     17115       149  SOPE      H18Z           15.9901778181       17.6509931386        0.6832561313  MEMB      149             0.0000000000
     17116       150  SLPC      N             -23.4063301803       20.0150829720      -18.6935872370  MEMB      150             0.0000000000
     17117       150  SLPC      C13           -22.5877835441       20.1210906761      -17.4134350245  MEMB      150             0.0000000000
     17118       150  SLPC      H13A          -23.2394652327       20.0465136275      -16.5554436220  MEMB      150             0.0000000000
     17119       150  SLPC      H13B          -21.8080285694       19.3779456911      -17.3352189362  MEMB      150             0.0000000000
     17120       150  SLPC      H13C          -22.1213574087       21.0950954031      -17.4261428825  MEMB      150             0.0000000000
     17121       150  SLPC      C14           -22.4537783415       19.9058906983      -19.8603349846  MEMB      150             0.0000000000
     17122       150  SLPC      H14A          -21.7139803392       20.6838843931      -19.9779137798  MEMB      150             0.0000000000
     17123       150  SLPC      H14B          -21.8922143980       19.0003054559      -19.6843765484  MEMB      150             0.0000000000
     17124       150  SLPC      H14C          -23.0001977506       19.8063003262      -20.7865679537  MEMB      150             0.0000000000
     17125       150  SLPC      C15           -24.3178460217       21.1897949825      -18.9068839170  MEMB      150             0.0000000000
     17126       150  SLPC      H15A          -24.5038308143       21.3914235796      -19.9514678689  MEMB      150             0.0000000000
     17127       150  SLPC      H15B          -25.2937715799       20.9572207355      -18.5070359210  MEMB      150             0.0000000000
     17128       150  SLPC      H15C          -23.8372353284       22.0522414180      -18.4691630997  MEMB      150             0.0000000000
     17129       150  SLPC      C12           -24.3435666812       18.7839865600      -18.6597638308  MEMB      150             0.0000000000
     17130       150  SLPC      H12A          -23.6713525891       17.9728803721      -18.4217825081  MEMB      150             0.0000000000
     17131       150  SLPC      H12B          -24.7010738714       18.5990412568      -19.6619532707  MEMB      150             0.0000000000
     17132       150  SLPC      C11           -25.5382190266       18.8331400768      -17.6797416649  MEMB      150             0.0000000000
     17133       150  SLPC      H11A          -25.7703804334       17.7622423741      -17.4964381844  MEMB      150             0.0000000000
     17134       150  SLPC      H11B          -26.4129356598       19.3117843802      -18.1697328483  MEMB      150             0.0000000000
     17135       150  SLPC      P             -25.9861005533       19.0896389048      -15.1218357461  MEMB      150             0.0000000000
     17136       150  SLPC      O13           -25.2948733943       17.9665716708      -14.3604437020  MEMB      150             0.0000000000
     17137       150  SLPC      O14           -26.1695707778       20.3317982183      -14.3803107369  MEMB      150             0.0000000000
     17138       150  SLPC      O12           -25.2032826911       19.4296476308      -16.4635451675  MEMB      150             0.0000000000
     17139       150  SLPC      O11           -27.4101230472       18.5436252842      -15.4601179859  MEMB      150             0.0000000000
     17140       150  SLPC      C1            -27.8317146980       17.2025631599      -15.0165737571  MEMB      150             0.0000000000
     17141       150  SLPC      HA            -28.6356297503       16.8909038548      -15.7172233927  MEMB      150             0.0000000000
     17142       150  SLPC      HB            -26.9727548674       16.5011131928      -14.9496624987  MEMB      150             0.0000000000
     17143       150  SLPC      C2            -28.6381610590       17.2570546133      -13.6366648861  MEMB      150             0.0000000000
     17144       150  SLPC      HS            -29.5932091603       17.8123318319      -13.7544416286  MEMB      150             0.0000000000
     17145       150  SLPC      O21           -27.8987044686       17.8837534181      -12.5284157615  MEMB      150             0.0000000000
     17146       150  SLPC      C21           -28.5961704560       18.4405485725      -11.5781372148  MEMB      150             0.0000000000
     17147       150  SLPC      O22           -29.7963809863       18.5656122031      -11.5718603905  MEMB      150             0.0000000000
     17148       150  SLPC      C22           -27.7080087009       19.0713202396      -10.4906882471  MEMB      150             0.0000000000
     17149       150  SLPC      H2R           -26.8171499331       18.4275241837      -10.3287673648  MEMB      150             0.0000000000
     17150       150  SLPC      H2S           -27.3862611905       20.0890456717      -10.7989645537  MEMB      150             0.0000000000
     17151       150  SLPC      C3            -29.0567521280       15.8611956866      -13.2481805768  MEMB      150             0.0000000000
     17152       150  SLPC      HX            -29.6429225166       15.4230996623      -14.0841217900  MEMB      150             0.0000000000
     17153       150  SLPC      HY            -29.7674653238       15.9164326509      -12.3960322174  MEMB      150             0.0000000000
     17154       150  SLPC      O31           -27.9160792999       15.0301271805      -13.0742729927  MEMB      150             0.0000000000
     17155       150  SLPC      C31           -27.7232920070       14.3368308043      -11.9044577509  MEMB      150             0.0000000000
     17156       150  SLPC      O32           -28.5126260220       14.2714753809      -10.9934662348  MEMB      150             0.0000000000
     17157       150  SLPC      C32           -26.3646951086       13.7127966323      -11.9348694238  MEMB      150             0.0000000000
     17158       150  SLPC      H2X           -26.2589291495       12.9631604920      -12.7479992692  MEMB      150             0.0000000000
     17159       150  SLPC      H2Y           -26.2723234879       13.2041690873      -10.9514640754  MEMB      150             0.0000000000
     17160       150  SLPC      C23           -28.5119462114       18.9955982364       -9.1865708003  MEMB      150             0.0000000000
     17161       150  SLPC      H3R           -27.8523027922       19.2158132652       -8.3201430398  MEMB      150             0.0000000000
     17162       150  SLPC      H3S           -28.9545407598       17.9904333741       -9.0190138948  MEMB      150             0.0000000000
     17163       150  SLPC      C24           -29.4810829834       20.1709975182       -9.0322132145  MEMB      150             0.0000000000
     17164       150  SLPC      H4R           -30.2561158014       20.1344412746       -9.8273915951  MEMB      150             0.0000000000
     17165       150  SLPC      H4S           -28.8894350289       21.0944858110       -9.2095341574  MEMB      150             0.0000000000
     17166       150  SLPC      C25           -30.2338414255       20.2787348766       -7.6923070555  MEMB      150             0.0000000000
     17167       150  SLPC      H5R           -30.1487436820       21.2714976259       -7.2008790690  MEMB      150             0.0000000000
     17168       150  SLPC      H5S           -29.7997827296       19.4714267884       -7.0644794760  MEMB      150             0.0000000000
     17169       150  SLPC      C26           -31.6937750756       19.8790032894       -7.6228552187  MEMB      150             0.0000000000
     17170       150  SLPC      H6R           -31.7123560960       18.8953399708       -8.1389776739  MEMB      150             0.0000000000
     17171       150  SLPC      H6S           -32.2442118450       20.4926868879       -8.3676585131  MEMB      150             0.0000000000
     17172       150  SLPC      C27           -32.3634100449       20.0021991157       -6.2848595379  MEMB      150             0.0000000000
     17173       150  SLPC      H7R           -33.4166620577       19.6551665114       -6.3523111006  MEMB      150             0.0000000000
     17174       150  SLPC      H7S           -32.3193106961       21.0721920984       -5.9890707526  MEMB      150             0.0000000000
     17175       150  SLPC      C28           -31.8550214800       19.1828834710       -5.0837454995  MEMB      150             0.0000000000
     17176       150  SLPC      H8R           -32.4826807360       19.5136537680       -4.2287862652  MEMB      150             0.0000000000
     17177       150  SLPC      H8S           -30.8210444679       19.5207877623       -4.8578397830  MEMB      150             0.0000000000
     17178       150  SLPC      C29           -31.8334582283       17.6852592289       -5.2167159378  MEMB      150             0.0000000000
     17179       150  SLPC      H9R           -31.2756064590       17.3819756793       -6.1149471545  MEMB      150             0.0000000000
     17180       150  SLPC      C210          -32.0849202056       16.7378392186       -4.3099269197  MEMB      150             0.0000000000
     17181       150  SLPC      H10R          -31.8605403879       15.7247519696       -4.6750405007  MEMB      150             0.0000000000
     17182       150  SLPC      C211          -32.5254919366       16.9256522706       -2.9231376347  MEMB      150             0.0000000000
     17183       150  SLPC      H11R          -33.5591640639       17.3096122437       -3.0588500349  MEMB      150             0.0000000000
     17184       150  SLPC      H11S          -32.0442912518       17.8036612453       -2.4416117685  MEMB      150             0.0000000000
     17185       150  SLPC      C212          -32.4067875833       15.7533449246       -1.9926845038  MEMB      150             0.0000000000
     17186       150  SLPC      H12R          -33.2468805774       15.0456890474       -2.0515635774  MEMB      150             0.0000000000
     17187       150  SLPC      C213          -31.4983819806       15.5244749612       -0.9929811099  MEMB      150             0.0000000000
     17188       150  SLPC      H13R          -31.5059354892       14.6027286498       -0.3927097294  MEMB      150             0.0000000000
     17189       150  SLPC      C214          -30.3917357783       16.5369213720       -0.7597850438  MEMB      150             0.0000000000
     17190       150  SLPC      H14R          -30.2823642679       16.6934425120        0.3346822778  MEMB      150             0.0000000000
     17191       150  SLPC      H14S          -30.6278432708       17.5243816760       -1.2108906241  MEMB      150             0.0000000000
     17192       150  SLPC      C215          -28.9712507665       16.0662073696       -1.3008435497  MEMB      150             0.0000000000
     17193       150  SLPC      H15R          -28.9262394035       16.3356002268       -2.3777478650  MEMB      150             0.0000000000
     17194       150  SLPC      H15S          -28.8196029968       14.9731131612       -1.1725113068  MEMB      150             0.0000000000
     17195       150  SLPC      C216          -27.7817408953       16.7119603887       -0.5614061966  MEMB      150             0.0000000000
     17196       150  SLPC      H16R          -27.9169438107       16.6452491737        0.5393171123  MEMB      150             0.0000000000
     17197       150  SLPC      H16S          -27.8108915618       17.7763181040       -0.8786027181  MEMB      150             0.0000000000
     17198       150  SLPC      C217          -26.3551159103       16.0868412139       -0.9472546379  MEMB      150             0.0000000000
     17199       150  SLPC      H17R          -26.5422567702       15.8940768464       -2.0252815899  MEMB      150             0.0000000000
     17200       150  SLPC      H17S          -26.3328904428       15.1001141779       -0.4371594186  MEMB      150             0.0000000000
     17201       150  SLPC      C218          -25.0856102410       16.8428947691       -0.7353606958  MEMB      150             0.0000000000
     17202       150  SLPC      H18R          -24.3345617882       16.2502813714       -1.3002111244  MEMB      150             0.0000000000
     17203       150  SLPC      H18S          -24.7483543601       16.9788424479        0.3144474107  MEMB      150             0.0000000000
     17204       150  SLPC      H18T          -24.9552837020       17.8557303864       -1.1729677215  MEMB      150             0.0000000000
     17205       150  SLPC      C33           -25.2146495372       14.7461286678      -12.1472622017  MEMB      150             0.0000000000
     17206       150  SLPC      H3X           -25.3773974689       15.2254330531      -13.1362524349  MEMB      150             0.0000000000
     17207       150  SLPC      H3Y           -24.2919853408       14.1289411803      -12.1929984303  MEMB      150             0.0000000000
     17208       150  SLPC      C34           -25.0850795059       15.8848129561      -11.0389394007  MEMB      150             0.0000000000
     17209       150  SLPC      H4X           -25.8731035488       16.6460134184      -11.2230934243  MEMB      150             0.0000000000
     17210       150  SLPC      H4Y           -24.1629822974       16.4975751340      -11.1315691550  MEMB      150             0.0000000000
     17211       150  SLPC      C35           -25.0247239717       15.3282688905       -9.6205900757  MEMB      150             0.0000000000
     17212       150  SLPC      H5X           -24.2577408138       14.5396559721       -9.4651950004  MEMB      150             0.0000000000
     17213       150  SLPC      H5Y           -26.0092198878       14.8324252050       -9.4819248215  MEMB      150             0.0000000000
     17214       150  SLPC      C36           -24.9397524953       16.4404022375       -8.6267411608  MEMB      150             0.0000000000
     17215       150  SLPC      H6X           -25.3941374928       15.9387833325       -7.7456996797  MEMB      150             0.0000000000
     17216       150  SLPC      H6Y           -25.5357260329       17.2696012988       -9.0644232493  MEMB      150             0.0000000000
     17217       150  SLPC      C37           -23.5029570891       16.9658263499       -8.3538649558  MEMB      150             0.0000000000
     17218       150  SLPC      H7X           -22.9282700979       17.1487747723       -9.2869164744  MEMB      150             0.0000000000
     17219       150  SLPC      H7Y           -23.1376127190       16.0151885182       -7.9098697069  MEMB      150             0.0000000000
     17220       150  SLPC      C38           -23.6138785185       18.0568220681       -7.3001359458  MEMB      150             0.0000000000
     17221       150  SLPC      H8X           -22.5950666781       18.4261853058       -7.0553628943  MEMB      150             0.0000000000
     17222       150  SLPC      H8Y           -24.1370709687       17.7274844088       -6.3770284076  MEMB      150             0.0000000000
     17223       150  SLPC      C39           -24.3468813003       19.3273506200       -7.7519824063  MEMB      150             0.0000000000
     17224       150  SLPC      H9X           -25.4252349204       19.0911574075       -7.8772308247  MEMB      150             0.0000000000
     17225       150  SLPC      H9Y           -23.9803489249       19.5955980512       -8.7658943711  MEMB      150             0.0000000000
     17226       150  SLPC      C310          -24.2612056713       20.5728971589       -6.8781717618  MEMB      150             0.0000000000
     17227       150  SLPC      H10X          -24.9574664639       21.3099820749       -7.3323169520  MEMB      150             0.0000000000
     17228       150  SLPC      H10Y          -23.2230247748       20.9485495611       -7.0022176029  MEMB      150             0.0000000000
     17229       150  SLPC      C311          -24.7095469474       20.4618759071       -5.3711060385  MEMB      150             0.0000000000
     17230       150  SLPC      H11X          -24.2485733840       21.2633382463       -4.7550847419  MEMB      150             0.0000000000
     17231       150  SLPC      H11Y          -24.3108034398       19.4562807467       -5.1179203498  MEMB      150             0.0000000000
     17232       150  SLPC      C312          -26.2166321640       20.3312838517       -5.1948820309  MEMB      150             0.0000000000
     17233       150  SLPC      H12X          -26.6119042352       19.3945467657       -5.6427708973  MEMB      150             0.0000000000
     17234       150  SLPC      H12Y          -26.8337594646       21.0101362750       -5.8214878048  MEMB      150             0.0000000000
     17235       150  SLPC      C313          -26.7988926449       20.4249615893       -3.6954514550  MEMB      150             0.0000000000
     17236       150  SLPC      H13X          -26.3956383332       21.4045759106       -3.3606934087  MEMB      150             0.0000000000
     17237       150  SLPC      H13Y          -26.1318990203       19.7082207054       -3.1703582798  MEMB      150             0.0000000000
     17238       150  SLPC      C314          -28.2796721481       20.2530850050       -3.5873142149  MEMB      150             0.0000000000
     17239       150  SLPC      H14X          -28.6366179661       19.2591127335       -3.9321762343  MEMB      150             0.0000000000
     17240       150  SLPC      H14Y          -28.6258399244       21.2146056506       -4.0231661317  MEMB      150             0.0000000000
     17241       150  SLPC      C315          -28.8366033112       20.3950896132       -2.1382534583  MEMB      150             0.0000000000
     17242       150  SLPC      H15X          -28.6062700941       19.4129980351       -1.6726747335  MEMB      150             0.0000000000
     17243       150  SLPC      H15Y          -29.9442965573       20.4806863453       -2.1351827363  MEMB      150             0.0000000000
     17244       150  SLPC      C316          -28.1484281291       21.4566245780       -1.1785593848  MEMB      150             0.0000000000
     17245       150  SLPC      H16X          -28.4270490116       22.4650145123       -1.5525124661  MEMB      150             0.0000000000
     17246       150  SLPC      H16Y          -27.0473536331       21.4845038526       -1.3240899887  MEMB      150             0.0000000000
     17247       150  SLPC      C317          -28.4258386021       21.2149049840        0.2603143927  MEMB      150             0.0000000000
     17248       150  SLPC      H17X          -29.5028439358       21.4586509400        0.3826593745  MEMB      150             0.0000000000
     17249       150  SLPC      H17Y          -27.8398174531       21.8821310892        0.9279286525  MEMB      150             0.0000000000
     17250       150  SLPC      C318          -28.2755958811       19.7931186761        0.8400926631  MEMB      150             0.0000000000
     17251       150  SLPC      H18X          -28.3562845954       19.7339714652        1.9465788308  MEMB      150             0.0000000000
     17252       150  SLPC      H18Y          -27.3939436514       19.3508893049        0.3287767374  MEMB      150             0.0000000000
     17253       150  SLPC      H18Z          -29.1392606552       19.2614333261        0.3865344541  MEMB      150             0.0000000000
     17254       151  CHL1      C3            -27.8248437395      -14.8158818068      -17.3048650000  MEMB      151             0.0000000000
     17255       151  CHL1      H3            -27.5324743547      -15.6595584613      -16.6437750000  MEMB      151             0.0000000000
     17256       151  CHL1      O3            -27.7428976605      -15.2547869932      -18.6951350000  MEMB      151             0.0000000000
     17257       151  CHL1      H3'           -27.7979720577      -16.2129949016      -18.7148650000  MEMB      151             0.0000000000
     17258       151  CHL1      C4            -29.1927061248      -14.2620836268      -16.9615850000  MEMB      151             0.0000000000
     17259       151  CHL1      H4A           -29.4264177621      -13.3252014492      -17.5110750000  MEMB      151             0.0000000000
     17260       151  CHL1      H4B           -29.9769449094      -14.9731050372      -17.2988350000  MEMB      151             0.0000000000
     17261       151  CHL1      C5            -29.3024210514      -13.8962152093      -15.4731550000  MEMB      151             0.0000000000
     17262       151  CHL1      C6            -30.2757328202      -14.4659560879      -14.7066650000  MEMB      151             0.0000000000
     17263       151  CHL1      H6            -31.0572414437      -15.0330087092      -15.2336350000  MEMB      151             0.0000000000
     17264       151  CHL1      C7            -30.4809274747      -14.2806763656      -13.2263650000  MEMB      151             0.0000000000
     17265       151  CHL1      H7A           -31.5467157460      -14.0707323397      -12.9932850000  MEMB      151             0.0000000000
     17266       151  CHL1      H7B           -30.1856216492      -15.2427248635      -12.7556450000  MEMB      151             0.0000000000
     17267       151  CHL1      C8            -29.5919595156      -13.0288013438      -12.7104850000  MEMB      151             0.0000000000
     17268       151  CHL1      H8            -30.0561938898      -12.0765099945      -13.0450650000  MEMB      151             0.0000000000
     17269       151  CHL1      C14           -29.4224935243      -13.0664945235      -11.1562350000  MEMB      151             0.0000000000
     17270       151  CHL1      H14           -28.9330174300      -14.0393590609      -10.9365250000  MEMB      151             0.0000000000
     17271       151  CHL1      C15           -30.7191484552      -13.1114981032      -10.2892950000  MEMB      151             0.0000000000
     17272       151  CHL1      H15A          -31.4085008503      -12.3279680313      -10.6703550000  MEMB      151             0.0000000000
     17273       151  CHL1      H15B          -31.2727704610      -14.0728185345      -10.3500450000  MEMB      151             0.0000000000
     17274       151  CHL1      C16           -30.1689523554      -12.7422606719       -8.8849350000  MEMB      151             0.0000000000
     17275       151  CHL1      H16A          -30.8190731419      -11.9632244838       -8.4324250000  MEMB      151             0.0000000000
     17276       151  CHL1      H16B          -30.0743543427      -13.6860642261       -8.3064850000  MEMB      151             0.0000000000
     17277       151  CHL1      C17           -28.7131121521      -12.2368143253       -9.0756050000  MEMB      151             0.0000000000
     17278       151  CHL1      H17           -28.0879085121      -13.1445158200       -8.9358750000  MEMB      151             0.0000000000
     17279       151  CHL1      C13           -28.5924909027      -11.9473813542      -10.5433750000  MEMB      151             0.0000000000
     17280       151  CHL1      C18           -29.1550191213      -10.5068096277      -10.7723950000  MEMB      151             0.0000000000
     17281       151  CHL1      H18A          -29.2585458133      -10.3832159234      -11.8716350000  MEMB      151             0.0000000000
     17282       151  CHL1      H18B          -30.1492723055      -10.4736498052      -10.2777350000  MEMB      151             0.0000000000
     17283       151  CHL1      H18C          -28.4702539945       -9.6862607745      -10.4688650000  MEMB      151             0.0000000000
     17284       151  CHL1      C12           -27.2348086468      -12.0640129010      -11.1406750000  MEMB      151             0.0000000000
     17285       151  CHL1      H12A          -26.6742813542      -11.1599657996      -10.8200050000  MEMB      151             0.0000000000
     17286       151  CHL1      H12B          -26.8537458078      -13.0120812011      -10.7044650000  MEMB      151             0.0000000000
     17287       151  CHL1      C11           -27.1849883849      -12.0330938519      -12.6563550000  MEMB      151             0.0000000000
     17288       151  CHL1      H11A          -27.5039106328      -11.0058997978      -12.9346950000  MEMB      151             0.0000000000
     17289       151  CHL1      H11B          -26.1598421009      -12.2818315238      -13.0049650000  MEMB      151             0.0000000000
     17290       151  CHL1      C9            -28.1471112236      -13.0247958803      -13.3558650000  MEMB      151             0.0000000000
     17291       151  CHL1      H9            -27.8339384537      -14.0502946461      -13.0649750000  MEMB      151             0.0000000000
     17292       151  CHL1      C10           -28.1945013784      -12.9172031788      -14.8846250000  MEMB      151             0.0000000000
     17293       151  CHL1      C19           -28.5154289698      -11.4853785788      -15.2655250000  MEMB      151             0.0000000000
     17294       151  CHL1      H19A          -29.4908415773      -11.1136580592      -14.8851150000  MEMB      151             0.0000000000
     17295       151  CHL1      H19B          -27.7568125106      -10.7236443165      -14.9851850000  MEMB      151             0.0000000000
     17296       151  CHL1      H19C          -28.6055794842      -11.3228421528      -16.3608650000  MEMB      151             0.0000000000
     17297       151  CHL1      C1            -26.8218341738      -13.3302863510      -15.4806750000  MEMB      151             0.0000000000
     17298       151  CHL1      H1A           -26.0972577979      -12.5331099228      -15.2089750000  MEMB      151             0.0000000000
     17299       151  CHL1      H1B           -26.5777224095      -14.2217393810      -14.8642050000  MEMB      151             0.0000000000
     17300       151  CHL1      C2            -26.8250934113      -13.6820347952      -16.9953350000  MEMB      151             0.0000000000
     17301       151  CHL1      H2A           -25.7763654835      -13.9496902860      -17.2460250000  MEMB      151             0.0000000000
     17302       151  CHL1      H2B           -27.1165797503      -12.7918961000      -17.5928350000  MEMB      151             0.0000000000
     17303       151  CHL1      C20           -28.2518437698      -11.3668650379       -7.9293950000  MEMB      151             0.0000000000
     17304       151  CHL1      H20           -29.0893017577      -10.6373156096       -7.9566850000  MEMB      151             0.0000000000
     17305       151  CHL1      C21           -27.0073931987      -10.5396672463       -8.1642450000  MEMB      151             0.0000000000
     17306       151  CHL1      H21A          -27.0475829070       -9.8013031170       -8.9934250000  MEMB      151             0.0000000000
     17307       151  CHL1      H21B          -26.0860359776      -11.1148432848       -8.3978950000  MEMB      151             0.0000000000
     17308       151  CHL1      H21C          -26.6960197844       -9.8882576785       -7.3198350000  MEMB      151             0.0000000000
     17309       151  CHL1      C22           -28.2992169532      -12.2625427791       -6.6340050000  MEMB      151             0.0000000000
     17310       151  CHL1      H22A          -29.3002893392      -12.7038422331       -6.4405250000  MEMB      151             0.0000000000
     17311       151  CHL1      H22B          -27.5292796926      -13.0626891904       -6.6698050000  MEMB      151             0.0000000000
     17312       151  CHL1      C23           -28.0167278718      -11.3559690795       -5.3728250000  MEMB      151             0.0000000000
     17313       151  CHL1      H23A          -27.0012721051      -10.9177102105       -5.4782150000  MEMB      151             0.0000000000
     17314       151  CHL1      H23B          -28.7788780128      -10.5531607766       -5.4673950000  MEMB      151             0.0000000000
     17315       151  CHL1      C24           -28.1826402709      -12.0448411183       -4.0256450000  MEMB      151             0.0000000000
     17316       151  CHL1      H24A          -28.9679170510      -12.8289796701       -4.0783850000  MEMB      151             0.0000000000
     17317       151  CHL1      H24B          -27.2590229679      -12.5751670316       -3.7093950000  MEMB      151             0.0000000000
     17318       151  CHL1      C25           -28.6383692101      -11.1404128902       -2.8237950000  MEMB      151             0.0000000000
     17319       151  CHL1      H25           -29.5429648543      -10.5523402731       -3.0887550000  MEMB      151             0.0000000000
     17320       151  CHL1      C26           -29.0419799893      -12.0840634347       -1.6139450000  MEMB      151             0.0000000000
     17321       151  CHL1      H26A          -28.0971862661      -12.4391633611       -1.1496250000  MEMB      151             0.0000000000
     17322       151  CHL1      H26B          -29.7146006868      -11.5163332222       -0.9360150000  MEMB      151             0.0000000000
     17323       151  CHL1      H26C          -29.6343399149      -12.9838926247       -1.8854950000  MEMB      151             0.0000000000
     17324       151  CHL1      C27           -27.5495299738      -10.1997575519       -2.2576550000  MEMB      151             0.0000000000
     17325       151  CHL1      H27A          -26.6681636154      -10.7779672848       -1.9066650000  MEMB      151             0.0000000000
     17326       151  CHL1      H27B          -27.2819578865       -9.3493567940       -2.9206350000  MEMB      151             0.0000000000
     17327       151  CHL1      H27C          -28.0144380026       -9.8221375279       -1.3219250000  MEMB      151             0.0000000000
     17328       152  SAPE      N              13.1067402152      -29.7462257860      -22.5784787402  MEMB      152             0.0000000000
     17329       152  SAPE      HN1            13.0065590843      -30.3846244507      -23.3933472669  MEMB      152             0.0000000000
     17330       152  SAPE      HN2            12.2284085633      -29.6878600680      -22.0246492269  MEMB      152             0.0000000000
     17331       152  SAPE      HN3            13.3432013106      -28.7657218517      -22.8320498642  MEMB      152             0.0000000000
     17332       152  SAPE      C12            14.0572907061      -30.3167677697      -21.6314099567  MEMB      152             0.0000000000
     17333       152  SAPE      H12A           14.7435854697      -30.8865934189      -22.2936932675  MEMB      152             0.0000000000
     17334       152  SAPE      H12B           13.5401800130      -31.1159404293      -21.0584871274  MEMB      152             0.0000000000
     17335       152  SAPE      C11            14.7782169018      -29.2858134294      -20.7767211956  MEMB      152             0.0000000000
     17336       152  SAPE      H11A           15.4635872487      -28.5793055107      -21.2919250268  MEMB      152             0.0000000000
     17337       152  SAPE      H11B           15.3553897201      -29.9412668101      -20.0900092189  MEMB      152             0.0000000000
     17338       152  SAPE      P              14.3070888587      -27.6065542192      -18.9910100925  MEMB      152             0.0000000000
     17339       152  SAPE      O13            15.7525259652      -27.7071717485      -18.7684745241  MEMB      152             0.0000000000
     17340       152  SAPE      O14            13.8192401467      -26.2569615813      -19.4034704126  MEMB      152             0.0000000000
     17341       152  SAPE      O12            13.8379378147      -28.5990853790      -20.0864940423  MEMB      152             0.0000000000
     17342       152  SAPE      O11            13.4047049631      -28.1779984931      -17.7639409978  MEMB      152             0.0000000000
     17343       152  SAPE      C1             12.0136125201      -28.3728549400      -17.9975736879  MEMB      152             0.0000000000
     17344       152  SAPE      HA             11.5518382571      -27.4695601167      -17.5446454245  MEMB      152             0.0000000000
     17345       152  SAPE      HB             11.6012786627      -28.3508827375      -19.0289898155  MEMB      152             0.0000000000
     17346       152  SAPE      C2             11.4003099601      -29.6279812122      -17.3774498339  MEMB      152             0.0000000000
     17347       152  SAPE      HS             10.2993155692      -29.5361997398      -17.2603663220  MEMB      152             0.0000000000
     17348       152  SAPE      O21            12.0622538806      -29.8051760820      -16.1603917238  MEMB      152             0.0000000000
     17349       152  SAPE      C21            11.4566131950      -30.5835005888      -15.2802147822  MEMB      152             0.0000000000
     17350       152  SAPE      O22            10.3081352232      -31.0795750501      -15.4537010455  MEMB      152             0.0000000000
     17351       152  SAPE      C22            12.3857397983      -30.8337287051      -14.0104679991  MEMB      152             0.0000000000
     17352       152  SAPE      H2R            12.5545532111      -31.9302231881      -14.0698189652  MEMB      152             0.0000000000
     17353       152  SAPE      H2S            13.2609023986      -30.1523885302      -13.9457593475  MEMB      152             0.0000000000
     17354       152  SAPE      C3             11.6213620667      -30.8655363379      -18.2856466957  MEMB      152             0.0000000000
     17355       152  SAPE      HX             11.2047212489      -30.7417575310      -19.3080996280  MEMB      152             0.0000000000
     17356       152  SAPE      HY             11.0826066594      -31.7118294396      -17.8083087141  MEMB      152             0.0000000000
     17357       152  SAPE      O31            13.0019488272      -31.1338741096      -18.3692647000  MEMB      152             0.0000000000
     17358       152  SAPE      C31            13.5647610429      -32.1691046014      -17.7648005962  MEMB      152             0.0000000000
     17359       152  SAPE      O32            13.0003070588      -32.8995880028      -16.9913005301  MEMB      152             0.0000000000
     17360       152  SAPE      C32            15.0373067445      -32.4186779247      -18.2168738449  MEMB      152             0.0000000000
     17361       152  SAPE      H2X            15.3818545588      -31.6808022677      -18.9726165933  MEMB      152             0.0000000000
     17362       152  SAPE      H2Y            15.1570344163      -33.4449319070      -18.6252724592  MEMB      152             0.0000000000
     17363       152  SAPE      C23            11.6347924093      -30.5873452262      -12.6830185078  MEMB      152             0.0000000000
     17364       152  SAPE      H3R            10.9155804527      -31.3946379463      -12.4274150502  MEMB      152             0.0000000000
     17365       152  SAPE      H3S            10.9775342699      -29.7057781450      -12.8416761895  MEMB      152             0.0000000000
     17366       152  SAPE      C24            12.6118453899      -30.1926609158      -11.5139371057  MEMB      152             0.0000000000
     17367       152  SAPE      H4R            11.9263304861      -29.7039205658      -10.7890080993  MEMB      152             0.0000000000
     17368       152  SAPE      H4S            13.3743893580      -29.4754455268      -11.8860264426  MEMB      152             0.0000000000
     17369       152  SAPE      C25            13.2823970662      -31.4275241003      -10.8239350148  MEMB      152             0.0000000000
     17370       152  SAPE      H5R            14.1079515470      -31.8668375998      -11.4031275332  MEMB      152             0.0000000000
     17371       152  SAPE      C26            13.0026607853      -31.8937079914       -9.6209418986  MEMB      152             0.0000000000
     17372       152  SAPE      H6R            13.5656735518      -32.7999693787       -9.3531601687  MEMB      152             0.0000000000
     17373       152  SAPE      C27            12.0233227703      -31.3551713456       -8.6078408905  MEMB      152             0.0000000000
     17374       152  SAPE      H7R            11.8364048044      -30.2862296627       -8.8460564658  MEMB      152             0.0000000000
     17375       152  SAPE      H7S            12.4054194170      -31.4995927949       -7.5746594016  MEMB      152             0.0000000000
     17376       152  SAPE      C28            10.5915815991      -31.9191183465       -8.6051298881  MEMB      152             0.0000000000
     17377       152  SAPE      H8R            10.5732881265      -33.0078857252       -8.7608574512  MEMB      152             0.0000000000
     17378       152  SAPE      C29             9.4048113671      -31.2699741588       -8.5351762642  MEMB      152             0.0000000000
     17379       152  SAPE      H9R             8.4530749731      -31.7754488117       -8.3145118672  MEMB      152             0.0000000000
     17380       152  SAPE      C210            9.2183779381      -29.7595794169       -8.4272727157  MEMB      152             0.0000000000
     17381       152  SAPE      H10R            8.1585440239      -29.5840459812       -8.7105764515  MEMB      152             0.0000000000
     17382       152  SAPE      H10S            9.8866743856      -29.1990008972       -9.1153514270  MEMB      152             0.0000000000
     17383       152  SAPE      C211            9.5891124415      -29.0917535984       -7.0839921951  MEMB      152             0.0000000000
     17384       152  SAPE      H11R           10.0962303692      -28.1164246225       -7.0444334718  MEMB      152             0.0000000000
     17385       152  SAPE      C212            9.0665925789      -29.5561955960       -5.8857581231  MEMB      152             0.0000000000
     17386       152  SAPE      H12R            9.4918694120      -29.2269840779       -4.9261960725  MEMB      152             0.0000000000
     17387       152  SAPE      C213            8.0619249130      -30.7018339693       -5.5431679474  MEMB      152             0.0000000000
     17388       152  SAPE      H13R            8.0143227017      -31.4961155086       -6.3185201906  MEMB      152             0.0000000000
     17389       152  SAPE      H13S            7.0455897315      -30.2544298574       -5.5083309404  MEMB      152             0.0000000000
     17390       152  SAPE      C214            8.2481801752      -31.3279631682       -4.2480131351  MEMB      152             0.0000000000
     17391       152  SAPE      H14R            8.6286811792      -32.3582331910       -4.3093546619  MEMB      152             0.0000000000
     17392       152  SAPE      C215            8.0149117276      -30.7886918589       -2.9844177832  MEMB      152             0.0000000000
     17393       152  SAPE      H15R            8.2659974872      -31.4058452586       -2.1091589345  MEMB      152             0.0000000000
     17394       152  SAPE      C216            7.5182652154      -29.3239606767       -2.7631803781  MEMB      152             0.0000000000
     17395       152  SAPE      H16R            6.4107101435      -29.3569789576       -2.6822310542  MEMB      152             0.0000000000
     17396       152  SAPE      H16S            7.5107663032      -28.6967750211       -3.6801885044  MEMB      152             0.0000000000
     17397       152  SAPE      C217            8.1302229756      -28.5901598943       -1.4965450773  MEMB      152             0.0000000000
     17398       152  SAPE      H17R            8.2078507950      -29.3423721414       -0.6826216091  MEMB      152             0.0000000000
     17399       152  SAPE      H17S            7.3694305797      -27.8535646247       -1.1604735260  MEMB      152             0.0000000000
     17400       152  SAPE      C218            9.4565136917      -27.9061702619       -1.7058257963  MEMB      152             0.0000000000
     17401       152  SAPE      H18R            9.3156051081      -27.0695841849       -2.4231742743  MEMB      152             0.0000000000
     17402       152  SAPE      H18S           10.0829673521      -28.7133119221       -2.1421730205  MEMB      152             0.0000000000
     17403       152  SAPE      C219           10.2759179067      -27.3683963460       -0.5187601142  MEMB      152             0.0000000000
     17404       152  SAPE      H19R           10.0479659405      -26.3277114548       -0.2035879273  MEMB      152             0.0000000000
     17405       152  SAPE      H19S           11.3528711393      -27.5050093729       -0.7550439224  MEMB      152             0.0000000000
     17406       152  SAPE      C220           10.0434963019      -28.2162962627        0.7033854043  MEMB      152             0.0000000000
     17407       152  SAPE      H20R           10.7097165630      -27.7885101305        1.4827899205  MEMB      152             0.0000000000
     17408       152  SAPE      H20S           10.2188180103      -29.3129995188        0.7321120062  MEMB      152             0.0000000000
     17409       152  SAPE      H20T            9.0042593778      -27.9743223498        1.0128309257  MEMB      152             0.0000000000
     17410       152  SAPE      C33            15.8936755503      -32.2149224446      -16.9252266926  MEMB      152             0.0000000000
     17411       152  SAPE      H3X            16.9791559843      -32.4188055089      -17.0455795928  MEMB      152             0.0000000000
     17412       152  SAPE      H3Y            15.4610848624      -32.8781082051      -16.1458865178  MEMB      152             0.0000000000
     17413       152  SAPE      C34            15.7371060005      -30.8251745471      -16.3283125221  MEMB      152             0.0000000000
     17414       152  SAPE      H4X            14.6449913239      -30.7211145168      -16.1528759952  MEMB      152             0.0000000000
     17415       152  SAPE      H4Y            16.1933502452      -30.0678859287      -17.0011245241  MEMB      152             0.0000000000
     17416       152  SAPE      C35            16.6019000756      -30.7156628786      -15.0577322786  MEMB      152             0.0000000000
     17417       152  SAPE      H5X            17.6553071966      -30.7174506710      -15.4107920688  MEMB      152             0.0000000000
     17418       152  SAPE      H5Y            16.5156644208      -31.6213372116      -14.4200500092  MEMB      152             0.0000000000
     17419       152  SAPE      C36            16.4927988739      -29.3269448487      -14.3002925891  MEMB      152             0.0000000000
     17420       152  SAPE      H6X            15.4035258371      -29.1671526319      -14.1510556975  MEMB      152             0.0000000000
     17421       152  SAPE      H6Y            16.8709479983      -28.5017239327      -14.9408663619  MEMB      152             0.0000000000
     17422       152  SAPE      C37            17.1819297572      -29.1747873498      -12.9101826926  MEMB      152             0.0000000000
     17423       152  SAPE      H7X            18.2368986626      -28.8565149892      -13.0518309316  MEMB      152             0.0000000000
     17424       152  SAPE      H7Y            17.1572293135      -30.1540736044      -12.3860557242  MEMB      152             0.0000000000
     17425       152  SAPE      C38            16.2725539308      -28.2239367444      -12.0460101449  MEMB      152             0.0000000000
     17426       152  SAPE      H8X            15.2317705281      -28.0255468798      -12.3802740050  MEMB      152             0.0000000000
     17427       152  SAPE      H8Y            16.7081564351      -27.2080925702      -12.1584025240  MEMB      152             0.0000000000
     17428       152  SAPE      C39            16.1501033108      -28.6084339544      -10.5082435482  MEMB      152             0.0000000000
     17429       152  SAPE      H9X            16.9870512903      -29.2635900106      -10.1848092016  MEMB      152             0.0000000000
     17430       152  SAPE      H9Y            15.1989745165      -29.0825288713      -10.1843471886  MEMB      152             0.0000000000
     17431       152  SAPE      C310           16.1852478570      -27.4053686073       -9.5070852664  MEMB      152             0.0000000000
     17432       152  SAPE      H10X           15.2324498549      -26.8572799078       -9.6686263146  MEMB      152             0.0000000000
     17433       152  SAPE      H10Y           17.0482098979      -26.7789704977       -9.8189219105  MEMB      152             0.0000000000
     17434       152  SAPE      C311           16.3669742755      -27.8275784340       -7.9992335357  MEMB      152             0.0000000000
     17435       152  SAPE      H11X           16.4565337310      -26.8814659430       -7.4237585850  MEMB      152             0.0000000000
     17436       152  SAPE      H11Y           17.3519905627      -28.3310062985       -7.8961600500  MEMB      152             0.0000000000
     17437       152  SAPE      C312           15.3251270944      -28.7566871063       -7.3085905789  MEMB      152             0.0000000000
     17438       152  SAPE      H12X           15.2497864685      -29.6753858937       -7.9287813229  MEMB      152             0.0000000000
     17439       152  SAPE      H12Y           14.3504668079      -28.2299576217       -7.2254380839  MEMB      152             0.0000000000
     17440       152  SAPE      C313           15.6288481761      -29.0131063998       -5.7941335347  MEMB      152             0.0000000000
     17441       152  SAPE      H13X           15.9846600016      -28.1186016698       -5.2395342223  MEMB      152             0.0000000000
     17442       152  SAPE      H13Y           16.4742638824      -29.7325390273       -5.8389708257  MEMB      152             0.0000000000
     17443       152  SAPE      C314           14.4722139803      -29.7940483174       -5.1537339406  MEMB      152             0.0000000000
     17444       152  SAPE      H14X           14.3160447879      -30.7988385287       -5.6013155935  MEMB      152             0.0000000000
     17445       152  SAPE      H14Y           13.5242882507      -29.2284361116       -5.0278744159  MEMB      152             0.0000000000
     17446       152  SAPE      C315           14.7858684072      -30.1032609183       -3.6811377376  MEMB      152             0.0000000000
     17447       152  SAPE      H15X           14.6245200651      -29.1280420377       -3.1739529012  MEMB      152             0.0000000000
     17448       152  SAPE      H15Y           15.8170874342      -30.4810562537       -3.5132718913  MEMB      152             0.0000000000
     17449       152  SAPE      C316           13.7362925564      -31.1163783084       -2.9772051035  MEMB      152             0.0000000000
     17450       152  SAPE      H16X           14.3244268440      -31.7837454755       -2.3115926024  MEMB      152             0.0000000000
     17451       152  SAPE      H16Y           13.0892547120      -31.6934088396       -3.6719696256  MEMB      152             0.0000000000
     17452       152  SAPE      C317           12.7107137075      -30.3302990784       -2.1231182344  MEMB      152             0.0000000000
     17453       152  SAPE      H17X           11.9677472405      -31.1055996298       -1.8381084794  MEMB      152             0.0000000000
     17454       152  SAPE      H17Y           12.3326497245      -29.5878784371       -2.8581020154  MEMB      152             0.0000000000
     17455       152  SAPE      C318           13.2279186832      -29.6418716332       -0.8824139197  MEMB      152             0.0000000000
     17456       152  SAPE      H18X           12.3580582782      -29.4169064539       -0.2289194523  MEMB      152             0.0000000000
     17457       152  SAPE      H18Y           13.8769850757      -28.7579620080       -1.0605633878  MEMB      152             0.0000000000
     17458       152  SAPE      H18Z           13.8817480593      -30.3476803174       -0.3268397859  MEMB      152             0.0000000000
     17459       153  CHL1      C3             -1.6766405158       31.8115055874      -17.3788250000  MEMB      153             0.0000000000
     17460       153  CHL1      H3             -2.4622603919       32.5856847870      -17.5121150000  MEMB      153             0.0000000000
     17461       153  CHL1      O3             -0.9817980242       31.7947578126      -18.6211750000  MEMB      153             0.0000000000
     17462       153  CHL1      H3'            -1.4566617785       31.1996486203      -19.2059450000  MEMB      153             0.0000000000
     17463       153  CHL1      C4             -0.7176227761       32.3734766480      -16.3336950000  MEMB      153             0.0000000000
     17464       153  CHL1      H4A             0.1425810705       31.6852372147      -16.4774750000  MEMB      153             0.0000000000
     17465       153  CHL1      H4B            -0.3970978933       33.3992910254      -16.6152550000  MEMB      153             0.0000000000
     17466       153  CHL1      C5             -1.2833059959       32.3928208955      -14.9075550000  MEMB      153             0.0000000000
     17467       153  CHL1      C6             -1.4219145544       33.5670596348      -14.2603050000  MEMB      153             0.0000000000
     17468       153  CHL1      H6             -1.0246794258       34.4888504687      -14.7102950000  MEMB      153             0.0000000000
     17469       153  CHL1      C7             -1.8848660958       33.5959944381      -12.7994050000  MEMB      153             0.0000000000
     17470       153  CHL1      H7A            -1.1244875204       34.1554779098      -12.2136350000  MEMB      153             0.0000000000
     17471       153  CHL1      H7B            -2.8889484089       34.0597847577      -12.6942950000  MEMB      153             0.0000000000
     17472       153  CHL1      C8             -1.9251525189       32.1584201393      -12.1031550000  MEMB      153             0.0000000000
     17473       153  CHL1      H8             -0.8694673466       31.8367088291      -11.9752150000  MEMB      153             0.0000000000
     17474       153  CHL1      C14            -2.6819628652       32.3005403779      -10.7989450000  MEMB      153             0.0000000000
     17475       153  CHL1      H14            -3.6907126336       32.7257538733      -10.9885150000  MEMB      153             0.0000000000
     17476       153  CHL1      C15            -2.0583362593       33.0955490672       -9.6128150000  MEMB      153             0.0000000000
     17477       153  CHL1      H15A           -0.9865981000       32.8366865128       -9.4761350000  MEMB      153             0.0000000000
     17478       153  CHL1      H15B           -2.1429801045       34.1846280101       -9.8154650000  MEMB      153             0.0000000000
     17479       153  CHL1      C16            -2.8291834317       32.5980721619       -8.4079850000  MEMB      153             0.0000000000
     17480       153  CHL1      H16A           -2.0708256795       32.2570113361       -7.6711650000  MEMB      153             0.0000000000
     17481       153  CHL1      H16B           -3.3966647359       33.4079792500       -7.9016950000  MEMB      153             0.0000000000
     17482       153  CHL1      C17            -3.7080200920       31.3509032995       -8.8623550000  MEMB      153             0.0000000000
     17483       153  CHL1      H17            -4.6977557938       31.8005299916       -9.0916950000  MEMB      153             0.0000000000
     17484       153  CHL1      C13            -3.0384447837       30.9235675124      -10.2041350000  MEMB      153             0.0000000000
     17485       153  CHL1      C18            -1.7676908065       30.0850007670       -9.9803350000  MEMB      153             0.0000000000
     17486       153  CHL1      H18A           -1.9576984672       29.0031903572       -9.8132550000  MEMB      153             0.0000000000
     17487       153  CHL1      H18B           -1.0481326329       30.1675186277      -10.8228050000  MEMB      153             0.0000000000
     17488       153  CHL1      H18C           -1.1309300895       30.4679170867       -9.1543650000  MEMB      153             0.0000000000
     17489       153  CHL1      C12            -3.8979735390       30.1902681806      -11.2291550000  MEMB      153             0.0000000000
     17490       153  CHL1      H12A           -4.1780289288       29.1698285342      -10.8906650000  MEMB      153             0.0000000000
     17491       153  CHL1      H12B           -4.8555420552       30.7532046383      -11.2509650000  MEMB      153             0.0000000000
     17492       153  CHL1      C11            -3.1942640557       29.8993494620      -12.5436650000  MEMB      153             0.0000000000
     17493       153  CHL1      H11A           -2.4172113110       29.1288304756      -12.3518450000  MEMB      153             0.0000000000
     17494       153  CHL1      H11B           -3.9778875859       29.4037427387      -13.1557350000  MEMB      153             0.0000000000
     17495       153  CHL1      C9             -2.6133062911       31.1626839897      -13.1135450000  MEMB      153             0.0000000000
     17496       153  CHL1      H9             -3.5527595360       31.6337068153      -13.4739350000  MEMB      153             0.0000000000
     17497       153  CHL1      C10            -1.7530010057       30.9952903150      -14.4132850000  MEMB      153             0.0000000000
     17498       153  CHL1      C19            -0.5628567625       30.0519316211      -14.2131850000  MEMB      153             0.0000000000
     17499       153  CHL1      H19A            0.1526452908       30.5043759305      -13.4936950000  MEMB      153             0.0000000000
     17500       153  CHL1      H19B           -0.8162893198       29.0158921737      -13.9021950000  MEMB      153             0.0000000000
     17501       153  CHL1      H19C           -0.0545293763       29.9222831558      -15.1925350000  MEMB      153             0.0000000000
     17502       153  CHL1      C1             -2.7181979198       30.4118011642      -15.5155250000  MEMB      153             0.0000000000
     17503       153  CHL1      H1A            -2.7674870673       29.3253541889      -15.2885550000  MEMB      153             0.0000000000
     17504       153  CHL1      H1B            -3.7099973055       30.9039131538      -15.4233250000  MEMB      153             0.0000000000
     17505       153  CHL1      C2             -2.2455852351       30.4666382243      -17.0250850000  MEMB      153             0.0000000000
     17506       153  CHL1      H2A            -3.0027861840       30.2337492339      -17.8040150000  MEMB      153             0.0000000000
     17507       153  CHL1      H2B            -1.3859141830       29.7656025638      -17.0869550000  MEMB      153             0.0000000000
     17508       153  CHL1      C20            -3.8579415475       30.2907336739       -7.7273450000  MEMB      153             0.0000000000
     17509       153  CHL1      H20            -2.7890209874       30.0378390116       -7.5606650000  MEMB      153             0.0000000000
     17510       153  CHL1      C21            -4.5733151575       29.0203900739       -8.2129650000  MEMB      153             0.0000000000
     17511       153  CHL1      H21A           -4.6818109666       28.2946572620       -7.3787850000  MEMB      153             0.0000000000
     17512       153  CHL1      H21B           -4.0342452194       28.4721521927       -9.0149450000  MEMB      153             0.0000000000
     17513       153  CHL1      H21C           -5.6261786341       29.2423547739       -8.4896250000  MEMB      153             0.0000000000
     17514       153  CHL1      C22            -4.5719018329       30.7850212632       -6.4952550000  MEMB      153             0.0000000000
     17515       153  CHL1      H22A           -4.3044658145       31.8389703750       -6.2672050000  MEMB      153             0.0000000000
     17516       153  CHL1      H22B           -5.6632766153       30.7334018169       -6.6966250000  MEMB      153             0.0000000000
     17517       153  CHL1      C23            -4.3479294860       30.0421234003       -5.1193550000  MEMB      153             0.0000000000
     17518       153  CHL1      H23A           -4.5141386332       28.9490611571       -5.2284950000  MEMB      153             0.0000000000
     17519       153  CHL1      H23B           -3.2647184301       30.1959321615       -4.9262150000  MEMB      153             0.0000000000
     17520       153  CHL1      C24            -5.2932311177       30.7234320352       -4.0256650000  MEMB      153             0.0000000000
     17521       153  CHL1      H24A           -5.0833460619       31.8026494413       -4.1855350000  MEMB      153             0.0000000000
     17522       153  CHL1      H24B           -6.3339159360       30.5371942512       -4.3671450000  MEMB      153             0.0000000000
     17523       153  CHL1      C25            -5.1784207549       30.3215535790       -2.5241050000  MEMB      153             0.0000000000
     17524       153  CHL1      H25            -4.2429741199       30.8051123911       -2.1699450000  MEMB      153             0.0000000000
     17525       153  CHL1      C26            -6.2895048593       31.0422596141       -1.7529350000  MEMB      153             0.0000000000
     17526       153  CHL1      H26A           -6.4882015675       30.7923326200       -0.6888050000  MEMB      153             0.0000000000
     17527       153  CHL1      H26B           -6.1813692219       32.1301740466       -1.9505650000  MEMB      153             0.0000000000
     17528       153  CHL1      H26C           -7.2589399215       30.8570953515       -2.2630550000  MEMB      153             0.0000000000
     17529       153  CHL1      C27            -5.1065249749       28.8044935738       -2.3478150000  MEMB      153             0.0000000000
     17530       153  CHL1      H27A           -5.0305177770       28.3967233271       -1.3171450000  MEMB      153             0.0000000000
     17531       153  CHL1      H27B           -6.0392567824       28.3805379513       -2.7774550000  MEMB      153             0.0000000000
     17532       153  CHL1      H27C           -4.2455310157       28.4630590986       -2.9613450000  MEMB      153             0.0000000000
     17533       154  SAPE      N             -25.5525881305      -20.9804110889      -21.9896581052  MEMB      154             0.0000000000
     17534       154  SAPE      HN1           -24.6700659182      -20.4392499524      -21.8901633770  MEMB      154             0.0000000000
     17535       154  SAPE      HN2           -25.7481187338      -21.2160977545      -22.9835493816  MEMB      154             0.0000000000
     17536       154  SAPE      HN3           -26.3626662515      -20.4739187288      -21.5787581950  MEMB      154             0.0000000000
     17537       154  SAPE      C12           -25.3373507453      -22.2095770681      -21.1045997584  MEMB      154             0.0000000000
     17538       154  SAPE      H12A          -24.5797282856      -22.8585456093      -21.5936489655  MEMB      154             0.0000000000
     17539       154  SAPE      H12B          -26.3058773529      -22.7397609199      -20.9813834485  MEMB      154             0.0000000000
     17540       154  SAPE      C11           -24.9424216894      -21.8399681295      -19.6253168024  MEMB      154             0.0000000000
     17541       154  SAPE      H11A          -24.9493515758      -22.7437509997      -18.9792134231  MEMB      154             0.0000000000
     17542       154  SAPE      H11B          -25.6518752456      -21.1617693817      -19.1046987799  MEMB      154             0.0000000000
     17543       154  SAPE      P             -22.4164502817      -22.1063224558      -19.5483421952  MEMB      154             0.0000000000
     17544       154  SAPE      O13           -22.3314949784      -23.0709232167      -20.6708718951  MEMB      154             0.0000000000
     17545       154  SAPE      O14           -21.1775966609      -21.2297383635      -19.2784989628  MEMB      154             0.0000000000
     17546       154  SAPE      O12           -23.6939137812      -21.1057793818      -19.6380997244  MEMB      154             0.0000000000
     17547       154  SAPE      O11           -22.6118637270      -22.8028938627      -18.1446125458  MEMB      154             0.0000000000
     17548       154  SAPE      C1            -22.6843546937      -24.2243252055      -18.0644207285  MEMB      154             0.0000000000
     17549       154  SAPE      HA            -23.5386879638      -24.6487545683      -18.6338901202  MEMB      154             0.0000000000
     17550       154  SAPE      HB            -21.8410838795      -24.6902607547      -18.6177013136  MEMB      154             0.0000000000
     17551       154  SAPE      C2            -22.8648889271      -24.6539156177      -16.6275267410  MEMB      154             0.0000000000
     17552       154  SAPE      HS            -23.1583562312      -25.7197143210      -16.5167529208  MEMB      154             0.0000000000
     17553       154  SAPE      O21           -23.9005477478      -23.8553683443      -16.0262243053  MEMB      154             0.0000000000
     17554       154  SAPE      C21           -24.3295220879      -24.3092996896      -14.8825129167  MEMB      154             0.0000000000
     17555       154  SAPE      O22           -23.9272596724      -25.2780177166      -14.2106946206  MEMB      154             0.0000000000
     17556       154  SAPE      C22           -25.4195039363      -23.3515773010      -14.2843015296  MEMB      154             0.0000000000
     17557       154  SAPE      H2R           -25.4531747029      -22.3378474551      -14.7376654452  MEMB      154             0.0000000000
     17558       154  SAPE      H2S           -26.4019181977      -23.8060644896      -14.5345505278  MEMB      154             0.0000000000
     17559       154  SAPE      C3            -21.5258740843      -24.4869733612      -15.9835207660  MEMB      154             0.0000000000
     17560       154  SAPE      HX            -20.7767604097      -25.2135870621      -16.3645487075  MEMB      154             0.0000000000
     17561       154  SAPE      HY            -21.5861996115      -24.7744464494      -14.9120538461  MEMB      154             0.0000000000
     17562       154  SAPE      O31           -21.0851141710      -23.1337600979      -16.1686763555  MEMB      154             0.0000000000
     17563       154  SAPE      C31           -20.9672859063      -22.4119805791      -15.1158104973  MEMB      154             0.0000000000
     17564       154  SAPE      O32           -21.1379577502      -22.7535193694      -13.9500341720  MEMB      154             0.0000000000
     17565       154  SAPE      C32           -20.3609980953      -21.0806016746      -15.5070274933  MEMB      154             0.0000000000
     17566       154  SAPE      H2X           -21.1530206856      -20.3878496852      -15.8635605344  MEMB      154             0.0000000000
     17567       154  SAPE      H2Y           -19.5950943673      -21.3253400733      -16.2737192065  MEMB      154             0.0000000000
     17568       154  SAPE      C23           -25.3941998280      -23.4821846116      -12.7699810560  MEMB      154             0.0000000000
     17569       154  SAPE      H3R           -24.3681409433      -23.2968416511      -12.3863508751  MEMB      154             0.0000000000
     17570       154  SAPE      H3S           -25.4520105489      -24.5674330303      -12.5392982292  MEMB      154             0.0000000000
     17571       154  SAPE      C24           -26.4401077751      -22.6529009339      -12.0028411096  MEMB      154             0.0000000000
     17572       154  SAPE      H4R           -27.4754380570      -22.7672934211      -12.3892692668  MEMB      154             0.0000000000
     17573       154  SAPE      H4S           -26.0565944103      -21.6123590345      -12.0700038476  MEMB      154             0.0000000000
     17574       154  SAPE      C25           -26.3703092255      -23.2321136899      -10.5528571627  MEMB      154             0.0000000000
     17575       154  SAPE      H5R           -26.5413817773      -24.3143800660      -10.4557290822  MEMB      154             0.0000000000
     17576       154  SAPE      C26           -25.9447393602      -22.6042793716       -9.4640021830  MEMB      154             0.0000000000
     17577       154  SAPE      H6R           -25.9664132650      -23.0668255794       -8.4662146368  MEMB      154             0.0000000000
     17578       154  SAPE      C27           -25.4361081215      -21.1819949467       -9.5138824270  MEMB      154             0.0000000000
     17579       154  SAPE      H7R           -24.7741005207      -21.0599886178      -10.3977269625  MEMB      154             0.0000000000
     17580       154  SAPE      H7S           -24.8211431661      -20.9705272281       -8.6130936685  MEMB      154             0.0000000000
     17581       154  SAPE      C28           -26.4832892190      -20.0767875848       -9.5868374498  MEMB      154             0.0000000000
     17582       154  SAPE      H8R           -26.4821254052      -19.6331272776      -10.5933981166  MEMB      154             0.0000000000
     17583       154  SAPE      C29           -27.2276591707      -19.6241669726       -8.5471625159  MEMB      154             0.0000000000
     17584       154  SAPE      H9R           -27.9135589016      -18.7712926473       -8.6573750790  MEMB      154             0.0000000000
     17585       154  SAPE      C210          -27.2767570594      -20.1404833719       -7.1599447480  MEMB      154             0.0000000000
     17586       154  SAPE      H10R          -26.5646468655      -20.9834227862       -7.0308203924  MEMB      154             0.0000000000
     17587       154  SAPE      H10S          -28.3131559237      -20.4889347440       -6.9630179255  MEMB      154             0.0000000000
     17588       154  SAPE      C211          -26.8830210111      -19.0473781742       -6.2413753454  MEMB      154             0.0000000000
     17589       154  SAPE      H11R          -26.8658211572      -18.0544793271       -6.7145103140  MEMB      154             0.0000000000
     17590       154  SAPE      C212          -26.5281115661      -19.1158806067       -4.9648068909  MEMB      154             0.0000000000
     17591       154  SAPE      H12R          -26.3782032737      -18.2540053956       -4.2979493629  MEMB      154             0.0000000000
     17592       154  SAPE      C213          -26.4161626963      -20.4032390205       -4.1649838130  MEMB      154             0.0000000000
     17593       154  SAPE      H13R          -25.8897647318      -20.2275682875       -3.2025053114  MEMB      154             0.0000000000
     17594       154  SAPE      H13S          -25.7002586529      -21.1029719499       -4.6468302611  MEMB      154             0.0000000000
     17595       154  SAPE      C214          -27.7567349321      -21.1743153490       -3.8885202149  MEMB      154             0.0000000000
     17596       154  SAPE      H14R          -28.5260755710      -20.4956097759       -3.4916895291  MEMB      154             0.0000000000
     17597       154  SAPE      C215          -28.0431552683      -22.5051576182       -3.9729022214  MEMB      154             0.0000000000
     17598       154  SAPE      H15R          -29.0953951817      -22.7512000649       -3.7673426934  MEMB      154             0.0000000000
     17599       154  SAPE      C216          -27.1425391151      -23.6291731497       -4.3758169098  MEMB      154             0.0000000000
     17600       154  SAPE      H16R          -26.2195324273      -23.3632377970       -4.9340803325  MEMB      154             0.0000000000
     17601       154  SAPE      H16S          -27.7586477861      -24.2643978014       -5.0475466106  MEMB      154             0.0000000000
     17602       154  SAPE      C217          -26.7666213713      -24.4195447590       -3.0929314226  MEMB      154             0.0000000000
     17603       154  SAPE      H17R          -26.2981302207      -25.3945070183       -3.3464778338  MEMB      154             0.0000000000
     17604       154  SAPE      H17S          -27.6392168913      -24.6237290199       -2.4362681834  MEMB      154             0.0000000000
     17605       154  SAPE      C218          -25.7748933459      -23.7034921032       -2.2423986938  MEMB      154             0.0000000000
     17606       154  SAPE      H18R          -26.3616691705      -22.7902699135       -2.0056692471  MEMB      154             0.0000000000
     17607       154  SAPE      H18S          -24.7952178061      -23.4381732581       -2.6942429168  MEMB      154             0.0000000000
     17608       154  SAPE      C219          -25.4926945345      -24.2529690434       -0.8394826253  MEMB      154             0.0000000000
     17609       154  SAPE      H19R          -24.6118264562      -24.9216231822       -0.9457577896  MEMB      154             0.0000000000
     17610       154  SAPE      H19S          -26.3277057202      -24.9736169165       -0.7062769570  MEMB      154             0.0000000000
     17611       154  SAPE      C220          -25.3218134845      -23.2738232661        0.3315466544  MEMB      154             0.0000000000
     17612       154  SAPE      H20R          -25.5419609133      -23.8090003779        1.2799374701  MEMB      154             0.0000000000
     17613       154  SAPE      H20S          -25.9119753684      -22.3325435082        0.3268224144  MEMB      154             0.0000000000
     17614       154  SAPE      H20T          -24.2692817868      -22.9203568562        0.3710354766  MEMB      154             0.0000000000
     17615       154  SAPE      C33           -19.7007629614      -20.3651605183      -14.2950082247  MEMB      154             0.0000000000
     17616       154  SAPE      H3X           -19.0583086501      -19.6037451346      -14.7867595879  MEMB      154             0.0000000000
     17617       154  SAPE      H3Y           -19.0177529921      -21.0284840195      -13.7224522090  MEMB      154             0.0000000000
     17618       154  SAPE      C34           -20.6128971188      -19.6428935159      -13.2667192782  MEMB      154             0.0000000000
     17619       154  SAPE      H4X           -21.1821973096      -20.4988976923      -12.8454415350  MEMB      154             0.0000000000
     17620       154  SAPE      H4Y           -21.3471819694      -18.9900499127      -13.7853155267  MEMB      154             0.0000000000
     17621       154  SAPE      C35           -19.7714915763      -18.9648154404      -12.1544018273  MEMB      154             0.0000000000
     17622       154  SAPE      H5X           -19.0581669912      -18.2320399992      -12.5886017914  MEMB      154             0.0000000000
     17623       154  SAPE      H5Y           -19.1053443480      -19.7099871641      -11.6693370499  MEMB      154             0.0000000000
     17624       154  SAPE      C36           -20.4997642396      -18.3349092707      -10.9565440652  MEMB      154             0.0000000000
     17625       154  SAPE      H6X           -21.1428879828      -17.4715914770      -11.2311254258  MEMB      154             0.0000000000
     17626       154  SAPE      H6Y           -19.7201812817      -18.0007991998      -10.2389491328  MEMB      154             0.0000000000
     17627       154  SAPE      C37           -21.4492260227      -19.3357603707      -10.3015366036  MEMB      154             0.0000000000
     17628       154  SAPE      H7X           -22.3419233794      -19.5996873908      -10.9079648927  MEMB      154             0.0000000000
     17629       154  SAPE      H7Y           -21.8583728316      -19.0515851465       -9.3084787427  MEMB      154             0.0000000000
     17630       154  SAPE      C38           -20.7075889393      -20.6551110379       -9.8699269190  MEMB      154             0.0000000000
     17631       154  SAPE      H8X           -19.8362354968      -20.4517553011       -9.2113598030  MEMB      154             0.0000000000
     17632       154  SAPE      H8Y           -20.3252226491      -21.2755400452      -10.7084884852  MEMB      154             0.0000000000
     17633       154  SAPE      C39           -21.6593183989      -21.6070762537       -9.0507360392  MEMB      154             0.0000000000
     17634       154  SAPE      H9X           -21.2263146450      -22.6186315437       -9.2043089500  MEMB      154             0.0000000000
     17635       154  SAPE      H9Y           -22.6522579724      -21.7308209292       -9.5335188782  MEMB      154             0.0000000000
     17636       154  SAPE      C310          -21.6846887533      -21.1840017199       -7.5835754552  MEMB      154             0.0000000000
     17637       154  SAPE      H10X          -22.1127361969      -20.1757662378       -7.3976784040  MEMB      154             0.0000000000
     17638       154  SAPE      H10Y          -20.6397509832      -21.2026078885       -7.2066407430  MEMB      154             0.0000000000
     17639       154  SAPE      C311          -22.5171913416      -22.1508155699       -6.7284396357  MEMB      154             0.0000000000
     17640       154  SAPE      H11X          -22.0959713117      -23.1699667549       -6.8634416415  MEMB      154             0.0000000000
     17641       154  SAPE      H11Y          -23.5581694821      -22.0124601222       -7.0911284050  MEMB      154             0.0000000000
     17642       154  SAPE      C312          -22.5498664756      -21.8731091807       -5.2301620946  MEMB      154             0.0000000000
     17643       154  SAPE      H12X          -23.2860931200      -22.5615987464       -4.7629651304  MEMB      154             0.0000000000
     17644       154  SAPE      H12Y          -23.0008350945      -20.8655149258       -5.3554711443  MEMB      154             0.0000000000
     17645       154  SAPE      C313          -21.1821229787      -21.7662187276       -4.6306273668  MEMB      154             0.0000000000
     17646       154  SAPE      H13X          -20.4955102698      -21.0917812138       -5.1856216289  MEMB      154             0.0000000000
     17647       154  SAPE      H13Y          -20.8409792740      -22.8217006071       -4.6930769598  MEMB      154             0.0000000000
     17648       154  SAPE      C314          -21.0752414441      -21.3874526031       -3.1486755532  MEMB      154             0.0000000000
     17649       154  SAPE      H14X          -21.1388201814      -20.2793541052       -3.0997240005  MEMB      154             0.0000000000
     17650       154  SAPE      H14Y          -20.0375960564      -21.6068681483       -2.8178126609  MEMB      154             0.0000000000
     17651       154  SAPE      C315          -21.8796000444      -22.0910765971       -2.0008142164  MEMB      154             0.0000000000
     17652       154  SAPE      H15X          -22.0509419298      -23.1617306090       -2.2430175172  MEMB      154             0.0000000000
     17653       154  SAPE      H15Y          -22.8242275561      -21.5205623946       -1.8723086478  MEMB      154             0.0000000000
     17654       154  SAPE      C316          -21.0340904524      -22.2179013940       -0.6397898594  MEMB      154             0.0000000000
     17655       154  SAPE      H16X          -21.7511308006      -22.1012454899        0.2007846892  MEMB      154             0.0000000000
     17656       154  SAPE      H16Y          -20.3597009251      -21.3381784350       -0.5649092905  MEMB      154             0.0000000000
     17657       154  SAPE      C317          -20.1918585211      -23.4436001452       -0.6123242723  MEMB      154             0.0000000000
     17658       154  SAPE      H17X          -19.6212997580      -23.3734010180        0.3383896554  MEMB      154             0.0000000000
     17659       154  SAPE      H17Y          -19.4376928448      -23.4921741353       -1.4266919040  MEMB      154             0.0000000000
     17660       154  SAPE      C318          -20.9204796526      -24.8096422572       -0.4856265211  MEMB      154             0.0000000000
     17661       154  SAPE      H18X          -21.5854116402      -24.8361587853       -1.3752803430  MEMB      154             0.0000000000
     17662       154  SAPE      H18Y          -21.3559561236      -24.8012624626        0.5364361962  MEMB      154             0.0000000000
     17663       154  SAPE      H18Z          -20.1770925899      -25.6267298328       -0.6042214494  MEMB      154             0.0000000000
     17664       155  SOPE      N               7.7833428410       31.2541633037      -24.0999449938  MEMB      155             0.0000000000
     17665       155  SOPE      HN1             8.2533558852       31.9994540064      -23.5474693967  MEMB      155             0.0000000000
     17666       155  SOPE      HN2             8.4434911637       30.6954934800      -24.6776062569  MEMB      155             0.0000000000
     17667       155  SOPE      HN3             6.9199824026       31.5979261176      -24.5668881550  MEMB      155             0.0000000000
     17668       155  SOPE      C12             7.2694959528       30.2858391310      -23.1211980307  MEMB      155             0.0000000000
     17669       155  SOPE      H12A            8.1275644077       29.7196970152      -22.6998636747  MEMB      155             0.0000000000
     17670       155  SOPE      H12B            6.7523145006       29.4842409767      -23.6906580291  MEMB      155             0.0000000000
     17671       155  SOPE      C11             6.4389999681       30.6876806655      -21.9137202439  MEMB      155             0.0000000000
     17672       155  SOPE      H11A            5.9703857528       29.8009987914      -21.4356858930  MEMB      155             0.0000000000
     17673       155  SOPE      H11B            5.5584788326       31.1869441040      -22.3716935650  MEMB      155             0.0000000000
     17674       155  SOPE      P               6.4499107513       32.0560729360      -19.7909220816  MEMB      155             0.0000000000
     17675       155  SOPE      O13             5.0197730733       31.7141077714      -19.7144880692  MEMB      155             0.0000000000
     17676       155  SOPE      O14             6.9292066381       33.4665285779      -19.5208686427  MEMB      155             0.0000000000
     17677       155  SOPE      O12             7.1435225058       31.6335000701      -21.0837699797  MEMB      155             0.0000000000
     17678       155  SOPE      O11             7.1386481922       31.1637243434      -18.7550879587  MEMB      155             0.0000000000
     17679       155  SOPE      C1              8.5197310237       31.3622189272      -18.4813503041  MEMB      155             0.0000000000
     17680       155  SOPE      HA              8.5653805995       32.2648293493      -17.8351833788  MEMB      155             0.0000000000
     17681       155  SOPE      HB              9.1979573285       31.4220648080      -19.3592731237  MEMB      155             0.0000000000
     17682       155  SOPE      C2              9.0966279635       30.0879226290      -17.7779682420  MEMB      155             0.0000000000
     17683       155  SOPE      HS              9.3615250064       29.3984758235      -18.6079162167  MEMB      155             0.0000000000
     17684       155  SOPE      O21             8.1233905367       29.5737615598      -16.7948626364  MEMB      155             0.0000000000
     17685       155  SOPE      C21             8.0507299262       28.2945648338      -16.7220082083  MEMB      155             0.0000000000
     17686       155  SOPE      O22             8.7484279961       27.4377887980      -17.2951166827  MEMB      155             0.0000000000
     17687       155  SOPE      C22             6.9982663495       28.0600833675      -15.6672320583  MEMB      155             0.0000000000
     17688       155  SOPE      H2R             6.2342424057       27.6239613624      -16.3457492677  MEMB      155             0.0000000000
     17689       155  SOPE      H2S             6.4564151676       28.9432581329      -15.2663319933  MEMB      155             0.0000000000
     17690       155  SOPE      C3             10.3969707941       30.2591922688      -16.9875477740  MEMB      155             0.0000000000
     17691       155  SOPE      HX             11.1262909621       30.5149350178      -17.7856757047  MEMB      155             0.0000000000
     17692       155  SOPE      HY             10.7005910827       29.2758106663      -16.5691029196  MEMB      155             0.0000000000
     17693       155  SOPE      O31            10.2575617212       31.3218904386      -16.0237127678  MEMB      155             0.0000000000
     17694       155  SOPE      C31            10.9879777168       31.2825246016      -14.9595725676  MEMB      155             0.0000000000
     17695       155  SOPE      O32            11.8640256219       30.4456237781      -14.7265485413  MEMB      155             0.0000000000
     17696       155  SOPE      C32            10.5064829007       32.3322583121      -13.9238809689  MEMB      155             0.0000000000
     17697       155  SOPE      H2X            10.0316702703       31.8027800916      -13.0703433768  MEMB      155             0.0000000000
     17698       155  SOPE      H2Y             9.6987365986       32.9965835396      -14.2987663524  MEMB      155             0.0000000000
     17699       155  SOPE      C23             7.5898920266       27.1412248998      -14.5681468383  MEMB      155             0.0000000000
     17700       155  SOPE      H3R             8.1487437340       26.3260009169      -15.0755083470  MEMB      155             0.0000000000
     17701       155  SOPE      H3S             6.7436915104       26.7332796819      -13.9749805146  MEMB      155             0.0000000000
     17702       155  SOPE      C24             8.5652947103       27.8171639084      -13.5232714439  MEMB      155             0.0000000000
     17703       155  SOPE      H4R             9.4327490052       28.3049508347      -14.0171423253  MEMB      155             0.0000000000
     17704       155  SOPE      H4S             7.9402505068       28.6863735348      -13.2264293155  MEMB      155             0.0000000000
     17705       155  SOPE      C25             8.9677977628       27.0230545062      -12.2942699604  MEMB      155             0.0000000000
     17706       155  SOPE      H5R             8.5042218267       26.0139748575      -12.2599653644  MEMB      155             0.0000000000
     17707       155  SOPE      H5S            10.0761173902       26.9540475965      -12.2598204083  MEMB      155             0.0000000000
     17708       155  SOPE      C26             8.5287069471       27.6702732033      -10.9970469589  MEMB      155             0.0000000000
     17709       155  SOPE      H6R             7.4380287872       27.8800996203      -11.0237869978  MEMB      155             0.0000000000
     17710       155  SOPE      H6S             8.7489727443       27.0448630488      -10.1056057438  MEMB      155             0.0000000000
     17711       155  SOPE      C27             9.2419139589       28.9432053420      -10.7075754145  MEMB      155             0.0000000000
     17712       155  SOPE      H7R            10.3012917973       28.6143798336      -10.6450209580  MEMB      155             0.0000000000
     17713       155  SOPE      H7S             9.1522691623       29.7205365860      -11.4962714739  MEMB      155             0.0000000000
     17714       155  SOPE      C28             9.0463529144       29.4392873940       -9.2360174521  MEMB      155             0.0000000000
     17715       155  SOPE      H8R             9.1533823455       28.5898412530       -8.5279871615  MEMB      155             0.0000000000
     17716       155  SOPE      H8S             9.9539497727       30.0492234004       -9.0396328624  MEMB      155             0.0000000000
     17717       155  SOPE      C29             7.9369166651       30.4006099707       -9.1297427441  MEMB      155             0.0000000000
     17718       155  SOPE      H91             8.1000326288       31.3411387825       -9.6763672644  MEMB      155             0.0000000000
     17719       155  SOPE      C210            6.7777998719       30.1463624836       -8.5303580531  MEMB      155             0.0000000000
     17720       155  SOPE      H101            6.0896441170       31.0017057058       -8.4608627359  MEMB      155             0.0000000000
     17721       155  SOPE      C211            6.4112030461       28.8398146604       -7.7942707024  MEMB      155             0.0000000000
     17722       155  SOPE      H11R            6.6254080271       28.1281627135       -8.6200967891  MEMB      155             0.0000000000
     17723       155  SOPE      H11S            5.3076248889       28.8851376012       -7.6743451367  MEMB      155             0.0000000000
     17724       155  SOPE      C212            7.0132849706       28.5248384125       -6.4339403605  MEMB      155             0.0000000000
     17725       155  SOPE      H12R            8.0861252306       28.2652553531       -6.5602402901  MEMB      155             0.0000000000
     17726       155  SOPE      H12S            6.4727623541       27.6229110596       -6.0752161697  MEMB      155             0.0000000000
     17727       155  SOPE      C213            7.0690009029       29.6058403264       -5.3533758696  MEMB      155             0.0000000000
     17728       155  SOPE      H13R            6.0878404607       30.1094637448       -5.2191794896  MEMB      155             0.0000000000
     17729       155  SOPE      H13S            7.8162138211       30.3871719173       -5.6093345057  MEMB      155             0.0000000000
     17730       155  SOPE      C214            7.5159857573       29.1600038811       -3.9166330265  MEMB      155             0.0000000000
     17731       155  SOPE      H14R            7.5441813181       30.1485481226       -3.4103670998  MEMB      155             0.0000000000
     17732       155  SOPE      H14S            8.5109218461       28.6678178410       -3.9632860703  MEMB      155             0.0000000000
     17733       155  SOPE      C215            6.4134317557       28.2815687579       -3.2628376485  MEMB      155             0.0000000000
     17734       155  SOPE      H15R            6.8650942128       27.6999251093       -2.4309642005  MEMB      155             0.0000000000
     17735       155  SOPE      H15S            5.8143701869       27.7795399470       -4.0524014458  MEMB      155             0.0000000000
     17736       155  SOPE      C216            5.3231713401       29.0880992978       -2.4576955142  MEMB      155             0.0000000000
     17737       155  SOPE      H16R            4.9823490880       29.7817031389       -3.2558661517  MEMB      155             0.0000000000
     17738       155  SOPE      H16S            5.7831228247       29.7032186006       -1.6549555821  MEMB      155             0.0000000000
     17739       155  SOPE      C217            4.1963861703       28.2446252187       -1.9035630087  MEMB      155             0.0000000000
     17740       155  SOPE      H17R            4.5579046739       27.4456618532       -1.2214467411  MEMB      155             0.0000000000
     17741       155  SOPE      H17S            3.7804308094       27.7845161488       -2.8253012124  MEMB      155             0.0000000000
     17742       155  SOPE      C218            3.1526183249       29.1109770205       -1.2013916713  MEMB      155             0.0000000000
     17743       155  SOPE      H18R            3.6030027009       29.8908423156       -0.5507891566  MEMB      155             0.0000000000
     17744       155  SOPE      H18S            2.4633194427       28.4858156375       -0.5944653655  MEMB      155             0.0000000000
     17745       155  SOPE      H18T            2.5714093844       29.7481639257       -1.9017559816  MEMB      155             0.0000000000
     17746       155  SOPE      C33            11.6266862154       33.1466416861      -13.3944808896  MEMB      155             0.0000000000
     17747       155  SOPE      H3X            12.1606201437       33.6811601421      -14.2090512246  MEMB      155             0.0000000000
     17748       155  SOPE      H3Y            12.4095263644       32.5372107098      -12.8944049183  MEMB      155             0.0000000000
     17749       155  SOPE      C34            11.1275742567       34.0412535288      -12.2608449458  MEMB      155             0.0000000000
     17750       155  SOPE      H4X            10.3183965340       34.6918565056      -12.6561525207  MEMB      155             0.0000000000
     17751       155  SOPE      H4Y            11.8502284006       34.8149257818      -11.9239119602  MEMB      155             0.0000000000
     17752       155  SOPE      C35            10.7130776096       33.4660138465      -10.8953791640  MEMB      155             0.0000000000
     17753       155  SOPE      H5X            11.6163515319       33.0821836235      -10.3747141877  MEMB      155             0.0000000000
     17754       155  SOPE      H5Y            10.1013804376       32.5394371407      -10.9354151165  MEMB      155             0.0000000000
     17755       155  SOPE      C36            10.0247390364       34.5218600690       -9.9734480285  MEMB      155             0.0000000000
     17756       155  SOPE      H6X            10.7187900363       35.3892945987       -9.9603319712  MEMB      155             0.0000000000
     17757       155  SOPE      H6Y            10.0375891053       34.2279195438       -8.9021149017  MEMB      155             0.0000000000
     17758       155  SOPE      C37             8.6244782427       34.9602731361      -10.2709441087  MEMB      155             0.0000000000
     17759       155  SOPE      H7X             8.4804904187       34.9268856707      -11.3720685343  MEMB      155             0.0000000000
     17760       155  SOPE      H7Y             8.6881336363       36.0449198556      -10.0389730200  MEMB      155             0.0000000000
     17761       155  SOPE      C38             7.4357179609       34.1818164719       -9.7251115964  MEMB      155             0.0000000000
     17762       155  SOPE      H8X             7.3553072801       33.2060294061      -10.2501772411  MEMB      155             0.0000000000
     17763       155  SOPE      H8Y             6.4661342712       34.6792291461       -9.9414653315  MEMB      155             0.0000000000
     17764       155  SOPE      C39             7.5136595922       33.7226324500       -8.2665546121  MEMB      155             0.0000000000
     17765       155  SOPE      H9X             8.3470898316       33.0193162451       -8.0542781608  MEMB      155             0.0000000000
     17766       155  SOPE      H9Y             6.5617588491       33.1590354659       -8.1637710938  MEMB      155             0.0000000000
     17767       155  SOPE      C310            7.4544090139       34.8207914293       -7.2500024738  MEMB      155             0.0000000000
     17768       155  SOPE      H10X            6.3748494366       34.9839147783       -7.0444232105  MEMB      155             0.0000000000
     17769       155  SOPE      H10Y            7.6990707426       35.7265554230       -7.8450261634  MEMB      155             0.0000000000
     17770       155  SOPE      C311            8.2197401124       34.6465018480       -5.9641382501  MEMB      155             0.0000000000
     17771       155  SOPE      H11X            8.3244321048       35.6261390220       -5.4506487050  MEMB      155             0.0000000000
     17772       155  SOPE      H11Y            9.2906054144       34.5827406864       -6.2531077085  MEMB      155             0.0000000000
     17773       155  SOPE      C312            7.8500676004       33.4821740330       -5.1050681497  MEMB      155             0.0000000000
     17774       155  SOPE      H12X            8.5465993790       33.2476745639       -4.2718968304  MEMB      155             0.0000000000
     17775       155  SOPE      H12Y            7.9880727291       32.6066254509       -5.7749118903  MEMB      155             0.0000000000
     17776       155  SOPE      C313            6.3943135391       33.4926534776       -4.4000016698  MEMB      155             0.0000000000
     17777       155  SOPE      H13X            6.2741996731       32.4767335808       -3.9666421124  MEMB      155             0.0000000000
     17778       155  SOPE      H13Y            5.6557771211       33.6779285668       -5.2090498040  MEMB      155             0.0000000000
     17779       155  SOPE      C314            6.2103927565       34.4882145054       -3.3140410776  MEMB      155             0.0000000000
     17780       155  SOPE      H14X            6.1622834534       35.5387564209       -3.6723249978  MEMB      155             0.0000000000
     17781       155  SOPE      H14Y            7.0993647158       34.3499807073       -2.6621665293  MEMB      155             0.0000000000
     17782       155  SOPE      C315            4.9216009147       34.2521521863       -2.4861989853  MEMB      155             0.0000000000
     17783       155  SOPE      H15X            5.2272186447       33.5883981296       -1.6493298561  MEMB      155             0.0000000000
     17784       155  SOPE      H15Y            4.0806909547       33.8568045323       -3.0952080783  MEMB      155             0.0000000000
     17785       155  SOPE      C316            4.3832557346       35.5863320616       -1.8543087350  MEMB      155             0.0000000000
     17786       155  SOPE      H16X            4.1020139793       36.3199657786       -2.6398051120  MEMB      155             0.0000000000
     17787       155  SOPE      H16Y            5.2564523215       35.9352551807       -1.2626153084  MEMB      155             0.0000000000
     17788       155  SOPE      C317            3.1053899705       35.4696174681       -1.0886126792  MEMB      155             0.0000000000
     17789       155  SOPE      H17X            2.2348449338       35.4941547346       -1.7784456769  MEMB      155             0.0000000000
     17790       155  SOPE      H17Y            2.9977654836       36.3491771932       -0.4184539729  MEMB      155             0.0000000000
     17791       155  SOPE      C318            2.8194318973       34.1963567422       -0.2940406474  MEMB      155             0.0000000000
     17792       155  SOPE      H18X            1.8199424305       34.2666904181        0.1859533900  MEMB      155             0.0000000000
     17793       155  SOPE      H18Y            3.6415049535       34.1936779067        0.4532934155  MEMB      155             0.0000000000
     17794       155  SOPE      H18Z            2.7527932273       33.3115043299       -0.9625594953  MEMB      155             0.0000000000
     17795       156  SAPC      N              -2.4744781168      -32.2443347160      -19.6801001708  MEMB      156             0.0000000000
     17796       156  SAPC      C12            -3.4888492643      -31.1212964683      -19.7579536428  MEMB      156             0.0000000000
     17797       156  SAPC      H12A           -2.8864658766      -30.2256133139      -19.7938128311  MEMB      156             0.0000000000
     17798       156  SAPC      H12B           -4.0546643526      -31.1580137829      -18.8387664362  MEMB      156             0.0000000000
     17799       156  SAPC      C13            -1.5369008040      -32.0831491902      -18.5840153671  MEMB      156             0.0000000000
     17800       156  SAPC      H13A           -2.1163316566      -32.2016914241      -17.6803520963  MEMB      156             0.0000000000
     17801       156  SAPC      H13B           -0.7248451258      -32.7931714479      -18.6372511370  MEMB      156             0.0000000000
     17802       156  SAPC      H13C           -1.1662331598      -31.0691221446      -18.5565406868  MEMB      156             0.0000000000
     17803       156  SAPC      C14            -3.1193537434      -33.6001694589      -19.5205464204  MEMB      156             0.0000000000
     17804       156  SAPC      H14A           -3.8313107485      -33.8216332176      -20.3018728517  MEMB      156             0.0000000000
     17805       156  SAPC      H14B           -2.3973349008      -34.4032903341      -19.5112889998  MEMB      156             0.0000000000
     17806       156  SAPC      H14C           -3.5669474241      -33.5999506403      -18.5376630408  MEMB      156             0.0000000000
     17807       156  SAPC      C15            -1.6708371154      -32.2361470049      -20.9379032108  MEMB      156             0.0000000000
     17808       156  SAPC      H15A           -2.3799659180      -32.3282340234      -21.7472588082  MEMB      156             0.0000000000
     17809       156  SAPC      H15B           -1.0235704502      -31.3719693899      -20.9632544359  MEMB      156             0.0000000000
     17810       156  SAPC      H15C           -1.0373075489      -33.1073203505      -21.0159891007  MEMB      156             0.0000000000
     17811       156  SAPC      C11            -4.5195334405      -30.9798211494      -20.8526633305  MEMB      156             0.0000000000
     17812       156  SAPC      H11A           -3.9655430569      -30.9253794150      -21.8141475531  MEMB      156             0.0000000000
     17813       156  SAPC      H11B           -4.9612966752      -29.9669612716      -20.7374191281  MEMB      156             0.0000000000
     17814       156  SAPC      P              -6.8293298260      -32.1146514869      -20.1681839950  MEMB      156             0.0000000000
     17815       156  SAPC      O13            -6.9463089253      -30.8622018836      -19.3586958536  MEMB      156             0.0000000000
     17816       156  SAPC      O14            -7.9170045092      -32.4013582955      -21.1258356724  MEMB      156             0.0000000000
     17817       156  SAPC      O12            -5.3816819916      -32.0261846776      -20.9078276983  MEMB      156             0.0000000000
     17818       156  SAPC      O11            -6.5425649648      -33.2709238424      -19.1062746437  MEMB      156             0.0000000000
     17819       156  SAPC      C1             -6.6526651713      -34.6040045916      -19.5273348093  MEMB      156             0.0000000000
     17820       156  SAPC      HA             -7.6570216022      -34.7891091763      -19.9647423292  MEMB      156             0.0000000000
     17821       156  SAPC      HB             -5.7997804794      -34.9220927289      -20.1643032970  MEMB      156             0.0000000000
     17822       156  SAPC      C2             -6.7025138136      -35.5902965644      -18.3289524401  MEMB      156             0.0000000000
     17823       156  SAPC      HS             -6.8580248032      -36.6220625885      -18.7105229626  MEMB      156             0.0000000000
     17824       156  SAPC      O21            -7.8467818550      -35.1675718685      -17.4721435858  MEMB      156             0.0000000000
     17825       156  SAPC      C21            -8.2249707905      -36.0285003599      -16.3930676476  MEMB      156             0.0000000000
     17826       156  SAPC      O22            -7.7750249129      -37.0894596633      -16.1346490868  MEMB      156             0.0000000000
     17827       156  SAPC      C22            -9.2677926821      -35.3129143049      -15.5816114059  MEMB      156             0.0000000000
     17828       156  SAPC      H2R            -9.9669143626      -34.9639007035      -16.3713833325  MEMB      156             0.0000000000
     17829       156  SAPC      H2S            -9.8605752868      -35.9479657629      -14.8890517011  MEMB      156             0.0000000000
     17830       156  SAPC      C3             -5.4071359148      -35.6220896561      -17.4917292845  MEMB      156             0.0000000000
     17831       156  SAPC      HX             -4.6261982019      -35.8539416981      -18.2471773936  MEMB      156             0.0000000000
     17832       156  SAPC      HY             -5.5513266520      -36.4345484497      -16.7477933115  MEMB      156             0.0000000000
     17833       156  SAPC      O31            -5.2091992225      -34.3898083699      -16.7817841336  MEMB      156             0.0000000000
     17834       156  SAPC      C31            -3.9671919853      -34.1343170593      -16.2436908347  MEMB      156             0.0000000000
     17835       156  SAPC      O32            -2.9776682849      -34.8069437463      -16.5113094926  MEMB      156             0.0000000000
     17836       156  SAPC      C32            -3.9553630101      -32.9377836588      -15.3018056058  MEMB      156             0.0000000000
     17837       156  SAPC      H2X            -4.4269446116      -33.1828493108      -14.3261652484  MEMB      156             0.0000000000
     17838       156  SAPC      H2Y            -4.4752600355      -32.1538271659      -15.8929402286  MEMB      156             0.0000000000
     17839       156  SAPC      C23            -8.7079478332      -34.1280482155      -14.8515229178  MEMB      156             0.0000000000
     17840       156  SAPC      H3R            -9.6083428571      -33.6577685523      -14.4015823159  MEMB      156             0.0000000000
     17841       156  SAPC      H3S            -8.3033699132      -33.4199127909      -15.6059645411  MEMB      156             0.0000000000
     17842       156  SAPC      C24            -7.6234729394      -34.4893834034      -13.8153522864  MEMB      156             0.0000000000
     17843       156  SAPC      H4R            -7.2054615729      -33.4788442401      -13.6193976601  MEMB      156             0.0000000000
     17844       156  SAPC      H4S            -6.7974190573      -35.0949443089      -14.2457617064  MEMB      156             0.0000000000
     17845       156  SAPC      C25            -8.1994989224      -35.3474262810      -12.6714672730  MEMB      156             0.0000000000
     17846       156  SAPC      H5R            -8.2989359910      -36.4404586132      -12.7448999260  MEMB      156             0.0000000000
     17847       156  SAPC      C26            -8.7555317721      -34.7544308500      -11.6279459287  MEMB      156             0.0000000000
     17848       156  SAPC      H6R            -9.0657056247      -35.3930956123      -10.7877673930  MEMB      156             0.0000000000
     17849       156  SAPC      C27            -8.8862082426      -33.2718699793      -11.3923695711  MEMB      156             0.0000000000
     17850       156  SAPC      H7R            -9.1562597250      -32.8545403480      -12.3859634502  MEMB      156             0.0000000000
     17851       156  SAPC      H7S            -7.8441051190      -32.9035266855      -11.2798302098  MEMB      156             0.0000000000
     17852       156  SAPC      C28            -9.7692515610      -32.9556155439      -10.2562089176  MEMB      156             0.0000000000
     17853       156  SAPC      H8R           -10.8489334304      -32.8475415440      -10.4367832536  MEMB      156             0.0000000000
     17854       156  SAPC      C29            -9.3269800500      -32.8563231251       -8.9452064624  MEMB      156             0.0000000000
     17855       156  SAPC      H9R           -10.1318529982      -32.6146634463       -8.2354315923  MEMB      156             0.0000000000
     17856       156  SAPC      C210           -7.9338502297      -33.0849026345       -8.3394984099  MEMB      156             0.0000000000
     17857       156  SAPC      H10R           -8.0126084378      -32.6382877873       -7.3252727402  MEMB      156             0.0000000000
     17858       156  SAPC      H10S           -7.1884063600      -32.6078532652       -9.0111072145  MEMB      156             0.0000000000
     17859       156  SAPC      C211           -7.3806606944      -34.4712804255       -8.2961776513  MEMB      156             0.0000000000
     17860       156  SAPC      H11R           -7.1586062395      -34.7505448477       -9.3367077567  MEMB      156             0.0000000000
     17861       156  SAPC      C212           -7.2437624727      -35.3928078268       -7.3049019379  MEMB      156             0.0000000000
     17862       156  SAPC      H12R           -6.6396041096      -36.3060474404       -7.4097174667  MEMB      156             0.0000000000
     17863       156  SAPC      C213           -7.7555259338      -35.1450130020       -5.8822978795  MEMB      156             0.0000000000
     17864       156  SAPC      H13R           -8.6062348405      -34.4340999050       -5.9545331606  MEMB      156             0.0000000000
     17865       156  SAPC      H13S           -6.9269539910      -34.6613170368       -5.3220948777  MEMB      156             0.0000000000
     17866       156  SAPC      C214           -8.3147886819      -36.3913153456       -5.2823374454  MEMB      156             0.0000000000
     17867       156  SAPC      H14R           -9.0181326190      -36.8875232824       -5.9672347673  MEMB      156             0.0000000000
     17868       156  SAPC      C215           -8.0721318544      -36.9400461247       -4.0668901194  MEMB      156             0.0000000000
     17869       156  SAPC      H15R           -8.5322836760      -37.8861151300       -3.7456187412  MEMB      156             0.0000000000
     17870       156  SAPC      C216           -7.1282543416      -36.3070051879       -2.9881753402  MEMB      156             0.0000000000
     17871       156  SAPC      H16R           -7.6224549541      -36.3533210545       -1.9942232305  MEMB      156             0.0000000000
     17872       156  SAPC      H16S           -7.0747353179      -35.2042088341       -3.1118558241  MEMB      156             0.0000000000
     17873       156  SAPC      C217           -5.6910832462      -36.8329627691       -2.8933864481  MEMB      156             0.0000000000
     17874       156  SAPC      H17R           -5.1933995455      -36.7252973442       -3.8808278736  MEMB      156             0.0000000000
     17875       156  SAPC      H17S           -5.7176378249      -37.9227520591       -2.6789675969  MEMB      156             0.0000000000
     17876       156  SAPC      C218           -4.7639656130      -36.1104755819       -1.7872849337  MEMB      156             0.0000000000
     17877       156  SAPC      H18R           -5.3436176017      -36.2524106782       -0.8501740939  MEMB      156             0.0000000000
     17878       156  SAPC      H18S           -4.7674336810      -35.0295077522       -2.0438360936  MEMB      156             0.0000000000
     17879       156  SAPC      C219           -3.3136465372      -36.7749092875       -1.8079191332  MEMB      156             0.0000000000
     17880       156  SAPC      H19R           -2.8281498584      -36.6850560671       -2.8031761102  MEMB      156             0.0000000000
     17881       156  SAPC      H19S           -3.4234039144      -37.8751349930       -1.6993934750  MEMB      156             0.0000000000
     17882       156  SAPC      C220           -2.4505195279      -36.0686915791       -0.7091294273  MEMB      156             0.0000000000
     17883       156  SAPC      H20R           -2.5645567231      -34.9679965161       -0.8080587798  MEMB      156             0.0000000000
     17884       156  SAPC      H20S           -1.3748921584      -36.3308494674       -0.8019733848  MEMB      156             0.0000000000
     17885       156  SAPC      H20T           -2.6268275366      -36.3536565950        0.3501314889  MEMB      156             0.0000000000
     17886       156  SAPC      C33            -2.5295497547      -32.6266313991      -14.9028375712  MEMB      156             0.0000000000
     17887       156  SAPC      H3X            -1.9648670024      -32.2401579872      -15.7781046326  MEMB      156             0.0000000000
     17888       156  SAPC      H3Y            -1.9770217273      -33.4851458159      -14.4646745105  MEMB      156             0.0000000000
     17889       156  SAPC      C34            -2.3256534374      -31.5490020215      -13.7385253174  MEMB      156             0.0000000000
     17890       156  SAPC      H4X            -2.7983082638      -30.5669742917      -13.9542563394  MEMB      156             0.0000000000
     17891       156  SAPC      H4Y            -1.2300689249      -31.3766247832      -13.6729352331  MEMB      156             0.0000000000
     17892       156  SAPC      C35            -2.8258420851      -32.1460441033      -12.4335952220  MEMB      156             0.0000000000
     17893       156  SAPC      H5X            -2.6003901123      -33.2309969792      -12.3537846480  MEMB      156             0.0000000000
     17894       156  SAPC      H5Y            -3.9251523372      -32.1585570045      -12.5938494129  MEMB      156             0.0000000000
     17895       156  SAPC      C36            -2.3829495559      -31.4500245518      -11.1523824316  MEMB      156             0.0000000000
     17896       156  SAPC      H6X            -3.0204142714      -30.5453983969      -11.0543459831  MEMB      156             0.0000000000
     17897       156  SAPC      H6Y            -1.3189734596      -31.1454530863      -11.2499167679  MEMB      156             0.0000000000
     17898       156  SAPC      C37            -2.2926012175      -32.4527885109       -9.9870322575  MEMB      156             0.0000000000
     17899       156  SAPC      H7X            -1.7028924898      -33.3564752091      -10.2514473138  MEMB      156             0.0000000000
     17900       156  SAPC      H7Y            -3.3197484220      -32.7762963786       -9.7138442787  MEMB      156             0.0000000000
     17901       156  SAPC      C38            -1.6738362271      -31.9160812068       -8.7204469005  MEMB      156             0.0000000000
     17902       156  SAPC      H8X            -2.2806825572      -31.0936294590       -8.2849797072  MEMB      156             0.0000000000
     17903       156  SAPC      H8Y            -0.6932454074      -31.3999441644       -8.8002259432  MEMB      156             0.0000000000
     17904       156  SAPC      C39            -1.4708481936      -32.9020003715       -7.5899331149  MEMB      156             0.0000000000
     17905       156  SAPC      H9X            -0.8997015599      -32.5607495098       -6.7001794790  MEMB      156             0.0000000000
     17906       156  SAPC      H9Y            -0.7876105678      -33.6858122391       -7.9812723168  MEMB      156             0.0000000000
     17907       156  SAPC      C310           -2.7195787385      -33.6437645479       -7.1516461241  MEMB      156             0.0000000000
     17908       156  SAPC      H10X           -2.4244926153      -34.4519227353       -6.4487057629  MEMB      156             0.0000000000
     17909       156  SAPC      H10Y           -3.1910959629      -34.0277512123       -8.0814556451  MEMB      156             0.0000000000
     17910       156  SAPC      C311           -3.9358772146      -32.8266776385       -6.5295910460  MEMB      156             0.0000000000
     17911       156  SAPC      H11X           -4.8621753835      -33.4370735259       -6.5904992412  MEMB      156             0.0000000000
     17912       156  SAPC      H11Y           -4.1636257479      -32.0592431515       -7.2999785928  MEMB      156             0.0000000000
     17913       156  SAPC      C312           -3.6596773162      -32.3052831535       -5.1171769880  MEMB      156             0.0000000000
     17914       156  SAPC      H12X           -2.7953072999      -31.6075572951       -5.0981163337  MEMB      156             0.0000000000
     17915       156  SAPC      H12Y           -3.4055259749      -33.1446722170       -4.4351549533  MEMB      156             0.0000000000
     17916       156  SAPC      C313           -4.7931574598      -31.3962054991       -4.5555033239  MEMB      156             0.0000000000
     17917       156  SAPC      H13X           -5.2164761912      -30.8581010499       -5.4304689711  MEMB      156             0.0000000000
     17918       156  SAPC      H13Y           -4.3792657279      -30.5933747991       -3.9086051035  MEMB      156             0.0000000000
     17919       156  SAPC      C314           -5.8030513361      -32.2298901357       -3.8000208113  MEMB      156             0.0000000000
     17920       156  SAPC      H14X           -5.2225651437      -32.8820937040       -3.1130079959  MEMB      156             0.0000000000
     17921       156  SAPC      H14Y           -6.1387728722      -32.9709346056       -4.5566348417  MEMB      156             0.0000000000
     17922       156  SAPC      C315           -6.8605777489      -31.4548898782       -3.0823214556  MEMB      156             0.0000000000
     17923       156  SAPC      H15X           -7.8109921620      -32.0088047814       -3.2379227917  MEMB      156             0.0000000000
     17924       156  SAPC      H15Y           -7.0437352079      -30.4352405949       -3.4836810966  MEMB      156             0.0000000000
     17925       156  SAPC      C316           -6.5330924935      -31.2094587533       -1.6140587761  MEMB      156             0.0000000000
     17926       156  SAPC      H16X           -6.8014804018      -30.1591950549       -1.3706771293  MEMB      156             0.0000000000
     17927       156  SAPC      H16Y           -5.4271984494      -31.1409305612       -1.5326765436  MEMB      156             0.0000000000
     17928       156  SAPC      C317           -6.9115750678      -32.2451123385       -0.5282709362  MEMB      156             0.0000000000
     17929       156  SAPC      H17X           -6.3563788029      -31.9520565565        0.3883507290  MEMB      156             0.0000000000
     17930       156  SAPC      H17Y           -6.5444408429      -33.2211537648       -0.9115163294  MEMB      156             0.0000000000
     17931       156  SAPC      C318           -8.4295245542      -32.3432593991       -0.3699722865  MEMB      156             0.0000000000
     17932       156  SAPC      H18X           -8.9249029719      -32.5400267866       -1.3447556302  MEMB      156             0.0000000000
     17933       156  SAPC      H18Y           -8.7888494399      -31.3818947248        0.0554510938  MEMB      156             0.0000000000
     17934       156  SAPC      H18Z           -8.6858137529      -33.0579309971        0.4411269516  MEMB      156             0.0000000000
     17935       157  SAPC      N             -31.8356220549        7.4453678766      -20.9762889770  MEMB      157             0.0000000000
     17936       157  SAPC      C12           -31.5775133720        6.1669511680      -21.7037524933  MEMB      157             0.0000000000
     17937       157  SAPC      H12A          -30.6792627893        6.2671271051      -22.2949467504  MEMB      157             0.0000000000
     17938       157  SAPC      H12B          -32.2282082013        5.9192450917      -22.5293661900  MEMB      157             0.0000000000
     17939       157  SAPC      C13           -30.7916577515        7.5652291485      -19.8099817655  MEMB      157             0.0000000000
     17940       157  SAPC      H13A          -31.1232054520        6.8707517424      -19.0522368292  MEMB      157             0.0000000000
     17941       157  SAPC      H13B          -29.7998848590        7.4375046908      -20.2179928886  MEMB      157             0.0000000000
     17942       157  SAPC      H13C          -30.6698926064        8.5733535119      -19.4422063256  MEMB      157             0.0000000000
     17943       157  SAPC      C14           -31.6885995273        8.6005304927      -21.9216330432  MEMB      157             0.0000000000
     17944       157  SAPC      H14A          -32.3679314226        8.4028159709      -22.7376093357  MEMB      157             0.0000000000
     17945       157  SAPC      H14B          -32.0207073847        9.4848145234      -21.3980435938  MEMB      157             0.0000000000
     17946       157  SAPC      H14C          -30.6707763226        8.5704145867      -22.2815346364  MEMB      157             0.0000000000
     17947       157  SAPC      C15           -33.2945786674        7.4227397573      -20.4756049165  MEMB      157             0.0000000000
     17948       157  SAPC      H15A          -33.4943482113        6.6279824457      -19.7721470823  MEMB      157             0.0000000000
     17949       157  SAPC      H15B          -33.5453235658        8.3882662358      -20.0617383291  MEMB      157             0.0000000000
     17950       157  SAPC      H15C          -33.8686391528        7.2017029672      -21.3632970018  MEMB      157             0.0000000000
     17951       157  SAPC      C11           -31.4743648132        4.8368238655      -20.8782371945  MEMB      157             0.0000000000
     17952       157  SAPC      H11A          -30.5471893927        4.7249459618      -20.2764481268  MEMB      157             0.0000000000
     17953       157  SAPC      H11B          -31.5154973222        3.9494988741      -21.5455327731  MEMB      157             0.0000000000
     17954       157  SAPC      P             -32.7368084637        3.7632127696      -18.7875026147  MEMB      157             0.0000000000
     17955       157  SAPC      O13           -32.4714501429        2.3887600372      -19.2640082122  MEMB      157             0.0000000000
     17956       157  SAPC      O14           -31.7620753690        4.3150466051      -17.8240567730  MEMB      157             0.0000000000
     17957       157  SAPC      O12           -32.6121553300        4.7489470201      -20.0551896849  MEMB      157             0.0000000000
     17958       157  SAPC      O11           -34.2595060382        3.8234480723      -18.3037442985  MEMB      157             0.0000000000
     17959       157  SAPC      C1            -35.2190170352        3.7951192117      -19.3344005236  MEMB      157             0.0000000000
     17960       157  SAPC      HA            -34.8215136845        4.4323584852      -20.1530812159  MEMB      157             0.0000000000
     17961       157  SAPC      HB            -35.2302550315        2.7326334513      -19.6589289861  MEMB      157             0.0000000000
     17962       157  SAPC      C2            -36.5115270621        4.4562159335      -18.8475629864  MEMB      157             0.0000000000
     17963       157  SAPC      HS            -37.1738284523        4.7189830489      -19.6999898362  MEMB      157             0.0000000000
     17964       157  SAPC      O21           -36.2796002489        5.6992381091      -18.0620420860  MEMB      157             0.0000000000
     17965       157  SAPC      C21           -36.1018784131        6.8879190743      -18.6712437291  MEMB      157             0.0000000000
     17966       157  SAPC      O22           -36.1986063997        7.0720178674      -19.8695861672  MEMB      157             0.0000000000
     17967       157  SAPC      C22           -35.4981701647        8.0151437374      -17.7231082162  MEMB      157             0.0000000000
     17968       157  SAPC      H2R           -34.6233507187        8.4090488385      -18.2833321334  MEMB      157             0.0000000000
     17969       157  SAPC      H2S           -36.2983645454        8.7858582822      -17.7200792719  MEMB      157             0.0000000000
     17970       157  SAPC      C3            -37.2591558340        3.4298682536      -17.8561286614  MEMB      157             0.0000000000
     17971       157  SAPC      HX            -37.5705548447        2.4994291223      -18.3773142561  MEMB      157             0.0000000000
     17972       157  SAPC      HY            -38.1569953759        4.0332514032      -17.6028817166  MEMB      157             0.0000000000
     17973       157  SAPC      O31           -36.4179221164        3.2760374654      -16.6830467590  MEMB      157             0.0000000000
     17974       157  SAPC      C31           -35.7625793863        2.1792634361      -16.4847044467  MEMB      157             0.0000000000
     17975       157  SAPC      O32           -35.6959019542        1.2554282055      -17.2978474697  MEMB      157             0.0000000000
     17976       157  SAPC      C32           -35.1392996901        2.1162055313      -15.0608118680  MEMB      157             0.0000000000
     17977       157  SAPC      H2X           -35.8335718440        1.4746367127      -14.4771202538  MEMB      157             0.0000000000
     17978       157  SAPC      H2Y           -35.0851455546        3.1203740535      -14.5885473698  MEMB      157             0.0000000000
     17979       157  SAPC      C23           -35.0172500062        7.5257857449      -16.3426064947  MEMB      157             0.0000000000
     17980       157  SAPC      H3R           -34.3364243372        6.6709839958      -16.5428851141  MEMB      157             0.0000000000
     17981       157  SAPC      H3S           -35.8668375335        7.4361315411      -15.6323361265  MEMB      157             0.0000000000
     17982       157  SAPC      C24           -34.2299956771        8.6090295638      -15.6291215597  MEMB      157             0.0000000000
     17983       157  SAPC      H4R           -34.9876604133        9.3666154323      -15.3353050494  MEMB      157             0.0000000000
     17984       157  SAPC      H4S           -33.4659799659        9.0243217291      -16.3205937297  MEMB      157             0.0000000000
     17985       157  SAPC      C25           -33.5423241184        8.0047143680      -14.4999600685  MEMB      157             0.0000000000
     17986       157  SAPC      H5R           -32.4491921320        7.9745601354      -14.6189269829  MEMB      157             0.0000000000
     17987       157  SAPC      C26           -34.1314842443        7.6979621099      -13.2793788337  MEMB      157             0.0000000000
     17988       157  SAPC      H6R           -33.4954923237        7.2063385252      -12.5284987389  MEMB      157             0.0000000000
     17989       157  SAPC      C27           -35.5991482607        7.9364289402      -12.9968279238  MEMB      157             0.0000000000
     17990       157  SAPC      H7R           -36.2841609132        7.1959262247      -13.4623752056  MEMB      157             0.0000000000
     17991       157  SAPC      H7S           -35.8728793892        8.9052143759      -13.4667709561  MEMB      157             0.0000000000
     17992       157  SAPC      C28           -35.9448251963        8.1948025575      -11.5708161049  MEMB      157             0.0000000000
     17993       157  SAPC      H8R           -36.1957608858        9.2567943467      -11.4322323989  MEMB      157             0.0000000000
     17994       157  SAPC      C29           -35.9494989767        7.4239892568      -10.4888678642  MEMB      157             0.0000000000
     17995       157  SAPC      H9R           -36.2834229853        7.8106001576       -9.5146876419  MEMB      157             0.0000000000
     17996       157  SAPC      C210          -35.5472738837        6.0038204509      -10.5297546654  MEMB      157             0.0000000000
     17997       157  SAPC      H10R          -34.7644756729        5.9851695675       -9.7415917030  MEMB      157             0.0000000000
     17998       157  SAPC      H10S          -34.9791550175        5.5915053709      -11.3908918872  MEMB      157             0.0000000000
     17999       157  SAPC      C211          -36.5896027444        5.0550114640      -10.1741879090  MEMB      157             0.0000000000
     18000       157  SAPC      H11R          -37.0871350801        4.5168440367      -10.9944537822  MEMB      157             0.0000000000
     18001       157  SAPC      C212          -36.8323614512        4.4575473620       -8.9604345618  MEMB      157             0.0000000000
     18002       157  SAPC      H12R          -37.6618082396        3.7404745227       -8.8719784489  MEMB      157             0.0000000000
     18003       157  SAPC      C213          -36.1434219258        4.5369148902       -7.6251813232  MEMB      157             0.0000000000
     18004       157  SAPC      H13R          -36.8115689930        4.9759667713       -6.8537324334  MEMB      157             0.0000000000
     18005       157  SAPC      H13S          -35.1740774512        5.0412984278       -7.8259040838  MEMB      157             0.0000000000
     18006       157  SAPC      C214          -35.8307458148        3.1546708467       -7.0374141485  MEMB      157             0.0000000000
     18007       157  SAPC      H14R          -35.8455623843        2.3423389591       -7.7789643680  MEMB      157             0.0000000000
     18008       157  SAPC      C215          -35.5379639469        2.8849633140       -5.7929586330  MEMB      157             0.0000000000
     18009       157  SAPC      H15R          -35.3358269389        1.8576936056       -5.4555304135  MEMB      157             0.0000000000
     18010       157  SAPC      C216          -35.4995472566        3.9423322009       -4.6613006859  MEMB      157             0.0000000000
     18011       157  SAPC      H16R          -35.8175573820        4.9438568220       -5.0220489530  MEMB      157             0.0000000000
     18012       157  SAPC      H16S          -34.4423134827        4.0886854469       -4.3528232132  MEMB      157             0.0000000000
     18013       157  SAPC      C217          -36.3916534582        3.5387670375       -3.4562812482  MEMB      157             0.0000000000
     18014       157  SAPC      H17R          -37.4411443997        3.4834618272       -3.8166011692  MEMB      157             0.0000000000
     18015       157  SAPC      H17S          -36.3095909218        4.4359564605       -2.8061744885  MEMB      157             0.0000000000
     18016       157  SAPC      C218          -35.9063313556        2.2769251024       -2.8036262456  MEMB      157             0.0000000000
     18017       157  SAPC      H18R          -34.8129050654        2.3220849794       -2.6120513133  MEMB      157             0.0000000000
     18018       157  SAPC      H18S          -36.0950278034        1.4649740661       -3.5380987087  MEMB      157             0.0000000000
     18019       157  SAPC      C219          -36.6624942822        1.8913402864       -1.5763365450  MEMB      157             0.0000000000
     18020       157  SAPC      H19R          -36.2140543255        0.9105167962       -1.3094888903  MEMB      157             0.0000000000
     18021       157  SAPC      H19S          -37.7179468309        1.7084752956       -1.8711257892  MEMB      157             0.0000000000
     18022       157  SAPC      C220          -36.7335746393        2.9103458318       -0.3773918425  MEMB      157             0.0000000000
     18023       157  SAPC      H20R          -37.4450871460        2.7246575130        0.4554292926  MEMB      157             0.0000000000
     18024       157  SAPC      H20S          -37.0060372807        3.8880849928       -0.8291787288  MEMB      157             0.0000000000
     18025       157  SAPC      H20T          -35.7176179200        2.9486044929        0.0705923262  MEMB      157             0.0000000000
     18026       157  SAPC      C33           -33.7332475350        1.4678400850      -15.1229424600  MEMB      157             0.0000000000
     18027       157  SAPC      H3X           -33.1503336109        1.9353655870      -15.9451056037  MEMB      157             0.0000000000
     18028       157  SAPC      H3Y           -33.8807405367        0.3882961424      -15.3400861280  MEMB      157             0.0000000000
     18029       157  SAPC      C34           -32.9749053580        1.5822348483      -13.7547333343  MEMB      157             0.0000000000
     18030       157  SAPC      H4X           -32.0788916864        0.9414775464      -13.8993379584  MEMB      157             0.0000000000
     18031       157  SAPC      H4Y           -33.5163861244        1.0504334965      -12.9433723396  MEMB      157             0.0000000000
     18032       157  SAPC      C35           -32.4865648359        3.0071705523      -13.4123186075  MEMB      157             0.0000000000
     18033       157  SAPC      H5X           -33.3262559693        3.7325891077      -13.4671626710  MEMB      157             0.0000000000
     18034       157  SAPC      H5Y           -31.7383801516        3.3422873881      -14.1621438092  MEMB      157             0.0000000000
     18035       157  SAPC      C36           -31.7883786971        3.1825437085      -12.0592731900  MEMB      157             0.0000000000
     18036       157  SAPC      H6X           -31.4625590957        4.2238169638      -11.8497196403  MEMB      157             0.0000000000
     18037       157  SAPC      H6Y           -30.8693329735        2.5583034539      -12.0590790636  MEMB      157             0.0000000000
     18038       157  SAPC      C37           -32.6812983729        2.9215342026      -10.9076650547  MEMB      157             0.0000000000
     18039       157  SAPC      H7X           -32.9353198779        1.8632321234      -10.6845262379  MEMB      157             0.0000000000
     18040       157  SAPC      H7Y           -33.5936212633        3.5517531071      -10.8382958350  MEMB      157             0.0000000000
     18041       157  SAPC      C38           -32.0396197262        3.4821530213       -9.5825223606  MEMB      157             0.0000000000
     18042       157  SAPC      H8X           -31.9199196757        4.5849748037       -9.6439807034  MEMB      157             0.0000000000
     18043       157  SAPC      H8Y           -30.9860188261        3.1422267738       -9.4892687435  MEMB      157             0.0000000000
     18044       157  SAPC      C39           -32.7318174646        3.1854317672       -8.3108291816  MEMB      157             0.0000000000
     18045       157  SAPC      H9X           -33.3951203119        2.3104847311       -8.4805877379  MEMB      157             0.0000000000
     18046       157  SAPC      H9Y           -33.2868156243        4.0717828778       -7.9357560155  MEMB      157             0.0000000000
     18047       157  SAPC      C310          -31.7340748057        2.8482021536       -7.1909463050  MEMB      157             0.0000000000
     18048       157  SAPC      H10X          -31.0008893232        2.0890924755       -7.5380950279  MEMB      157             0.0000000000
     18049       157  SAPC      H10Y          -32.3527488848        2.3236303528       -6.4317437085  MEMB      157             0.0000000000
     18050       157  SAPC      C311          -30.9833418357        4.0050192358       -6.6568273136  MEMB      157             0.0000000000
     18051       157  SAPC      H11X          -30.6782884664        4.7054540028       -7.4634589075  MEMB      157             0.0000000000
     18052       157  SAPC      H11Y          -29.9793477668        3.7393325185       -6.2622041957  MEMB      157             0.0000000000
     18053       157  SAPC      C312          -31.7732404061        4.6997687306       -5.5103404700  MEMB      157             0.0000000000
     18054       157  SAPC      H12X          -31.6125028979        4.1860312629       -4.5384571888  MEMB      157             0.0000000000
     18055       157  SAPC      H12Y          -32.8353238634        4.8839399179       -5.7793771394  MEMB      157             0.0000000000
     18056       157  SAPC      C313          -31.2047025275        6.0916843588       -5.2545414099  MEMB      157             0.0000000000
     18057       157  SAPC      H13X          -31.7513185687        6.8231884482       -5.8873393130  MEMB      157             0.0000000000
     18058       157  SAPC      H13Y          -30.1152333348        6.0949854455       -5.4721801611  MEMB      157             0.0000000000
     18059       157  SAPC      C314          -31.2566972690        6.4728100916       -3.8158805708  MEMB      157             0.0000000000
     18060       157  SAPC      H14X          -30.8940709276        7.5209342534       -3.7506162229  MEMB      157             0.0000000000
     18061       157  SAPC      H14Y          -30.5834385781        5.7578413227       -3.2963971806  MEMB      157             0.0000000000
     18062       157  SAPC      C315          -32.6324468772        6.4908328431       -3.1471896534  MEMB      157             0.0000000000
     18063       157  SAPC      H15X          -32.8841305296        5.4280018461       -2.9438009517  MEMB      157             0.0000000000
     18064       157  SAPC      H15Y          -33.4419817174        6.9990209945       -3.7135092945  MEMB      157             0.0000000000
     18065       157  SAPC      C316          -32.5531010699        7.0581185789       -1.6890540753  MEMB      157             0.0000000000
     18066       157  SAPC      H16X          -32.5313071951        8.1689040570       -1.6876654100  MEMB      157             0.0000000000
     18067       157  SAPC      H16Y          -31.6053856236        6.5591419901       -1.3937946033  MEMB      157             0.0000000000
     18068       157  SAPC      C317          -33.7254146512        6.5970981557       -0.8096009048  MEMB      157             0.0000000000
     18069       157  SAPC      H17X          -33.5544001858        6.8085698365        0.2675966513  MEMB      157             0.0000000000
     18070       157  SAPC      H17Y          -33.8829420901        5.4975856090       -0.8336490991  MEMB      157             0.0000000000
     18071       157  SAPC      C318          -35.0600105012        7.2915554896       -1.1508417259  MEMB      157             0.0000000000
     18072       157  SAPC      H18X          -35.8562541965        7.0762802999       -0.4065457793  MEMB      157             0.0000000000
     18073       157  SAPC      H18Y          -35.3138865922        7.0053312605       -2.1938857791  MEMB      157             0.0000000000
     18074       157  SAPC      H18Z          -34.9717689365        8.3964508369       -1.0750725882  MEMB      157             0.0000000000
     18075       158  OSM       N             -33.0738251449       -6.3211986404      -21.6102918151  MEMB      158             0.0000000000
     18076       158  OSM       C15           -32.3434926016       -5.6680301908      -22.7262495043  MEMB      158             0.0000000000
     18077       158  OSM       H15A          -32.9879695130       -5.7588222425      -23.5881116138  MEMB      158             0.0000000000
     18078       158  OSM       H15B          -31.3989679663       -6.1901954633      -22.7664583759  MEMB      158             0.0000000000
     18079       158  OSM       H15C          -32.2169224243       -4.6111383328      -22.5436040814  MEMB      158             0.0000000000
     18080       158  OSM       C14           -32.3691813409       -5.9718529042      -20.2863223748  MEMB      158             0.0000000000
     18081       158  OSM       H14A          -33.0244194209       -6.1168016657      -19.4401232158  MEMB      158             0.0000000000
     18082       158  OSM       H14B          -32.1269066660       -4.9199013035      -20.2531451246  MEMB      158             0.0000000000
     18083       158  OSM       H14C          -31.5743405173       -6.6951383815      -20.1791483890  MEMB      158             0.0000000000
     18084       158  OSM       C13           -34.5008636139       -5.8521482300      -21.5601057971  MEMB      158             0.0000000000
     18085       158  OSM       H13A          -34.9882444056       -6.2562748833      -22.4350581409  MEMB      158             0.0000000000
     18086       158  OSM       H13B          -34.5122283329       -4.7723540110      -21.5423474646  MEMB      158             0.0000000000
     18087       158  OSM       H13C          -35.0013192818       -6.0267156815      -20.6191114471  MEMB      158             0.0000000000
     18088       158  OSM       C12           -33.1903549733       -7.8013335331      -21.5892288736  MEMB      158             0.0000000000
     18089       158  OSM       H12A          -33.9739456851       -8.0872804205      -22.2752463199  MEMB      158             0.0000000000
     18090       158  OSM       H12B          -33.4936188849       -8.0544261853      -20.5840547311  MEMB      158             0.0000000000
     18091       158  OSM       C11           -31.9133015337       -8.6312425477      -22.0589588787  MEMB      158             0.0000000000
     18092       158  OSM       H11A          -31.4534679880       -8.3046639473      -23.0161529661  MEMB      158             0.0000000000
     18093       158  OSM       H11B          -32.2356679682       -9.6477288574      -22.3706582188  MEMB      158             0.0000000000
     18094       158  OSM       P             -30.4949352796       -9.8697438714      -20.2146982285  MEMB      158             0.0000000000
     18095       158  OSM       O13           -31.2814484104      -10.1610859555      -18.9834719145  MEMB      158             0.0000000000
     18096       158  OSM       O14           -30.2702216166      -10.9882707471      -21.1962096462  MEMB      158             0.0000000000
     18097       158  OSM       O11           -29.1270432744       -9.2969883396      -19.7980887465  MEMB      158             0.0000000000
     18098       158  OSM       O12           -30.9987299133       -8.6049715069      -20.9763742163  MEMB      158             0.0000000000
     18099       158  OSM       C1S           -29.0324097281       -8.0511732038      -19.1467744610  MEMB      158             0.0000000000
     18100       158  OSM       H1S           -29.8844203219       -7.4221932414      -19.4826065078  MEMB      158             0.0000000000
     18101       158  OSM       H1T           -28.1106603963       -7.5077573578      -19.4457697659  MEMB      158             0.0000000000
     18102       158  OSM       NF            -29.2850204604       -6.9934890459      -16.8856700985  MEMB      158             0.0000000000
     18103       158  OSM       HNF           -28.4824877072       -6.5895740641      -16.4534630332  MEMB      158             0.0000000000
     18104       158  OSM       C2S           -28.9637625286       -8.1481605417      -17.5509702511  MEMB      158             0.0000000000
     18105       158  OSM       H2S           -29.6670938031       -8.9544984582      -17.2518627158  MEMB      158             0.0000000000
     18106       158  OSM       C3S           -27.5410557550       -8.5455758509      -17.0793069747  MEMB      158             0.0000000000
     18107       158  OSM       H3S           -26.8734746885       -7.7464202738      -17.4666142541  MEMB      158             0.0000000000
     18108       158  OSM       O3            -27.1124795472       -9.7189390467      -17.7390715464  MEMB      158             0.0000000000
     18109       158  OSM       HO3           -27.8128036727       -9.9926895249      -18.3359018007  MEMB      158             0.0000000000
     18110       158  OSM       C4S           -27.5356521394       -8.6653138873      -15.5829304061  MEMB      158             0.0000000000
     18111       158  OSM       H4S           -26.9054467331       -7.8806918932      -15.1388475381  MEMB      158             0.0000000000
     18112       158  OSM       C5S           -28.1916069119       -9.6405921312      -14.8840081471  MEMB      158             0.0000000000
     18113       158  OSM       H5S           -28.5814435161      -10.4975653028      -15.4528880893  MEMB      158             0.0000000000
     18114       158  OSM       C6S           -28.3053912683       -9.8689600979      -13.4106286792  MEMB      158             0.0000000000
     18115       158  OSM       H6S           -27.7813836191      -10.8219554777      -13.1836121985  MEMB      158             0.0000000000
     18116       158  OSM       H6T           -29.3941450585       -9.9135581025      -13.1939554603  MEMB      158             0.0000000000
     18117       158  OSM       C7S           -27.6627109080       -8.8760328400      -12.4366320574  MEMB      158             0.0000000000
     18118       158  OSM       H7S           -27.8930188317       -7.8138767983      -12.6670750006  MEMB      158             0.0000000000
     18119       158  OSM       H7T           -26.5635592749       -8.9830302915      -12.5580325693  MEMB      158             0.0000000000
     18120       158  OSM       C8S           -28.2317577192       -9.1486980667      -10.9521521530  MEMB      158             0.0000000000
     18121       158  OSM       H8S           -28.3143466137      -10.2535880022      -10.8701860587  MEMB      158             0.0000000000
     18122       158  OSM       H8T           -29.2300974242       -8.6638155607      -10.9018760237  MEMB      158             0.0000000000
     18123       158  OSM       C9S           -27.3827211033       -8.5372244921       -9.8295240272  MEMB      158             0.0000000000
     18124       158  OSM       H9S           -27.5544224408       -7.4412900492       -9.7681471453  MEMB      158             0.0000000000
     18125       158  OSM       H9T           -26.3230812968       -8.7805642802      -10.0581524302  MEMB      158             0.0000000000
     18126       158  OSM       C10S          -27.8286486019       -9.0639226416       -8.4430866983  MEMB      158             0.0000000000
     18127       158  OSM       H10S          -26.9931354725       -8.9971020859       -7.7138583527  MEMB      158             0.0000000000
     18128       158  OSM       H10T          -28.1016139758      -10.1393386624       -8.5004556115  MEMB      158             0.0000000000
     18129       158  OSM       C11S          -29.0618377915       -8.3070119825       -7.9072419573  MEMB      158             0.0000000000
     18130       158  OSM       H11S          -29.8230567741       -8.3343250514       -8.7160191344  MEMB      158             0.0000000000
     18131       158  OSM       H11T          -28.7707734621       -7.2428419812       -7.7763037308  MEMB      158             0.0000000000
     18132       158  OSM       C12S          -29.6874211156       -8.9979976846       -6.7075978757  MEMB      158             0.0000000000
     18133       158  OSM       H12S          -30.0369550051      -10.0324043120       -6.9129033667  MEMB      158             0.0000000000
     18134       158  OSM       H12T          -30.6178443725       -8.6104112183       -6.2402539827  MEMB      158             0.0000000000
     18135       158  OSM       C13S          -28.7156932585       -9.0353474922       -5.5151790427  MEMB      158             0.0000000000
     18136       158  OSM       H13S          -28.0230087106       -8.1930580468       -5.7274470256  MEMB      158             0.0000000000
     18137       158  OSM       H13T          -28.1233888351       -9.9666294725       -5.6424986123  MEMB      158             0.0000000000
     18138       158  OSM       C14S          -29.2539749620       -8.8321490448       -4.1237033699  MEMB      158             0.0000000000
     18139       158  OSM       H14S          -29.3799452232       -9.8970460830       -3.8331068160  MEMB      158             0.0000000000
     18140       158  OSM       H14T          -30.1844425202       -8.2254650084       -4.1016681766  MEMB      158             0.0000000000
     18141       158  OSM       C15S          -28.0433887061       -8.2771210438       -3.2346545557  MEMB      158             0.0000000000
     18142       158  OSM       H15S          -27.9257223010       -7.2389772653       -3.6124559015  MEMB      158             0.0000000000
     18143       158  OSM       H15T          -27.0263024314       -8.6643657373       -3.4580338729  MEMB      158             0.0000000000
     18144       158  OSM       C16S          -28.3874879653       -8.2629180810       -1.7430882551  MEMB      158             0.0000000000
     18145       158  OSM       H16S          -29.4580230287       -7.9693877241       -1.6970919010  MEMB      158             0.0000000000
     18146       158  OSM       H16T          -27.8186154282       -7.4891639829       -1.1845113932  MEMB      158             0.0000000000
     18147       158  OSM       C17S          -28.2049317709       -9.6221251315       -1.0227270085  MEMB      158             0.0000000000
     18148       158  OSM       H17S          -27.1414877040       -9.8490079191       -0.7948424467  MEMB      158             0.0000000000
     18149       158  OSM       H17T          -28.5991409301      -10.4228985147       -1.6843023040  MEMB      158             0.0000000000
     18150       158  OSM       C18S          -28.9859776969       -9.6251826943        0.2890991870  MEMB      158             0.0000000000
     18151       158  OSM       H18S          -28.6138164161       -8.7702771555        0.8932135442  MEMB      158             0.0000000000
     18152       158  OSM       H18T          -28.8940229947      -10.5690616968        0.8678539793  MEMB      158             0.0000000000
     18153       158  OSM       H18U          -30.0641392768       -9.4434864704        0.0919308063  MEMB      158             0.0000000000
     18154       158  OSM       C1F           -30.5217015166       -6.4859959157      -16.7530329711  MEMB      158             0.0000000000
     18155       158  OSM       OF            -31.4874487334       -6.9389364904      -17.3107000169  MEMB      158             0.0000000000
     18156       158  OSM       C2F           -30.5920326100       -5.1847686893      -15.9873463897  MEMB      158             0.0000000000
     18157       158  OSM       H2F           -30.1431467949       -4.4154808100      -16.6514390361  MEMB      158             0.0000000000
     18158       158  OSM       H2G           -30.0226305481       -5.2709579852      -15.0372553180  MEMB      158             0.0000000000
     18159       158  OSM       C3F           -32.0734234981       -4.8259234729      -15.7867555098  MEMB      158             0.0000000000
     18160       158  OSM       H3F           -32.5643640389       -4.7284075177      -16.7786166889  MEMB      158             0.0000000000
     18161       158  OSM       H3G           -32.2008247792       -3.8415004491      -15.2877552517  MEMB      158             0.0000000000
     18162       158  OSM       C4F           -32.8359775780       -5.6731311036      -14.6972047056  MEMB      158             0.0000000000
     18163       158  OSM       H4F           -33.1326726278       -6.6373298089      -15.1626225777  MEMB      158             0.0000000000
     18164       158  OSM       H4G           -33.7697849329       -5.1263208359      -14.4455633862  MEMB      158             0.0000000000
     18165       158  OSM       C5F           -32.0741718298       -6.1482569983      -13.4430994591  MEMB      158             0.0000000000
     18166       158  OSM       H5F           -31.6817239973       -5.2349209114      -12.9469919063  MEMB      158             0.0000000000
     18167       158  OSM       H5G           -31.2546354217       -6.8111891278      -13.7941013285  MEMB      158             0.0000000000
     18168       158  OSM       C6F           -32.9238315631       -6.9539158655      -12.3794294197  MEMB      158             0.0000000000
     18169       158  OSM       H6F           -33.5016077592       -7.7343640810      -12.9192409264  MEMB      158             0.0000000000
     18170       158  OSM       H6G           -33.8201101577       -6.4270743779      -11.9877107137  MEMB      158             0.0000000000
     18171       158  OSM       C7F           -32.1999784965       -7.5906444931      -11.2427225867  MEMB      158             0.0000000000
     18172       158  OSM       H7F           -31.7150898565       -6.8349712135      -10.5883816819  MEMB      158             0.0000000000
     18173       158  OSM       H7G           -31.3808020465       -8.0569537838      -11.8307927657  MEMB      158             0.0000000000
     18174       158  OSM       C8F           -33.0087140328       -8.6624850774      -10.4657223274  MEMB      158             0.0000000000
     18175       158  OSM       H8F           -32.3251595444       -9.1134378059       -9.7149118897  MEMB      158             0.0000000000
     18176       158  OSM       H8G           -33.2764730928       -9.5411574071      -11.0906707519  MEMB      158             0.0000000000
     18177       158  OSM       C9F           -34.2589570991       -8.1366121030       -9.8776764959  MEMB      158             0.0000000000
     18178       158  OSM       H9F           -35.1731048423       -8.7004571789      -10.1151906381  MEMB      158             0.0000000000
     18179       158  OSM       C10F          -34.4794169360       -7.2051405944       -8.8980656366  MEMB      158             0.0000000000
     18180       158  OSM       H10F          -35.4615537795       -6.9135275846       -8.4976042581  MEMB      158             0.0000000000
     18181       158  OSM       C11F          -33.2836976196       -6.4435095183       -8.2628532512  MEMB      158             0.0000000000
     18182       158  OSM       H11F          -33.1514043557       -5.4901379459       -8.8177433788  MEMB      158             0.0000000000
     18183       158  OSM       H11G          -32.3700387018       -7.0578536935       -8.4116146886  MEMB      158             0.0000000000
     18184       158  OSM       C12F          -33.2817405558       -6.1633924424       -6.6954593803  MEMB      158             0.0000000000
     18185       158  OSM       H12F          -33.6170262992       -7.0878468703       -6.1784595982  MEMB      158             0.0000000000
     18186       158  OSM       H12G          -34.0538995834       -5.3855420412       -6.5136899675  MEMB      158             0.0000000000
     18187       158  OSM       C13F          -32.0392835536       -5.6711259851       -6.0096590837  MEMB      158             0.0000000000
     18188       158  OSM       H13F          -31.7673186317       -4.6749140084       -6.4194369070  MEMB      158             0.0000000000
     18189       158  OSM       H13G          -31.1661383255       -6.3466403182       -6.1346350121  MEMB      158             0.0000000000
     18190       158  OSM       C14F          -32.0999373233       -5.5492226227       -4.4775531916  MEMB      158             0.0000000000
     18191       158  OSM       H14F          -31.1367653868       -5.0580389322       -4.2218971331  MEMB      158             0.0000000000
     18192       158  OSM       H14G          -32.1007955514       -6.5691860280       -4.0371043061  MEMB      158             0.0000000000
     18193       158  OSM       C15F          -33.3259269022       -4.7479379150       -4.1549251498  MEMB      158             0.0000000000
     18194       158  OSM       H15F          -34.2610914014       -5.3236660883       -4.3232268505  MEMB      158             0.0000000000
     18195       158  OSM       H15G          -33.3699217594       -3.9522344754       -4.9290318146  MEMB      158             0.0000000000
     18196       158  OSM       C16F          -33.3325684101       -4.1110539359       -2.8083476463  MEMB      158             0.0000000000
     18197       158  OSM       H16F          -34.2903972762       -3.5524900765       -2.7384088557  MEMB      158             0.0000000000
     18198       158  OSM       H16G          -32.5237407400       -3.3523477507       -2.7413836769  MEMB      158             0.0000000000
     18199       158  OSM       C17F          -33.2339339590       -5.0463117177       -1.6543023910  MEMB      158             0.0000000000
     18200       158  OSM       H17F          -33.5965320070       -4.5695584310       -0.7185949049  MEMB      158             0.0000000000
     18201       158  OSM       H17G          -32.1299709734       -5.1337810061       -1.5652176511  MEMB      158             0.0000000000
     18202       158  OSM       C18F          -33.9129758306       -6.4130561088       -1.7185149524  MEMB      158             0.0000000000
     18203       158  OSM       H18F          -34.9911951279       -6.2462965461       -1.9281680712  MEMB      158             0.0000000000
     18204       158  OSM       H18G          -33.7112236755       -6.8940927184       -0.7375850144  MEMB      158             0.0000000000
     18205       158  OSM       H18H          -33.4200492839       -7.1333419458       -2.4059253212  MEMB      158             0.0000000000
     18206       159  SAPE      N              31.6252180245      -12.5021932725      -20.6392922840  MEMB      159             0.0000000000
     18207       159  SAPE      HN1            32.5296795707      -12.1496241759      -21.0124471039  MEMB      159             0.0000000000
     18208       159  SAPE      HN2            30.7244041185      -12.3509512008      -21.1365448975  MEMB      159             0.0000000000
     18209       159  SAPE      HN3            31.5597917562      -12.0041260185      -19.7286615049  MEMB      159             0.0000000000
     18210       159  SAPE      C12            31.4440119390      -14.0204913272      -20.4162809448  MEMB      159             0.0000000000
     18211       159  SAPE      H12A           31.4957796215      -14.2324923623      -19.3269248829  MEMB      159             0.0000000000
     18212       159  SAPE      H12B           32.3663504576      -14.5076945803      -20.7987018029  MEMB      159             0.0000000000
     18213       159  SAPE      C11            30.2488347605      -14.4943507167      -21.2402905071  MEMB      159             0.0000000000
     18214       159  SAPE      H11A           30.3260572562      -15.6024972734      -21.2210834377  MEMB      159             0.0000000000
     18215       159  SAPE      H11B           30.5175487470      -14.2872101078      -22.2982160231  MEMB      159             0.0000000000
     18216       159  SAPE      P              28.3187060217      -14.5154028499      -19.6093021089  MEMB      159             0.0000000000
     18217       159  SAPE      O13            26.8972549398      -14.1685183638      -19.6009787408  MEMB      159             0.0000000000
     18218       159  SAPE      O14            28.6441269240      -15.9014208831      -19.3167559034  MEMB      159             0.0000000000
     18219       159  SAPE      O12            29.0375902796      -13.9190875724      -20.8410966144  MEMB      159             0.0000000000
     18220       159  SAPE      O11            28.9323178602      -13.7187813709      -18.3360029195  MEMB      159             0.0000000000
     18221       159  SAPE      C1             28.0911665385      -12.6810357517      -17.7786377922  MEMB      159             0.0000000000
     18222       159  SAPE      HA             27.5695383144      -12.1927430551      -18.6293991921  MEMB      159             0.0000000000
     18223       159  SAPE      HB             27.3403146388      -13.1754099563      -17.1258463039  MEMB      159             0.0000000000
     18224       159  SAPE      C2             28.9934040395      -11.7739868342      -16.8436775941  MEMB      159             0.0000000000
     18225       159  SAPE      HS             29.7200000178      -11.1930898128      -17.4510805057  MEMB      159             0.0000000000
     18226       159  SAPE      O21            29.6149462365      -12.6126487931      -15.8353496822  MEMB      159             0.0000000000
     18227       159  SAPE      C21            30.9457792037      -12.5829606860      -15.7110992896  MEMB      159             0.0000000000
     18228       159  SAPE      O22            31.7323128021      -12.0111739947      -16.4411583360  MEMB      159             0.0000000000
     18229       159  SAPE      C22            31.3676129471      -13.1993863401      -14.3902098659  MEMB      159             0.0000000000
     18230       159  SAPE      H2R            31.0004789192      -12.5315772049      -13.5817765966  MEMB      159             0.0000000000
     18231       159  SAPE      H2S            30.7499364524      -14.1017377452      -14.1938460702  MEMB      159             0.0000000000
     18232       159  SAPE      C3             28.2990231326      -10.5828221777      -16.0961256699  MEMB      159             0.0000000000
     18233       159  SAPE      HX             27.3266912503      -10.9603023419      -15.7135025250  MEMB      159             0.0000000000
     18234       159  SAPE      HY             27.9828441788       -9.8751485742      -16.8920844002  MEMB      159             0.0000000000
     18235       159  SAPE      O31            29.2105754813       -9.9508865289      -15.1102986473  MEMB      159             0.0000000000
     18236       159  SAPE      C31            28.8542791289      -10.3178409829      -13.8847838734  MEMB      159             0.0000000000
     18237       159  SAPE      O32            27.8541590890      -10.9416468908      -13.5886222073  MEMB      159             0.0000000000
     18238       159  SAPE      C32            29.8001684971       -9.7971884212      -12.9117968021  MEMB      159             0.0000000000
     18239       159  SAPE      H2X            29.8910183872       -8.6926593825      -12.8338000088  MEMB      159             0.0000000000
     18240       159  SAPE      H2Y            30.8076896706      -10.2298994997      -13.0906354608  MEMB      159             0.0000000000
     18241       159  SAPE      C23            32.8877571217      -13.5408119488      -14.2136749558  MEMB      159             0.0000000000
     18242       159  SAPE      H3R            33.0256463459      -13.8842719997      -13.1661335206  MEMB      159             0.0000000000
     18243       159  SAPE      H3S            33.5329259740      -12.6499451401      -14.3699894311  MEMB      159             0.0000000000
     18244       159  SAPE      C24            33.3388289565      -14.6540108909      -15.1214327991  MEMB      159             0.0000000000
     18245       159  SAPE      H4R            34.4394578940      -14.7416583067      -14.9979227284  MEMB      159             0.0000000000
     18246       159  SAPE      H4S            33.1270294598      -14.2081988164      -16.1167788357  MEMB      159             0.0000000000
     18247       159  SAPE      C25            32.6933281590      -16.0204825709      -15.1898013935  MEMB      159             0.0000000000
     18248       159  SAPE      H5R            32.5426477230      -16.4123843978      -16.2065160024  MEMB      159             0.0000000000
     18249       159  SAPE      C26            32.2060075388      -16.7457328584      -14.1551645671  MEMB      159             0.0000000000
     18250       159  SAPE      H6R            31.7484584902      -17.7199781764      -14.3820896152  MEMB      159             0.0000000000
     18251       159  SAPE      C27            32.1937033466      -16.4060765548      -12.6020063080  MEMB      159             0.0000000000
     18252       159  SAPE      H7R            32.9551354823      -15.6203560470      -12.4091709148  MEMB      159             0.0000000000
     18253       159  SAPE      H7S            32.5631179754      -17.2923188775      -12.0430533408  MEMB      159             0.0000000000
     18254       159  SAPE      C28            30.9317198769      -16.0722886685      -11.9100955633  MEMB      159             0.0000000000
     18255       159  SAPE      H8R            30.0547527170      -16.4392039021      -12.4635412463  MEMB      159             0.0000000000
     18256       159  SAPE      C29            30.7191835030      -15.5200413289      -10.6805358104  MEMB      159             0.0000000000
     18257       159  SAPE      H9R            29.7677514446      -15.1505462445      -10.2703522835  MEMB      159             0.0000000000
     18258       159  SAPE      C210           31.7169102842      -15.0765077519       -9.6577339984  MEMB      159             0.0000000000
     18259       159  SAPE      H10R           32.7124310784      -15.3867907865      -10.0411191958  MEMB      159             0.0000000000
     18260       159  SAPE      H10S           31.3410243925      -15.7299002747       -8.8415789463  MEMB      159             0.0000000000
     18261       159  SAPE      C211           31.9117210338      -13.7238061004       -9.1061251261  MEMB      159             0.0000000000
     18262       159  SAPE      H11R           32.8795805339      -13.2865259563       -9.3925414491  MEMB      159             0.0000000000
     18263       159  SAPE      C212           31.1410411082      -13.0366132609       -8.1858795224  MEMB      159             0.0000000000
     18264       159  SAPE      H12R           31.5347915602      -12.0591771171       -7.8703175632  MEMB      159             0.0000000000
     18265       159  SAPE      C213           29.8499966578      -13.5570429837       -7.5868671954  MEMB      159             0.0000000000
     18266       159  SAPE      H13R           29.2638670627      -14.0619995089       -8.3842328145  MEMB      159             0.0000000000
     18267       159  SAPE      H13S           29.2059574682      -12.7221482390       -7.2368875024  MEMB      159             0.0000000000
     18268       159  SAPE      C214           29.9751149666      -14.5692605885       -6.4317173873  MEMB      159             0.0000000000
     18269       159  SAPE      H14R           30.5159416007      -15.4461202199       -6.8172352046  MEMB      159             0.0000000000
     18270       159  SAPE      C215           29.6069008436      -14.4757826135       -5.0903499406  MEMB      159             0.0000000000
     18271       159  SAPE      H15R           29.8239341454      -15.3560474381       -4.4674290738  MEMB      159             0.0000000000
     18272       159  SAPE      C216           28.9231473905      -13.3200985349       -4.5148780512  MEMB      159             0.0000000000
     18273       159  SAPE      H16R           28.4679048674      -12.7044907647       -5.3199260025  MEMB      159             0.0000000000
     18274       159  SAPE      H16S           29.7600114666      -12.7096188387       -4.1132640471  MEMB      159             0.0000000000
     18275       159  SAPE      C217           27.8635660416      -13.5916068638       -3.4740525280  MEMB      159             0.0000000000
     18276       159  SAPE      H17R           27.6537541079      -12.6252180599       -2.9677015315  MEMB      159             0.0000000000
     18277       159  SAPE      H17S           28.3734855909      -14.1690792094       -2.6735349892  MEMB      159             0.0000000000
     18278       159  SAPE      C218           26.5634317078      -14.2564874434       -3.9038618890  MEMB      159             0.0000000000
     18279       159  SAPE      H18R           26.6213654649      -15.3565904485       -4.0478686306  MEMB      159             0.0000000000
     18280       159  SAPE      H18S           26.2463857717      -13.7928282820       -4.8624143666  MEMB      159             0.0000000000
     18281       159  SAPE      C219           25.3248091566      -13.9790250581       -3.0410564302  MEMB      159             0.0000000000
     18282       159  SAPE      H19R           25.4519377188      -14.4570543527       -2.0462458943  MEMB      159             0.0000000000
     18283       159  SAPE      H19S           24.5236740066      -14.6524108015       -3.4139588484  MEMB      159             0.0000000000
     18284       159  SAPE      C220           24.7616490959      -12.5049144494       -2.8411540481  MEMB      159             0.0000000000
     18285       159  SAPE      H20R           23.9887263291      -12.3238132471       -2.0639067139  MEMB      159             0.0000000000
     18286       159  SAPE      H20S           24.4259976258      -12.0675887446       -3.8057297986  MEMB      159             0.0000000000
     18287       159  SAPE      H20T           25.6500805325      -11.8881002240       -2.5870876816  MEMB      159             0.0000000000
     18288       159  SAPE      C33            29.3584482199      -10.0596090880      -11.3941279167  MEMB      159             0.0000000000
     18289       159  SAPE      H3X            29.1454852873      -11.1201066047      -11.1405285293  MEMB      159             0.0000000000
     18290       159  SAPE      H3Y            28.4181630828       -9.4689526328      -11.3579375630  MEMB      159             0.0000000000
     18291       159  SAPE      C34            30.3094111395       -9.4195538613      -10.3941586989  MEMB      159             0.0000000000
     18292       159  SAPE      H4X            30.5204977677       -8.3395128982      -10.5467201520  MEMB      159             0.0000000000
     18293       159  SAPE      H4Y            31.3123068813       -9.8860779839      -10.4984486999  MEMB      159             0.0000000000
     18294       159  SAPE      C35            29.7790689624       -9.5965415757       -8.9320465360  MEMB      159             0.0000000000
     18295       159  SAPE      H5X            29.7675100092      -10.6790692453       -8.6824047423  MEMB      159             0.0000000000
     18296       159  SAPE      H5Y            28.7636960084       -9.1547001530       -8.8419650173  MEMB      159             0.0000000000
     18297       159  SAPE      C36            30.6692791318       -8.8987796235       -7.9145160801  MEMB      159             0.0000000000
     18298       159  SAPE      H6X            30.5900149984       -7.7971913212       -8.0351027161  MEMB      159             0.0000000000
     18299       159  SAPE      H6Y            31.6766281951       -9.3209493538       -8.1178415733  MEMB      159             0.0000000000
     18300       159  SAPE      C37            30.3629246026       -9.2271809218       -6.4382760622  MEMB      159             0.0000000000
     18301       159  SAPE      H7X            30.3343212482      -10.3359401658       -6.3738083693  MEMB      159             0.0000000000
     18302       159  SAPE      H7Y            29.3350526433       -8.9538537811       -6.1171956057  MEMB      159             0.0000000000
     18303       159  SAPE      C38            31.3752077663       -8.5531384725       -5.5642649493  MEMB      159             0.0000000000
     18304       159  SAPE      H8X            31.3205476329       -7.4449278689       -5.6208556816  MEMB      159             0.0000000000
     18305       159  SAPE      H8Y            32.3602184188       -9.0368166312       -5.7378462251  MEMB      159             0.0000000000
     18306       159  SAPE      C39            31.1373183850       -8.9031950213       -4.0604452666  MEMB      159             0.0000000000
     18307       159  SAPE      H9X            31.2530844561       -9.9829186745       -3.8256771115  MEMB      159             0.0000000000
     18308       159  SAPE      H9Y            30.1064337252       -8.5838642008       -3.7965790031  MEMB      159             0.0000000000
     18309       159  SAPE      C310           32.1530989102       -8.2220381190       -3.1632917423  MEMB      159             0.0000000000
     18310       159  SAPE      H10X           31.6579322758       -7.2479440805       -2.9626164461  MEMB      159             0.0000000000
     18311       159  SAPE      H10Y           33.1629486414       -8.0768975698       -3.6031322855  MEMB      159             0.0000000000
     18312       159  SAPE      C311           32.3286611109       -8.8893575724       -1.7755606643  MEMB      159             0.0000000000
     18313       159  SAPE      H11X           33.1714961625       -8.4487954564       -1.2012317317  MEMB      159             0.0000000000
     18314       159  SAPE      H11Y           32.6469168717       -9.9406594555       -1.9422923686  MEMB      159             0.0000000000
     18315       159  SAPE      C312           31.0951099766       -8.8156804063       -0.8944906360  MEMB      159             0.0000000000
     18316       159  SAPE      H12X           30.2660697218       -9.3829359393       -1.3690792254  MEMB      159             0.0000000000
     18317       159  SAPE      H12Y           30.8400307802       -7.7629112043       -0.6476456182  MEMB      159             0.0000000000
     18318       159  SAPE      C313           31.4095490646       -9.4946662930        0.4537435809  MEMB      159             0.0000000000
     18319       159  SAPE      H13X           32.3514658433       -9.0594867225        0.8508986919  MEMB      159             0.0000000000
     18320       159  SAPE      H13Y           31.5939246626      -10.5901050146        0.4722012092  MEMB      159             0.0000000000
     18321       159  SAPE      C314           30.3447512747       -9.2351182521        1.5559221215  MEMB      159             0.0000000000
     18322       159  SAPE      H14X           30.1299558897       -8.1539674364        1.6948362960  MEMB      159             0.0000000000
     18323       159  SAPE      H14Y           30.7307043193       -9.6648076792        2.5049880893  MEMB      159             0.0000000000
     18324       159  SAPE      C315           29.0088803197       -9.8678325181        1.3349465925  MEMB      159             0.0000000000
     18325       159  SAPE      H15X           28.5971766532       -9.3341140707        0.4517899140  MEMB      159             0.0000000000
     18326       159  SAPE      H15Y           28.4138354968       -9.7309923816        2.2631269012  MEMB      159             0.0000000000
     18327       159  SAPE      C316           29.0796691818      -11.3704121434        1.1839585004  MEMB      159             0.0000000000
     18328       159  SAPE      H16X           29.7427162309      -11.7658345534        1.9829140175  MEMB      159             0.0000000000
     18329       159  SAPE      H16Y           29.5446328246      -11.5109177812        0.1847642892  MEMB      159             0.0000000000
     18330       159  SAPE      C317           27.6535853388      -11.9524581992        1.0746309988  MEMB      159             0.0000000000
     18331       159  SAPE      H17X           27.2696003968      -11.4546395005        0.1586338049  MEMB      159             0.0000000000
     18332       159  SAPE      H17Y           27.0947122338      -11.7413423939        2.0113348598  MEMB      159             0.0000000000
     18333       159  SAPE      C318           27.6036113847      -13.4756482540        0.8670852033  MEMB      159             0.0000000000
     18334       159  SAPE      H18X           28.2014900120      -13.7048419961       -0.0408425282  MEMB      159             0.0000000000
     18335       159  SAPE      H18Y           26.5564708407      -13.8108007889        0.7074274907  MEMB      159             0.0000000000
     18336       159  SAPE      H18Z           28.1116400426      -13.8864376026        1.7656831409  MEMB      159             0.0000000000
     18337       160  CHL1      C3             32.6041800104        5.4794567005      -17.3406550000  MEMB      160             0.0000000000
     18338       160  CHL1      H3             32.0304804379        6.4161669951      -17.1739750000  MEMB      160             0.0000000000
     18339       160  CHL1      O3             33.0994703896        5.5311065795      -18.6593450000  MEMB      160             0.0000000000
     18340       160  CHL1      H3'            33.9986395886        5.8594432072      -18.5866050000  MEMB      160             0.0000000000
     18341       160  CHL1      C4             33.7399345995        5.2882325309      -16.2906950000  MEMB      160             0.0000000000
     18342       160  CHL1      H4A            34.2375089123        4.3393769275      -16.5846450000  MEMB      160             0.0000000000
     18343       160  CHL1      H4B            34.5444309777        6.0381563841      -16.4479350000  MEMB      160             0.0000000000
     18344       160  CHL1      C5             33.3368693560        5.2041608744      -14.8386250000  MEMB      160             0.0000000000
     18345       160  CHL1      C6             33.8527345556        5.9930668104      -13.9507450000  MEMB      160             0.0000000000
     18346       160  CHL1      H6             34.6814924629        6.6429344844      -14.2682850000  MEMB      160             0.0000000000
     18347       160  CHL1      C7             33.5125823666        6.1144571640      -12.5001350000  MEMB      160             0.0000000000
     18348       160  CHL1      H7A            34.3788794721        6.1407602353      -11.8050350000  MEMB      160             0.0000000000
     18349       160  CHL1      H7B            33.0836912182        7.1053068973      -12.2382150000  MEMB      160             0.0000000000
     18350       160  CHL1      C8             32.5728213696        4.9605805915      -12.0782850000  MEMB      160             0.0000000000
     18351       160  CHL1      H8             33.1544627684        4.0313857673      -11.8976750000  MEMB      160             0.0000000000
     18352       160  CHL1      C14            31.8616259520        5.4677400100      -10.8554250000  MEMB      160             0.0000000000
     18353       160  CHL1      H14            31.2067930093        6.3111403011      -11.1623550000  MEMB      160             0.0000000000
     18354       160  CHL1      C15            32.7440415588        5.9672665909       -9.6572550000  MEMB      160             0.0000000000
     18355       160  CHL1      H15A           33.6295288423        5.2976058161       -9.6149850000  MEMB      160             0.0000000000
     18356       160  CHL1      H15B           33.0451834785        7.0238342295       -9.8225050000  MEMB      160             0.0000000000
     18357       160  CHL1      C16            31.7402638600        5.9117378961       -8.5030350000  MEMB      160             0.0000000000
     18358       160  CHL1      H16A           32.1713216006        5.2562470530       -7.7163750000  MEMB      160             0.0000000000
     18359       160  CHL1      H16B           31.4699420678        6.8691748989       -8.0085150000  MEMB      160             0.0000000000
     18360       160  CHL1      C17            30.4841626009        5.2081142622       -8.9875250000  MEMB      160             0.0000000000
     18361       160  CHL1      H17            29.7402247584        5.9293178953       -9.3884550000  MEMB      160             0.0000000000
     18362       160  CHL1      C13            30.9756799946        4.3757263789      -10.2246950000  MEMB      160             0.0000000000
     18363       160  CHL1      C18            31.7506676220        3.0552165441       -9.8575250000  MEMB      160             0.0000000000
     18364       160  CHL1      H18A           31.9656387250        2.4256975079      -10.7473750000  MEMB      160             0.0000000000
     18365       160  CHL1      H18B           32.7590319804        3.2630838140       -9.4400150000  MEMB      160             0.0000000000
     18366       160  CHL1      H18C           31.2157298825        2.3538578629       -9.1820650000  MEMB      160             0.0000000000
     18367       160  CHL1      C12            29.9420695281        4.0728380713      -11.3139350000  MEMB      160             0.0000000000
     18368       160  CHL1      H12A           29.2409152470        3.2695059194      -11.0019050000  MEMB      160             0.0000000000
     18369       160  CHL1      H12B           29.3669746014        4.9725095876      -11.6208450000  MEMB      160             0.0000000000
     18370       160  CHL1      C11            30.5116864465        3.6598167459      -12.7392050000  MEMB      160             0.0000000000
     18371       160  CHL1      H11A           31.0218782937        2.6731152389      -12.7183250000  MEMB      160             0.0000000000
     18372       160  CHL1      H11B           29.6177704586        3.4623595924      -13.3686850000  MEMB      160             0.0000000000
     18373       160  CHL1      C9             31.5729100277        4.6501780642      -13.1977350000  MEMB      160             0.0000000000
     18374       160  CHL1      H9             30.9662970693        5.5730502222      -13.3187250000  MEMB      160             0.0000000000
     18375       160  CHL1      C10            32.1988163767        4.2473776054      -14.5374750000  MEMB      160             0.0000000000
     18376       160  CHL1      C19            33.0225043449        2.9211901556      -14.4027150000  MEMB      160             0.0000000000
     18377       160  CHL1      H19A           32.2844645401        2.0942603886      -14.3266450000  MEMB      160             0.0000000000
     18378       160  CHL1      H19B           33.7952472808        2.7679100514      -15.1861050000  MEMB      160             0.0000000000
     18379       160  CHL1      H19C           33.6346404092        2.9417817607      -13.4757950000  MEMB      160             0.0000000000
     18380       160  CHL1      C1             31.1339443829        4.1946823567      -15.7414450000  MEMB      160             0.0000000000
     18381       160  CHL1      H1A            30.3459958292        3.4489602302      -15.5019650000  MEMB      160             0.0000000000
     18382       160  CHL1      H1B            30.5974327997        5.1638258373      -15.6563950000  MEMB      160             0.0000000000
     18383       160  CHL1      C2             31.6637036046        4.2490654564      -17.2212650000  MEMB      160             0.0000000000
     18384       160  CHL1      H2A            30.8021712674        4.3319135223      -17.9178350000  MEMB      160             0.0000000000
     18385       160  CHL1      H2B            32.2246353319        3.3064510083      -17.3977350000  MEMB      160             0.0000000000
     18386       160  CHL1      C20            29.7075699575        4.4388005228       -7.9200250000  MEMB      160             0.0000000000
     18387       160  CHL1      H20            30.3039662647        3.7969437727       -7.2369050000  MEMB      160             0.0000000000
     18388       160  CHL1      C21            28.6028169501        3.5612556087       -8.4604950000  MEMB      160             0.0000000000
     18389       160  CHL1      H21A           27.8134932124        3.2410189830       -7.7472350000  MEMB      160             0.0000000000
     18390       160  CHL1      H21B           29.0859284318        2.6922221139       -8.9561850000  MEMB      160             0.0000000000
     18391       160  CHL1      H21C           28.0896527561        4.2364161443       -9.1782250000  MEMB      160             0.0000000000
     18392       160  CHL1      C22            28.9986677617        5.2936483232       -6.8120350000  MEMB      160             0.0000000000
     18393       160  CHL1      H22A           28.6001165335        6.2463347530       -7.2217250000  MEMB      160             0.0000000000
     18394       160  CHL1      H22B           28.0426800482        4.8549552325       -6.4542950000  MEMB      160             0.0000000000
     18395       160  CHL1      C23            29.8364950199        5.4396505003       -5.5065450000  MEMB      160             0.0000000000
     18396       160  CHL1      H23A           30.1070797682        4.4387664429       -5.1073750000  MEMB      160             0.0000000000
     18397       160  CHL1      H23B           30.8114722496        5.8987201946       -5.7767350000  MEMB      160             0.0000000000
     18398       160  CHL1      C24            29.1277857683        6.2913150363       -4.4737750000  MEMB      160             0.0000000000
     18399       160  CHL1      H24A           29.1192617605        7.3244641822       -4.8822350000  MEMB      160             0.0000000000
     18400       160  CHL1      H24B           28.1065433143        5.9027146340       -4.2728750000  MEMB      160             0.0000000000
     18401       160  CHL1      C25            29.8300586300        6.3984463494       -3.1871650000  MEMB      160             0.0000000000
     18402       160  CHL1      H25            29.8616052791        5.3917828088       -2.7181750000  MEMB      160             0.0000000000
     18403       160  CHL1      C26            31.3040064764        6.9003801242       -3.3561350000  MEMB      160             0.0000000000
     18404       160  CHL1      H26A           31.9563159301        6.2259060146       -3.9510250000  MEMB      160             0.0000000000
     18405       160  CHL1      H26B           31.2522163326        7.9159768008       -3.8036050000  MEMB      160             0.0000000000
     18406       160  CHL1      H26C           31.8637351079        6.9439489244       -2.3974250000  MEMB      160             0.0000000000
     18407       160  CHL1      C27            29.1360133333        7.4023193915       -2.2255650000  MEMB      160             0.0000000000
     18408       160  CHL1      H27A           28.8212218140        8.3662562069       -2.6794950000  MEMB      160             0.0000000000
     18409       160  CHL1      H27B           28.1937815626        7.0182057844       -1.7794850000  MEMB      160             0.0000000000
     18410       160  CHL1      H27C           29.8930556392        7.5597106974       -1.4277950000  MEMB      160             0.0000000000
     18411       161  SAPI      C12            26.1005223578      -21.4821185932      -24.5117230282  MEMB      161             0.0000000000
     18412       161  SAPI      H2             26.8892336607      -20.7411554240      -24.2602691963  MEMB      161             0.0000000000
     18413       161  SAPI      O2             24.8538742908      -20.8395256520      -24.6667613829  MEMB      161             0.0000000000
     18414       161  SAPI      HO2            24.2229653623      -21.4168896446      -25.1028860131  MEMB      161             0.0000000000
     18415       161  SAPI      C13            26.5495777587      -22.1113049599      -25.8570627931  MEMB      161             0.0000000000
     18416       161  SAPI      H3             27.4896629727      -22.6773366738      -25.6833724348  MEMB      161             0.0000000000
     18417       161  SAPI      O3             26.6923453638      -21.1218612987      -26.8605357254  MEMB      161             0.0000000000
     18418       161  SAPI      HO3            27.6141054961      -21.1236792176      -27.1287799618  MEMB      161             0.0000000000
     18419       161  SAPI      C14            25.6310716574      -23.2020322878      -26.3685327335  MEMB      161             0.0000000000
     18420       161  SAPI      H4             24.6672387545      -22.6784713085      -26.5452556612  MEMB      161             0.0000000000
     18421       161  SAPI      O4             26.0964145947      -23.7404294421      -27.5982556873  MEMB      161             0.0000000000
     18422       161  SAPI      HO4            27.0412668988      -23.5746784401      -27.6354138106  MEMB      161             0.0000000000
     18423       161  SAPI      C15            25.5063134238      -24.2320500569      -25.3422038825  MEMB      161             0.0000000000
     18424       161  SAPI      H5             26.5151171865      -24.6589638607      -25.1567839688  MEMB      161             0.0000000000
     18425       161  SAPI      O5             24.6059688699      -25.2647871068      -25.7030599320  MEMB      161             0.0000000000
     18426       161  SAPI      HO5            23.8739218976      -25.2632257730      -25.0820084524  MEMB      161             0.0000000000
     18427       161  SAPI      C16            25.0320630818      -23.5990823207      -24.0084002539  MEMB      161             0.0000000000
     18428       161  SAPI      H6             24.0354663058      -23.1234387481      -24.1303796723  MEMB      161             0.0000000000
     18429       161  SAPI      O6             24.9503375852      -24.7248099567      -23.0338975763  MEMB      161             0.0000000000
     18430       161  SAPI      HO6            25.1912656364      -24.4007577985      -22.1629533248  MEMB      161             0.0000000000
     18431       161  SAPI      C11            26.0312726720      -22.5410479409      -23.4773256089  MEMB      161             0.0000000000
     18432       161  SAPI      H1             27.0370165120      -23.0130373908      -23.4824559356  MEMB      161             0.0000000000
     18433       161  SAPI      P              26.7114612382      -21.6720293757      -21.1716317859  MEMB      161             0.0000000000
     18434       161  SAPI      O13            27.5213084719      -20.5362349023      -21.6829007409  MEMB      161             0.0000000000
     18435       161  SAPI      O14            27.5096019760      -22.8462837334      -20.7606762313  MEMB      161             0.0000000000
     18436       161  SAPI      O12            25.5178260386      -22.1860106272      -22.1884314483  MEMB      161             0.0000000000
     18437       161  SAPI      O11            26.0141996555      -21.2542565897      -19.8374895676  MEMB      161             0.0000000000
     18438       161  SAPI      C1             24.9746487091      -21.9548456167      -19.2282787536  MEMB      161             0.0000000000
     18439       161  SAPI      HA             24.1247066351      -22.0633675189      -19.9354863424  MEMB      161             0.0000000000
     18440       161  SAPI      HB             25.3032028990      -22.9859594330      -18.9769277139  MEMB      161             0.0000000000
     18441       161  SAPI      C2             24.4953760931      -21.1458229113      -18.0048153777  MEMB      161             0.0000000000
     18442       161  SAPI      HS             23.8291191145      -20.3499358829      -18.4010305693  MEMB      161             0.0000000000
     18443       161  SAPI      O21            25.5811313437      -20.6929707480      -17.2239821403  MEMB      161             0.0000000000
     18444       161  SAPI      C21            25.4221503406      -19.6073603554      -16.5282415254  MEMB      161             0.0000000000
     18445       161  SAPI      O22            24.3383233625      -19.0959183753      -16.2427138771  MEMB      161             0.0000000000
     18446       161  SAPI      C22            26.7504515009      -19.0573466589      -16.1279964861  MEMB      161             0.0000000000
     18447       161  SAPI      H2R            27.5641120493      -19.7965072498      -16.2889910403  MEMB      161             0.0000000000
     18448       161  SAPI      H2S            27.1016861726      -18.2730195146      -16.8321174323  MEMB      161             0.0000000000
     18449       161  SAPI      C3             23.6179962167      -22.0753530449      -17.1257760617  MEMB      161             0.0000000000
     18450       161  SAPI      HX             22.7569007783      -22.5019971325      -17.6832796348  MEMB      161             0.0000000000
     18451       161  SAPI      HY             22.9734366720      -21.5188301592      -16.4122311169  MEMB      161             0.0000000000
     18452       161  SAPI      O31            24.3588691826      -23.0508395917      -16.3487365485  MEMB      161             0.0000000000
     18453       161  SAPI      C31            24.3669335560      -24.1999571568      -16.8792755120  MEMB      161             0.0000000000
     18454       161  SAPI      O32            23.7341115409      -24.5803968443      -17.8266344136  MEMB      161             0.0000000000
     18455       161  SAPI      C32            25.3097549526      -25.0804131504      -16.0216165210  MEMB      161             0.0000000000
     18456       161  SAPI      H2X            26.2190079909      -24.4840812298      -15.7936515191  MEMB      161             0.0000000000
     18457       161  SAPI      H2Y            25.5661769299      -26.0856096333      -16.4192957952  MEMB      161             0.0000000000
     18458       161  SAPI      C23            26.8169967958      -18.3833218760      -14.7673668750  MEMB      161             0.0000000000
     18459       161  SAPI      H3R            25.9917169661      -17.6407814173      -14.7241494448  MEMB      161             0.0000000000
     18460       161  SAPI      H3S            27.8288520760      -17.9818078653      -14.5454282879  MEMB      161             0.0000000000
     18461       161  SAPI      C24            26.5712617812      -19.4203111510      -13.6558385869  MEMB      161             0.0000000000
     18462       161  SAPI      H4R            27.5756047134      -19.6613628662      -13.2465586601  MEMB      161             0.0000000000
     18463       161  SAPI      H4S            26.3310575856      -20.4050897827      -14.1106288535  MEMB      161             0.0000000000
     18464       161  SAPI      C25            25.6696465693      -19.1411172352      -12.4358963664  MEMB      161             0.0000000000
     18465       161  SAPI      H5R            26.2389176978      -18.6802511504      -11.6152056855  MEMB      161             0.0000000000
     18466       161  SAPI      C26            24.3614312829      -19.5368592397      -12.2221759759  MEMB      161             0.0000000000
     18467       161  SAPI      H6R            23.8500096183      -19.1943367125      -11.3105142040  MEMB      161             0.0000000000
     18468       161  SAPI      C27            23.5286810057      -20.3549904842      -13.1420997176  MEMB      161             0.0000000000
     18469       161  SAPI      H7R            24.0363368878      -20.9952031286      -13.8949174476  MEMB      161             0.0000000000
     18470       161  SAPI      H7S            22.9485177046      -19.6322254203      -13.7547519443  MEMB      161             0.0000000000
     18471       161  SAPI      C28            22.3341927749      -21.1184181448      -12.5721897640  MEMB      161             0.0000000000
     18472       161  SAPI      H8R            21.3437789950      -20.6413022452      -12.6101517314  MEMB      161             0.0000000000
     18473       161  SAPI      C29            22.2875566426      -22.1907481760      -11.8196688953  MEMB      161             0.0000000000
     18474       161  SAPI      H9R            21.3087952326      -22.6544404383      -11.6272736423  MEMB      161             0.0000000000
     18475       161  SAPI      C210           23.5369960427      -22.8179982930      -11.3308493217  MEMB      161             0.0000000000
     18476       161  SAPI      H10R           24.0913963395      -22.1123203631      -10.6758841694  MEMB      161             0.0000000000
     18477       161  SAPI      H10S           24.2710120851      -22.9753953841      -12.1498537237  MEMB      161             0.0000000000
     18478       161  SAPI      C211           23.3038072855      -24.1338225032      -10.5730161904  MEMB      161             0.0000000000
     18479       161  SAPI      H11R           23.1830478362      -25.0088822604      -11.2285217342  MEMB      161             0.0000000000
     18480       161  SAPI      C212           23.4206252949      -24.4043647796       -9.2732051401  MEMB      161             0.0000000000
     18481       161  SAPI      H12R           23.3324640816      -25.4388006958       -8.9096531200  MEMB      161             0.0000000000
     18482       161  SAPI      C213           23.7915709735      -23.4780230039       -8.1434954857  MEMB      161             0.0000000000
     18483       161  SAPI      H13R           22.9173748058      -23.5224028223       -7.4592933537  MEMB      161             0.0000000000
     18484       161  SAPI      H13S           23.7782146322      -22.4202109698       -8.4828721407  MEMB      161             0.0000000000
     18485       161  SAPI      C214           25.2217296370      -23.7609524904       -7.7111136825  MEMB      161             0.0000000000
     18486       161  SAPI      H14R           25.9825848496      -24.1398463860       -8.4093535346  MEMB      161             0.0000000000
     18487       161  SAPI      C215           25.6399418312      -23.5136371181       -6.4871010387  MEMB      161             0.0000000000
     18488       161  SAPI      H15R           26.6878209667      -23.8040425745       -6.3209274288  MEMB      161             0.0000000000
     18489       161  SAPI      C216           24.8276888632      -22.9453843547       -5.3353313823  MEMB      161             0.0000000000
     18490       161  SAPI      H16R           23.9795023437      -23.5722328009       -4.9861022644  MEMB      161             0.0000000000
     18491       161  SAPI      H16S           24.5011408648      -21.9029574565       -5.5379001162  MEMB      161             0.0000000000
     18492       161  SAPI      C217           25.9703874343      -22.8394309164       -4.2066684043  MEMB      161             0.0000000000
     18493       161  SAPI      H17R           26.8759815660      -22.2445319681       -4.4522610218  MEMB      161             0.0000000000
     18494       161  SAPI      H17S           26.3377060860      -23.8800045589       -4.0778107995  MEMB      161             0.0000000000
     18495       161  SAPI      C218           25.4427606409      -22.4128357038       -2.7559785519  MEMB      161             0.0000000000
     18496       161  SAPI      H18R           26.3516685729      -22.4401823053       -2.1176540018  MEMB      161             0.0000000000
     18497       161  SAPI      H18S           24.6985576523      -23.1422523892       -2.3707068266  MEMB      161             0.0000000000
     18498       161  SAPI      C219           24.9111664611      -20.9736270305       -2.6440812435  MEMB      161             0.0000000000
     18499       161  SAPI      H19R           23.8411137761      -20.9477167201       -2.9418012594  MEMB      161             0.0000000000
     18500       161  SAPI      H19S           25.5002616670      -20.3902566471       -3.3836550078  MEMB      161             0.0000000000
     18501       161  SAPI      C220           24.9387151198      -20.4242921705       -1.2276873180  MEMB      161             0.0000000000
     18502       161  SAPI      H20R           24.0704647363      -20.5426040073       -0.5447035780  MEMB      161             0.0000000000
     18503       161  SAPI      H20S           25.0675529398      -19.3210781969       -1.2530042200  MEMB      161             0.0000000000
     18504       161  SAPI      H20T           25.7885543105      -20.8184961514       -0.6304450933  MEMB      161             0.0000000000
     18505       161  SAPI      C33            24.7556632210      -25.4372824280      -14.6062295920  MEMB      161             0.0000000000
     18506       161  SAPI      H3X            23.9096031784      -26.1346237468      -14.7857261237  MEMB      161             0.0000000000
     18507       161  SAPI      H3Y            24.4372128691      -24.4599151941      -14.1847279396  MEMB      161             0.0000000000
     18508       161  SAPI      C34            25.6960166119      -26.1224104921      -13.5681925712  MEMB      161             0.0000000000
     18509       161  SAPI      H4X            26.1365474609      -26.9827997789      -14.1159002232  MEMB      161             0.0000000000
     18510       161  SAPI      H4Y            25.0689398616      -26.6199818463      -12.7977911560  MEMB      161             0.0000000000
     18511       161  SAPI      C35            26.8213877616      -25.3260136097      -12.8211496744  MEMB      161             0.0000000000
     18512       161  SAPI      H5X            26.3834517083      -24.4453505634      -12.3044624306  MEMB      161             0.0000000000
     18513       161  SAPI      H5Y            27.5479894602      -24.8225442619      -13.4941201785  MEMB      161             0.0000000000
     18514       161  SAPI      C36            27.6150340157      -26.2696933310      -11.9204369856  MEMB      161             0.0000000000
     18515       161  SAPI      H6X            27.8855377736      -27.2236906459      -12.4214738994  MEMB      161             0.0000000000
     18516       161  SAPI      H6Y            26.8196154344      -26.5440474647      -11.1949303576  MEMB      161             0.0000000000
     18517       161  SAPI      C37            29.0330142995      -25.7319900438      -11.4307767406  MEMB      161             0.0000000000
     18518       161  SAPI      H7X            29.7889026617      -25.9745096080      -12.2080396511  MEMB      161             0.0000000000
     18519       161  SAPI      H7Y            29.2745514128      -26.2731178591      -10.4910106167  MEMB      161             0.0000000000
     18520       161  SAPI      C38            29.1674816444      -24.2567990563      -11.0535825956  MEMB      161             0.0000000000
     18521       161  SAPI      H8X            28.8487134200      -23.6982995714      -11.9595551160  MEMB      161             0.0000000000
     18522       161  SAPI      H8Y            30.2639561859      -24.1401014974      -10.9177663946  MEMB      161             0.0000000000
     18523       161  SAPI      C39            28.4210992964      -23.6801364650       -9.9009069702  MEMB      161             0.0000000000
     18524       161  SAPI      H9X            28.3990558146      -24.4421713885       -9.0927375249  MEMB      161             0.0000000000
     18525       161  SAPI      H9Y            27.3664398391      -23.4603472655      -10.1723975535  MEMB      161             0.0000000000
     18526       161  SAPI      C310           29.1426090497      -22.3962182442       -9.3601808501  MEMB      161             0.0000000000
     18527       161  SAPI      H10X           29.3125669780      -21.6691433596      -10.1828583970  MEMB      161             0.0000000000
     18528       161  SAPI      H10Y           30.1784417231      -22.7168975241       -9.1182371752  MEMB      161             0.0000000000
     18529       161  SAPI      C311           28.4368627933      -21.8685807859       -8.1560138961  MEMB      161             0.0000000000
     18530       161  SAPI      H11X           28.3051960709      -22.7191293974       -7.4534812836  MEMB      161             0.0000000000
     18531       161  SAPI      H11Y           27.4396310723      -21.5077748238       -8.4871765811  MEMB      161             0.0000000000
     18532       161  SAPI      C312           29.1452100860      -20.6925888959       -7.4492751137  MEMB      161             0.0000000000
     18533       161  SAPI      H12X           28.9779196486      -19.7399918538       -7.9959876752  MEMB      161             0.0000000000
     18534       161  SAPI      H12Y           30.2354141332      -20.8961498648       -7.3834055531  MEMB      161             0.0000000000
     18535       161  SAPI      C313           28.5790039531      -20.5037025649       -5.9934206552  MEMB      161             0.0000000000
     18536       161  SAPI      H13X           28.2918073494      -21.5014846232       -5.5981100781  MEMB      161             0.0000000000
     18537       161  SAPI      H13Y           27.5438743426      -20.1182911314       -6.1129437914  MEMB      161             0.0000000000
     18538       161  SAPI      C314           29.4128811042      -19.5961067144       -5.0495007284  MEMB      161             0.0000000000
     18539       161  SAPI      H14X           29.5007851126      -18.5955067895       -5.5242569034  MEMB      161             0.0000000000
     18540       161  SAPI      H14Y           30.4257064595      -20.0436125794       -4.9587021385  MEMB      161             0.0000000000
     18541       161  SAPI      C315           28.8979054635      -19.5074174912       -3.5893433209  MEMB      161             0.0000000000
     18542       161  SAPI      H15X           27.8665757015      -19.1241833153       -3.7436538049  MEMB      161             0.0000000000
     18543       161  SAPI      H15Y           29.4477910184      -18.7001349020       -3.0599649924  MEMB      161             0.0000000000
     18544       161  SAPI      C316           28.9037224171      -20.7307407185       -2.7343263504  MEMB      161             0.0000000000
     18545       161  SAPI      H16X           28.1413198484      -21.4196394424       -3.1567966018  MEMB      161             0.0000000000
     18546       161  SAPI      H16Y           28.6369841116      -20.5568241697       -1.6699355958  MEMB      161             0.0000000000
     18547       161  SAPI      C317           30.2252441298      -21.5252489219       -2.7741169731  MEMB      161             0.0000000000
     18548       161  SAPI      H17X           31.1342817672      -20.9213888936       -2.5659701725  MEMB      161             0.0000000000
     18549       161  SAPI      H17Y           30.2670109580      -21.9563843699       -3.7971987987  MEMB      161             0.0000000000
     18550       161  SAPI      C318           30.2930116648      -22.7470874910       -1.7913211698  MEMB      161             0.0000000000
     18551       161  SAPI      H18X           30.3638252764      -22.4399505291       -0.7259688278  MEMB      161             0.0000000000
     18552       161  SAPI      H18Y           31.1651279368      -23.3618779201       -2.1007839347  MEMB      161             0.0000000000
     18553       161  SAPI      H18Z           29.3474710863      -23.3223734592       -1.8878597623  MEMB      161             0.0000000000
     18554       162  OSM       N             -20.0228186925       26.8614524875      -23.1023400496  MEMB      162             0.0000000000
     18555       162  OSM       C15           -20.6184605138       26.8537282278      -24.5211965504  MEMB      162             0.0000000000
     18556       162  OSM       H15A          -21.6652085723       26.5916386919      -24.5662254971  MEMB      162             0.0000000000
     18557       162  OSM       H15B          -20.0845520673       26.0656221196      -25.0313240484  MEMB      162             0.0000000000
     18558       162  OSM       H15C          -20.5274298268       27.8627749225      -24.8952794564  MEMB      162             0.0000000000
     18559       162  OSM       C14           -19.6707124127       25.5417857820      -22.7308674808  MEMB      162             0.0000000000
     18560       162  OSM       H14A          -20.5019194113       24.9474719932      -22.3811731299  MEMB      162             0.0000000000
     18561       162  OSM       H14B          -18.9098331974       25.6270256915      -21.9691607696  MEMB      162             0.0000000000
     18562       162  OSM       H14C          -19.2113562470       24.9528689982      -23.5109756874  MEMB      162             0.0000000000
     18563       162  OSM       C13           -18.7899258183       27.6511873789      -23.2628549335  MEMB      162             0.0000000000
     18564       162  OSM       H13A          -18.2575182940       27.3840664070      -24.1637370674  MEMB      162             0.0000000000
     18565       162  OSM       H13B          -18.1572152024       27.5197273100      -22.3975252569  MEMB      162             0.0000000000
     18566       162  OSM       H13C          -18.8254377515       28.7306026899      -23.2641491293  MEMB      162             0.0000000000
     18567       162  OSM       C12           -20.9760623362       27.4611507899      -22.1667043797  MEMB      162             0.0000000000
     18568       162  OSM       H12A          -21.9275672549       26.9532048068      -22.1116654897  MEMB      162             0.0000000000
     18569       162  OSM       H12B          -21.1800665015       28.4034693002      -22.6533441221  MEMB      162             0.0000000000
     18570       162  OSM       C11           -20.5095304361       27.8295130377      -20.6812341678  MEMB      162             0.0000000000
     18571       162  OSM       H11A          -21.2073638655       28.5497227438      -20.2030632239  MEMB      162             0.0000000000
     18572       162  OSM       H11B          -19.5321562451       28.3450289409      -20.7965768785  MEMB      162             0.0000000000
     18573       162  OSM       P             -21.4730648500       26.1728223272      -18.9109881013  MEMB      162             0.0000000000
     18574       162  OSM       O13           -22.7747522391       26.2029771594      -19.6713861534  MEMB      162             0.0000000000
     18575       162  OSM       O14           -21.0129260413       24.8694158125      -18.3888212901  MEMB      162             0.0000000000
     18576       162  OSM       O11           -21.4397768618       27.2873589249      -17.7723990334  MEMB      162             0.0000000000
     18577       162  OSM       O12           -20.2730321010       26.7351495688      -19.7912078653  MEMB      162             0.0000000000
     18578       162  OSM       C1S           -20.1908572000       27.7316240664      -17.3104607289  MEMB      162             0.0000000000
     18579       162  OSM       H1S           -19.9543157392       28.7416284466      -17.7082803241  MEMB      162             0.0000000000
     18580       162  OSM       H1T           -19.3863765083       27.0065724621      -17.5583156457  MEMB      162             0.0000000000
     18581       162  OSM       NF            -20.4003271815       26.5546888053      -15.2645253410  MEMB      162             0.0000000000
     18582       162  OSM       HNF           -21.3515283047       26.3073784890      -15.4320457078  MEMB      162             0.0000000000
     18583       162  OSM       C2S           -20.1545715034       27.8847593132      -15.7907811480  MEMB      162             0.0000000000
     18584       162  OSM       H2S           -19.1321642980       28.1684571348      -15.4613571266  MEMB      162             0.0000000000
     18585       162  OSM       C3S           -21.1140037111       28.8354537966      -15.2354027557  MEMB      162             0.0000000000
     18586       162  OSM       H3S           -22.1666201265       28.6352586154      -15.5290718071  MEMB      162             0.0000000000
     18587       162  OSM       O3            -20.8097265574       30.1885897521      -15.5730731516  MEMB      162             0.0000000000
     18588       162  OSM       HO3           -19.9193763923       30.2932599679      -15.9164685119  MEMB      162             0.0000000000
     18589       162  OSM       C4S           -21.1969261486       28.7575515393      -13.7195977109  MEMB      162             0.0000000000
     18590       162  OSM       H4S           -20.2684559880       29.1475917738      -13.2770915335  MEMB      162             0.0000000000
     18591       162  OSM       C5S           -22.0846385369       28.1459460651      -12.9186370442  MEMB      162             0.0000000000
     18592       162  OSM       H5S           -22.9265953042       27.6707818189      -13.4433537697  MEMB      162             0.0000000000
     18593       162  OSM       C6S           -22.1015293584       28.1332729762      -11.4649302638  MEMB      162             0.0000000000
     18594       162  OSM       H6S           -22.2718201366       27.1676347947      -10.9425655861  MEMB      162             0.0000000000
     18595       162  OSM       H6T           -22.9801839910       28.7576648897      -11.1958168896  MEMB      162             0.0000000000
     18596       162  OSM       C7S           -20.8633863818       28.7238172338      -10.8066941742  MEMB      162             0.0000000000
     18597       162  OSM       H7S           -20.9523816199       29.8113059014      -11.0159044656  MEMB      162             0.0000000000
     18598       162  OSM       H7T           -19.9359093445       28.2747808994      -11.2219931180  MEMB      162             0.0000000000
     18599       162  OSM       C8S           -20.7686951828       28.4424105956       -9.2895996758  MEMB      162             0.0000000000
     18600       162  OSM       H8S           -19.8082543193       28.6398073895       -8.7671933463  MEMB      162             0.0000000000
     18601       162  OSM       H8T           -20.9626836961       27.3664021885       -9.0923803594  MEMB      162             0.0000000000
     18602       162  OSM       C9S           -21.8657464610       29.1119021275       -8.4607782170  MEMB      162             0.0000000000
     18603       162  OSM       H9S           -22.7794379127       29.1946111996       -9.0873941898  MEMB      162             0.0000000000
     18604       162  OSM       H9T           -21.7938992148       30.1308570017       -8.0238680450  MEMB      162             0.0000000000
     18605       162  OSM       C10S          -22.2768679759       28.1802824512       -7.3086059787  MEMB      162             0.0000000000
     18606       162  OSM       H10S          -22.6684651514       27.2680492451       -7.8074079644  MEMB      162             0.0000000000
     18607       162  OSM       H10T          -23.0979733316       28.6382083024       -6.7166507076  MEMB      162             0.0000000000
     18608       162  OSM       C11S          -21.1591729504       27.9479758495       -6.2723878813  MEMB      162             0.0000000000
     18609       162  OSM       H11S          -20.6932391555       28.8682433327       -5.8596716511  MEMB      162             0.0000000000
     18610       162  OSM       H11T          -20.3017389821       27.3880364895       -6.7031966975  MEMB      162             0.0000000000
     18611       162  OSM       C12S          -21.5963794930       27.1602132890       -5.0773811355  MEMB      162             0.0000000000
     18612       162  OSM       H12S          -20.7473591465       26.5411097559       -4.7165534904  MEMB      162             0.0000000000
     18613       162  OSM       H12T          -22.3724860482       26.4322194614       -5.3967623581  MEMB      162             0.0000000000
     18614       162  OSM       C13S          -22.1557306201       27.9613861544       -3.8955925301  MEMB      162             0.0000000000
     18615       162  OSM       H13S          -23.0061949264       28.5603404166       -4.2858293915  MEMB      162             0.0000000000
     18616       162  OSM       H13T          -21.3215450568       28.5653000325       -3.4787668515  MEMB      162             0.0000000000
     18617       162  OSM       C14S          -22.8088617131       27.0126908617       -2.8545967942  MEMB      162             0.0000000000
     18618       162  OSM       H14S          -22.1218184267       26.1898220963       -2.5627405616  MEMB      162             0.0000000000
     18619       162  OSM       H14T          -23.7008956006       26.5858160835       -3.3609300656  MEMB      162             0.0000000000
     18620       162  OSM       C15S          -23.2393326278       27.7819959754       -1.6240885673  MEMB      162             0.0000000000
     18621       162  OSM       H15S          -23.3533972693       28.8487086542       -1.9129394430  MEMB      162             0.0000000000
     18622       162  OSM       H15T          -22.3596703101       27.8172113251       -0.9463902737  MEMB      162             0.0000000000
     18623       162  OSM       C16S          -24.4513103274       27.1071189203       -0.8520443448  MEMB      162             0.0000000000
     18624       162  OSM       H16S          -24.2215352338       26.0207993858       -0.8141721526  MEMB      162             0.0000000000
     18625       162  OSM       H16T          -25.3441586401       27.1374449570       -1.5125169429  MEMB      162             0.0000000000
     18626       162  OSM       C17S          -24.6955848046       27.5849465922        0.5760774550  MEMB      162             0.0000000000
     18627       162  OSM       H17S          -25.6724149255       27.1726611808        0.9079574448  MEMB      162             0.0000000000
     18628       162  OSM       H17T          -24.8025286861       28.6836684469        0.7013557935  MEMB      162             0.0000000000
     18629       162  OSM       C18S          -23.5598033182       27.2088012658        1.5773038059  MEMB      162             0.0000000000
     18630       162  OSM       H18S          -22.6347631973       27.7340519466        1.2567811873  MEMB      162             0.0000000000
     18631       162  OSM       H18T          -23.4088547850       26.1098268314        1.6388732180  MEMB      162             0.0000000000
     18632       162  OSM       H18U          -23.8062636618       27.7779619859        2.4990582261  MEMB      162             0.0000000000
     18633       162  OSM       C1F           -19.5363458236       25.5397754004      -15.1616899437  MEMB      162             0.0000000000
     18634       162  OSM       OF            -18.3394837633       25.7334048175      -15.4515425314  MEMB      162             0.0000000000
     18635       162  OSM       C2F           -19.9734584639       24.1843762243      -14.7893774776  MEMB      162             0.0000000000
     18636       162  OSM       H2F           -19.1520710371       23.4362921000      -14.7930774964  MEMB      162             0.0000000000
     18637       162  OSM       H2G           -20.7351737426       23.8717394139      -15.5352791473  MEMB      162             0.0000000000
     18638       162  OSM       C3F           -20.7442945475       24.2238653462      -13.4186728208  MEMB      162             0.0000000000
     18639       162  OSM       H3F           -21.0880237175       23.1736213110      -13.3039624759  MEMB      162             0.0000000000
     18640       162  OSM       H3G           -21.6420367430       24.8778599911      -13.3927725493  MEMB      162             0.0000000000
     18641       162  OSM       C4F           -19.9447780564       24.5307164893      -12.1560645681  MEMB      162             0.0000000000
     18642       162  OSM       H4F           -19.8576171947       25.6297357753      -12.0186587000  MEMB      162             0.0000000000
     18643       162  OSM       H4G           -18.9088010374       24.2001351486      -12.3836355557  MEMB      162             0.0000000000
     18644       162  OSM       C5F           -20.5831331918       23.9107730246      -10.8710588507  MEMB      162             0.0000000000
     18645       162  OSM       H5F           -20.6905280622       22.8057348543      -10.9120202262  MEMB      162             0.0000000000
     18646       162  OSM       H5G           -21.5886432501       24.3806725101      -10.8214098264  MEMB      162             0.0000000000
     18647       162  OSM       C6F           -19.8890537836       24.4047930805       -9.5759691445  MEMB      162             0.0000000000
     18648       162  OSM       H6F           -20.3599697080       23.9881762970       -8.6600059406  MEMB      162             0.0000000000
     18649       162  OSM       H6G           -20.1036421724       25.4944986939       -9.5474306888  MEMB      162             0.0000000000
     18650       162  OSM       C7F           -18.3401096283       24.0934447024       -9.4449824012  MEMB      162             0.0000000000
     18651       162  OSM       H7F           -17.8154696669       24.3931007837      -10.3773340730  MEMB      162             0.0000000000
     18652       162  OSM       H7G           -18.3129443294       22.9846864324       -9.5100812420  MEMB      162             0.0000000000
     18653       162  OSM       C8F           -17.6200727208       24.6433644960       -8.1286811069  MEMB      162             0.0000000000
     18654       162  OSM       H8F           -16.5833110181       24.2720863947       -8.2756447467  MEMB      162             0.0000000000
     18655       162  OSM       H8G           -18.1474913399       24.2403650870       -7.2377590848  MEMB      162             0.0000000000
     18656       162  OSM       C9F           -17.7019684300       26.1631235808       -7.9624706099  MEMB      162             0.0000000000
     18657       162  OSM       H9F           -17.8099322259       26.6391107086       -8.9482594903  MEMB      162             0.0000000000
     18658       162  OSM       C10F          -17.5428162566       26.9212147834       -6.7805176865  MEMB      162             0.0000000000
     18659       162  OSM       H10F          -17.7693029961       27.9953003156       -6.8515398332  MEMB      162             0.0000000000
     18660       162  OSM       C11F          -17.3265797782       26.2181844797       -5.4666572441  MEMB      162             0.0000000000
     18661       162  OSM       H11F          -16.2654517497       25.9020119270       -5.3752069655  MEMB      162             0.0000000000
     18662       162  OSM       H11G          -18.0520322940       25.3771437231       -5.4403851126  MEMB      162             0.0000000000
     18663       162  OSM       C12F          -17.5756598996       27.3370815337       -4.3609143008  MEMB      162             0.0000000000
     18664       162  OSM       H12F          -18.5989912525       27.7550759009       -4.4722473391  MEMB      162             0.0000000000
     18665       162  OSM       H12G          -16.8699443122       28.1844214568       -4.4961980536  MEMB      162             0.0000000000
     18666       162  OSM       C13F          -17.3133738343       26.7877254410       -2.9602468763  MEMB      162             0.0000000000
     18667       162  OSM       H13F          -17.0286113220       27.6266063136       -2.2897917643  MEMB      162             0.0000000000
     18668       162  OSM       H13G          -16.4157293641       26.1330846932       -2.9598881735  MEMB      162             0.0000000000
     18669       162  OSM       C14F          -18.4181642343       25.9486766787       -2.4126658071  MEMB      162             0.0000000000
     18670       162  OSM       H14F          -18.7039402045       25.2624391737       -3.2383355431  MEMB      162             0.0000000000
     18671       162  OSM       H14G          -19.2433683189       26.6486713473       -2.1609387629  MEMB      162             0.0000000000
     18672       162  OSM       C15F          -18.1250265759       25.1582850923       -1.1225637786  MEMB      162             0.0000000000
     18673       162  OSM       H15F          -18.1241415826       25.9335456750       -0.3267683941  MEMB      162             0.0000000000
     18674       162  OSM       H15G          -17.1326799606       24.6654559830       -1.2043477874  MEMB      162             0.0000000000
     18675       162  OSM       C16F          -19.1651759307       24.0917804924       -0.7944684026  MEMB      162             0.0000000000
     18676       162  OSM       H16F          -19.2733361371       23.2271959226       -1.4837535044  MEMB      162             0.0000000000
     18677       162  OSM       H16G          -20.0867723044       24.7110176775       -0.7553963480  MEMB      162             0.0000000000
     18678       162  OSM       C17F          -18.9229408452       23.4879566200        0.5999815401  MEMB      162             0.0000000000
     18679       162  OSM       H17F          -18.5554586343       24.2666294713        1.3020822183  MEMB      162             0.0000000000
     18680       162  OSM       H17G          -18.2011118734       22.6554225467        0.4579546936  MEMB      162             0.0000000000
     18681       162  OSM       C18F          -20.1007652967       22.8637943072        1.3799486596  MEMB      162             0.0000000000
     18682       162  OSM       H18F          -19.6360379291       22.5331130950        2.3333626093  MEMB      162             0.0000000000
     18683       162  OSM       H18G          -20.6039625123       21.9551399963        0.9856638042  MEMB      162             0.0000000000
     18684       162  OSM       H18H          -20.8360961484       23.6297938807        1.7068338908  MEMB      162             0.0000000000
     18685       163  SAPC      N              35.0470264669       -8.5970437552      -22.0972206408  MEMB      163             0.0000000000
     18686       163  SAPC      C12            34.0010190487       -8.0587393692      -21.1306210257  MEMB      163             0.0000000000
     18687       163  SAPC      H12A           33.0569937124       -8.5584570441      -21.2903039821  MEMB      163             0.0000000000
     18688       163  SAPC      H12B           33.8188604986       -7.0384792337      -21.4344098485  MEMB      163             0.0000000000
     18689       163  SAPC      C13            34.5081796483       -8.5437389670      -23.4653642185  MEMB      163             0.0000000000
     18690       163  SAPC      H13A           34.2062505038       -7.5080815703      -23.5168660679  MEMB      163             0.0000000000
     18691       163  SAPC      H13B           35.2089631291       -8.7653879286      -24.2566759335  MEMB      163             0.0000000000
     18692       163  SAPC      H13C           33.5916216007       -9.0936865808      -23.6198919175  MEMB      163             0.0000000000
     18693       163  SAPC      C14            36.3291129046       -7.8664122003      -22.0217746759  MEMB      163             0.0000000000
     18694       163  SAPC      H14A           36.3008941335       -6.8040417712      -22.2140580166  MEMB      163             0.0000000000
     18695       163  SAPC      H14B           36.5790162945       -8.0803507665      -20.9930965293  MEMB      163             0.0000000000
     18696       163  SAPC      H14C           37.1553688052       -8.2501977009      -22.6017830405  MEMB      163             0.0000000000
     18697       163  SAPC      C15            35.4483866822      -10.0556376707      -21.6543157470  MEMB      163             0.0000000000
     18698       163  SAPC      H15A           36.1817824572      -10.3286129032      -22.3986376690  MEMB      163             0.0000000000
     18699       163  SAPC      H15B           35.9027200882       -9.9410166082      -20.6812570916  MEMB      163             0.0000000000
     18700       163  SAPC      H15C           34.5839983584      -10.6962580981      -21.5603038755  MEMB      163             0.0000000000
     18701       163  SAPC      C11            34.2881002966       -8.0516295393      -19.6580365240  MEMB      163             0.0000000000
     18702       163  SAPC      H11A           34.4674391903       -9.1137321314      -19.3858295469  MEMB      163             0.0000000000
     18703       163  SAPC      H11B           33.3992777339       -7.7868382371      -19.0463168469  MEMB      163             0.0000000000
     18704       163  SAPC      P              36.2557557240       -7.4961000109      -18.0063913521  MEMB      163             0.0000000000
     18705       163  SAPC      O13            36.6569005428       -8.9013636693      -18.0200581286  MEMB      163             0.0000000000
     18706       163  SAPC      O14            37.2778782433       -6.5300082625      -17.9061774922  MEMB      163             0.0000000000
     18707       163  SAPC      O12            35.3799011879       -7.1625979095      -19.3325924542  MEMB      163             0.0000000000
     18708       163  SAPC      O11            35.2778257698       -7.3449808268      -16.7074477388  MEMB      163             0.0000000000
     18709       163  SAPC      C1             34.6454647086       -6.0660484508      -16.7236278211  MEMB      163             0.0000000000
     18710       163  SAPC      HA             35.4023429916       -5.2774672247      -16.5246409364  MEMB      163             0.0000000000
     18711       163  SAPC      HB             34.1274453326       -5.8332234534      -17.6784939654  MEMB      163             0.0000000000
     18712       163  SAPC      C2             33.5106040351       -6.0634809199      -15.6509007020  MEMB      163             0.0000000000
     18713       163  SAPC      HS             32.9690688517       -5.0938456168      -15.6214348086  MEMB      163             0.0000000000
     18714       163  SAPC      O21            34.0746301075       -6.3208328822      -14.3239560444  MEMB      163             0.0000000000
     18715       163  SAPC      C21            34.2494620587       -5.4371872342      -13.4081770210  MEMB      163             0.0000000000
     18716       163  SAPC      O22            33.9989031939       -4.2233020485      -13.4998016250  MEMB      163             0.0000000000
     18717       163  SAPC      C22            34.7257152176       -6.0383949099      -12.0992596781  MEMB      163             0.0000000000
     18718       163  SAPC      H2R            34.0695460115       -6.9101476968      -11.8899511254  MEMB      163             0.0000000000
     18719       163  SAPC      H2S            35.8036877567       -6.2962437017      -12.1754835653  MEMB      163             0.0000000000
     18720       163  SAPC      C3             32.2848345642       -6.9501471193      -15.8706908690  MEMB      163             0.0000000000
     18721       163  SAPC      HX             31.9109192955       -6.7686736941      -16.9010189741  MEMB      163             0.0000000000
     18722       163  SAPC      HY             31.5852284096       -6.5569625553      -15.1023949006  MEMB      163             0.0000000000
     18723       163  SAPC      O31            32.5789472070       -8.3540331674      -15.7533062897  MEMB      163             0.0000000000
     18724       163  SAPC      C31            31.5454509201       -9.1611939583      -15.7358667032  MEMB      163             0.0000000000
     18725       163  SAPC      O32            30.3579663241       -8.8461784523      -15.9098942132  MEMB      163             0.0000000000
     18726       163  SAPC      C32            31.8180292519      -10.6090195599      -15.3012357365  MEMB      163             0.0000000000
     18727       163  SAPC      H2X            32.7075028670      -11.0320838708      -15.8152149528  MEMB      163             0.0000000000
     18728       163  SAPC      H2Y            30.8775133256      -11.1056163114      -15.6223944452  MEMB      163             0.0000000000
     18729       163  SAPC      C23            34.5692253117       -5.0318924217      -10.9379962947  MEMB      163             0.0000000000
     18730       163  SAPC      H3R            33.4848303715       -4.8110443641      -10.8398403219  MEMB      163             0.0000000000
     18731       163  SAPC      H3S            35.1378840863       -4.0846760146      -11.0551675258  MEMB      163             0.0000000000
     18732       163  SAPC      C24            35.2302410399       -5.6629883565       -9.6818752283  MEMB      163             0.0000000000
     18733       163  SAPC      H4R            35.2815561417       -4.8947101147       -8.8809778887  MEMB      163             0.0000000000
     18734       163  SAPC      H4S            36.2345498550       -6.0689592561       -9.9285989022  MEMB      163             0.0000000000
     18735       163  SAPC      C25            34.3368409070       -6.7799709447       -9.1479945232  MEMB      163             0.0000000000
     18736       163  SAPC      H5R            33.2615573511       -6.5871521562       -9.2767819751  MEMB      163             0.0000000000
     18737       163  SAPC      C26            34.6870794241       -7.9700690504       -8.6374876968  MEMB      163             0.0000000000
     18738       163  SAPC      H6R            33.8940123995       -8.6163535850       -8.2333085157  MEMB      163             0.0000000000
     18739       163  SAPC      C27            36.1587645254       -8.5379212930       -8.4632526167  MEMB      163             0.0000000000
     18740       163  SAPC      H7R            36.7956356411       -7.6616147624       -8.7098345486  MEMB      163             0.0000000000
     18741       163  SAPC      H7S            36.3898930310       -9.1792416882       -9.3405258209  MEMB      163             0.0000000000
     18742       163  SAPC      C28            36.4235767538       -9.1866119446       -7.1105706297  MEMB      163             0.0000000000
     18743       163  SAPC      H8R            35.9954546895      -10.1878214687       -6.9547149982  MEMB      163             0.0000000000
     18744       163  SAPC      C29            37.2306192314       -8.7317107435       -6.1891747959  MEMB      163             0.0000000000
     18745       163  SAPC      H9R            37.3445497883       -9.3706038400       -5.3010107575  MEMB      163             0.0000000000
     18746       163  SAPC      C210           38.0563684468       -7.4529166545       -6.2606066888  MEMB      163             0.0000000000
     18747       163  SAPC      H10R           37.5510427996       -6.6860195704       -6.8857752477  MEMB      163             0.0000000000
     18748       163  SAPC      H10S           39.0297866168       -7.6035811934       -6.7744922720  MEMB      163             0.0000000000
     18749       163  SAPC      C211           38.2336910572       -6.8730883492       -4.9370775761  MEMB      163             0.0000000000
     18750       163  SAPC      H11R           39.1223266466       -7.1525271912       -4.3520644590  MEMB      163             0.0000000000
     18751       163  SAPC      C212           37.5146028763       -5.8862452906       -4.3894156922  MEMB      163             0.0000000000
     18752       163  SAPC      H12R           37.6991272442       -5.7157138689       -3.3184961989  MEMB      163             0.0000000000
     18753       163  SAPC      C213           36.2964579770       -5.2227711478       -5.1095973055  MEMB      163             0.0000000000
     18754       163  SAPC      H13R           36.4856888220       -5.0375269832       -6.1885768484  MEMB      163             0.0000000000
     18755       163  SAPC      H13S           36.1818274379       -4.1813015101       -4.7401077199  MEMB      163             0.0000000000
     18756       163  SAPC      C214           34.9381173002       -5.9199817075       -4.9065497146  MEMB      163             0.0000000000
     18757       163  SAPC      H14R           34.7660719717       -6.8017421731       -5.5412928441  MEMB      163             0.0000000000
     18758       163  SAPC      C215           34.0472760621       -5.6326914229       -3.9268211138  MEMB      163             0.0000000000
     18759       163  SAPC      H15R           33.1440473892       -6.2454069914       -3.7898621214  MEMB      163             0.0000000000
     18760       163  SAPC      C216           34.1978230734       -4.6021522180       -2.8017485068  MEMB      163             0.0000000000
     18761       163  SAPC      H16R           35.2448991743       -4.5486264507       -2.4342057642  MEMB      163             0.0000000000
     18762       163  SAPC      H16S           33.5185821609       -4.8640318923       -1.9624811018  MEMB      163             0.0000000000
     18763       163  SAPC      C217           33.7769168660       -3.1349215781       -3.1195026947  MEMB      163             0.0000000000
     18764       163  SAPC      H17R           34.4619695454       -2.8490684958       -3.9461284034  MEMB      163             0.0000000000
     18765       163  SAPC      H17S           33.9277532985       -2.5711597689       -2.1741224165  MEMB      163             0.0000000000
     18766       163  SAPC      C218           32.3150130182       -3.0428119529       -3.5391691529  MEMB      163             0.0000000000
     18767       163  SAPC      H18R           31.8119904255       -3.5524385445       -2.6897171207  MEMB      163             0.0000000000
     18768       163  SAPC      H18S           32.2904448139       -3.5000498409       -4.5514199745  MEMB      163             0.0000000000
     18769       163  SAPC      C219           31.9113183303       -1.5553603102       -3.6036028626  MEMB      163             0.0000000000
     18770       163  SAPC      H19R           30.9721835535       -1.4113971164       -4.1794689915  MEMB      163             0.0000000000
     18771       163  SAPC      H19S           32.6227722212       -1.0031977783       -4.2541959491  MEMB      163             0.0000000000
     18772       163  SAPC      C220           31.7944956163       -0.9743505793       -2.1746127500  MEMB      163             0.0000000000
     18773       163  SAPC      H20R           32.8431512304       -0.9072734774       -1.8138595926  MEMB      163             0.0000000000
     18774       163  SAPC      H20S           31.2744787132       -1.7053304858       -1.5191958449  MEMB      163             0.0000000000
     18775       163  SAPC      H20T           31.2712649758       -0.0048052246       -2.3179069871  MEMB      163             0.0000000000
     18776       163  SAPC      C33            31.8572943149      -10.7893970515      -13.8279200642  MEMB      163             0.0000000000
     18777       163  SAPC      H3X            31.9190929743      -11.8952626249      -13.7409534022  MEMB      163             0.0000000000
     18778       163  SAPC      H3Y            30.9075820171      -10.4186021448      -13.3864695013  MEMB      163             0.0000000000
     18779       163  SAPC      C34            33.0614256189      -10.0792848649      -13.1331910199  MEMB      163             0.0000000000
     18780       163  SAPC      H4X            33.1786752306       -9.0656169265      -13.5725669670  MEMB      163             0.0000000000
     18781       163  SAPC      H4Y            33.8773903218      -10.7582615069      -13.4610838144  MEMB      163             0.0000000000
     18782       163  SAPC      C35            32.8040831229       -9.9745664252      -11.5660232602  MEMB      163             0.0000000000
     18783       163  SAPC      H5X            31.9659767636       -9.2697605686      -11.3785477115  MEMB      163             0.0000000000
     18784       163  SAPC      H5Y            33.7168370459       -9.4633120572      -11.1920980019  MEMB      163             0.0000000000
     18785       163  SAPC      C36            32.6045355433      -11.2933821501      -11.0033012222  MEMB      163             0.0000000000
     18786       163  SAPC      H6X            33.3292002003      -12.0545254325      -11.3636396326  MEMB      163             0.0000000000
     18787       163  SAPC      H6Y            31.6184456094      -11.7626371602      -11.2076230289  MEMB      163             0.0000000000
     18788       163  SAPC      C37            32.7900203096      -11.3681891793       -9.4817647777  MEMB      163             0.0000000000
     18789       163  SAPC      H7X            33.7460159915      -10.9320982737       -9.1209075236  MEMB      163             0.0000000000
     18790       163  SAPC      H7Y            32.7066754372      -12.4384547642       -9.1955708550  MEMB      163             0.0000000000
     18791       163  SAPC      C38            31.6487513074      -10.6592421633       -8.7002783674  MEMB      163             0.0000000000
     18792       163  SAPC      H8X            30.7360835521      -10.5624280079       -9.3263657209  MEMB      163             0.0000000000
     18793       163  SAPC      H8Y            31.9083565591       -9.6391946557       -8.3447100396  MEMB      163             0.0000000000
     18794       163  SAPC      C39            31.2535358736      -11.4589546374       -7.4811384634  MEMB      163             0.0000000000
     18795       163  SAPC      H9X            30.9226906756      -12.4232665725       -7.9226850301  MEMB      163             0.0000000000
     18796       163  SAPC      H9Y            30.3514536795      -10.9592709686       -7.0677557463  MEMB      163             0.0000000000
     18797       163  SAPC      C310           32.2276687503      -11.5970882065       -6.3808505276  MEMB      163             0.0000000000
     18798       163  SAPC      H10X           33.0326769397      -12.2288550822       -6.8134622557  MEMB      163             0.0000000000
     18799       163  SAPC      H10Y           31.7471380995      -12.1191328062       -5.5259340181  MEMB      163             0.0000000000
     18800       163  SAPC      C311           32.8176748762      -10.3349013301       -5.5753150399  MEMB      163             0.0000000000
     18801       163  SAPC      H11X           31.9302222404       -9.7833053744       -5.1978356685  MEMB      163             0.0000000000
     18802       163  SAPC      H11Y           33.3867572904       -9.7627003223       -6.3388929855  MEMB      163             0.0000000000
     18803       163  SAPC      C312           33.7476766141      -10.6880084978       -4.4241732575  MEMB      163             0.0000000000
     18804       163  SAPC      H12X           34.7276815623      -10.8389135174       -4.9253107581  MEMB      163             0.0000000000
     18805       163  SAPC      H12Y           33.5722853528      -11.7485698515       -4.1435158944  MEMB      163             0.0000000000
     18806       163  SAPC      C313           33.8891300719       -9.6061519376       -3.3711520465  MEMB      163             0.0000000000
     18807       163  SAPC      H13X           33.1234531199       -9.8018053077       -2.5902687429  MEMB      163             0.0000000000
     18808       163  SAPC      H13Y           33.6474743039       -8.5689206916       -3.6874977019  MEMB      163             0.0000000000
     18809       163  SAPC      C314           35.2533637787       -9.3668135240       -2.6322094972  MEMB      163             0.0000000000
     18810       163  SAPC      H14X           35.9694136246       -8.9267006107       -3.3587723744  MEMB      163             0.0000000000
     18811       163  SAPC      H14Y           35.6384057551      -10.3661390107       -2.3365541912  MEMB      163             0.0000000000
     18812       163  SAPC      C315           35.0852815280       -8.5117596012       -1.4280576002  MEMB      163             0.0000000000
     18813       163  SAPC      H15X           34.6977998299       -9.2664450044       -0.7106816078  MEMB      163             0.0000000000
     18814       163  SAPC      H15Y           34.2771592050       -7.7498204540       -1.4546677820  MEMB      163             0.0000000000
     18815       163  SAPC      C316           36.3626157645       -7.9587815178       -0.9209778232  MEMB      163             0.0000000000
     18816       163  SAPC      H16X           36.7115326292       -7.1357440928       -1.5806641464  MEMB      163             0.0000000000
     18817       163  SAPC      H16Y           37.1269156228       -8.7639905076       -0.8784965773  MEMB      163             0.0000000000
     18818       163  SAPC      C317           36.1875662690       -7.2839270397        0.5211807339  MEMB      163             0.0000000000
     18819       163  SAPC      H17X           37.1659763263       -6.9396644842        0.9193238414  MEMB      163             0.0000000000
     18820       163  SAPC      H17Y           35.8813641739       -8.0645635458        1.2499926196  MEMB      163             0.0000000000
     18821       163  SAPC      C318           35.2473962944       -6.0892849938        0.6118412079  MEMB      163             0.0000000000
     18822       163  SAPC      H18X           34.7335366130       -6.0761731066        1.5967771315  MEMB      163             0.0000000000
     18823       163  SAPC      H18Y           34.5072724895       -6.0695962413       -0.2165012841  MEMB      163             0.0000000000
     18824       163  SAPC      H18Z           35.9067097478       -5.2002677477        0.5155325699  MEMB      163             0.0000000000
     18825       164  CHL1      C3            -12.6427546334      -32.3314760687      -17.3097250000  MEMB      164             0.0000000000
     18826       164  CHL1      H3            -12.3071933980      -33.3905308925      -17.2994150000  MEMB      164             0.0000000000
     18827       164  CHL1      O3            -12.6681251666      -31.9672349313      -18.6902750000  MEMB      164             0.0000000000
     18828       164  CHL1      H3'           -11.7989997424      -32.0644564515      -19.0862350000  MEMB      164             0.0000000000
     18829       164  CHL1      C4            -13.9885888509      -32.0548891354      -16.6324350000  MEMB      164             0.0000000000
     18830       164  CHL1      H4A           -14.2811983923      -31.0387521271      -16.9732750000  MEMB      164             0.0000000000
     18831       164  CHL1      H4B           -14.7144091860      -32.8051228494      -17.0127750000  MEMB      164             0.0000000000
     18832       164  CHL1      C5            -13.9017802453      -32.2462989369      -15.0908750000  MEMB      164             0.0000000000
     18833       164  CHL1      C6            -14.8631627346      -32.9445313010      -14.4095750000  MEMB      164             0.0000000000
     18834       164  CHL1      H6            -15.7024081325      -33.2903342880      -15.0309350000  MEMB      164             0.0000000000
     18835       164  CHL1      C7            -14.9883390744      -32.9926124093      -12.9398050000  MEMB      164             0.0000000000
     18836       164  CHL1      H7A           -16.0408521593      -32.8381961649      -12.6193450000  MEMB      164             0.0000000000
     18837       164  CHL1      H7B           -14.8155105326      -33.9982034647      -12.5002250000  MEMB      164             0.0000000000
     18838       164  CHL1      C8            -13.9732510940      -31.9854041348      -12.2296750000  MEMB      164             0.0000000000
     18839       164  CHL1      H8            -14.4860410934      -31.0042653254      -12.3231150000  MEMB      164             0.0000000000
     18840       164  CHL1      C14           -13.7944038407      -32.2819140705      -10.7348050000  MEMB      164             0.0000000000
     18841       164  CHL1      H14           -13.3249612029      -33.2882320925      -10.7704750000  MEMB      164             0.0000000000
     18842       164  CHL1      C15           -15.0051582857      -32.4358186882       -9.8411350000  MEMB      164             0.0000000000
     18843       164  CHL1      H15A          -15.6759689259      -31.5684360790      -10.0199650000  MEMB      164             0.0000000000
     18844       164  CHL1      H15B          -15.5838686113      -33.3701530258      -10.0036750000  MEMB      164             0.0000000000
     18845       164  CHL1      C16           -14.4831665438      -32.4823972903       -8.3939150000  MEMB      164             0.0000000000
     18846       164  CHL1      H16A          -14.9275980878      -31.7070505617       -7.7338850000  MEMB      164             0.0000000000
     18847       164  CHL1      H16B          -14.7411682312      -33.4748345158       -7.9663250000  MEMB      164             0.0000000000
     18848       164  CHL1      C17           -12.9831365436      -32.2831843362       -8.5643450000  MEMB      164             0.0000000000
     18849       164  CHL1      H17           -12.5122996304      -33.2733809905       -8.7436150000  MEMB      164             0.0000000000
     18850       164  CHL1      C13           -12.7853053371      -31.5324410265       -9.9053150000  MEMB      164             0.0000000000
     18851       164  CHL1      C18           -13.2247228826      -30.0266984826       -9.7256150000  MEMB      164             0.0000000000
     18852       164  CHL1      H18A          -12.5865124943      -29.4967505151       -8.9865750000  MEMB      164             0.0000000000
     18853       164  CHL1      H18B          -13.2781963700      -29.4165520704      -10.6525350000  MEMB      164             0.0000000000
     18854       164  CHL1      H18C          -14.2123232527      -29.8820991343       -9.2377050000  MEMB      164             0.0000000000
     18855       164  CHL1      C12           -11.4819135974      -31.8311263146      -10.5665750000  MEMB      164             0.0000000000
     18856       164  CHL1      H12A          -10.6058593476      -31.3057538095      -10.1297150000  MEMB      164             0.0000000000
     18857       164  CHL1      H12B          -11.1530929105      -32.8922976226      -10.5560750000  MEMB      164             0.0000000000
     18858       164  CHL1      C11           -11.4519044104      -31.4461079806      -12.0589550000  MEMB      164             0.0000000000
     18859       164  CHL1      H11A          -11.5718828950      -30.3436585009      -11.9918050000  MEMB      164             0.0000000000
     18860       164  CHL1      H11B          -10.4599027001      -31.6893871809      -12.4960650000  MEMB      164             0.0000000000
     18861       164  CHL1      C9            -12.6203509323      -32.0342733460      -12.8323550000  MEMB      164             0.0000000000
     18862       164  CHL1      H9            -12.3534028880      -33.1058477791      -12.7106950000  MEMB      164             0.0000000000
     18863       164  CHL1      C10           -12.6783556862      -31.6539299156      -14.3391550000  MEMB      164             0.0000000000
     18864       164  CHL1      C19           -12.7799896221      -30.1053446313      -14.2791150000  MEMB      164             0.0000000000
     18865       164  CHL1      H19A          -13.2109358824      -29.6999083476      -15.2194450000  MEMB      164             0.0000000000
     18866       164  CHL1      H19B          -13.4913447193      -29.7665531271      -13.4958450000  MEMB      164             0.0000000000
     18867       164  CHL1      H19C          -11.7620413830      -29.7124796230      -14.0699150000  MEMB      164             0.0000000000
     18868       164  CHL1      C1            -11.4503846026      -32.0306929927      -15.1473350000  MEMB      164             0.0000000000
     18869       164  CHL1      H1A           -10.5200094559      -31.5825809474      -14.7375650000  MEMB      164             0.0000000000
     18870       164  CHL1      H1B           -11.2094480292      -33.1144859517      -15.1064150000  MEMB      164             0.0000000000
     18871       164  CHL1      C2            -11.5671643619      -31.5728051715      -16.5985550000  MEMB      164             0.0000000000
     18872       164  CHL1      H2A           -10.5814379797      -31.7359584943      -17.0843950000  MEMB      164             0.0000000000
     18873       164  CHL1      H2B           -11.8812317966      -30.5122985090      -16.7035150000  MEMB      164             0.0000000000
     18874       164  CHL1      C20           -12.3333211461      -31.7262795540       -7.2819750000  MEMB      164             0.0000000000
     18875       164  CHL1      H20           -12.7961356974      -30.7191866335       -7.2052550000  MEMB      164             0.0000000000
     18876       164  CHL1      C21           -10.8332857494      -31.2609565926       -7.3415150000  MEMB      164             0.0000000000
     18877       164  CHL1      H21A          -10.6475544024      -30.7253349978       -8.2969950000  MEMB      164             0.0000000000
     18878       164  CHL1      H21B          -10.1335951731      -32.1124012663       -7.2008550000  MEMB      164             0.0000000000
     18879       164  CHL1      H21C          -10.7441283973      -30.4301221151       -6.6093350000  MEMB      164             0.0000000000
     18880       164  CHL1      C22           -12.7609068623      -32.4830726960       -5.9383550000  MEMB      164             0.0000000000
     18881       164  CHL1      H22A          -13.8508636907      -32.6719192701       -5.8351850000  MEMB      164             0.0000000000
     18882       164  CHL1      H22B          -12.2291947898      -33.4450442716       -6.1002550000  MEMB      164             0.0000000000
     18883       164  CHL1      C23           -12.3072549286      -31.8029716005       -4.6023850000  MEMB      164             0.0000000000
     18884       164  CHL1      H23A          -11.1979243336      -31.8500576243       -4.5638750000  MEMB      164             0.0000000000
     18885       164  CHL1      H23B          -12.6424986819      -30.7439974310       -4.5800050000  MEMB      164             0.0000000000
     18886       164  CHL1      C24           -12.8606877589      -32.5257505120       -3.3549650000  MEMB      164             0.0000000000
     18887       164  CHL1      H24A          -13.9425169347      -32.7383033989       -3.4920650000  MEMB      164             0.0000000000
     18888       164  CHL1      H24B          -12.4331908895      -33.5444402357       -3.2373450000  MEMB      164             0.0000000000
     18889       164  CHL1      C25           -12.8942358034      -31.6015938718       -2.1847550000  MEMB      164             0.0000000000
     18890       164  CHL1      H25           -13.4785486725      -30.6568812853       -2.2051950000  MEMB      164             0.0000000000
     18891       164  CHL1      C26           -13.4811044935      -32.2467871643       -0.8875650000  MEMB      164             0.0000000000
     18892       164  CHL1      H26A          -14.5744889737      -32.4032537878       -1.0073350000  MEMB      164             0.0000000000
     18893       164  CHL1      H26B          -12.9321754248      -33.1464658571       -0.5360050000  MEMB      164             0.0000000000
     18894       164  CHL1      H26C          -13.4434325229      -31.4112137840       -0.1563250000  MEMB      164             0.0000000000
     18895       164  CHL1      C27           -11.4152635878      -31.2353094509       -1.7719650000  MEMB      164             0.0000000000
     18896       164  CHL1      H27A          -10.8834931099      -30.8027123718       -2.6462650000  MEMB      164             0.0000000000
     18897       164  CHL1      H27B          -11.5191420857      -30.4602640421       -0.9827650000  MEMB      164             0.0000000000
     18898       164  CHL1      H27C          -10.8395126441      -32.0570609142       -1.2949350000  MEMB      164             0.0000000000
     18899       165  SOPE      N              15.0307324195       28.4673194807      -20.1559129474  MEMB      165             0.0000000000
     18900       165  SOPE      HN1            14.2192060497       28.7260209883      -20.7526528985  MEMB      165             0.0000000000
     18901       165  SOPE      HN2            15.6617488126       27.8915271707      -20.7491087606  MEMB      165             0.0000000000
     18902       165  SOPE      HN3            14.7069618892       27.9561230271      -19.3100697453  MEMB      165             0.0000000000
     18903       165  SOPE      C12            15.8690463524       29.6381921546      -19.6141176657  MEMB      165             0.0000000000
     18904       165  SOPE      H12A           16.5077357907       29.2156517117      -18.8092223455  MEMB      165             0.0000000000
     18905       165  SOPE      H12B           15.0911964650       30.3498935545      -19.2637584750  MEMB      165             0.0000000000
     18906       165  SOPE      C11            16.6299518255       30.5150402174      -20.6519838005  MEMB      165             0.0000000000
     18907       165  SOPE      H11A           17.4174242279       29.9104557080      -21.1506681417  MEMB      165             0.0000000000
     18908       165  SOPE      H11B           17.2273989650       31.3625809737      -20.2531699490  MEMB      165             0.0000000000
     18909       165  SOPE      P              15.2102195425       32.6304999902      -21.5453890326  MEMB      165             0.0000000000
     18910       165  SOPE      O13            13.7524784534       32.5542982570      -21.8299068709  MEMB      165             0.0000000000
     18911       165  SOPE      O14            15.9622919872       33.5677456491      -22.4609786730  MEMB      165             0.0000000000
     18912       165  SOPE      O12            15.8241831796       31.1436157930      -21.6664648268  MEMB      165             0.0000000000
     18913       165  SOPE      O11            15.4254738732       32.9398549069      -20.0752461595  MEMB      165             0.0000000000
     18914       165  SOPE      C1             14.9843769135       34.2064952692      -19.5367364077  MEMB      165             0.0000000000
     18915       165  SOPE      HA             14.0325295540       34.5546449341      -19.9918180950  MEMB      165             0.0000000000
     18916       165  SOPE      HB             15.7491427892       34.9649201802      -19.8092169985  MEMB      165             0.0000000000
     18917       165  SOPE      C2             14.7972915206       34.0824376770      -17.9288915780  MEMB      165             0.0000000000
     18918       165  SOPE      HS             15.1188656836       35.0237470635      -17.4340707147  MEMB      165             0.0000000000
     18919       165  SOPE      O21            15.5495644253       32.9592477231      -17.3860223698  MEMB      165             0.0000000000
     18920       165  SOPE      C21            16.8546125773       33.1712964413      -17.2703621099  MEMB      165             0.0000000000
     18921       165  SOPE      O22            17.4103836850       34.1781235293      -17.5023152793  MEMB      165             0.0000000000
     18922       165  SOPE      C22            17.4675800748       31.9246890235      -16.5467561797  MEMB      165             0.0000000000
     18923       165  SOPE      H2R            18.3582380011       32.4005488560      -16.0834993376  MEMB      165             0.0000000000
     18924       165  SOPE      H2S            17.7120835879       31.1693405638      -17.3239226222  MEMB      165             0.0000000000
     18925       165  SOPE      C3             13.3391619682       33.8468703703      -17.6666674345  MEMB      165             0.0000000000
     18926       165  SOPE      HX             13.0618172270       32.8359393641      -18.0346612018  MEMB      165             0.0000000000
     18927       165  SOPE      HY             12.8130563270       34.7139248629      -18.1202646381  MEMB      165             0.0000000000
     18928       165  SOPE      O31            13.1776040122       33.9388793775      -16.2368255439  MEMB      165             0.0000000000
     18929       165  SOPE      C31            12.0161353006       33.5935097064      -15.7816132434  MEMB      165             0.0000000000
     18930       165  SOPE      O32            11.0319831099       33.3226221295      -16.5034503167  MEMB      165             0.0000000000
     18931       165  SOPE      C32            11.9343397028       33.4697153396      -14.2771240327  MEMB      165             0.0000000000
     18932       165  SOPE      H2X            11.1960278816       34.2050690857      -13.8918038408  MEMB      165             0.0000000000
     18933       165  SOPE      H2Y            12.9134003999       33.7755937220      -13.8502756104  MEMB      165             0.0000000000
     18934       165  SOPE      C23            16.4597385409       31.4111259262      -15.4106814210  MEMB      165             0.0000000000
     18935       165  SOPE      H3R            15.6495864928       30.8017606571      -15.8652676599  MEMB      165             0.0000000000
     18936       165  SOPE      H3S            16.1417175684       32.3178425578      -14.8529640108  MEMB      165             0.0000000000
     18937       165  SOPE      C24            17.0684569630       30.4608230192      -14.3018307497  MEMB      165             0.0000000000
     18938       165  SOPE      H4R            16.2921884713       30.3039649377      -13.5226494024  MEMB      165             0.0000000000
     18939       165  SOPE      H4S            17.3340134114       29.5167464938      -14.8238657394  MEMB      165             0.0000000000
     18940       165  SOPE      C25            18.2696793393       30.9826824437      -13.5161058276  MEMB      165             0.0000000000
     18941       165  SOPE      H5R            18.9319876266       30.2055178298      -13.0782888805  MEMB      165             0.0000000000
     18942       165  SOPE      H5S            18.9532889999       31.4136669528      -14.2785041910  MEMB      165             0.0000000000
     18943       165  SOPE      C26            17.9377793583       31.8951848707      -12.3821187400  MEMB      165             0.0000000000
     18944       165  SOPE      H6R            16.8274802116       31.9342143117      -12.3878873064  MEMB      165             0.0000000000
     18945       165  SOPE      H6S            18.2773808761       31.4114535475      -11.4413762110  MEMB      165             0.0000000000
     18946       165  SOPE      C27            18.4453299811       33.4118053203      -12.5576307274  MEMB      165             0.0000000000
     18947       165  SOPE      H7R            19.5464551640       33.3085585781      -12.4518738576  MEMB      165             0.0000000000
     18948       165  SOPE      H7S            18.2117576537       33.8601047180      -13.5469696685  MEMB      165             0.0000000000
     18949       165  SOPE      C28            17.9531475174       34.3649262372      -11.4508278673  MEMB      165             0.0000000000
     18950       165  SOPE      H8R            18.1481364703       34.0955537861      -10.3907625301  MEMB      165             0.0000000000
     18951       165  SOPE      H8S            18.5885668249       35.2687241943      -11.5679283372  MEMB      165             0.0000000000
     18952       165  SOPE      C29            16.4745761631       34.7557593874      -11.8049844117  MEMB      165             0.0000000000
     18953       165  SOPE      H91            16.2073067577       35.4466957825      -12.6181105178  MEMB      165             0.0000000000
     18954       165  SOPE      C210           15.3326848969       34.2590165772      -11.2612622459  MEMB      165             0.0000000000
     18955       165  SOPE      H101           14.3080636726       34.5947571788      -11.4790469005  MEMB      165             0.0000000000
     18956       165  SOPE      C211           15.3206522061       33.2533734344      -10.1893901807  MEMB      165             0.0000000000
     18957       165  SOPE      H11R           16.2063157773       32.5859605386      -10.2563321368  MEMB      165             0.0000000000
     18958       165  SOPE      H11S           14.4626945510       32.5497553174      -10.2455257545  MEMB      165             0.0000000000
     18959       165  SOPE      C212           15.3338581824       33.9187669074       -8.7987268522  MEMB      165             0.0000000000
     18960       165  SOPE      H12R           14.5462881986       34.7020872739       -8.7771930402  MEMB      165             0.0000000000
     18961       165  SOPE      H12S           16.2478857717       34.5140251376       -8.5876776247  MEMB      165             0.0000000000
     18962       165  SOPE      C213           14.9776459649       32.9534778402       -7.6138195934  MEMB      165             0.0000000000
     18963       165  SOPE      H13R           15.7666116330       32.1909393787       -7.4394944271  MEMB      165             0.0000000000
     18964       165  SOPE      H13S           13.9537859469       32.6613116818       -7.9311057810  MEMB      165             0.0000000000
     18965       165  SOPE      C214           14.7067939378       33.7058472157       -6.3275997662  MEMB      165             0.0000000000
     18966       165  SOPE      H14R           13.6879664686       34.1375606023       -6.4272730315  MEMB      165             0.0000000000
     18967       165  SOPE      H14S           15.4094556201       34.5661497168       -6.3492141417  MEMB      165             0.0000000000
     18968       165  SOPE      C215           14.8667869983       32.7463690922       -5.0515549091  MEMB      165             0.0000000000
     18969       165  SOPE      H15R           15.9602487410       32.6533073501       -4.8783449601  MEMB      165             0.0000000000
     18970       165  SOPE      H15S           14.5829278574       31.6888852659       -5.2398975981  MEMB      165             0.0000000000
     18971       165  SOPE      C216           14.1914079795       33.0817954643       -3.7039472678  MEMB      165             0.0000000000
     18972       165  SOPE      H16R           13.1226584981       33.2315854102       -3.9678768775  MEMB      165             0.0000000000
     18973       165  SOPE      H16S           14.5293983924       34.0790231554       -3.3495187253  MEMB      165             0.0000000000
     18974       165  SOPE      C217           14.5117471466       32.0288277782       -2.6360267220  MEMB      165             0.0000000000
     18975       165  SOPE      H17R           15.6114328405       31.9021003774       -2.5414107753  MEMB      165             0.0000000000
     18976       165  SOPE      H17S           13.8928509515       31.1515572439       -2.9218320056  MEMB      165             0.0000000000
     18977       165  SOPE      C218           14.0019447217       32.3315801756       -1.2151146591  MEMB      165             0.0000000000
     18978       165  SOPE      H18R           14.4896487357       33.2609710641       -0.8508354018  MEMB      165             0.0000000000
     18979       165  SOPE      H18S           14.2824221016       31.4953640114       -0.5395440989  MEMB      165             0.0000000000
     18980       165  SOPE      H18T           12.8984409741       32.4601952832       -1.2074384504  MEMB      165             0.0000000000
     18981       165  SOPE      C33            11.4994540014       32.0358787244      -13.8616220084  MEMB      165             0.0000000000
     18982       165  SOPE      H3X            10.7591916526       31.5719314795      -14.5479788548  MEMB      165             0.0000000000
     18983       165  SOPE      H3Y            11.0221589934       32.1796287175      -12.8687240114  MEMB      165             0.0000000000
     18984       165  SOPE      C34            12.6599137646       30.9745559294      -13.6597145820  MEMB      165             0.0000000000
     18985       165  SOPE      H4X            13.4817839907       31.5750403061      -13.2144408646  MEMB      165             0.0000000000
     18986       165  SOPE      H4Y            12.9190732245       30.5937647152      -14.6707316328  MEMB      165             0.0000000000
     18987       165  SOPE      C35            12.2388678375       29.7375401811      -12.7813746630  MEMB      165             0.0000000000
     18988       165  SOPE      H5X            11.5516853319       29.1699848263      -13.4446857478  MEMB      165             0.0000000000
     18989       165  SOPE      H5Y            11.5744980583       30.0445020332      -11.9454869119  MEMB      165             0.0000000000
     18990       165  SOPE      C36            13.3973277675       28.9736395989      -12.2096573823  MEMB      165             0.0000000000
     18991       165  SOPE      H6X            13.9076454391       28.5276063792      -13.0899704813  MEMB      165             0.0000000000
     18992       165  SOPE      H6Y            12.8940940574       28.1756932973      -11.6228357608  MEMB      165             0.0000000000
     18993       165  SOPE      C37            14.4431997322       29.6919495782      -11.3761237085  MEMB      165             0.0000000000
     18994       165  SOPE      H7X            13.8919557487       29.8879374653      -10.4316444900  MEMB      165             0.0000000000
     18995       165  SOPE      H7Y            14.7369962503       30.7003374804      -11.7382818681  MEMB      165             0.0000000000
     18996       165  SOPE      C38            15.6161990427       28.7845688282      -11.1331639719  MEMB      165             0.0000000000
     18997       165  SOPE      H8X            16.2297210258       28.7130940204      -12.0566375711  MEMB      165             0.0000000000
     18998       165  SOPE      H8Y            15.2873913676       27.7297289247      -11.0168916396  MEMB      165             0.0000000000
     18999       165  SOPE      C39            16.4812218915       29.1259067632       -9.9351651129  MEMB      165             0.0000000000
     19000       165  SOPE      H9X            16.0737965871       28.7377347823       -8.9772256961  MEMB      165             0.0000000000
     19001       165  SOPE      H9Y            16.3649555347       30.2298625937       -9.8895052850  MEMB      165             0.0000000000
     19002       165  SOPE      C310           17.9334000694       28.6513274054       -9.8800644583  MEMB      165             0.0000000000
     19003       165  SOPE      H10X           18.3811824713       29.2142616564      -10.7267741853  MEMB      165             0.0000000000
     19004       165  SOPE      H10Y           18.0391296505       27.5921145199      -10.1981995642  MEMB      165             0.0000000000
     19005       165  SOPE      C311           18.5787868273       28.9972732629       -8.5467862062  MEMB      165             0.0000000000
     19006       165  SOPE      H11X           17.8228970783       28.8110989911       -7.7541384097  MEMB      165             0.0000000000
     19007       165  SOPE      H11Y           18.9576637800       30.0404989968       -8.4972571093  MEMB      165             0.0000000000
     19008       165  SOPE      C312           19.7426369124       28.0486894527       -8.1809795069  MEMB      165             0.0000000000
     19009       165  SOPE      H12X           20.5940085374       28.3204123468       -8.8410206642  MEMB      165             0.0000000000
     19010       165  SOPE      H12Y           19.4590935212       26.9788540094       -8.2778095353  MEMB      165             0.0000000000
     19011       165  SOPE      C313           20.2416035633       28.1640177251       -6.7207530082  MEMB      165             0.0000000000
     19012       165  SOPE      H13X           20.5976871890       29.2013745292       -6.5435072446  MEMB      165             0.0000000000
     19013       165  SOPE      H13Y           21.1741514694       27.5685173015       -6.6204792917  MEMB      165             0.0000000000
     19014       165  SOPE      C314           19.2888963562       27.7683309032       -5.6063191925  MEMB      165             0.0000000000
     19015       165  SOPE      H14X           19.1556919687       26.6720360795       -5.7276271315  MEMB      165             0.0000000000
     19016       165  SOPE      H14Y           18.3175038619       28.2864479160       -5.7555579247  MEMB      165             0.0000000000
     19017       165  SOPE      C315           19.6730774944       27.9820336352       -4.1504359887  MEMB      165             0.0000000000
     19018       165  SOPE      H15X           20.5844535865       27.3708276810       -3.9768222609  MEMB      165             0.0000000000
     19019       165  SOPE      H15Y           18.8319739867       27.6076962013       -3.5285539778  MEMB      165             0.0000000000
     19020       165  SOPE      C316           19.9159854351       29.4667561305       -3.7677141716  MEMB      165             0.0000000000
     19021       165  SOPE      H16X           19.1949743048       30.1153784194       -4.3097033987  MEMB      165             0.0000000000
     19022       165  SOPE      H16Y           20.9771464884       29.7371175305       -3.9552318497  MEMB      165             0.0000000000
     19023       165  SOPE      C317           19.6900340572       29.6459480554       -2.2716289231  MEMB      165             0.0000000000
     19024       165  SOPE      H17X           20.2648956487       30.5633081658       -2.0220180250  MEMB      165             0.0000000000
     19025       165  SOPE      H17Y           20.1517578757       28.8163296847       -1.6946829995  MEMB      165             0.0000000000
     19026       165  SOPE      C318           18.2591513995       29.7712023908       -1.8063955431  MEMB      165             0.0000000000
     19027       165  SOPE      H18X           17.7750412177       30.7421941861       -2.0454219681  MEMB      165             0.0000000000
     19028       165  SOPE      H18Y           18.1331538038       29.5417548633       -0.7266727275  MEMB      165             0.0000000000
     19029       165  SOPE      H18Z           17.6485052568       28.9646506454       -2.2656404420  MEMB      165             0.0000000000
     19030       166  OSM       N              -9.6925821648       35.2146610229      -20.4477490255  MEMB      166             0.0000000000
     19031       166  OSM       C15           -10.7474166305       36.3386680944      -20.5356837029  MEMB      166             0.0000000000
     19032       166  OSM       H15A          -11.1944161862       36.5032973315      -19.5664115667  MEMB      166             0.0000000000
     19033       166  OSM       H15B          -11.4450862256       36.0603936756      -21.3117122712  MEMB      166             0.0000000000
     19034       166  OSM       H15C          -10.2400328805       37.2594766190      -20.7828134546  MEMB      166             0.0000000000
     19035       166  OSM       C14            -8.4055361713       35.7226590912      -19.8550033431  MEMB      166             0.0000000000
     19036       166  OSM       H14A           -8.2526572557       36.6500331381      -20.3869858734  MEMB      166             0.0000000000
     19037       166  OSM       H14B           -7.5817908936       35.0561639059      -20.0638764203  MEMB      166             0.0000000000
     19038       166  OSM       H14C           -8.4233010390       35.8266343766      -18.7801667540  MEMB      166             0.0000000000
     19039       166  OSM       C13           -10.3973462152       34.0371396164      -19.7462212615  MEMB      166             0.0000000000
     19040       166  OSM       H13A          -10.5508714161       34.2331237789      -18.6953073369  MEMB      166             0.0000000000
     19041       166  OSM       H13B           -9.9400527858       33.0678659936      -19.8796057234  MEMB      166             0.0000000000
     19042       166  OSM       H13C          -11.3628194609       33.9786629581      -20.2266811801  MEMB      166             0.0000000000
     19043       166  OSM       C12            -9.3482340018       34.8112278884      -21.9199770223  MEMB      166             0.0000000000
     19044       166  OSM       H12A           -9.1776674897       35.7380119625      -22.4475925912  MEMB      166             0.0000000000
     19045       166  OSM       H12B          -10.2067733943       34.4231998542      -22.4479394668  MEMB      166             0.0000000000
     19046       166  OSM       C11            -8.1384062207       33.8208182895      -22.1774021955  MEMB      166             0.0000000000
     19047       166  OSM       H11A           -7.1696323757       34.2657855249      -21.8646686137  MEMB      166             0.0000000000
     19048       166  OSM       H11B           -8.1394475379       33.6590051445      -23.2765546946  MEMB      166             0.0000000000
     19049       166  OSM       P              -7.2630823898       31.5105504224      -21.3016762297  MEMB      166             0.0000000000
     19050       166  OSM       O13            -7.8200034634       30.1791797597      -20.8520188128  MEMB      166             0.0000000000
     19051       166  OSM       O14            -6.3505424045       31.5858123560      -22.4588985052  MEMB      166             0.0000000000
     19052       166  OSM       O11            -6.5427283895       32.2448682720      -20.1009259932  MEMB      166             0.0000000000
     19053       166  OSM       O12            -8.4566035558       32.5202714813      -21.6044439078  MEMB      166             0.0000000000
     19054       166  OSM       C1S            -7.1572554559       32.5123507902      -18.8625595598  MEMB      166             0.0000000000
     19055       166  OSM       H1S            -7.6458482812       31.6140654497      -18.4281848166  MEMB      166             0.0000000000
     19056       166  OSM       H1T            -7.9895387235       33.2429691076      -18.9510039010  MEMB      166             0.0000000000
     19057       166  OSM       NF             -6.9521316324       33.0081555836      -16.4071604065  MEMB      166             0.0000000000
     19058       166  OSM       HNF            -7.1821361328       33.8620015868      -15.9466673759  MEMB      166             0.0000000000
     19059       166  OSM       C2S            -6.2557743983       32.9603134133      -17.7294996058  MEMB      166             0.0000000000
     19060       166  OSM       H2S            -5.4774795641       32.1817971248      -17.5795311204  MEMB      166             0.0000000000
     19061       166  OSM       C3S            -5.6533193309       34.3280958175      -17.9638531600  MEMB      166             0.0000000000
     19062       166  OSM       H3S            -6.4612074865       35.0852810398      -18.0550034318  MEMB      166             0.0000000000
     19063       166  OSM       O3             -4.9934562799       34.3715127376      -19.2244447816  MEMB      166             0.0000000000
     19064       166  OSM       HO3            -5.2585680873       33.5371133306      -19.6182636810  MEMB      166             0.0000000000
     19065       166  OSM       C4S            -4.7651773799       34.6705956584      -16.7780140382  MEMB      166             0.0000000000
     19066       166  OSM       H4S            -3.8683885614       34.0392605298      -16.6932445086  MEMB      166             0.0000000000
     19067       166  OSM       C5S            -5.0316754444       35.5915169750      -15.7901959632  MEMB      166             0.0000000000
     19068       166  OSM       H5S            -6.0397948809       36.0312742760      -15.8077664657  MEMB      166             0.0000000000
     19069       166  OSM       C6S            -4.1189210344       35.8926509738      -14.6442402857  MEMB      166             0.0000000000
     19070       166  OSM       H6S            -3.8649730804       36.9700699490      -14.7391073086  MEMB      166             0.0000000000
     19071       166  OSM       H6T            -3.1871086648       35.2989799880      -14.7608668895  MEMB      166             0.0000000000
     19072       166  OSM       C7S            -4.6465467169       35.5089944711      -13.2214814446  MEMB      166             0.0000000000
     19073       166  OSM       H7S            -5.7033268247       35.7263051733      -12.9563159633  MEMB      166             0.0000000000
     19074       166  OSM       H7T            -4.0135104765       36.0355324880      -12.4755965383  MEMB      166             0.0000000000
     19075       166  OSM       C8S            -4.5278771117       34.0110464718      -12.8421907840  MEMB      166             0.0000000000
     19076       166  OSM       H8S            -3.5198236916       33.7086286255      -13.1981298814  MEMB      166             0.0000000000
     19077       166  OSM       H8T            -5.3082657926       33.4155795272      -13.3625116296  MEMB      166             0.0000000000
     19078       166  OSM       C9S            -4.5546248890       33.6799576602      -11.3216826624  MEMB      166             0.0000000000
     19079       166  OSM       H9S            -3.8256047036       34.2449436168      -10.7022944650  MEMB      166             0.0000000000
     19080       166  OSM       H9T            -4.3314520102       32.5963410237      -11.2202444721  MEMB      166             0.0000000000
     19081       166  OSM       C10S           -6.0047716718       33.7715817885      -10.6909657441  MEMB      166             0.0000000000
     19082       166  OSM       H10S           -6.6309928162       33.0254856012      -11.2252956142  MEMB      166             0.0000000000
     19083       166  OSM       H10T           -6.3514770158       34.8118429095      -10.8697765541  MEMB      166             0.0000000000
     19084       166  OSM       C11S           -5.8953068732       33.4464711448       -9.1766333657  MEMB      166             0.0000000000
     19085       166  OSM       H11S           -6.9182085376       33.6625492395       -8.8007301969  MEMB      166             0.0000000000
     19086       166  OSM       H11T           -5.2274762920       34.2501010034       -8.7991393805  MEMB      166             0.0000000000
     19087       166  OSM       C12S           -5.4290902511       32.0996204570       -8.8022096380  MEMB      166             0.0000000000
     19088       166  OSM       H12S           -4.3193813026       32.1115573346       -8.7500110710  MEMB      166             0.0000000000
     19089       166  OSM       H12T           -5.7094107485       31.3246866410       -9.5473399980  MEMB      166             0.0000000000
     19090       166  OSM       C13S           -6.2073540251       31.5442724176       -7.5980896243  MEMB      166             0.0000000000
     19091       166  OSM       H13S           -5.6066975888       30.6630057782       -7.2867991029  MEMB      166             0.0000000000
     19092       166  OSM       H13T           -7.2048500958       31.1232592668       -7.8472301379  MEMB      166             0.0000000000
     19093       166  OSM       C14S           -6.6247610626       32.4389871260       -6.4079193369  MEMB      166             0.0000000000
     19094       166  OSM       H14S           -7.3149355104       33.2480559894       -6.7294593891  MEMB      166             0.0000000000
     19095       166  OSM       H14T           -5.5890102426       32.7326641938       -6.1335205481  MEMB      166             0.0000000000
     19096       166  OSM       C15S           -7.1731586365       31.7693962587       -5.1232617372  MEMB      166             0.0000000000
     19097       166  OSM       H15S           -7.9915478177       31.0908665571       -5.4459960750  MEMB      166             0.0000000000
     19098       166  OSM       H15T           -7.5361023713       32.6154545213       -4.5013472932  MEMB      166             0.0000000000
     19099       166  OSM       C16S           -6.2748794810       31.0451676585       -4.1637294032  MEMB      166             0.0000000000
     19100       166  OSM       H16S           -5.2232439693       31.2690807371       -4.4434560069  MEMB      166             0.0000000000
     19101       166  OSM       H16T           -6.3452012689       29.9635269856       -4.4075132187  MEMB      166             0.0000000000
     19102       166  OSM       C17S           -6.4586550232       31.3268350529       -2.6660238199  MEMB      166             0.0000000000
     19103       166  OSM       H17S           -7.4287711182       30.9645667318       -2.2635847804  MEMB      166             0.0000000000
     19104       166  OSM       H17T           -6.4573988254       32.3939478026       -2.3568483328  MEMB      166             0.0000000000
     19105       166  OSM       C18S           -5.2826202590       30.6906652612       -1.9115757072  MEMB      166             0.0000000000
     19106       166  OSM       H18S           -4.3473357006       30.8121572660       -2.4987756732  MEMB      166             0.0000000000
     19107       166  OSM       H18T           -5.5142554735       29.6095834839       -1.8023597527  MEMB      166             0.0000000000
     19108       166  OSM       H18U           -5.2724788461       31.2186397839       -0.9340991052  MEMB      166             0.0000000000
     19109       166  OSM       C1F            -7.4023754842       31.9490725198      -15.7864428841  MEMB      166             0.0000000000
     19110       166  OSM       OF             -7.1472683064       30.8301919094      -16.2138547541  MEMB      166             0.0000000000
     19111       166  OSM       C2F            -8.1343798787       32.0550318772      -14.5171884853  MEMB      166             0.0000000000
     19112       166  OSM       H2F            -9.1531889365       32.4688634558      -14.6755944909  MEMB      166             0.0000000000
     19113       166  OSM       H2G            -7.5382642420       32.7166158136      -13.8529039644  MEMB      166             0.0000000000
     19114       166  OSM       C3F            -8.4411156289       30.6509118756      -13.8703919050  MEMB      166             0.0000000000
     19115       166  OSM       H3F            -7.4727362141       30.1076879438      -13.8320512295  MEMB      166             0.0000000000
     19116       166  OSM       H3G            -9.2208724774       30.3124849069      -14.5857711268  MEMB      166             0.0000000000
     19117       166  OSM       C4F            -9.1943151499       30.7154214919      -12.5444423628  MEMB      166             0.0000000000
     19118       166  OSM       H4F            -8.5696349354       31.2315987248      -11.7844048006  MEMB      166             0.0000000000
     19119       166  OSM       H4G            -9.4429843401       29.7384408543      -12.0775437636  MEMB      166             0.0000000000
     19120       166  OSM       C5F           -10.5427121501       31.4394789987      -12.6020984060  MEMB      166             0.0000000000
     19121       166  OSM       H5F           -11.3772210993       30.7099245682      -12.5268248528  MEMB      166             0.0000000000
     19122       166  OSM       H5G           -10.6487781333       32.0488905060      -13.5249681030  MEMB      166             0.0000000000
     19123       166  OSM       C6F           -10.7198383766       32.2861235909      -11.3693256315  MEMB      166             0.0000000000
     19124       166  OSM       H6F           -10.4116217743       31.7189715809      -10.4650787310  MEMB      166             0.0000000000
     19125       166  OSM       H6G           -11.7939002213       32.5686787386      -11.3397533293  MEMB      166             0.0000000000
     19126       166  OSM       C7F            -9.9160476166       33.6372682059      -11.3330903442  MEMB      166             0.0000000000
     19127       166  OSM       H7F           -10.3882088223       34.3216587083      -12.0699717175  MEMB      166             0.0000000000
     19128       166  OSM       H7G            -8.8482735020       33.4254960408      -11.5551978268  MEMB      166             0.0000000000
     19129       166  OSM       C8F            -9.9177098247       34.3284029414       -9.9599353155  MEMB      166             0.0000000000
     19130       166  OSM       H8F            -9.4304580985       35.3261376209       -9.9220906938  MEMB      166             0.0000000000
     19131       166  OSM       H8G            -9.4384570786       33.6910559092       -9.1863554265  MEMB      166             0.0000000000
     19132       166  OSM       C9F           -11.3457341732       34.6455117317       -9.5764921606  MEMB      166             0.0000000000
     19133       166  OSM       H9F           -11.7818103332       35.3820697441      -10.2673760434  MEMB      166             0.0000000000
     19134       166  OSM       C10F          -12.0421854324       34.1814588184       -8.5515168593  MEMB      166             0.0000000000
     19135       166  OSM       H10F          -13.0629849137       34.5789394815       -8.4516295008  MEMB      166             0.0000000000
     19136       166  OSM       C11F          -11.7179930532       33.2220065133       -7.4536357762  MEMB      166             0.0000000000
     19137       166  OSM       H11F          -10.7186782996       32.8022558501       -7.6975618896  MEMB      166             0.0000000000
     19138       166  OSM       H11G          -12.4342074060       32.3776143074       -7.5450706074  MEMB      166             0.0000000000
     19139       166  OSM       C12F          -11.7255281342       33.8707332277       -6.0522139609  MEMB      166             0.0000000000
     19140       166  OSM       H12F          -11.3810390431       33.1956295597       -5.2398820007  MEMB      166             0.0000000000
     19141       166  OSM       H12G          -12.7367228757       34.2403437766       -5.7779982764  MEMB      166             0.0000000000
     19142       166  OSM       C13F          -10.7384823917       35.0334412715       -5.8650388547  MEMB      166             0.0000000000
     19143       166  OSM       H13F          -11.0334987652       35.8248483606       -6.5868154680  MEMB      166             0.0000000000
     19144       166  OSM       H13G           -9.7354087585       34.6012129793       -6.0683683441  MEMB      166             0.0000000000
     19145       166  OSM       C14F          -10.8871778026       35.4834097152       -4.3399937030  MEMB      166             0.0000000000
     19146       166  OSM       H14F          -10.8717558982       34.6045787997       -3.6604785362  MEMB      166             0.0000000000
     19147       166  OSM       H14G          -11.9402581555       35.8312691359       -4.2741385033  MEMB      166             0.0000000000
     19148       166  OSM       C15F           -9.9460436253       36.5541267775       -3.7728670271  MEMB      166             0.0000000000
     19149       166  OSM       H15F           -9.9810072978       37.4184395942       -4.4700484052  MEMB      166             0.0000000000
     19150       166  OSM       H15G           -8.8939449112       36.2229342222       -3.6397479758  MEMB      166             0.0000000000
     19151       166  OSM       C16F          -10.4525328719       36.9465080817       -2.3508551771  MEMB      166             0.0000000000
     19152       166  OSM       H16F           -9.6690042515       37.6338427632       -1.9661799863  MEMB      166             0.0000000000
     19153       166  OSM       H16G          -10.4778850846       35.9651469416       -1.8306559901  MEMB      166             0.0000000000
     19154       166  OSM       C17F          -11.8226647602       37.6089122577       -2.2786390354  MEMB      166             0.0000000000
     19155       166  OSM       H17F          -12.6285284005       36.8557290627       -2.4113804676  MEMB      166             0.0000000000
     19156       166  OSM       H17G          -11.8374606482       38.3350871865       -3.1193377587  MEMB      166             0.0000000000
     19157       166  OSM       C18F          -11.9581202350       38.5185952045       -0.9763751276  MEMB      166             0.0000000000
     19158       166  OSM       H18F          -13.0253572403       38.8262177890       -1.0027294372  MEMB      166             0.0000000000
     19159       166  OSM       H18G          -11.3732854161       39.4626231643       -0.9432071752  MEMB      166             0.0000000000
     19160       166  OSM       H18H          -11.7098512133       37.9600762776       -0.0486157663  MEMB      166             0.0000000000
     19161       167  SAPE      N              -1.5352511767      -35.4437706208      -18.8710993613  MEMB      167             0.0000000000
     19162       167  SAPE      HN1            -2.4459967020      -35.1379221267      -19.2693446277  MEMB      167             0.0000000000
     19163       167  SAPE      HN2            -1.5729665723      -36.4535994378      -18.6252877855  MEMB      167             0.0000000000
     19164       167  SAPE      HN3            -1.2046654085      -35.0230496072      -17.9792994935  MEMB      167             0.0000000000
     19165       167  SAPE      C12            -0.4503258278      -35.2522679462      -19.9163490293  MEMB      167             0.0000000000
     19166       167  SAPE      H12A           -0.4094043823      -34.1762374475      -20.1898538101  MEMB      167             0.0000000000
     19167       167  SAPE      H12B           -0.8204576436      -35.8295275105      -20.7904741988  MEMB      167             0.0000000000
     19168       167  SAPE      C11             0.9151037561      -35.6563990477      -19.3895457163  MEMB      167             0.0000000000
     19169       167  SAPE      H11A            0.7694098195      -36.6644469611      -18.9457736606  MEMB      167             0.0000000000
     19170       167  SAPE      H11B            1.2866467948      -34.9500581461      -18.6166554717  MEMB      167             0.0000000000
     19171       167  SAPE      P               3.1796159590      -35.1619824078      -20.4467742130  MEMB      167             0.0000000000
     19172       167  SAPE      O13             3.8684263516      -35.2354725513      -21.7523673390  MEMB      167             0.0000000000
     19173       167  SAPE      O14             3.1784357679      -33.8645532201      -19.7416195222  MEMB      167             0.0000000000
     19174       167  SAPE      O12             1.7500198696      -35.6826820081      -20.5260947599  MEMB      167             0.0000000000
     19175       167  SAPE      O11             3.7611364447      -36.2494819647      -19.3561500519  MEMB      167             0.0000000000
     19176       167  SAPE      C1              4.1988443288      -37.4672364371      -19.8905650424  MEMB      167             0.0000000000
     19177       167  SAPE      HA              3.5079099889      -37.7542730731      -20.7118692179  MEMB      167             0.0000000000
     19178       167  SAPE      HB              5.2330917279      -37.4215204090      -20.2937563594  MEMB      167             0.0000000000
     19179       167  SAPE      C2              4.2101503334      -38.4408375772      -18.6920758275  MEMB      167             0.0000000000
     19180       167  SAPE      HS              4.5959671099      -39.4333671969      -19.0088590106  MEMB      167             0.0000000000
     19181       167  SAPE      O21             2.8297699004      -38.6425169714      -18.2422779741  MEMB      167             0.0000000000
     19182       167  SAPE      C21             2.6070142934      -39.7967954762      -17.5109089579  MEMB      167             0.0000000000
     19183       167  SAPE      O22             3.4008867065      -40.6638068702      -17.2993687841  MEMB      167             0.0000000000
     19184       167  SAPE      C22             1.1896597697      -39.7203946199      -16.9386178861  MEMB      167             0.0000000000
     19185       167  SAPE      H2R             1.0477870720      -38.6929244340      -16.5404998613  MEMB      167             0.0000000000
     19186       167  SAPE      H2S             0.3769004969      -39.7349285302      -17.6959370035  MEMB      167             0.0000000000
     19187       167  SAPE      C3              5.0225918749      -37.9697119227      -17.4360552776  MEMB      167             0.0000000000
     19188       167  SAPE      HX              6.0090891781      -37.5506647301      -17.7285326519  MEMB      167             0.0000000000
     19189       167  SAPE      HY              5.2520086702      -38.8401198499      -16.7848419446  MEMB      167             0.0000000000
     19190       167  SAPE      O31             4.4180095323      -36.9307930794      -16.7048517259  MEMB      167             0.0000000000
     19191       167  SAPE      C31             4.5505955713      -36.7443486601      -15.4527046221  MEMB      167             0.0000000000
     19192       167  SAPE      O32             5.1333474352      -37.4087146373      -14.5866065560  MEMB      167             0.0000000000
     19193       167  SAPE      C32             3.7498255916      -35.4140697339      -15.0760274952  MEMB      167             0.0000000000
     19194       167  SAPE      H2X             4.2798712858      -34.5940194114      -15.6060184063  MEMB      167             0.0000000000
     19195       167  SAPE      H2Y             3.8295397599      -35.2115632408      -13.9865515771  MEMB      167             0.0000000000
     19196       167  SAPE      C23             1.1208466757      -40.8369662329      -15.8588618473  MEMB      167             0.0000000000
     19197       167  SAPE      H3R             2.0480027932      -40.9718399491      -15.2617761138  MEMB      167             0.0000000000
     19198       167  SAPE      H3S             0.9456083113      -41.8291914701      -16.3269444679  MEMB      167             0.0000000000
     19199       167  SAPE      C24             0.0251263458      -40.6361009376      -14.7714968085  MEMB      167             0.0000000000
     19200       167  SAPE      H4R             0.0274232195      -41.4317452507      -13.9960833978  MEMB      167             0.0000000000
     19201       167  SAPE      H4S            -0.9324428117      -40.7898773509      -15.3134702160  MEMB      167             0.0000000000
     19202       167  SAPE      C25            -0.0149350131      -39.3143137723      -14.0762985639  MEMB      167             0.0000000000
     19203       167  SAPE      H5R            -0.8133792694      -38.7196291859      -14.5440983792  MEMB      167             0.0000000000
     19204       167  SAPE      C26             0.5676609629      -38.8804029908      -12.9688324191  MEMB      167             0.0000000000
     19205       167  SAPE      H6R             0.3739546741      -37.8693774766      -12.5811404661  MEMB      167             0.0000000000
     19206       167  SAPE      C27             1.5645598944      -39.7043481050      -12.1764249012  MEMB      167             0.0000000000
     19207       167  SAPE      H7R             2.4657801075      -39.7864842197      -12.8209217461  MEMB      167             0.0000000000
     19208       167  SAPE      H7S             1.2779329203      -40.7713845994      -12.0598095572  MEMB      167             0.0000000000
     19209       167  SAPE      C28             1.8423290285      -39.0608431367      -10.8526472730  MEMB      167             0.0000000000
     19210       167  SAPE      H8R             1.4209297608      -39.5601288892       -9.9676974043  MEMB      167             0.0000000000
     19211       167  SAPE      C29             2.6621179748      -38.0049679641      -10.6189914344  MEMB      167             0.0000000000
     19212       167  SAPE      H9R             2.7201324369      -37.7049154372       -9.5622976347  MEMB      167             0.0000000000
     19213       167  SAPE      C210            3.4133960215      -37.2793017392      -11.7371682491  MEMB      167             0.0000000000
     19214       167  SAPE      H10R            2.7644864991      -36.3779632467      -11.7659154996  MEMB      167             0.0000000000
     19215       167  SAPE      H10S            3.2676292317      -37.8194947950      -12.6969936664  MEMB      167             0.0000000000
     19216       167  SAPE      C211            4.8877210787      -36.9956672494      -11.4670507814  MEMB      167             0.0000000000
     19217       167  SAPE      H11R            5.5313677132      -37.8518452461      -11.7174070011  MEMB      167             0.0000000000
     19218       167  SAPE      C212            5.5050444590      -35.8967412816      -11.0119530481  MEMB      167             0.0000000000
     19219       167  SAPE      H12R            6.5536865386      -36.1221555050      -10.7679474936  MEMB      167             0.0000000000
     19220       167  SAPE      C213            4.7950107043      -34.6262498921      -10.6750446226  MEMB      167             0.0000000000
     19221       167  SAPE      H13R            3.6867637765      -34.6496108738      -10.7496386088  MEMB      167             0.0000000000
     19222       167  SAPE      H13S            5.1037756308      -33.8752427878      -11.4333152207  MEMB      167             0.0000000000
     19223       167  SAPE      C214            5.1720618437      -34.0866992347       -9.3716480006  MEMB      167             0.0000000000
     19224       167  SAPE      H14R            5.7048766298      -33.1301465961       -9.4770775826  MEMB      167             0.0000000000
     19225       167  SAPE      C215            5.1425476828      -34.5925279996       -8.0982274996  MEMB      167             0.0000000000
     19226       167  SAPE      H15R            5.2993487604      -33.9509437485       -7.2185779616  MEMB      167             0.0000000000
     19227       167  SAPE      C216            4.6264288963      -35.9953917839       -7.7195155252  MEMB      167             0.0000000000
     19228       167  SAPE      H16R            5.1792286687      -36.7066510315       -8.3697803829  MEMB      167             0.0000000000
     19229       167  SAPE      H16S            3.5473631718      -36.1194372806       -7.9530764095  MEMB      167             0.0000000000
     19230       167  SAPE      C217            4.8944860138      -36.5621684116       -6.2567311808  MEMB      167             0.0000000000
     19231       167  SAPE      H17R            6.0002009519      -36.6181823223       -6.1641156126  MEMB      167             0.0000000000
     19232       167  SAPE      H17S            4.4982914119      -37.5798628021       -6.0526509808  MEMB      167             0.0000000000
     19233       167  SAPE      C218            4.3732324703      -35.7736784140       -5.0636208007  MEMB      167             0.0000000000
     19234       167  SAPE      H18R            3.2655880727      -35.7007849684       -5.0174545765  MEMB      167             0.0000000000
     19235       167  SAPE      H18S            4.8555051464      -34.7728204498       -5.0678096983  MEMB      167             0.0000000000
     19236       167  SAPE      C219            4.7939820125      -36.5034909915       -3.8013369706  MEMB      167             0.0000000000
     19237       167  SAPE      H19R            5.8843313402      -36.3409842834       -3.6633105022  MEMB      167             0.0000000000
     19238       167  SAPE      H19S            4.6441570945      -37.5832823560       -4.0156362162  MEMB      167             0.0000000000
     19239       167  SAPE      C220            4.0840495551      -36.1344503563       -2.4902872777  MEMB      167             0.0000000000
     19240       167  SAPE      H20R            3.0166326662      -36.4032487882       -2.6409178535  MEMB      167             0.0000000000
     19241       167  SAPE      H20S            4.1682835737      -35.0431573686       -2.2997473579  MEMB      167             0.0000000000
     19242       167  SAPE      H20T            4.4604270227      -36.7494856171       -1.6450684723  MEMB      167             0.0000000000
     19243       167  SAPE      C33             2.2557255127      -35.4773350901      -15.3549086215  MEMB      167             0.0000000000
     19244       167  SAPE      H3X             1.6256034266      -36.1162635656      -14.6998991293  MEMB      167             0.0000000000
     19245       167  SAPE      H3Y             2.1300235876      -35.7542957449      -16.4234650417  MEMB      167             0.0000000000
     19246       167  SAPE      C34             1.5694800061      -34.1050852539      -15.3933715061  MEMB      167             0.0000000000
     19247       167  SAPE      H4X             0.7123733981      -34.1840458996      -16.0958347739  MEMB      167             0.0000000000
     19248       167  SAPE      H4Y             2.3604698656      -33.4564543781      -15.8268850533  MEMB      167             0.0000000000
     19249       167  SAPE      C35             1.1523617072      -33.6315890632      -14.0040294938  MEMB      167             0.0000000000
     19250       167  SAPE      H5X             1.0457758386      -32.5268790028      -14.0547876552  MEMB      167             0.0000000000
     19251       167  SAPE      H5Y             1.9624888289      -33.9250134084      -13.3026613614  MEMB      167             0.0000000000
     19252       167  SAPE      C36            -0.2503676390      -34.0373067121      -13.5065125509  MEMB      167             0.0000000000
     19253       167  SAPE      H6X            -0.3937079030      -35.1233516207      -13.6916639948  MEMB      167             0.0000000000
     19254       167  SAPE      H6Y            -1.0871249342      -33.5178131353      -14.0205985878  MEMB      167             0.0000000000
     19255       167  SAPE      C37            -0.4618228733      -33.7356487185      -12.0041575544  MEMB      167             0.0000000000
     19256       167  SAPE      H7X            -1.4360044982      -33.2077225480      -11.9230100241  MEMB      167             0.0000000000
     19257       167  SAPE      H7Y             0.2449944235      -32.9279295655      -11.7172425736  MEMB      167             0.0000000000
     19258       167  SAPE      C38            -0.4304287522      -34.8664869305      -10.9576375439  MEMB      167             0.0000000000
     19259       167  SAPE      H8X             0.4260993372      -35.5246107081      -11.2175483616  MEMB      167             0.0000000000
     19260       167  SAPE      H8Y            -1.2776470461      -35.5189671762      -11.2589878913  MEMB      167             0.0000000000
     19261       167  SAPE      C39            -0.3280544597      -34.5159324934       -9.5582210250  MEMB      167             0.0000000000
     19262       167  SAPE      H9X            -1.1514113505      -33.8458475910       -9.2305160759  MEMB      167             0.0000000000
     19263       167  SAPE      H9Y             0.5872706747      -33.9478925255       -9.2865011188  MEMB      167             0.0000000000
     19264       167  SAPE      C310           -0.6475728933      -35.7431501051       -8.6168905304  MEMB      167             0.0000000000
     19265       167  SAPE      H10X            0.0912191120      -36.5385019213       -8.8533712826  MEMB      167             0.0000000000
     19266       167  SAPE      H10Y           -1.6546328133      -36.0840585171       -8.9392761691  MEMB      167             0.0000000000
     19267       167  SAPE      C311           -0.4642576856      -35.4186884011       -7.1167940097  MEMB      167             0.0000000000
     19268       167  SAPE      H11X           -1.2248312218      -34.7390122681       -6.6764655715  MEMB      167             0.0000000000
     19269       167  SAPE      H11Y            0.5005559622      -34.8895962771       -6.9634415239  MEMB      167             0.0000000000
     19270       167  SAPE      C312           -0.4296150122      -36.6857446664       -6.3010839743  MEMB      167             0.0000000000
     19271       167  SAPE      H12X            0.3957536335      -37.4012675138       -6.5038515421  MEMB      167             0.0000000000
     19272       167  SAPE      H12Y           -1.4142711824      -37.1996791644       -6.3264722273  MEMB      167             0.0000000000
     19273       167  SAPE      C313           -0.1150158721      -36.3313966159       -4.7762984570  MEMB      167             0.0000000000
     19274       167  SAPE      H13X           -0.9571306741      -35.7206682108       -4.3862024532  MEMB      167             0.0000000000
     19275       167  SAPE      H13Y            0.7222098806      -35.6411212499       -4.5377737655  MEMB      167             0.0000000000
     19276       167  SAPE      C314           -0.0696390388      -37.5970248636       -3.8765308242  MEMB      167             0.0000000000
     19277       167  SAPE      H14X           -1.1417881150      -37.8881719463       -3.8836512605  MEMB      167             0.0000000000
     19278       167  SAPE      H14Y            0.2180417072      -37.1883706609       -2.8842801106  MEMB      167             0.0000000000
     19279       167  SAPE      C315            0.9746780682      -38.7352294242       -4.2209920951  MEMB      167             0.0000000000
     19280       167  SAPE      H15X            2.0370547963      -38.4166181192       -4.2855154014  MEMB      167             0.0000000000
     19281       167  SAPE      H15Y            0.7800800569      -39.0253270573       -5.2756459275  MEMB      167             0.0000000000
     19282       167  SAPE      C316            0.8077258216      -39.8943300042       -3.1752757612  MEMB      167             0.0000000000
     19283       167  SAPE      H16X            1.0145214368      -39.4809232365       -2.1650027408  MEMB      167             0.0000000000
     19284       167  SAPE      H16Y            1.6531934844      -40.6053111647       -3.2936442370  MEMB      167             0.0000000000
     19285       167  SAPE      C317           -0.5245643816      -40.6215343524       -3.1894010153  MEMB      167             0.0000000000
     19286       167  SAPE      H17X           -0.7039872200      -40.9573782743       -4.2331155269  MEMB      167             0.0000000000
     19287       167  SAPE      H17Y           -1.2334807883      -39.8116894358       -2.9138843075  MEMB      167             0.0000000000
     19288       167  SAPE      C318           -0.8061015851      -41.8963468902       -2.3443656132  MEMB      167             0.0000000000
     19289       167  SAPE      H18X           -1.8894223664      -42.1341267695       -2.2795736066  MEMB      167             0.0000000000
     19290       167  SAPE      H18Y           -0.4437437369      -41.8295880318       -1.2962438790  MEMB      167             0.0000000000
     19291       167  SAPE      H18Z           -0.2169635945      -42.6986847078       -2.8378138707  MEMB      167             0.0000000000
     19292       168  SAPS      N              22.3542180613      -29.3295603697      -22.2836951640  MEMB      168             0.0000000000
     19293       168  SAPS      HN1            22.8198224707      -29.1668111593      -23.1992962451  MEMB      168             0.0000000000
     19294       168  SAPS      HN2            22.8565991495      -30.0394226877      -21.7133367078  MEMB      168             0.0000000000
     19295       168  SAPS      HN3            21.4349429160      -29.6434652358      -22.6551745528  MEMB      168             0.0000000000
     19296       168  SAPS      C12            22.2839872692      -28.0972293137      -21.4081117558  MEMB      168             0.0000000000
     19297       168  SAPS      H12A           23.2950763655      -27.7218959867      -21.3513330218  MEMB      168             0.0000000000
     19298       168  SAPS      C13            21.3292237022      -27.0911359701      -22.1171160422  MEMB      168             0.0000000000
     19299       168  SAPS      O13A           20.6705735427      -27.4546799290      -23.1503880625  MEMB      168             0.0000000000
     19300       168  SAPS      O13B           21.2094733392      -25.9194783761      -21.5844960462  MEMB      168             0.0000000000
     19301       168  SAPS      C11            21.7148663133      -28.4417356358      -20.0218001213  MEMB      168             0.0000000000
     19302       168  SAPS      H11A           20.6335688879      -28.6781078517      -20.1179512236  MEMB      168             0.0000000000
     19303       168  SAPS      H11B           21.7175401750      -27.5051173044      -19.4242552712  MEMB      168             0.0000000000
     19304       168  SAPS      P              22.7278170327      -29.3759155130      -17.7841921680  MEMB      168             0.0000000000
     19305       168  SAPS      O13            23.9648883064      -28.5389393522      -17.6912108106  MEMB      168             0.0000000000
     19306       168  SAPS      O14            21.4601372273      -28.8598774612      -17.1833990595  MEMB      168             0.0000000000
     19307       168  SAPS      O12            22.3692252507      -29.5146616899      -19.3732360799  MEMB      168             0.0000000000
     19308       168  SAPS      O11            23.0702379606      -30.8396415919      -17.4023546591  MEMB      168             0.0000000000
     19309       168  SAPS      C1             22.2370772146      -31.9760267347      -17.7431375886  MEMB      168             0.0000000000
     19310       168  SAPS      HA             21.1921942215      -31.6805045686      -17.9780995657  MEMB      168             0.0000000000
     19311       168  SAPS      HB             22.5816419286      -32.5868382764      -18.6048252547  MEMB      168             0.0000000000
     19312       168  SAPS      C2             22.1482596732      -32.8961032368      -16.4590711755  MEMB      168             0.0000000000
     19313       168  SAPS      HS             21.4396892213      -33.7128190966      -16.7144612478  MEMB      168             0.0000000000
     19314       168  SAPS      O21            21.8263552101      -32.1437168391      -15.2950116333  MEMB      168             0.0000000000
     19315       168  SAPS      C21            20.6130465400      -31.6238744471      -15.1848106494  MEMB      168             0.0000000000
     19316       168  SAPS      O22            19.6487852672      -31.7319079941      -15.9209894393  MEMB      168             0.0000000000
     19317       168  SAPS      C22            20.4836566332      -30.7594464956      -13.9768952112  MEMB      168             0.0000000000
     19318       168  SAPS      H2R            21.2087552586      -29.9200104279      -14.0393446950  MEMB      168             0.0000000000
     19319       168  SAPS      H2S            19.5040862624      -30.2378283539      -13.9251517927  MEMB      168             0.0000000000
     19320       168  SAPS      C3             23.5586865876      -33.5196820072      -16.2741283352  MEMB      168             0.0000000000
     19321       168  SAPS      HX             23.8712863309      -33.8486078333      -17.2882340667  MEMB      168             0.0000000000
     19322       168  SAPS      HY             23.4690547526      -34.4232512858      -15.6339329269  MEMB      168             0.0000000000
     19323       168  SAPS      O31            24.5127064618      -32.5814754554      -15.7336494713  MEMB      168             0.0000000000
     19324       168  SAPS      C31            24.8261793329      -32.7423324440      -14.4694908963  MEMB      168             0.0000000000
     19325       168  SAPS      O32            24.6506639709      -33.7734852689      -13.7864407637  MEMB      168             0.0000000000
     19326       168  SAPS      C32            25.5752488346      -31.4444603750      -14.0633698936  MEMB      168             0.0000000000
     19327       168  SAPS      H2X            24.8796178515      -30.6286407575      -14.3546713267  MEMB      168             0.0000000000
     19328       168  SAPS      H2Y            26.5254736530      -31.4533795669      -14.6389693129  MEMB      168             0.0000000000
     19329       168  SAPS      C23            20.6737418766      -31.5152598103      -12.6271388235  MEMB      168             0.0000000000
     19330       168  SAPS      H3R            21.0607204372      -30.7873316126      -11.8823643665  MEMB      168             0.0000000000
     19331       168  SAPS      H3S            21.3420880940      -32.3943441130      -12.7489797053  MEMB      168             0.0000000000
     19332       168  SAPS      C24            19.2849229325      -32.1253614498      -12.1009748118  MEMB      168             0.0000000000
     19333       168  SAPS      H4R            19.0915101794      -33.0780120235      -12.6389059287  MEMB      168             0.0000000000
     19334       168  SAPS      H4S            18.3797199250      -31.5344159983      -12.3573181600  MEMB      168             0.0000000000
     19335       168  SAPS      C25            19.4045800410      -32.4718333157      -10.6359355639  MEMB      168             0.0000000000
     19336       168  SAPS      H5R            19.7057946119      -33.5066768722      -10.4160075256  MEMB      168             0.0000000000
     19337       168  SAPS      C26            19.2188055544      -31.7135398263       -9.5460240759  MEMB      168             0.0000000000
     19338       168  SAPS      H6R            19.2608838030      -32.1371261599       -8.5317244446  MEMB      168             0.0000000000
     19339       168  SAPS      C27            18.8388305992      -30.3133442745       -9.5909610658  MEMB      168             0.0000000000
     19340       168  SAPS      H7R            18.8707400275      -29.9966502469      -10.6553890968  MEMB      168             0.0000000000
     19341       168  SAPS      H7S            19.5891440598      -29.8141229705       -8.9412464789  MEMB      168             0.0000000000
     19342       168  SAPS      C28            17.4551953122      -30.0294139511       -9.1224496134  MEMB      168             0.0000000000
     19343       168  SAPS      H8R            16.7068655800      -30.7723537371       -9.4355681988  MEMB      168             0.0000000000
     19344       168  SAPS      C29            17.1600632548      -29.0478029740       -8.2497099689  MEMB      168             0.0000000000
     19345       168  SAPS      H9R            16.1087342450      -28.8945900548       -7.9646951073  MEMB      168             0.0000000000
     19346       168  SAPS      C210           18.0599980670      -28.1069396689       -7.5995135700  MEMB      168             0.0000000000
     19347       168  SAPS      H10R           18.2105801040      -27.1469188078       -8.1380351416  MEMB      168             0.0000000000
     19348       168  SAPS      H10S           19.0685277298      -28.5672000558       -7.5263764780  MEMB      168             0.0000000000
     19349       168  SAPS      C211           17.5899359063      -27.6244279526       -6.2328085936  MEMB      168             0.0000000000
     19350       168  SAPS      H11R           16.7544487900      -26.9093730548       -6.2071546762  MEMB      168             0.0000000000
     19351       168  SAPS      C212           17.9242891036      -28.0915516492       -5.0055647689  MEMB      168             0.0000000000
     19352       168  SAPS      H12R           17.4865355450      -27.5813241698       -4.1349090886  MEMB      168             0.0000000000
     19353       168  SAPS      C213           18.8827530123      -29.2770474728       -4.8113135708  MEMB      168             0.0000000000
     19354       168  SAPS      H13R           19.7724091361      -28.8457226763       -4.3045678566  MEMB      168             0.0000000000
     19355       168  SAPS      H13S           19.2786483026      -29.6836722981       -5.7664284648  MEMB      168             0.0000000000
     19356       168  SAPS      C214           18.2653941375      -30.3669483576       -3.9350619012  MEMB      168             0.0000000000
     19357       168  SAPS      H14R           17.5650729566      -29.9672010038       -3.1868957305  MEMB      168             0.0000000000
     19358       168  SAPS      C215           18.5578895370      -31.6953881602       -4.0443401492  MEMB      168             0.0000000000
     19359       168  SAPS      H15R           18.0945051070      -32.3054077265       -3.2549405210  MEMB      168             0.0000000000
     19360       168  SAPS      C216           19.5325576673      -32.4134518480       -5.0069366605  MEMB      168             0.0000000000
     19361       168  SAPS      H16R           20.0866803076      -31.6759431044       -5.6260885390  MEMB      168             0.0000000000
     19362       168  SAPS      H16S           18.9607789864      -33.1252786020       -5.6399389508  MEMB      168             0.0000000000
     19363       168  SAPS      C217           20.5442670705      -33.2108612063       -4.1158547049  MEMB      168             0.0000000000
     19364       168  SAPS      H17R           21.2048213609      -33.7894665050       -4.7964460647  MEMB      168             0.0000000000
     19365       168  SAPS      H17S           19.9646581029      -33.9681030010       -3.5458028442  MEMB      168             0.0000000000
     19366       168  SAPS      C218           21.4869812914      -32.3463805023       -3.3843098227  MEMB      168             0.0000000000
     19367       168  SAPS      H18R           21.0258075280      -32.0554119534       -2.4163331703  MEMB      168             0.0000000000
     19368       168  SAPS      H18S           21.5201318803      -31.3963826536       -3.9593982661  MEMB      168             0.0000000000
     19369       168  SAPS      C219           22.8824808996      -32.8636730856       -3.2144882037  MEMB      168             0.0000000000
     19370       168  SAPS      H19R           23.3310352922      -33.2790916580       -4.1421451814  MEMB      168             0.0000000000
     19371       168  SAPS      H19S           22.7942062089      -33.7181392166       -2.5099206484  MEMB      168             0.0000000000
     19372       168  SAPS      C220           23.8057320686      -31.7878219330       -2.6014419233  MEMB      168             0.0000000000
     19373       168  SAPS      H20R           24.2048184375      -31.1696623044       -3.4338665988  MEMB      168             0.0000000000
     19374       168  SAPS      H20S           24.7084730029      -32.2835089711       -2.1846998402  MEMB      168             0.0000000000
     19375       168  SAPS      H20T           23.2867534075      -31.3214942238       -1.7368493453  MEMB      168             0.0000000000
     19376       168  SAPS      C33            25.8988093678      -31.4082022881      -12.5519894116  MEMB      168             0.0000000000
     19377       168  SAPS      H3X            26.8664206285      -30.9117368072      -12.3248970152  MEMB      168             0.0000000000
     19378       168  SAPS      H3Y            26.1357645640      -32.4217106347      -12.1634356957  MEMB      168             0.0000000000
     19379       168  SAPS      C34            24.6612581015      -30.8680691303      -11.8030879298  MEMB      168             0.0000000000
     19380       168  SAPS      H4X            23.7766736314      -31.4490994635      -12.1410744488  MEMB      168             0.0000000000
     19381       168  SAPS      H4Y            24.6545358025      -29.8206503847      -12.1734789615  MEMB      168             0.0000000000
     19382       168  SAPS      C35            24.9835771514      -30.7971287082      -10.3542330873  MEMB      168             0.0000000000
     19383       168  SAPS      H5X            26.0275960102      -30.4358859075      -10.2365488117  MEMB      168             0.0000000000
     19384       168  SAPS      H5Y            24.8430777934      -31.8269206308       -9.9616649961  MEMB      168             0.0000000000
     19385       168  SAPS      C36            24.1013078938      -29.8267454483       -9.6912134971  MEMB      168             0.0000000000
     19386       168  SAPS      H6X            23.0453311863      -30.0638389539       -9.9422527224  MEMB      168             0.0000000000
     19387       168  SAPS      H6Y            24.0037885906      -28.8191635576      -10.1490228165  MEMB      168             0.0000000000
     19388       168  SAPS      C37            24.4008751480      -29.6395534160       -8.2034744360  MEMB      168             0.0000000000
     19389       168  SAPS      H7X            25.4323168897      -29.2524828309       -8.0598594023  MEMB      168             0.0000000000
     19390       168  SAPS      H7Y            24.4072384433      -30.6225156166       -7.6857232858  MEMB      168             0.0000000000
     19391       168  SAPS      C38            23.4241478020      -28.7064092142       -7.5720809927  MEMB      168             0.0000000000
     19392       168  SAPS      H8X            22.3802574181      -28.8562512331       -7.9215970383  MEMB      168             0.0000000000
     19393       168  SAPS      H8Y            23.8301942086      -27.7304698126       -7.9141189669  MEMB      168             0.0000000000
     19394       168  SAPS      C39            23.4307368006      -28.6473075588       -5.9932840185  MEMB      168             0.0000000000
     19395       168  SAPS      H9X            24.4676465477      -28.4801380641       -5.6310776816  MEMB      168             0.0000000000
     19396       168  SAPS      H9Y            23.2401743696      -29.6981093491       -5.6869787486  MEMB      168             0.0000000000
     19397       168  SAPS      C310           22.4277936030      -27.6974323862       -5.3150713090  MEMB      168             0.0000000000
     19398       168  SAPS      H10X           21.4087456598      -27.9940327631       -5.6435384294  MEMB      168             0.0000000000
     19399       168  SAPS      H10Y           22.6298433413      -26.6680329534       -5.6809050610  MEMB      168             0.0000000000
     19400       168  SAPS      C311           22.5495232014      -27.6451089355       -3.7956350490  MEMB      168             0.0000000000
     19401       168  SAPS      H11X           23.5894481238      -27.7936300829       -3.4339472912  MEMB      168             0.0000000000
     19402       168  SAPS      H11Y           21.9153978578      -28.4291793224       -3.3293324394  MEMB      168             0.0000000000
     19403       168  SAPS      C312           22.0504903387      -26.2943952343       -3.1831825472  MEMB      168             0.0000000000
     19404       168  SAPS      H12X           22.5021328885      -25.4598909459       -3.7610602229  MEMB      168             0.0000000000
     19405       168  SAPS      H12Y           22.4438498974      -26.1291634628       -2.1573705297  MEMB      168             0.0000000000
     19406       168  SAPS      C313           20.5314649112      -26.2628336855       -3.1044270647  MEMB      168             0.0000000000
     19407       168  SAPS      H13X           20.2033090269      -27.1037155799       -2.4566975524  MEMB      168             0.0000000000
     19408       168  SAPS      H13Y           20.2301863543      -26.5113767679       -4.1445120037  MEMB      168             0.0000000000
     19409       168  SAPS      C314           19.8919165469      -24.9025801443       -2.6978738446  MEMB      168             0.0000000000
     19410       168  SAPS      H14X           18.8046834701      -24.9816964610       -2.9123164382  MEMB      168             0.0000000000
     19411       168  SAPS      H14Y           20.2635743636      -24.1504306954       -3.4262026918  MEMB      168             0.0000000000
     19412       168  SAPS      C315           20.2408186470      -24.4085133206       -1.2731992425  MEMB      168             0.0000000000
     19413       168  SAPS      H15X           19.5630717396      -23.5333460014       -1.1780027962  MEMB      168             0.0000000000
     19414       168  SAPS      H15Y           21.2267388084      -23.9051565560       -1.1787832510  MEMB      168             0.0000000000
     19415       168  SAPS      C316           19.9267379965      -25.2745737194       -0.0225003829  MEMB      168             0.0000000000
     19416       168  SAPS      H16X           20.3821736339      -24.7284618637        0.8311163425  MEMB      168             0.0000000000
     19417       168  SAPS      H16Y           20.5220816406      -26.2032235221       -0.1547737331  MEMB      168             0.0000000000
     19418       168  SAPS      C317           18.4429108765      -25.6384896450        0.1812236526  MEMB      168             0.0000000000
     19419       168  SAPS      H17X           17.8611079241      -24.6986115180        0.0696194596  MEMB      168             0.0000000000
     19420       168  SAPS      H17Y           18.4190484643      -25.8609050106        1.2694715561  MEMB      168             0.0000000000
     19421       168  SAPS      C318           17.8691610182      -26.8230790646       -0.5969261005  MEMB      168             0.0000000000
     19422       168  SAPS      H18X           18.5882749254      -27.6667285030       -0.6707636069  MEMB      168             0.0000000000
     19423       168  SAPS      H18Y           17.6147805940      -26.4474114411       -1.6110683019  MEMB      168             0.0000000000
     19424       168  SAPS      H18Z           16.9344255960      -27.2087645261       -0.1366686946  MEMB      168             0.0000000000
     19425       169  SAPE      N             -37.3099152002        0.7702445711      -20.6907419372  MEMB      169             0.0000000000
     19426       169  SAPE      HN1           -38.0399681040        0.5738971497      -21.4049340501  MEMB      169             0.0000000000
     19427       169  SAPE      HN2           -37.2764103401        1.8072135172      -20.6188196719  MEMB      169             0.0000000000
     19428       169  SAPE      HN3           -36.4072199954        0.3352310645      -20.9691383090  MEMB      169             0.0000000000
     19429       169  SAPE      C12           -37.6721896795        0.2382714040      -19.3729447462  MEMB      169             0.0000000000
     19430       169  SAPE      H12A          -38.5514662111       -0.4013771591      -19.6010753817  MEMB      169             0.0000000000
     19431       169  SAPE      H12B          -37.9077050575        1.1863469510      -18.8437882754  MEMB      169             0.0000000000
     19432       169  SAPE      C11           -36.5368053075       -0.5498376239      -18.6535002095  MEMB      169             0.0000000000
     19433       169  SAPE      H11A          -36.9103693782       -1.1624145734      -17.8052547782  MEMB      169             0.0000000000
     19434       169  SAPE      H11B          -35.8061400262        0.1850571510      -18.2530268760  MEMB      169             0.0000000000
     19435       169  SAPE      P             -36.4722612060       -2.5762220471      -20.2892320501  MEMB      169             0.0000000000
     19436       169  SAPE      O13           -36.8520651573       -2.1490379903      -21.6802699131  MEMB      169             0.0000000000
     19437       169  SAPE      O14           -35.4457636892       -3.6877975793      -20.2134173698  MEMB      169             0.0000000000
     19438       169  SAPE      O12           -35.8926887774       -1.3198941799      -19.5641135058  MEMB      169             0.0000000000
     19439       169  SAPE      O11           -37.8521600723       -2.9542144757      -19.5357802348  MEMB      169             0.0000000000
     19440       169  SAPE      C1            -38.9171500786       -3.5159314965      -20.3305323027  MEMB      169             0.0000000000
     19441       169  SAPE      HA            -39.4214708554       -2.7899090109      -21.0034907272  MEMB      169             0.0000000000
     19442       169  SAPE      HB            -38.4916435203       -4.3084620157      -20.9825756060  MEMB      169             0.0000000000
     19443       169  SAPE      C2            -39.8706569935       -4.1726791708      -19.3154186243  MEMB      169             0.0000000000
     19444       169  SAPE      HS            -40.7616012396       -4.3482395352      -19.9555103959  MEMB      169             0.0000000000
     19445       169  SAPE      O21           -40.1558472235       -3.4012006808      -18.1248760527  MEMB      169             0.0000000000
     19446       169  SAPE      C21           -40.6227993314       -2.1994016187      -18.3833380790  MEMB      169             0.0000000000
     19447       169  SAPE      O22           -40.7823143073       -1.6411691493      -19.4445084383  MEMB      169             0.0000000000
     19448       169  SAPE      C22           -40.8218742521       -1.5013311277      -16.9638959910  MEMB      169             0.0000000000
     19449       169  SAPE      H2R           -41.0374688908       -0.4159598691      -17.0629375913  MEMB      169             0.0000000000
     19450       169  SAPE      H2S           -41.6783342953       -1.9655596126      -16.4297717191  MEMB      169             0.0000000000
     19451       169  SAPE      C3            -39.2880496091       -5.6641123400      -18.8787277146  MEMB      169             0.0000000000
     19452       169  SAPE      HX            -39.2412691694       -6.2925169258      -19.7937362021  MEMB      169             0.0000000000
     19453       169  SAPE      HY            -40.1402018854       -6.0960536019      -18.3116440829  MEMB      169             0.0000000000
     19454       169  SAPE      O31           -37.9522310667       -5.6291386316      -18.2585241198  MEMB      169             0.0000000000
     19455       169  SAPE      C31           -37.9252335537       -5.6399924820      -16.9668748695  MEMB      169             0.0000000000
     19456       169  SAPE      O32           -38.8745029363       -5.8817082474      -16.1683404910  MEMB      169             0.0000000000
     19457       169  SAPE      C32           -36.5397212792       -5.2345540067      -16.4561619952  MEMB      169             0.0000000000
     19458       169  SAPE      H2X           -36.5250170649       -4.1284202154      -16.3533355299  MEMB      169             0.0000000000
     19459       169  SAPE      H2Y           -35.8625401118       -5.5473514296      -17.2795113442  MEMB      169             0.0000000000
     19460       169  SAPE      C23           -39.4728522115       -1.6354777206      -16.2026790792  MEMB      169             0.0000000000
     19461       169  SAPE      H3R           -38.7524844880       -1.1299590317      -16.8807960715  MEMB      169             0.0000000000
     19462       169  SAPE      H3S           -39.0670614797       -2.6569220080      -16.0404863420  MEMB      169             0.0000000000
     19463       169  SAPE      C24           -39.4615727390       -0.8487532554      -14.8509208023  MEMB      169             0.0000000000
     19464       169  SAPE      H4R           -40.3530178740       -1.1391980394      -14.2548597572  MEMB      169             0.0000000000
     19465       169  SAPE      H4S           -39.5988289561        0.2217686839      -15.1144822962  MEMB      169             0.0000000000
     19466       169  SAPE      C25           -38.1370090585       -0.9916649013      -14.1473078878  MEMB      169             0.0000000000
     19467       169  SAPE      H5R           -37.7555177324       -2.0112863429      -13.9897118245  MEMB      169             0.0000000000
     19468       169  SAPE      C26           -37.4061183955        0.0247651019      -13.6461337102  MEMB      169             0.0000000000
     19469       169  SAPE      H6R           -36.4281829395       -0.3415456355      -13.3005058539  MEMB      169             0.0000000000
     19470       169  SAPE      C27           -37.8189052008        1.4633511872      -13.7038933678  MEMB      169             0.0000000000
     19471       169  SAPE      H7R           -38.8882927162        1.6359408995      -13.4570251043  MEMB      169             0.0000000000
     19472       169  SAPE      H7S           -37.6497815614        1.8051658026      -14.7473878587  MEMB      169             0.0000000000
     19473       169  SAPE      C28           -37.1416441603        2.3085705376      -12.6859091073  MEMB      169             0.0000000000
     19474       169  SAPE      H8R           -36.5196575724        2.9948266999      -13.2793610762  MEMB      169             0.0000000000
     19475       169  SAPE      C29           -37.2189282718        2.3061709974      -11.3624870759  MEMB      169             0.0000000000
     19476       169  SAPE      H9R           -36.5820255850        3.0550141886      -10.8689405921  MEMB      169             0.0000000000
     19477       169  SAPE      C210          -38.0621076401        1.4474173961      -10.4799463443  MEMB      169             0.0000000000
     19478       169  SAPE      H10R          -38.6672588196        0.7434715440      -11.0903347828  MEMB      169             0.0000000000
     19479       169  SAPE      H10S          -38.7109490701        2.2247631465      -10.0227165113  MEMB      169             0.0000000000
     19480       169  SAPE      C211          -37.4726959027        0.6982962782       -9.3440278405  MEMB      169             0.0000000000
     19481       169  SAPE      H11R          -36.3878657189        0.8029015559       -9.1950277829  MEMB      169             0.0000000000
     19482       169  SAPE      C212          -38.0284051624       -0.2474324135       -8.5639875825  MEMB      169             0.0000000000
     19483       169  SAPE      H12R          -37.3887005957       -0.5874457091       -7.7362385312  MEMB      169             0.0000000000
     19484       169  SAPE      C213          -39.4709733120       -0.8012825633       -8.5446347212  MEMB      169             0.0000000000
     19485       169  SAPE      H13R          -39.4103066890       -1.8661556880       -8.2336909470  MEMB      169             0.0000000000
     19486       169  SAPE      H13S          -40.0243963297       -0.7921092980       -9.5079406704  MEMB      169             0.0000000000
     19487       169  SAPE      C214          -40.3897548282        0.0239425920       -7.5751694786  MEMB      169             0.0000000000
     19488       169  SAPE      H14R          -40.9224100702        0.8040102728       -8.1388831392  MEMB      169             0.0000000000
     19489       169  SAPE      C215          -40.4247107417       -0.1080226929       -6.2093088278  MEMB      169             0.0000000000
     19490       169  SAPE      H15R          -41.1719906187        0.5194114869       -5.7014704291  MEMB      169             0.0000000000
     19491       169  SAPE      C216          -39.6236359636       -1.1228090316       -5.4281536344  MEMB      169             0.0000000000
     19492       169  SAPE      H16R          -38.8242728776       -1.5368719379       -6.0792229280  MEMB      169             0.0000000000
     19493       169  SAPE      H16S          -40.2062100216       -1.9508342883       -4.9706577188  MEMB      169             0.0000000000
     19494       169  SAPE      C217          -38.8174604719       -0.3042112045       -4.3760608832  MEMB      169             0.0000000000
     19495       169  SAPE      H17R          -38.2705407484        0.4670390394       -4.9594758502  MEMB      169             0.0000000000
     19496       169  SAPE      H17S          -37.9873473777       -0.9565773791       -4.0301536463  MEMB      169             0.0000000000
     19497       169  SAPE      C218          -39.7381532839        0.3419937729       -3.3146940564  MEMB      169             0.0000000000
     19498       169  SAPE      H18R          -40.2510671249       -0.5755424614       -2.9550180306  MEMB      169             0.0000000000
     19499       169  SAPE      H18S          -40.4233824315        1.1164761852       -3.7208460725  MEMB      169             0.0000000000
     19500       169  SAPE      C219          -39.0610972433        0.8731657592       -2.0535191553  MEMB      169             0.0000000000
     19501       169  SAPE      H19R          -39.8206927946        1.1725730535       -1.3000663766  MEMB      169             0.0000000000
     19502       169  SAPE      H19S          -38.5482250055        1.8475681399       -2.2012461853  MEMB      169             0.0000000000
     19503       169  SAPE      C220          -37.9190588156        0.0406018277       -1.4474366616  MEMB      169             0.0000000000
     19504       169  SAPE      H20R          -38.0728684695       -1.0524907809       -1.5731827189  MEMB      169             0.0000000000
     19505       169  SAPE      H20S          -37.8667596328        0.3225907147       -0.3740916554  MEMB      169             0.0000000000
     19506       169  SAPE      H20T          -36.9810218498        0.3590932309       -1.9503984367  MEMB      169             0.0000000000
     19507       169  SAPE      C33           -36.2469342301       -6.1071766966      -15.2349346122  MEMB      169             0.0000000000
     19508       169  SAPE      H3X           -36.3104071312       -7.1851500032      -15.4962111187  MEMB      169             0.0000000000
     19509       169  SAPE      H3Y           -37.0249575689       -5.9934985401      -14.4500279826  MEMB      169             0.0000000000
     19510       169  SAPE      C34           -34.7941459882       -5.8907045426      -14.7913320167  MEMB      169             0.0000000000
     19511       169  SAPE      H4X           -34.0283660543       -6.3672455301      -15.4400313256  MEMB      169             0.0000000000
     19512       169  SAPE      H4Y           -34.6965984062       -6.4099790402      -13.8140098135  MEMB      169             0.0000000000
     19513       169  SAPE      C35           -34.4589386654       -4.3840148357      -14.7220351904  MEMB      169             0.0000000000
     19514       169  SAPE      H5X           -34.4466758799       -3.9691790988      -15.7526088227  MEMB      169             0.0000000000
     19515       169  SAPE      H5Y           -33.4310335594       -4.4649951749      -14.3083028839  MEMB      169             0.0000000000
     19516       169  SAPE      C36           -35.4180196670       -3.5283899760      -13.8477616680  MEMB      169             0.0000000000
     19517       169  SAPE      H6X           -36.4742684192       -3.7065989854      -14.1425521508  MEMB      169             0.0000000000
     19518       169  SAPE      H6Y           -35.1468002937       -2.5022167603      -14.1759834014  MEMB      169             0.0000000000
     19519       169  SAPE      C37           -35.2530988066       -3.7984628781      -12.4024382024  MEMB      169             0.0000000000
     19520       169  SAPE      H7X           -34.9420356414       -4.8461592488      -12.2027059795  MEMB      169             0.0000000000
     19521       169  SAPE      H7Y           -36.2438643264       -3.6715096850      -11.9160353830  MEMB      169             0.0000000000
     19522       169  SAPE      C38           -34.2721327010       -2.8832674372      -11.7729733785  MEMB      169             0.0000000000
     19523       169  SAPE      H8X           -34.6584907805       -1.8427073953      -11.8207562960  MEMB      169             0.0000000000
     19524       169  SAPE      H8Y           -33.2622082159       -2.8986105198      -12.2357233461  MEMB      169             0.0000000000
     19525       169  SAPE      C39           -33.9370638333       -3.2854499412      -10.2974299856  MEMB      169             0.0000000000
     19526       169  SAPE      H9X           -33.3168786431       -2.5384540724       -9.7573478142  MEMB      169             0.0000000000
     19527       169  SAPE      H9Y           -33.4701610668       -4.2935076405      -10.3093765771  MEMB      169             0.0000000000
     19528       169  SAPE      C310          -35.1783878551       -3.3883217298       -9.4399605733  MEMB      169             0.0000000000
     19529       169  SAPE      H10X          -35.5776149499       -4.3868558455       -9.7190092891  MEMB      169             0.0000000000
     19530       169  SAPE      H10Y          -36.0036015104       -2.6594183091       -9.5884307145  MEMB      169             0.0000000000
     19531       169  SAPE      C311          -34.7740103705       -3.4096786295       -7.9075179768  MEMB      169             0.0000000000
     19532       169  SAPE      H11X          -34.1587114322       -2.4867689638       -7.8445423150  MEMB      169             0.0000000000
     19533       169  SAPE      H11Y          -34.0029649839       -4.2050074415       -7.8222979976  MEMB      169             0.0000000000
     19534       169  SAPE      C312          -35.9084657722       -3.6134356764       -6.8938182852  MEMB      169             0.0000000000
     19535       169  SAPE      H12X          -36.5917600885       -2.7379984664       -6.9260630167  MEMB      169             0.0000000000
     19536       169  SAPE      H12Y          -35.3201962425       -3.6623084907       -5.9526100401  MEMB      169             0.0000000000
     19537       169  SAPE      C313          -36.8428493916       -4.8044565972       -6.9547985702  MEMB      169             0.0000000000
     19538       169  SAPE      H13X          -36.2257140038       -5.6937629086       -6.7045997065  MEMB      169             0.0000000000
     19539       169  SAPE      H13Y          -37.2526846097       -4.9400442893       -7.9785030823  MEMB      169             0.0000000000
     19540       169  SAPE      C314          -38.0328479873       -4.8324149560       -6.0644039420  MEMB      169             0.0000000000
     19541       169  SAPE      H14X          -38.6245829819       -5.7721535889       -6.0969823865  MEMB      169             0.0000000000
     19542       169  SAPE      H14Y          -38.6732343081       -4.0498261654       -6.5246003467  MEMB      169             0.0000000000
     19543       169  SAPE      C315          -37.7900980372       -4.5435518069       -4.5605167634  MEMB      169             0.0000000000
     19544       169  SAPE      H15X          -38.7987888881       -4.5045990030       -4.0964623240  MEMB      169             0.0000000000
     19545       169  SAPE      H15Y          -37.2844852807       -3.5542934572       -4.5538308915  MEMB      169             0.0000000000
     19546       169  SAPE      C316          -36.7681237181       -5.4755038424       -3.8489990154  MEMB      169             0.0000000000
     19547       169  SAPE      H16X          -35.9083024677       -5.6149761344       -4.5386187881  MEMB      169             0.0000000000
     19548       169  SAPE      H16Y          -37.1502270734       -6.5031957498       -3.6696471793  MEMB      169             0.0000000000
     19549       169  SAPE      C317          -36.2992590686       -4.9669256247       -2.4392986550  MEMB      169             0.0000000000
     19550       169  SAPE      H17X          -35.7955617147       -3.9875338910       -2.5855926496  MEMB      169             0.0000000000
     19551       169  SAPE      H17Y          -35.5090021894       -5.5624614313       -1.9341731746  MEMB      169             0.0000000000
     19552       169  SAPE      C318          -37.4476553960       -4.7774609217       -1.4717332358  MEMB      169             0.0000000000
     19553       169  SAPE      H18X          -37.6560928752       -5.8011069529       -1.0935481708  MEMB      169             0.0000000000
     19554       169  SAPE      H18Y          -38.3630176749       -4.4045722313       -1.9790671370  MEMB      169             0.0000000000
     19555       169  SAPE      H18Z          -37.1584707419       -4.2635629387       -0.5301376712  MEMB      169             0.0000000000
     19556       170  OSM       N               8.9309325358      -33.6024151079      -20.6565835014  MEMB      170             0.0000000000
     19557       170  OSM       C15            10.3042352181      -33.0014619099      -20.5255329888  MEMB      170             0.0000000000
     19558       170  OSM       H15A           10.9058983939      -33.2292273072      -21.3930146399  MEMB      170             0.0000000000
     19559       170  OSM       H15B           10.7572215495      -33.5395570928      -19.7059861969  MEMB      170             0.0000000000
     19560       170  OSM       H15C           10.2969727542      -31.9289753234      -20.3985686270  MEMB      170             0.0000000000
     19561       170  OSM       C14             8.1004536569      -33.6734359341      -19.3759559375  MEMB      170             0.0000000000
     19562       170  OSM       H14A            7.9491073064      -32.6289161731      -19.1468861070  MEMB      170             0.0000000000
     19563       170  OSM       H14B            8.5984810498      -34.2136995554      -18.5844485560  MEMB      170             0.0000000000
     19564       170  OSM       H14C            7.1129748322      -34.0236562823      -19.6379314261  MEMB      170             0.0000000000
     19565       170  OSM       C13             8.1399028968      -32.7496613801      -21.5390391567  MEMB      170             0.0000000000
     19566       170  OSM       H13A            8.7984433011      -32.4651846396      -22.3463789394  MEMB      170             0.0000000000
     19567       170  OSM       H13B            7.7281297828      -31.8417762730      -21.1236024103  MEMB      170             0.0000000000
     19568       170  OSM       H13C            7.2986320165      -33.3272433882      -21.8926806257  MEMB      170             0.0000000000
     19569       170  OSM       C12             9.0018897120      -34.9808633707      -21.3225604039  MEMB      170             0.0000000000
     19570       170  OSM       H12A            9.2554400368      -34.7320838754      -22.3424727083  MEMB      170             0.0000000000
     19571       170  OSM       H12B            8.0385545892      -35.4686072859      -21.3447254380  MEMB      170             0.0000000000
     19572       170  OSM       C11             9.8672288595      -36.0617668669      -20.6718414770  MEMB      170             0.0000000000
     19573       170  OSM       H11A            9.6334134215      -36.9877140132      -21.2395325138  MEMB      170             0.0000000000
     19574       170  OSM       H11B            9.6235144424      -36.2973147015      -19.6138048108  MEMB      170             0.0000000000
     19575       170  OSM       P              12.2740237788      -36.6378715330      -21.4431298030  MEMB      170             0.0000000000
     19576       170  OSM       O13            11.7975436418      -36.8103846141      -22.8041146985  MEMB      170             0.0000000000
     19577       170  OSM       O14            13.6593128465      -36.1846933891      -21.2707663028  MEMB      170             0.0000000000
     19578       170  OSM       O11            12.0203853840      -38.0195006649      -20.6816459920  MEMB      170             0.0000000000
     19579       170  OSM       O12            11.2483468675      -35.6565588265      -20.7088297344  MEMB      170             0.0000000000
     19580       170  OSM       C1S            12.8646495285      -38.3445489016      -19.5650094354  MEMB      170             0.0000000000
     19581       170  OSM       H1S            13.9215510460      -38.0353739711      -19.7122876873  MEMB      170             0.0000000000
     19582       170  OSM       H1T            12.9943501658      -39.4462902798      -19.5044695057  MEMB      170             0.0000000000
     19583       170  OSM       NF             13.1134153671      -37.8608214868      -17.1473890786  MEMB      170             0.0000000000
     19584       170  OSM       HNF            12.8541024832      -38.6193679245      -16.5546212741  MEMB      170             0.0000000000
     19585       170  OSM       C2S            12.1898470663      -37.8088506303      -18.1993001784  MEMB      170             0.0000000000
     19586       170  OSM       H2S            11.9141006666      -36.7505189215      -18.3947964680  MEMB      170             0.0000000000
     19587       170  OSM       C3S            10.9721740125      -38.7649058926      -17.8702387194  MEMB      170             0.0000000000
     19588       170  OSM       H3S            11.2912173577      -39.8032026312      -17.6368463548  MEMB      170             0.0000000000
     19589       170  OSM       O3             10.0934538135      -38.9706314003      -18.9698053678  MEMB      170             0.0000000000
     19590       170  OSM       HO3            10.4517893161      -38.5905515035      -19.7752461705  MEMB      170             0.0000000000
     19591       170  OSM       C4S            10.1251031394      -38.1941667266      -16.6800512540  MEMB      170             0.0000000000
     19592       170  OSM       H4S            10.5561059900      -38.4719480238      -15.7068739699  MEMB      170             0.0000000000
     19593       170  OSM       C5S             8.9127250758      -37.5223646011      -16.7471520865  MEMB      170             0.0000000000
     19594       170  OSM       H5S             8.4371950916      -37.3627288229      -17.7261249487  MEMB      170             0.0000000000
     19595       170  OSM       C6S             8.0968049331      -37.0072078331      -15.5713500333  MEMB      170             0.0000000000
     19596       170  OSM       H6S             7.1500448283      -37.5573068099      -15.3833155641  MEMB      170             0.0000000000
     19597       170  OSM       H6T             7.9561052480      -35.9397557049      -15.8453403087  MEMB      170             0.0000000000
     19598       170  OSM       C7S             8.7570169358      -37.0308961053      -14.2055131320  MEMB      170             0.0000000000
     19599       170  OSM       H7S             9.6754595049      -36.4215708610      -14.3451803951  MEMB      170             0.0000000000
     19600       170  OSM       H7T             8.9814932063      -38.0511203249      -13.8272623431  MEMB      170             0.0000000000
     19601       170  OSM       C8S             7.8904691185      -36.3631293645      -13.1287934905  MEMB      170             0.0000000000
     19602       170  OSM       H8S             6.9036290714      -36.8533316626      -12.9867742221  MEMB      170             0.0000000000
     19603       170  OSM       H8T             7.6575657108      -35.3527792851      -13.5278792045  MEMB      170             0.0000000000
     19604       170  OSM       C9S             8.6614986822      -36.2820764071      -11.7762162202  MEMB      170             0.0000000000
     19605       170  OSM       H9S             7.9942389649      -35.7406591696      -11.0719770559  MEMB      170             0.0000000000
     19606       170  OSM       H9T             9.6288113074      -35.7584282297      -11.9324843368  MEMB      170             0.0000000000
     19607       170  OSM       C10S            8.9126849968      -37.6299766943      -11.0138883200  MEMB      170             0.0000000000
     19608       170  OSM       H10S            9.7068699785      -38.2016330964      -11.5400062920  MEMB      170             0.0000000000
     19609       170  OSM       H10T            7.9566585903      -38.1951838479      -10.9843036804  MEMB      170             0.0000000000
     19610       170  OSM       C11S            9.4214533068      -37.3904970943       -9.6001000738  MEMB      170             0.0000000000
     19611       170  OSM       H11S            9.6159773516      -38.4097469301       -9.2030973884  MEMB      170             0.0000000000
     19612       170  OSM       H11T            8.6412332389      -36.9452490768       -8.9463935498  MEMB      170             0.0000000000
     19613       170  OSM       C12S           10.7039828676      -36.6604246028       -9.4467585997  MEMB      170             0.0000000000
     19614       170  OSM       H12S           10.6355420009      -35.5621416890       -9.5997666546  MEMB      170             0.0000000000
     19615       170  OSM       H12T           11.4233582864      -37.1043889884      -10.1676723641  MEMB      170             0.0000000000
     19616       170  OSM       C13S           11.3894609074      -36.8894945265       -8.1255426561  MEMB      170             0.0000000000
     19617       170  OSM       H13S           12.2166297217      -36.1487000674       -8.0889871117  MEMB      170             0.0000000000
     19618       170  OSM       H13T           11.8455716315      -37.9002911723       -8.1931733705  MEMB      170             0.0000000000
     19619       170  OSM       C14S           10.5341314182      -36.9086466031       -6.8312765584  MEMB      170             0.0000000000
     19620       170  OSM       H14S            9.6236846645      -37.5247201128       -6.9920895698  MEMB      170             0.0000000000
     19621       170  OSM       H14T           10.1727039324      -35.8818529848       -6.6090466761  MEMB      170             0.0000000000
     19622       170  OSM       C15S           11.0576057703      -37.6097668406       -5.5794549768  MEMB      170             0.0000000000
     19623       170  OSM       H15S           11.0722777478      -38.6993147429       -5.7962296021  MEMB      170             0.0000000000
     19624       170  OSM       H15T           10.2803824359      -37.5741164879       -4.7863773978  MEMB      170             0.0000000000
     19625       170  OSM       C16S           12.4440450638      -37.1692635279       -5.2291214729  MEMB      170             0.0000000000
     19626       170  OSM       H16S           12.4245013634      -36.0587274944       -5.2545944476  MEMB      170             0.0000000000
     19627       170  OSM       H16T           13.1454053300      -37.5990114328       -5.9759359174  MEMB      170             0.0000000000
     19628       170  OSM       C17S           12.8312339033      -37.7648490617       -3.8457345625  MEMB      170             0.0000000000
     19629       170  OSM       H17S           12.8888045231      -38.8685286691       -3.9593042784  MEMB      170             0.0000000000
     19630       170  OSM       H17T           12.0940128673      -37.5168952543       -3.0524216096  MEMB      170             0.0000000000
     19631       170  OSM       C18S           14.2004231618      -37.2572021704       -3.4097842730  MEMB      170             0.0000000000
     19632       170  OSM       H18S           14.1397438828      -36.3242879512       -2.8095261043  MEMB      170             0.0000000000
     19633       170  OSM       H18T           14.9100144247      -37.1953576222       -4.2624135615  MEMB      170             0.0000000000
     19634       170  OSM       H18U           14.6823664420      -38.0359539350       -2.7808181785  MEMB      170             0.0000000000
     19635       170  OSM       C1F            14.1539710105      -36.9845666607      -16.8614673829  MEMB      170             0.0000000000
     19636       170  OSM       OF             14.3381206143      -35.9670108056      -17.4871108767  MEMB      170             0.0000000000
     19637       170  OSM       C2F            15.1609279371      -37.3961911708      -15.7998597362  MEMB      170             0.0000000000
     19638       170  OSM       H2F            16.0943248788      -37.7787701741      -16.2653959528  MEMB      170             0.0000000000
     19639       170  OSM       H2G            14.7413865204      -38.3057920536      -15.3193051930  MEMB      170             0.0000000000
     19640       170  OSM       C3F            15.4789980810      -36.3320978790      -14.7504031479  MEMB      170             0.0000000000
     19641       170  OSM       H3F            15.8516768094      -35.4479295692      -15.3104730849  MEMB      170             0.0000000000
     19642       170  OSM       H3G            16.3393074984      -36.6853556254      -14.1426218426  MEMB      170             0.0000000000
     19643       170  OSM       C4F            14.3386422762      -35.7854412880      -13.9274248306  MEMB      170             0.0000000000
     19644       170  OSM       H4F            13.9268052076      -36.5751017283      -13.2632358258  MEMB      170             0.0000000000
     19645       170  OSM       H4G            13.5673827541      -35.6569758739      -14.7167133446  MEMB      170             0.0000000000
     19646       170  OSM       C5F            14.5373665059      -34.6140578169      -12.9575252366  MEMB      170             0.0000000000
     19647       170  OSM       H5F            13.5527217189      -34.4280461850      -12.4777385463  MEMB      170             0.0000000000
     19648       170  OSM       H5G            14.9041969142      -33.8092505581      -13.6298657232  MEMB      170             0.0000000000
     19649       170  OSM       C6F            15.5838196310      -34.7958573998      -11.8302823734  MEMB      170             0.0000000000
     19650       170  OSM       H6F            16.4001531273      -34.2373098465      -12.3361918183  MEMB      170             0.0000000000
     19651       170  OSM       H6G            15.8640413107      -35.8542498039      -11.6415964096  MEMB      170             0.0000000000
     19652       170  OSM       C7F            15.2198394181      -33.9946756496      -10.5585050482  MEMB      170             0.0000000000
     19653       170  OSM       H7F            15.0825484391      -32.9755079970      -10.9789446154  MEMB      170             0.0000000000
     19654       170  OSM       H7G            16.0988575092      -33.9607859812       -9.8799043075  MEMB      170             0.0000000000
     19655       170  OSM       C8F            13.9375448948      -34.2952082439       -9.7068603114  MEMB      170             0.0000000000
     19656       170  OSM       H8F            14.4045915785      -34.6571771698       -8.7660281002  MEMB      170             0.0000000000
     19657       170  OSM       H8G            13.4220538947      -35.1631603783      -10.1708104082  MEMB      170             0.0000000000
     19658       170  OSM       C9F            12.8604998082      -33.2514809366       -9.5019197777  MEMB      170             0.0000000000
     19659       170  OSM       H9F            11.8786752427      -33.3259363742       -9.9923036812  MEMB      170             0.0000000000
     19660       170  OSM       C10F           13.0603923332      -32.1538941262       -8.7567810181  MEMB      170             0.0000000000
     19661       170  OSM       H10F           12.1328823379      -31.6075058645       -8.5305393989  MEMB      170             0.0000000000
     19662       170  OSM       C11F           14.2846499861      -31.7302942991       -7.9660194675  MEMB      170             0.0000000000
     19663       170  OSM       H11F           14.4918661629      -30.6899452157       -8.2962567569  MEMB      170             0.0000000000
     19664       170  OSM       H11G           15.1626395115      -32.2873994968       -8.3572858103  MEMB      170             0.0000000000
     19665       170  OSM       C12F           14.0001147575      -31.7939372155       -6.4273771779  MEMB      170             0.0000000000
     19666       170  OSM       H12F           13.1007359328      -31.2371913960       -6.0875643586  MEMB      170             0.0000000000
     19667       170  OSM       H12G           14.8297264029      -31.2914551149       -5.8855492997  MEMB      170             0.0000000000
     19668       170  OSM       C13F           13.8889788341      -33.2719548338       -6.0532053392  MEMB      170             0.0000000000
     19669       170  OSM       H13F           14.7725947347      -33.8965863908       -6.3049576438  MEMB      170             0.0000000000
     19670       170  OSM       H13G           12.9511462665      -33.6260331783       -6.5321825174  MEMB      170             0.0000000000
     19671       170  OSM       C14F           13.5852634375      -33.3912820678       -4.5005515485  MEMB      170             0.0000000000
     19672       170  OSM       H14F           14.2083919752      -32.5408881271       -4.1500355567  MEMB      170             0.0000000000
     19673       170  OSM       H14G           13.9274678869      -34.3888329320       -4.1511117511  MEMB      170             0.0000000000
     19674       170  OSM       C15F           12.1445781994      -32.9408817533       -4.1584596163  MEMB      170             0.0000000000
     19675       170  OSM       H15F           11.4564853989      -33.7146646431       -4.5610864279  MEMB      170             0.0000000000
     19676       170  OSM       H15G           11.9412638323      -31.9441362123       -4.6050949536  MEMB      170             0.0000000000
     19677       170  OSM       C16F           11.8612887566      -32.8037462411       -2.6329976949  MEMB      170             0.0000000000
     19678       170  OSM       H16F           10.8424682581      -32.3830267554       -2.4939984845  MEMB      170             0.0000000000
     19679       170  OSM       H16G           12.6098783130      -32.1532312390       -2.1322336934  MEMB      170             0.0000000000
     19680       170  OSM       C17F           11.6914883214      -34.1480569656       -1.9225848918  MEMB      170             0.0000000000
     19681       170  OSM       H17F           12.6894574600      -34.5987854773       -2.1102609557  MEMB      170             0.0000000000
     19682       170  OSM       H17G           10.9083422496      -34.6595824541       -2.5220397606  MEMB      170             0.0000000000
     19683       170  OSM       C18F           11.3183303755      -34.1496196687       -0.4758492771  MEMB      170             0.0000000000
     19684       170  OSM       H18F           11.2171856457      -35.1966537865       -0.1183445985  MEMB      170             0.0000000000
     19685       170  OSM       H18G           10.3714279848      -33.5776898071       -0.3729254851  MEMB      170             0.0000000000
     19686       170  OSM       H18H           12.0521903899      -33.6003365805        0.1518916335  MEMB      170             0.0000000000
     19687       171  SLPC      N              33.4978621296       18.7498594445      -18.4061306094  MEMB      171             0.0000000000
     19688       171  SLPC      C13            33.3854542135       17.2639588905      -18.4939414710  MEMB      171             0.0000000000
     19689       171  SLPC      H13A           32.7454192059       16.8328228248      -17.7383775790  MEMB      171             0.0000000000
     19690       171  SLPC      H13B           33.0284757892       17.0461589072      -19.4896971907  MEMB      171             0.0000000000
     19691       171  SLPC      H13C           34.3341636108       16.7642623969      -18.3648904546  MEMB      171             0.0000000000
     19692       171  SLPC      C14            34.4698679002       19.1822686699      -19.4660017453  MEMB      171             0.0000000000
     19693       171  SLPC      H14A           34.3571081580       20.2547139157      -19.5255536879  MEMB      171             0.0000000000
     19694       171  SLPC      H14B           35.4915656092       18.8643562869      -19.3194911121  MEMB      171             0.0000000000
     19695       171  SLPC      H14C           34.1396590258       18.7232091524      -20.3861249167  MEMB      171             0.0000000000
     19696       171  SLPC      C15            34.0053575062       19.1695780804      -17.1120339702  MEMB      171             0.0000000000
     19697       171  SLPC      H15A           33.1803919402       19.0430167204      -16.4266042706  MEMB      171             0.0000000000
     19698       171  SLPC      H15B           34.8960314606       18.5879159718      -16.9255695469  MEMB      171             0.0000000000
     19699       171  SLPC      H15C           34.1069535054       20.2447263040      -17.1004356912  MEMB      171             0.0000000000
     19700       171  SLPC      C12            32.1572115601       19.3824755451      -18.7194320788  MEMB      171             0.0000000000
     19701       171  SLPC      H12A           31.8098582802       19.3414899349      -19.7412274340  MEMB      171             0.0000000000
     19702       171  SLPC      H12B           32.3096851619       20.4386827695      -18.5533648870  MEMB      171             0.0000000000
     19703       171  SLPC      C11            30.8762529112       18.9135334118      -17.8878230366  MEMB      171             0.0000000000
     19704       171  SLPC      H11A           30.6473941396       17.9419540332      -18.3756531174  MEMB      171             0.0000000000
     19705       171  SLPC      H11B           30.0632352292       19.6481711767      -18.0712092768  MEMB      171             0.0000000000
     19706       171  SLPC      P              30.3626472504       18.2302952402      -15.3852632592  MEMB      171             0.0000000000
     19707       171  SLPC      O13            30.1935957567       16.7388732472      -15.6361227770  MEMB      171             0.0000000000
     19708       171  SLPC      O14            31.0700317397       18.5521667614      -14.1238755198  MEMB      171             0.0000000000
     19709       171  SLPC      O12            31.1533437995       18.9015162144      -16.5156684179  MEMB      171             0.0000000000
     19710       171  SLPC      O11            28.8115538912       18.8799527991      -15.2537071127  MEMB      171             0.0000000000
     19711       171  SLPC      C1             28.8512921338       20.3671691157      -15.1519436232  MEMB      171             0.0000000000
     19712       171  SLPC      HA             29.8374868556       20.8436861236      -15.3381485860  MEMB      171             0.0000000000
     19713       171  SLPC      HB             28.0865511155       20.7517222055      -15.8601887740  MEMB      171             0.0000000000
     19714       171  SLPC      C2             28.2773998909       20.8069847020      -13.7593654742  MEMB      171             0.0000000000
     19715       171  SLPC      HS             28.1744320210       21.9131693802      -13.7679637247  MEMB      171             0.0000000000
     19716       171  SLPC      O21            29.1151814077       20.4250972277      -12.6310970765  MEMB      171             0.0000000000
     19717       171  SLPC      C21            30.2579098868       21.0033352330      -12.5417995191  MEMB      171             0.0000000000
     19718       171  SLPC      O22            30.7390373955       21.8455907640      -13.2835867692  MEMB      171             0.0000000000
     19719       171  SLPC      C22            30.8783264859       20.5205949030      -11.2779026918  MEMB      171             0.0000000000
     19720       171  SLPC      H2R            30.3244151781       19.6940126268      -10.7836711542  MEMB      171             0.0000000000
     19721       171  SLPC      H2S            31.8456657276       20.0349118478      -11.5282784374  MEMB      171             0.0000000000
     19722       171  SLPC      C3             26.8569272229       20.2194604177      -13.4932808528  MEMB      171             0.0000000000
     19723       171  SLPC      HX             26.2310463530       20.4686081531      -14.3767509277  MEMB      171             0.0000000000
     19724       171  SLPC      HY             26.4017976934       20.7991101263      -12.6619058577  MEMB      171             0.0000000000
     19725       171  SLPC      O31            26.9332932113       18.7828720666      -13.2163610701  MEMB      171             0.0000000000
     19726       171  SLPC      C31            26.1811832219       18.1943337184      -12.3239001237  MEMB      171             0.0000000000
     19727       171  SLPC      O32            25.2332161540       18.6336386617      -11.6855261671  MEMB      171             0.0000000000
     19728       171  SLPC      C32            26.7168019960       16.7674232935      -12.1193137359  MEMB      171             0.0000000000
     19729       171  SLPC      H2X            26.7054782455       16.2341994703      -13.0939242671  MEMB      171             0.0000000000
     19730       171  SLPC      H2Y            26.2404085839       16.2755193625      -11.2444418162  MEMB      171             0.0000000000
     19731       171  SLPC      C23            31.0716088540       21.6931155514      -10.2583591519  MEMB      171             0.0000000000
     19732       171  SLPC      H3R            31.2463754383       22.6812061017      -10.7352812700  MEMB      171             0.0000000000
     19733       171  SLPC      H3S            32.0126567277       21.4854327520       -9.7055322962  MEMB      171             0.0000000000
     19734       171  SLPC      C24            30.0812656741       21.7266083049       -9.1316154981  MEMB      171             0.0000000000
     19735       171  SLPC      H4R            30.5751065986       22.3755677971       -8.3770998289  MEMB      171             0.0000000000
     19736       171  SLPC      H4S            30.0944239065       20.7065403023       -8.6916049284  MEMB      171             0.0000000000
     19737       171  SLPC      C25            28.6490372794       22.0709068145       -9.5333926011  MEMB      171             0.0000000000
     19738       171  SLPC      H5R            28.1923782722       21.4408151512      -10.3263417670  MEMB      171             0.0000000000
     19739       171  SLPC      H5S            28.6314787262       23.0907884400       -9.9736813576  MEMB      171             0.0000000000
     19740       171  SLPC      C26            27.7610722970       22.0408759266       -8.2595908635  MEMB      171             0.0000000000
     19741       171  SLPC      H6R            27.9145475406       22.9706624894       -7.6711495721  MEMB      171             0.0000000000
     19742       171  SLPC      H6S            27.9495574072       21.1226648848       -7.6631998070  MEMB      171             0.0000000000
     19743       171  SLPC      C27            26.2425619848       22.1483960954       -8.5253932530  MEMB      171             0.0000000000
     19744       171  SLPC      H7R            26.0312178860       22.9201857591       -9.2961041953  MEMB      171             0.0000000000
     19745       171  SLPC      H7S            25.5970251056       22.5822159113       -7.7320435321  MEMB      171             0.0000000000
     19746       171  SLPC      C28            25.7156513670       20.6638881113       -8.8749652106  MEMB      171             0.0000000000
     19747       171  SLPC      H8R            26.5774312104       20.2367029152       -9.4309948074  MEMB      171             0.0000000000
     19748       171  SLPC      H8S            24.9022297346       20.7554104229       -9.6261574328  MEMB      171             0.0000000000
     19749       171  SLPC      C29            25.2973775110       19.7732614641       -7.6502972104  MEMB      171             0.0000000000
     19750       171  SLPC      H9R            24.4004052476       20.0820932644       -7.0934644541  MEMB      171             0.0000000000
     19751       171  SLPC      C210           25.9788884722       18.6654548392       -7.1805510906  MEMB      171             0.0000000000
     19752       171  SLPC      H10R           25.5707148953       18.2032278365       -6.2696501401  MEMB      171             0.0000000000
     19753       171  SLPC      C211           27.2395365329       18.0658610168       -7.7141051452  MEMB      171             0.0000000000
     19754       171  SLPC      H11R           28.0838889867       18.7875249310       -7.7384157633  MEMB      171             0.0000000000
     19755       171  SLPC      H11S           27.0137129033       17.8996753305       -8.7891427985  MEMB      171             0.0000000000
     19756       171  SLPC      C212           27.7265358403       16.8443549089       -6.8326914780  MEMB      171             0.0000000000
     19757       171  SLPC      H12R           27.2927001300       15.9034651199       -7.2021680087  MEMB      171             0.0000000000
     19758       171  SLPC      C213           28.4852680387       16.8529527198       -5.7297245684  MEMB      171             0.0000000000
     19759       171  SLPC      H13R           28.7214197134       15.9055693636       -5.2230718376  MEMB      171             0.0000000000
     19760       171  SLPC      C214           29.1483746185       18.0093613891       -5.0396455094  MEMB      171             0.0000000000
     19761       171  SLPC      H14R           29.3660863213       18.8341500409       -5.7514365551  MEMB      171             0.0000000000
     19762       171  SLPC      H14S           30.1505300565       17.5871630746       -4.8121499735  MEMB      171             0.0000000000
     19763       171  SLPC      C215           28.5456780203       18.4705244185       -3.6906216461  MEMB      171             0.0000000000
     19764       171  SLPC      H15R           29.3092595162       19.1343259164       -3.2316747498  MEMB      171             0.0000000000
     19765       171  SLPC      H15S           28.3852858679       17.6490874904       -2.9599801837  MEMB      171             0.0000000000
     19766       171  SLPC      C216           27.2122265456       19.2493552548       -3.8700413228  MEMB      171             0.0000000000
     19767       171  SLPC      H16R           26.4639822388       18.4923278364       -4.1884137335  MEMB      171             0.0000000000
     19768       171  SLPC      H16S           27.4040645618       19.9726418957       -4.6912452309  MEMB      171             0.0000000000
     19769       171  SLPC      C217           26.5721775373       19.9785910753       -2.6927593111  MEMB      171             0.0000000000
     19770       171  SLPC      H17R           27.3824990498       20.6880611790       -2.4200832491  MEMB      171             0.0000000000
     19771       171  SLPC      H17S           26.1443729652       19.3725490103       -1.8657058988  MEMB      171             0.0000000000
     19772       171  SLPC      C218           25.4163420682       20.9086873875       -3.1883612227  MEMB      171             0.0000000000
     19773       171  SLPC      H18R           25.8119696343       21.7915541960       -3.7345717632  MEMB      171             0.0000000000
     19774       171  SLPC      H18S           24.7805222800       21.3078108956       -2.3693657431  MEMB      171             0.0000000000
     19775       171  SLPC      H18T           24.7333732173       20.2483964551       -3.7644609658  MEMB      171             0.0000000000
     19776       171  SLPC      C33            28.2071707230       17.0048472614      -11.7434923271  MEMB      171             0.0000000000
     19777       171  SLPC      H3X            28.1928505261       17.6777469904      -10.8595685572  MEMB      171             0.0000000000
     19778       171  SLPC      H3Y            28.7713363440       17.5132170605      -12.5544166906  MEMB      171             0.0000000000
     19779       171  SLPC      C34            28.9098675170       15.6982588362      -11.5816355694  MEMB      171             0.0000000000
     19780       171  SLPC      H4X            28.8417531276       15.1490734712      -12.5450029573  MEMB      171             0.0000000000
     19781       171  SLPC      H4Y            28.4092612272       15.0362030812      -10.8431263773  MEMB      171             0.0000000000
     19782       171  SLPC      C35            30.4258702074       15.6605490523      -11.2281525255  MEMB      171             0.0000000000
     19783       171  SLPC      H5X            31.0178578144       16.2776961450      -11.9373785431  MEMB      171             0.0000000000
     19784       171  SLPC      H5Y            30.6962798777       14.5846245638      -11.1682670354  MEMB      171             0.0000000000
     19785       171  SLPC      C36            30.7184238524       16.3252933099       -9.8565560501  MEMB      171             0.0000000000
     19786       171  SLPC      H6X            30.0083929679       15.8542511896       -9.1436066822  MEMB      171             0.0000000000
     19787       171  SLPC      H6Y            30.4500257376       17.4003965800       -9.9367848289  MEMB      171             0.0000000000
     19788       171  SLPC      C37            32.1623745552       16.3105157097       -9.3475227972  MEMB      171             0.0000000000
     19789       171  SLPC      H7X            32.6879560104       16.7580739855      -10.2180265556  MEMB      171             0.0000000000
     19790       171  SLPC      H7Y            32.4604709177       15.2499087795       -9.2040907839  MEMB      171             0.0000000000
     19791       171  SLPC      C38            32.4856904122       17.1901761722       -8.1304922851  MEMB      171             0.0000000000
     19792       171  SLPC      H8X            31.8778984263       16.8965649592       -7.2480512918  MEMB      171             0.0000000000
     19793       171  SLPC      H8Y            32.2344371701       18.2487341156       -8.3555431761  MEMB      171             0.0000000000
     19794       171  SLPC      C39            33.9895004389       17.1446345072       -7.6977801217  MEMB      171             0.0000000000
     19795       171  SLPC      H9X            34.6340110356       17.3354328023       -8.5823832292  MEMB      171             0.0000000000
     19796       171  SLPC      H9Y            34.1845153011       16.1115088526       -7.3386959650  MEMB      171             0.0000000000
     19797       171  SLPC      C310           34.3302103359       18.2593571866       -6.6979122704  MEMB      171             0.0000000000
     19798       171  SLPC      H10X           34.1593088898       19.2818700795       -7.0973884678  MEMB      171             0.0000000000
     19799       171  SLPC      H10Y           35.4361475537       18.2432719973       -6.5931967137  MEMB      171             0.0000000000
     19800       171  SLPC      C311           33.4877305501       18.1380725716       -5.4294586591  MEMB      171             0.0000000000
     19801       171  SLPC      H11X           33.7895145955       17.2360619035       -4.8553295078  MEMB      171             0.0000000000
     19802       171  SLPC      H11Y           32.4169697032       17.9297795979       -5.6401854207  MEMB      171             0.0000000000
     19803       171  SLPC      C312           33.4743931247       19.3920085678       -4.6029432881  MEMB      171             0.0000000000
     19804       171  SLPC      H12X           33.1152276996       20.3292382115       -5.0793059557  MEMB      171             0.0000000000
     19805       171  SLPC      H12Y           34.5327279824       19.6788937568       -4.4242114879  MEMB      171             0.0000000000
     19806       171  SLPC      C313           32.5639604002       19.2267112471       -3.4087186385  MEMB      171             0.0000000000
     19807       171  SLPC      H13X           33.0167176865       18.4652949258       -2.7382137284  MEMB      171             0.0000000000
     19808       171  SLPC      H13Y           31.5848077493       18.8509673286       -3.7753211763  MEMB      171             0.0000000000
     19809       171  SLPC      C314           32.3122862184       20.5783549261       -2.6264756613  MEMB      171             0.0000000000
     19810       171  SLPC      H14X           31.8098443518       21.3756688540       -3.2148322165  MEMB      171             0.0000000000
     19811       171  SLPC      H14Y           33.3444692058       20.9627219953       -2.4809389453  MEMB      171             0.0000000000
     19812       171  SLPC      C315           31.6716093625       20.3370590887       -1.2802655243  MEMB      171             0.0000000000
     19813       171  SLPC      H15X           32.1777218286       19.5711953037       -0.6544669845  MEMB      171             0.0000000000
     19814       171  SLPC      H15Y           30.5873018550       20.1129318059       -1.3717268785  MEMB      171             0.0000000000
     19815       171  SLPC      C316           31.8256353775       21.6315139814       -0.3933891174  MEMB      171             0.0000000000
     19816       171  SLPC      H16X           32.9221041064       21.8062953155       -0.3542828181  MEMB      171             0.0000000000
     19817       171  SLPC      H16Y           31.4985884240       21.5132329790        0.6617754835  MEMB      171             0.0000000000
     19818       171  SLPC      C317           31.1992081441       22.9806380842       -0.8323421665  MEMB      171             0.0000000000
     19819       171  SLPC      H17X           31.7239115712       23.4314296203       -1.7017059526  MEMB      171             0.0000000000
     19820       171  SLPC      H17Y           31.4754023435       23.7385829859       -0.0684337985  MEMB      171             0.0000000000
     19821       171  SLPC      C318           29.6722546725       22.8977759721       -1.0497948646  MEMB      171             0.0000000000
     19822       171  SLPC      H18X           29.5326263727       22.2758914619       -1.9597861380  MEMB      171             0.0000000000
     19823       171  SLPC      H18Y           29.2700792089       23.9267882599       -1.1668830427  MEMB      171             0.0000000000
     19824       171  SLPC      H18Z           29.2228230824       22.3805801731       -0.1752420811  MEMB      171             0.0000000000
     19825       172  CHL1      C3             27.3540018669       25.2925846481      -17.4321300000  MEMB      172             0.0000000000
     19826       172  CHL1      H3             27.5515540933       26.3228326681      -17.7980100000  MEMB      172             0.0000000000
     19827       172  CHL1      O3             27.2844445331       24.4822509519      -18.5678700000  MEMB      172             0.0000000000
     19828       172  CHL1      H3'            26.4442030606       24.7705403900      -18.9318700000  MEMB      172             0.0000000000
     19829       172  CHL1      C4             28.6297188635       24.8792757940      -16.7101900000  MEMB      172             0.0000000000
     19830       172  CHL1      H4A            28.7243045673       23.7725464911      -16.6876200000  MEMB      172             0.0000000000
     19831       172  CHL1      H4B            29.4670573804       25.1493975631      -17.3885800000  MEMB      172             0.0000000000
     19832       172  CHL1      C5             28.7715152470       25.5328014442      -15.3954600000  MEMB      172             0.0000000000
     19833       172  CHL1      C6             29.8076596931       26.2491751231      -15.0151700000  MEMB      172             0.0000000000
     19834       172  CHL1      H6             30.6270555472       26.3826332550      -15.7368200000  MEMB      172             0.0000000000
     19835       172  CHL1      C7             29.9670558909       26.7635388724      -13.6112300000  MEMB      172             0.0000000000
     19836       172  CHL1      H7A            30.9956556054       26.6891291126      -13.1979900000  MEMB      172             0.0000000000
     19837       172  CHL1      H7B            29.7019400258       27.8405571170      -13.6749900000  MEMB      172             0.0000000000
     19838       172  CHL1      C8             28.9393633585       26.2890116738      -12.6368000000  MEMB      172             0.0000000000
     19839       172  CHL1      H8             29.2550131599       25.2582601147      -12.3680200000  MEMB      172             0.0000000000
     19840       172  CHL1      C14            28.9816793038       27.1479401109      -11.4280100000  MEMB      172             0.0000000000
     19841       172  CHL1      H14            28.7075013905       28.1629900968      -11.7869300000  MEMB      172             0.0000000000
     19842       172  CHL1      C15            30.2927983212       27.4146405017      -10.6850300000  MEMB      172             0.0000000000
     19843       172  CHL1      H15A           30.7580016198       26.4711522934      -10.3276300000  MEMB      172             0.0000000000
     19844       172  CHL1      H15B           31.0550784263       27.9459631001      -11.2940800000  MEMB      172             0.0000000000
     19845       172  CHL1      C16            29.8452760370       28.2102873619       -9.4668100000  MEMB      172             0.0000000000
     19846       172  CHL1      H16A           30.4207243891       27.8302486688       -8.5957500000  MEMB      172             0.0000000000
     19847       172  CHL1      H16B           30.1231838928       29.2768388437       -9.6066400000  MEMB      172             0.0000000000
     19848       172  CHL1      C17            28.3132297124       28.0700576706       -9.3843500000  MEMB      172             0.0000000000
     19849       172  CHL1      H17            27.8459279313       28.9888472560       -9.7987900000  MEMB      172             0.0000000000
     19850       172  CHL1      C13            27.9644573793       26.9397341097      -10.3021400000  MEMB      172             0.0000000000
     19851       172  CHL1      C18            28.1906776664       25.6243371368       -9.5800700000  MEMB      172             0.0000000000
     19852       172  CHL1      H18A           27.4685814362       25.2608699069       -8.8179800000  MEMB      172             0.0000000000
     19853       172  CHL1      H18B           28.2213229740       24.7976358278      -10.3216600000  MEMB      172             0.0000000000
     19854       172  CHL1      H18C           29.1655960079       25.7101704096       -9.0542400000  MEMB      172             0.0000000000
     19855       172  CHL1      C12            26.5973559308       27.0620229113      -10.9759500000  MEMB      172             0.0000000000
     19856       172  CHL1      H12A           25.6801770413       26.9245981452      -10.3642200000  MEMB      172             0.0000000000
     19857       172  CHL1      H12B           26.5847530976       28.1077275476      -11.3510000000  MEMB      172             0.0000000000
     19858       172  CHL1      C11            26.4255349112       26.0732680027      -12.1477600000  MEMB      172             0.0000000000
     19859       172  CHL1      H11A           26.2590214600       25.0417599314      -11.7701300000  MEMB      172             0.0000000000
     19860       172  CHL1      H11B           25.4919910109       26.2882214620      -12.7104400000  MEMB      172             0.0000000000
     19861       172  CHL1      C9             27.5676543582       26.2953179144      -13.2302800000  MEMB      172             0.0000000000
     19862       172  CHL1      H9             27.4959842234       27.3045057820      -13.6893400000  MEMB      172             0.0000000000
     19863       172  CHL1      C10            27.5708488786       25.3631827835      -14.4915100000  MEMB      172             0.0000000000
     19864       172  CHL1      C19            27.3597449694       23.8669306588      -13.9574900000  MEMB      172             0.0000000000
     19865       172  CHL1      H19A           26.3522997415       23.6937292559      -13.5223200000  MEMB      172             0.0000000000
     19866       172  CHL1      H19B           27.4444905278       23.1658599803      -14.8151900000  MEMB      172             0.0000000000
     19867       172  CHL1      H19C           28.1743148163       23.5332006734      -13.2796800000  MEMB      172             0.0000000000
     19868       172  CHL1      C1             26.2898161092       25.7745811771      -15.2260800000  MEMB      172             0.0000000000
     19869       172  CHL1      H1A            25.2962601350       25.7212792868      -14.7317800000  MEMB      172             0.0000000000
     19870       172  CHL1      H1B            26.3599283156       26.8678777109      -15.4107900000  MEMB      172             0.0000000000
     19871       172  CHL1      C2             26.1672725062       25.0648093454      -16.5979600000  MEMB      172             0.0000000000
     19872       172  CHL1      H2A            25.1917366124       25.4337207112      -16.9807900000  MEMB      172             0.0000000000
     19873       172  CHL1      H2B            26.0353380237       23.9880594900      -16.3581400000  MEMB      172             0.0000000000
     19874       172  CHL1      C20            27.8206520211       28.0036568230       -7.9230700000  MEMB      172             0.0000000000
     19875       172  CHL1      H20            28.3401542568       27.0896246467       -7.5639100000  MEMB      172             0.0000000000
     19876       172  CHL1      C21            26.3005457338       27.7223469435       -7.7437400000  MEMB      172             0.0000000000
     19877       172  CHL1      H21A           26.0001426349       27.6432175548       -6.6770600000  MEMB      172             0.0000000000
     19878       172  CHL1      H21B           25.9708130038       26.8065017751       -8.2793100000  MEMB      172             0.0000000000
     19879       172  CHL1      H21C           25.7854476822       28.6159039821       -8.1567100000  MEMB      172             0.0000000000
     19880       172  CHL1      C22            28.2845977652       29.1709155688       -7.1199600000  MEMB      172             0.0000000000
     19881       172  CHL1      H22A           29.3531521620       29.4490119647       -7.2431600000  MEMB      172             0.0000000000
     19882       172  CHL1      H22B           27.7238350934       30.0642185046       -7.4690700000  MEMB      172             0.0000000000
     19883       172  CHL1      C23            27.9109324149       29.1289025637       -5.5467300000  MEMB      172             0.0000000000
     19884       172  CHL1      H23A           28.0708557883       30.1671327087       -5.1850200000  MEMB      172             0.0000000000
     19885       172  CHL1      H23B           26.8367386651       28.8802379821       -5.4104100000  MEMB      172             0.0000000000
     19886       172  CHL1      C24            28.7849668546       28.2200205831       -4.6083500000  MEMB      172             0.0000000000
     19887       172  CHL1      H24A           29.0353206732       27.2559209703       -5.1004300000  MEMB      172             0.0000000000
     19888       172  CHL1      H24B           29.7273508859       28.8002427761       -4.5104400000  MEMB      172             0.0000000000
     19889       172  CHL1      C25            28.1731064999       27.9410337854       -3.1917200000  MEMB      172             0.0000000000
     19890       172  CHL1      H25            27.7959321197       28.9516368955       -2.9257300000  MEMB      172             0.0000000000
     19891       172  CHL1      C26            27.0615055419       26.8684194903       -3.3187900000  MEMB      172             0.0000000000
     19892       172  CHL1      H26A           27.5712708040       25.9194766416       -3.5907600000  MEMB      172             0.0000000000
     19893       172  CHL1      H26B           26.4652331007       26.7322345425       -2.3913000000  MEMB      172             0.0000000000
     19894       172  CHL1      H26C           26.3436061508       27.1473868244       -4.1194800000  MEMB      172             0.0000000000
     19895       172  CHL1      C27            29.2152029280       27.5361070301       -2.1443500000  MEMB      172             0.0000000000
     19896       172  CHL1      H27A           28.7107809305       27.4786610086       -1.1561300000  MEMB      172             0.0000000000
     19897       172  CHL1      H27B           29.4342015954       26.4952844286       -2.4653700000  MEMB      172             0.0000000000
     19898       172  CHL1      H27C           30.1198020470       28.1805897040       -2.1186000000  MEMB      172             0.0000000000
     19899       173  POPC      N             -18.6579396722       34.2536972711      -17.9956657758  MEMB      173             0.0000000000
     19900       173  POPC      C12           -18.2906974044       34.7972210373      -19.3930959289  MEMB      173             0.0000000000
     19901       173  POPC      H12A          -18.7386254469       35.7755106073      -19.2997684515  MEMB      173             0.0000000000
     19902       173  POPC      H12B          -18.7166448389       34.2016715937      -20.1870037332  MEMB      173             0.0000000000
     19903       173  POPC      C13           -17.9689034018       32.9766334688      -17.6281656604  MEMB      173             0.0000000000
     19904       173  POPC      H13A          -18.1274986896       32.2745852683      -18.4333835432  MEMB      173             0.0000000000
     19905       173  POPC      H13B          -16.9451590208       33.3086146515      -17.5379661270  MEMB      173             0.0000000000
     19906       173  POPC      H13C          -18.2162825856       32.5181147473      -16.6821403154  MEMB      173             0.0000000000
     19907       173  POPC      C14           -18.4009005802       35.2959568117      -16.9803995867  MEMB      173             0.0000000000
     19908       173  POPC      H14A          -18.4426394798       34.9827595005      -15.9476530202  MEMB      173             0.0000000000
     19909       173  POPC      H14B          -17.4709365854       35.7985741058      -17.2016300727  MEMB      173             0.0000000000
     19910       173  POPC      H14C          -19.1551766350       36.0540735511      -17.1311530321  MEMB      173             0.0000000000
     19911       173  POPC      C15           -20.0881261723       33.8918467887      -18.0292189679  MEMB      173             0.0000000000
     19912       173  POPC      H15A          -20.3434321124       33.0393111021      -18.6411025992  MEMB      173             0.0000000000
     19913       173  POPC      H15B          -20.6793190757       34.7151885289      -18.4020451561  MEMB      173             0.0000000000
     19914       173  POPC      H15C          -20.4306839100       33.6011108558      -17.0471156811  MEMB      173             0.0000000000
     19915       173  POPC      C11           -16.8851606403       35.0349604928      -19.6860935826  MEMB      173             0.0000000000
     19916       173  POPC      H11A          -16.2985751434       35.5139679962      -18.8732035343  MEMB      173             0.0000000000
     19917       173  POPC      H11B          -16.7901898351       35.7839161715      -20.5011806717  MEMB      173             0.0000000000
     19918       173  POPC      P             -14.7939980457       33.3794511762      -19.9073848229  MEMB      173             0.0000000000
     19919       173  POPC      O13           -13.9308282150       33.5556679626      -21.0731448730  MEMB      173             0.0000000000
     19920       173  POPC      O14           -14.7922560627       32.0421321472      -19.3218297647  MEMB      173             0.0000000000
     19921       173  POPC      O12           -16.2922444728       33.8231227933      -20.1418509750  MEMB      173             0.0000000000
     19922       173  POPC      O11           -14.3674548349       34.3793659467      -18.8431500509  MEMB      173             0.0000000000
     19923       173  POPC      C1            -13.0677581596       34.6694979397      -18.3732285372  MEMB      173             0.0000000000
     19924       173  POPC      HA            -12.5964775432       35.5872379791      -18.7855014349  MEMB      173             0.0000000000
     19925       173  POPC      HB            -12.4471229015       33.7902624476      -18.6490507296  MEMB      173             0.0000000000
     19926       173  POPC      C2            -13.0026611115       34.7972853275      -16.7888309495  MEMB      173             0.0000000000
     19927       173  POPC      HS            -11.9702570597       34.9994200061      -16.4316139010  MEMB      173             0.0000000000
     19928       173  POPC      O21           -13.5357692559       33.5884122322      -16.2212600828  MEMB      173             0.0000000000
     19929       173  POPC      C21           -12.5924751975       32.6654967554      -15.8448265506  MEMB      173             0.0000000000
     19930       173  POPC      O22           -11.4211403336       32.7883466003      -16.0148578399  MEMB      173             0.0000000000
     19931       173  POPC      C22           -13.2278868849       31.4967664074      -15.1229196965  MEMB      173             0.0000000000
     19932       173  POPC      H2R           -12.4406047905       30.8808164532      -14.6380351871  MEMB      173             0.0000000000
     19933       173  POPC      H2S           -13.8826403431       30.8428679282      -15.7377657350  MEMB      173             0.0000000000
     19934       173  POPC      C3            -13.9152417797       35.9780652707      -16.2423157580  MEMB      173             0.0000000000
     19935       173  POPC      HX            -14.7754781124       35.9940194082      -16.9452097677  MEMB      173             0.0000000000
     19936       173  POPC      HY            -13.3600499154       36.9221730167      -16.4287112053  MEMB      173             0.0000000000
     19937       173  POPC      O31           -14.3159493994       35.7559366265      -14.8880669068  MEMB      173             0.0000000000
     19938       173  POPC      C31           -14.7351688414       36.7540664417      -14.1634098513  MEMB      173             0.0000000000
     19939       173  POPC      O32           -14.8715244956       37.9132807937      -14.5522415485  MEMB      173             0.0000000000
     19940       173  POPC      C32           -15.2160884517       36.1847950093      -12.8566065039  MEMB      173             0.0000000000
     19941       173  POPC      H2X           -14.4531257879       35.5183290826      -12.4005007306  MEMB      173             0.0000000000
     19942       173  POPC      H2Y           -16.1758892368       35.6271440312      -12.9027473446  MEMB      173             0.0000000000
     19943       173  POPC      C23           -14.2490930962       31.9654302463      -14.0954557875  MEMB      173             0.0000000000
     19944       173  POPC      H3R           -13.9696349788       32.8783589532      -13.5273138556  MEMB      173             0.0000000000
     19945       173  POPC      H3S           -14.1275073415       31.1919258391      -13.3072746815  MEMB      173             0.0000000000
     19946       173  POPC      C24           -15.7061068841       32.1488412765      -14.5361732955  MEMB      173             0.0000000000
     19947       173  POPC      H4R           -16.0055322815       31.1933577985      -15.0175427172  MEMB      173             0.0000000000
     19948       173  POPC      H4S           -15.8466066738       33.0589651656      -15.1576675110  MEMB      173             0.0000000000
     19949       173  POPC      C25           -16.6408069007       32.5567338468      -13.3904127842  MEMB      173             0.0000000000
     19950       173  POPC      H5R           -16.2061851361       33.1645217912      -12.5682089506  MEMB      173             0.0000000000
     19951       173  POPC      H5S           -17.0744928213       31.6377472822      -12.9413009625  MEMB      173             0.0000000000
     19952       173  POPC      C26           -17.8090116726       33.3664119392      -13.8633176653  MEMB      173             0.0000000000
     19953       173  POPC      H6R           -18.0521322869       32.9651126192      -14.8703789788  MEMB      173             0.0000000000
     19954       173  POPC      H6S           -17.6182732357       34.4497133806      -14.0195159816  MEMB      173             0.0000000000
     19955       173  POPC      C27           -19.1303262471       33.2366294538      -12.9954786769  MEMB      173             0.0000000000
     19956       173  POPC      H7R           -19.3529568064       32.1849246646      -12.7149905788  MEMB      173             0.0000000000
     19957       173  POPC      H7S           -20.0199697555       33.6001901122      -13.5528649238  MEMB      173             0.0000000000
     19958       173  POPC      C28           -19.0837082921       34.0683886439      -11.6966164346  MEMB      173             0.0000000000
     19959       173  POPC      H8R           -20.0370067077       33.9590509924      -11.1366266305  MEMB      173             0.0000000000
     19960       173  POPC      H8S           -19.0462037879       35.1104642622      -12.0800128123  MEMB      173             0.0000000000
     19961       173  POPC      C29           -17.9511442811       33.9137445596      -10.5971480249  MEMB      173             0.0000000000
     19962       173  POPC      H91           -16.9229018989       34.1100966927      -10.9350294824  MEMB      173             0.0000000000
     19963       173  POPC      C210          -18.2188762047       33.5228412774       -9.3094937544  MEMB      173             0.0000000000
     19964       173  POPC      H101          -17.3308364861       33.5360328867       -8.6604854091  MEMB      173             0.0000000000
     19965       173  POPC      C211          -19.6043051152       33.1481195924       -8.7432353167  MEMB      173             0.0000000000
     19966       173  POPC      H11R          -19.4185327083       32.3861937463       -7.9562927818  MEMB      173             0.0000000000
     19967       173  POPC      H11S          -20.3382115170       32.8003302849       -9.5013547024  MEMB      173             0.0000000000
     19968       173  POPC      C212          -20.2019553611       34.3647692141       -7.9878320309  MEMB      173             0.0000000000
     19969       173  POPC      H12R          -21.2318222438       34.0225416324       -7.7499753069  MEMB      173             0.0000000000
     19970       173  POPC      H12S          -20.1956200137       35.2729629569       -8.6277262210  MEMB      173             0.0000000000
     19971       173  POPC      C213          -19.5868766905       34.7057587201       -6.5833954316  MEMB      173             0.0000000000
     19972       173  POPC      H13R          -18.5115206013       34.9274305476       -6.7530777697  MEMB      173             0.0000000000
     19973       173  POPC      H13S          -19.6789828124       33.8129951495       -5.9285594772  MEMB      173             0.0000000000
     19974       173  POPC      C214          -20.2897019467       35.7767510886       -5.7914329473  MEMB      173             0.0000000000
     19975       173  POPC      H14R          -21.3035907053       35.4612764933       -5.4645899350  MEMB      173             0.0000000000
     19976       173  POPC      H14S          -20.5975828433       36.5946967177       -6.4773585695  MEMB      173             0.0000000000
     19977       173  POPC      C215          -19.4124696778       36.4175941003       -4.6605491144  MEMB      173             0.0000000000
     19978       173  POPC      H15R          -20.0417850496       37.2268213836       -4.2322569516  MEMB      173             0.0000000000
     19979       173  POPC      H15S          -18.5848901922       37.0124390493       -5.1028082409  MEMB      173             0.0000000000
     19980       173  POPC      C216          -18.8344964598       35.4182121547       -3.6731568328  MEMB      173             0.0000000000
     19981       173  POPC      H16R          -18.1652298280       34.7989356539       -4.3079004571  MEMB      173             0.0000000000
     19982       173  POPC      H16S          -19.7529663313       34.9468443911       -3.2626123301  MEMB      173             0.0000000000
     19983       173  POPC      C217          -18.0381042510       36.1240393224       -2.5280211804  MEMB      173             0.0000000000
     19984       173  POPC      H17R          -18.7584018964       36.5305182015       -1.7862221722  MEMB      173             0.0000000000
     19985       173  POPC      H17S          -17.3563738116       36.8784226585       -2.9757609902  MEMB      173             0.0000000000
     19986       173  POPC      C218          -17.1829789301       35.0835404906       -1.7320490289  MEMB      173             0.0000000000
     19987       173  POPC      H18R          -16.6745018679       34.3958265017       -2.4411473692  MEMB      173             0.0000000000
     19988       173  POPC      H18S          -17.8121204529       34.3651229989       -1.1642649043  MEMB      173             0.0000000000
     19989       173  POPC      H18T          -16.3546894098       35.5917392138       -1.1935402748  MEMB      173             0.0000000000
     19990       173  POPC      C33           -15.4235504006       37.4135593673      -11.9841740060  MEMB      173             0.0000000000
     19991       173  POPC      H3X           -16.4001769429       37.7984568465      -12.3480084567  MEMB      173             0.0000000000
     19992       173  POPC      H3Y           -14.6283840842       38.1881370452      -11.9387777399  MEMB      173             0.0000000000
     19993       173  POPC      C34           -15.7816940749       36.9277344978      -10.5314618564  MEMB      173             0.0000000000
     19994       173  POPC      H4X           -16.6041189756       36.1827869738      -10.5861576503  MEMB      173             0.0000000000
     19995       173  POPC      H4Y           -16.2072106301       37.8205448495      -10.0253526763  MEMB      173             0.0000000000
     19996       173  POPC      C35           -14.5765851348       36.4074601779       -9.7229527557  MEMB      173             0.0000000000
     19997       173  POPC      H5X           -13.8091699611       37.1810480824       -9.9396474284  MEMB      173             0.0000000000
     19998       173  POPC      H5Y           -14.1962142163       35.4610907656      -10.1634336932  MEMB      173             0.0000000000
     19999       173  POPC      C36           -14.9213383485       36.3241605574       -8.1946990820  MEMB      173             0.0000000000
     20000       173  POPC      H6X           -15.6258769431       35.4724248251       -8.0829299071  MEMB      173             0.0000000000
     20001       173  POPC      H6Y           -15.4348277903       37.2680708519       -7.9124178141  MEMB      173             0.0000000000
     20002       173  POPC      C37           -13.6134716213       36.0810763591       -7.2852034750  MEMB      173             0.0000000000
     20003       173  POPC      H7X           -13.1445602295       37.0808795935       -7.1633996813  MEMB      173             0.0000000000
     20004       173  POPC      H7Y           -12.9725626146       35.4328838952       -7.9203442905  MEMB      173             0.0000000000
     20005       173  POPC      C38           -13.8087031681       35.5713847495       -5.8788993902  MEMB      173             0.0000000000
     20006       173  POPC      H8X           -14.2661694917       36.4078569765       -5.3084965907  MEMB      173             0.0000000000
     20007       173  POPC      H8Y           -12.7938577503       35.3542956385       -5.4823114965  MEMB      173             0.0000000000
     20008       173  POPC      C39           -14.6066880035       34.2628604096       -5.8658298528  MEMB      173             0.0000000000
     20009       173  POPC      H9X           -14.4365937545       33.7117326212       -6.8153811226  MEMB      173             0.0000000000
     20010       173  POPC      H9Y           -15.6812052507       34.5406158082       -5.9166794984  MEMB      173             0.0000000000
     20011       173  POPC      C310          -14.3596866837       33.3817122415       -4.6358561861  MEMB      173             0.0000000000
     20012       173  POPC      H10X          -15.2724660947       32.8138629058       -4.3553183040  MEMB      173             0.0000000000
     20013       173  POPC      H10Y          -14.1218396990       34.1075560596       -3.8290727520  MEMB      173             0.0000000000
     20014       173  POPC      C311          -13.1612768108       32.5194542144       -4.9132738063  MEMB      173             0.0000000000
     20015       173  POPC      H11X          -12.3543204350       33.1789932660       -5.2981768252  MEMB      173             0.0000000000
     20016       173  POPC      H11Y          -13.3882708437       31.9027538327       -5.8090829007  MEMB      173             0.0000000000
     20017       173  POPC      C312          -12.7798491176       31.4949652231       -3.8294400445  MEMB      173             0.0000000000
     20018       173  POPC      H12X          -11.8908823509       30.9139877191       -4.1558203507  MEMB      173             0.0000000000
     20019       173  POPC      H12Y          -13.6938573085       30.9241028398       -3.5592073080  MEMB      173             0.0000000000
     20020       173  POPC      C313          -12.2777666424       32.1532153542       -2.5216566730  MEMB      173             0.0000000000
     20021       173  POPC      H13X          -12.9473768201       33.0223767925       -2.3470093770  MEMB      173             0.0000000000
     20022       173  POPC      H13Y          -11.2039114467       32.4245046478       -2.6085935273  MEMB      173             0.0000000000
     20023       173  POPC      C314          -12.4939313732       31.2088558752       -1.3124992370  MEMB      173             0.0000000000
     20024       173  POPC      H14X          -12.0176115304       30.2269279099       -1.5204839310  MEMB      173             0.0000000000
     20025       173  POPC      H14Y          -13.5986480404       31.2276455251       -1.1960118436  MEMB      173             0.0000000000
     20026       173  POPC      C315          -12.0275869829       31.6111736959        0.1274738867  MEMB      173             0.0000000000
     20027       173  POPC      H15X          -10.9396436302       31.7204557424       -0.0693965789  MEMB      173             0.0000000000
     20028       173  POPC      H15Y          -12.0182469276       30.8044994535        0.8913516984  MEMB      173             0.0000000000
     20029       173  POPC      C316          -12.7430693070       32.8136367649        0.7556625324  MEMB      173             0.0000000000
     20030       173  POPC      H16X          -13.7576468736       32.4093467162        0.9593839386  MEMB      173             0.0000000000
     20031       173  POPC      H16Y          -12.7334449577       33.6419386579        0.0152955289  MEMB      173             0.0000000000
     20032       173  POPC      H16Z          -12.3183403126       33.0296507121        1.7592871113  MEMB      173             0.0000000000
     20033       174  CHL1      C3            -31.8329219499       18.4009803013      -17.3015000000  MEMB      174             0.0000000000
     20034       174  CHL1      H3            -30.8438400903       18.3049340426      -16.8046900000  MEMB      174             0.0000000000
     20035       174  CHL1      O3            -31.7220491925       18.3550040937      -18.6985000000  MEMB      174             0.0000000000
     20036       174  CHL1      H3'           -30.9032612501       17.8654760949      -18.8059600000  MEMB      174             0.0000000000
     20037       174  CHL1      C4            -32.6549856746       17.2025692197      -16.8651300000  MEMB      174             0.0000000000
     20038       174  CHL1      H4A           -33.6828857103       17.1477266607      -17.2831300000  MEMB      174             0.0000000000
     20039       174  CHL1      H4B           -32.0323043683       16.3780995702      -17.2736100000  MEMB      174             0.0000000000
     20040       174  CHL1      C5            -32.6163589802       17.1417103750      -15.3496900000  MEMB      174             0.0000000000
     20041       174  CHL1      C6            -32.2248668670       15.9814130242      -14.7592600000  MEMB      174             0.0000000000
     20042       174  CHL1      H6            -32.0207220973       15.1354725414      -15.4320900000  MEMB      174             0.0000000000
     20043       174  CHL1      C7            -32.2253558826       15.8853300425      -13.2585000000  MEMB      174             0.0000000000
     20044       174  CHL1      H7A           -32.5211759594       14.8526555080      -12.9749500000  MEMB      174             0.0000000000
     20045       174  CHL1      H7B           -31.2206013841       16.1333557398      -12.8544400000  MEMB      174             0.0000000000
     20046       174  CHL1      C8            -33.0913106048       16.9260850992      -12.5273000000  MEMB      174             0.0000000000
     20047       174  CHL1      H8            -34.1655049716       16.6486540216      -12.5860700000  MEMB      174             0.0000000000
     20048       174  CHL1      C14           -32.6937764874       17.0570506674      -11.1024600000  MEMB      174             0.0000000000
     20049       174  CHL1      H14           -31.6631738485       17.4524665290      -11.2282800000  MEMB      174             0.0000000000
     20050       174  CHL1      C15           -32.5334448010       15.7793528828      -10.2125700000  MEMB      174             0.0000000000
     20051       174  CHL1      H15A          -33.4770472123       15.1980936183      -10.1347000000  MEMB      174             0.0000000000
     20052       174  CHL1      H15B          -31.6316442018       15.2082777614      -10.5207000000  MEMB      174             0.0000000000
     20053       174  CHL1      C16           -32.2174527040       16.4529146728       -8.8625000000  MEMB      174             0.0000000000
     20054       174  CHL1      H16A          -32.8216630245       15.9585831640       -8.0720100000  MEMB      174             0.0000000000
     20055       174  CHL1      H16B          -31.1170556435       16.3452974131       -8.7535300000  MEMB      174             0.0000000000
     20056       174  CHL1      C17           -32.7255341175       17.9013723151       -8.8969700000  MEMB      174             0.0000000000
     20057       174  CHL1      H17           -31.8331752260       18.5578161290       -8.9812100000  MEMB      174             0.0000000000
     20058       174  CHL1      C13           -33.4725973898       18.0645912459      -10.2485500000  MEMB      174             0.0000000000
     20059       174  CHL1      C18           -34.8803795796       17.5398626082       -9.9094400000  MEMB      174             0.0000000000
     20060       174  CHL1      H18A          -35.4980226344       17.5488062869      -10.8328900000  MEMB      174             0.0000000000
     20061       174  CHL1      H18B          -34.7971024343       16.5143335422       -9.4903200000  MEMB      174             0.0000000000
     20062       174  CHL1      H18C          -35.3742354175       18.1708233724       -9.1398100000  MEMB      174             0.0000000000
     20063       174  CHL1      C12           -33.4808467937       19.4369206898      -10.8542000000  MEMB      174             0.0000000000
     20064       174  CHL1      H12A          -34.1332699120       20.1060168348      -10.2533900000  MEMB      174             0.0000000000
     20065       174  CHL1      H12B          -32.4445293632       19.8370051334      -10.8719300000  MEMB      174             0.0000000000
     20066       174  CHL1      C11           -33.8266157536       19.4067778163      -12.3249800000  MEMB      174             0.0000000000
     20067       174  CHL1      H11A          -34.9091548747       19.1584826800      -12.3529600000  MEMB      174             0.0000000000
     20068       174  CHL1      H11B          -33.6115239260       20.4158247085      -12.7371300000  MEMB      174             0.0000000000
     20069       174  CHL1      C9            -33.0142363993       18.3850172763      -13.1605100000  MEMB      174             0.0000000000
     20070       174  CHL1      H9            -31.9483351736       18.6618172356      -13.0136900000  MEMB      174             0.0000000000
     20071       174  CHL1      C10           -33.1891794408       18.3437146091      -14.6780100000  MEMB      174             0.0000000000
     20072       174  CHL1      C19           -34.7253493058       18.4490753445      -15.0412100000  MEMB      174             0.0000000000
     20073       174  CHL1      H19A          -35.0587291456       19.4821084577      -14.8045100000  MEMB      174             0.0000000000
     20074       174  CHL1      H19B          -34.8353452926       18.2732574905      -16.1326900000  MEMB      174             0.0000000000
     20075       174  CHL1      H19C          -35.4208398360       17.7607260947      -14.5151200000  MEMB      174             0.0000000000
     20076       174  CHL1      C1            -32.5309277276       19.6577592165      -15.2404400000  MEMB      174             0.0000000000
     20077       174  CHL1      H1A           -33.1514491742       20.4868270184      -14.8380600000  MEMB      174             0.0000000000
     20078       174  CHL1      H1B           -31.5233004696       19.8186345279      -14.8009800000  MEMB      174             0.0000000000
     20079       174  CHL1      C2            -32.5034127718       19.7074359415      -16.8180200000  MEMB      174             0.0000000000
     20080       174  CHL1      H2A           -31.9062976175       20.5851125861      -17.1458300000  MEMB      174             0.0000000000
     20081       174  CHL1      H2B           -33.5040804942       19.8402629381      -17.2820700000  MEMB      174             0.0000000000
     20082       174  CHL1      C20           -33.3852529903       18.4657171275       -7.5587500000  MEMB      174             0.0000000000
     20083       174  CHL1      H20           -34.1870409424       17.7083638856       -7.4250700000  MEMB      174             0.0000000000
     20084       174  CHL1      C21           -33.9059648688       19.8910799357       -7.6182000000  MEMB      174             0.0000000000
     20085       174  CHL1      H21A          -34.3633188261       20.2026266377       -6.6548300000  MEMB      174             0.0000000000
     20086       174  CHL1      H21B          -34.6497095141       19.9863942517       -8.4380100000  MEMB      174             0.0000000000
     20087       174  CHL1      H21C          -33.0873685440       20.5949170463       -7.8805600000  MEMB      174             0.0000000000
     20088       174  CHL1      C22           -32.4070397544       18.2652646524       -6.4003900000  MEMB      174             0.0000000000
     20089       174  CHL1      H22A          -31.8023172449       17.3397834064       -6.5104800000  MEMB      174             0.0000000000
     20090       174  CHL1      H22B          -31.6566360618       19.0835019124       -6.3591500000  MEMB      174             0.0000000000
     20091       174  CHL1      C23           -33.1035243700       18.2485567058       -4.9925000000  MEMB      174             0.0000000000
     20092       174  CHL1      H23A          -33.5060886113       19.2760640793       -4.8641200000  MEMB      174             0.0000000000
     20093       174  CHL1      H23B          -33.9220112166       17.5156524297       -4.8274000000  MEMB      174             0.0000000000
     20094       174  CHL1      C24           -32.0941707056       18.0534131110       -3.7871900000  MEMB      174             0.0000000000
     20095       174  CHL1      H24A          -31.5345879401       17.1299013339       -4.0485700000  MEMB      174             0.0000000000
     20096       174  CHL1      H24B          -31.3602679503       18.8848792738       -3.7210200000  MEMB      174             0.0000000000
     20097       174  CHL1      C25           -32.7999500504       18.0519349580       -2.4308100000  MEMB      174             0.0000000000
     20098       174  CHL1      H25           -33.8277517210       17.6453341477       -2.5431000000  MEMB      174             0.0000000000
     20099       174  CHL1      C26           -32.0745083393       17.1912983329       -1.3619500000  MEMB      174             0.0000000000
     20100       174  CHL1      H26A          -31.0840868919       17.6425202045       -1.1388100000  MEMB      174             0.0000000000
     20101       174  CHL1      H26B          -32.6911478745       17.2107000683       -0.4379900000  MEMB      174             0.0000000000
     20102       174  CHL1      H26C          -31.9466418134       16.1637998651       -1.7647000000  MEMB      174             0.0000000000
     20103       174  CHL1      C27           -32.9611976254       19.4345520552       -1.8168100000  MEMB      174             0.0000000000
     20104       174  CHL1      H27A          -33.3931009229       20.1881878305       -2.5095000000  MEMB      174             0.0000000000
     20105       174  CHL1      H27B          -33.5429026976       19.3398095227       -0.8750200000  MEMB      174             0.0000000000
     20106       174  CHL1      H27C          -31.9557553819       19.8215550870       -1.5454400000  MEMB      174             0.0000000000
     20107       175  SAPC      N             -30.6114591434      -21.0892628858      -21.9786602307  MEMB      175             0.0000000000
     20108       175  SAPC      C12           -29.8776015996      -21.2747333752      -20.5365273399  MEMB      175             0.0000000000
     20109       175  SAPC      H12A          -29.0797799405      -20.5601759394      -20.3976451574  MEMB      175             0.0000000000
     20110       175  SAPC      H12B          -29.5033544999      -22.2753562987      -20.6949348185  MEMB      175             0.0000000000
     20111       175  SAPC      C13           -29.4813015973      -20.9170167706      -22.9288560075  MEMB      175             0.0000000000
     20112       175  SAPC      H13A          -28.7453188455      -21.7059954613      -22.8815061758  MEMB      175             0.0000000000
     20113       175  SAPC      H13B          -29.9003420451      -20.9212618095      -23.9242389121  MEMB      175             0.0000000000
     20114       175  SAPC      H13C          -29.0367150624      -19.9401634700      -22.8084389124  MEMB      175             0.0000000000
     20115       175  SAPC      C14           -31.4763936836      -22.2852516914      -22.3550019329  MEMB      175             0.0000000000
     20116       175  SAPC      H14A          -31.7580889661      -22.1567790795      -23.3896722316  MEMB      175             0.0000000000
     20117       175  SAPC      H14B          -31.0106195269      -23.2576809260      -22.2930674893  MEMB      175             0.0000000000
     20118       175  SAPC      H14C          -32.3687559536      -22.3281770766      -21.7481684794  MEMB      175             0.0000000000
     20119       175  SAPC      C15           -31.5093072336      -19.9301804013      -21.9093697407  MEMB      175             0.0000000000
     20120       175  SAPC      H15A          -30.8282905480      -19.1540308842      -21.5928132922  MEMB      175             0.0000000000
     20121       175  SAPC      H15B          -31.9804044017      -19.7034402261      -22.8543863368  MEMB      175             0.0000000000
     20122       175  SAPC      H15C          -32.2989690439      -19.9366364315      -21.1726251424  MEMB      175             0.0000000000
     20123       175  SAPC      C11           -30.7349313533      -21.2341763814      -19.3060658570  MEMB      175             0.0000000000
     20124       175  SAPC      H11A          -31.1213331675      -20.1968905479      -19.2109195960  MEMB      175             0.0000000000
     20125       175  SAPC      H11B          -30.1090164378      -21.4390418305      -18.4113135333  MEMB      175             0.0000000000
     20126       175  SAPC      P             -32.6251099345      -22.4300646917      -18.1621012033  MEMB      175             0.0000000000
     20127       175  SAPC      O13           -33.7327150486      -23.3980951407      -18.4292921050  MEMB      175             0.0000000000
     20128       175  SAPC      O14           -31.7600671326      -22.6853464087      -17.0226980635  MEMB      175             0.0000000000
     20129       175  SAPC      O12           -31.7677109167      -22.2195996420      -19.4133646652  MEMB      175             0.0000000000
     20130       175  SAPC      O11           -33.3706040520      -20.9832143222      -17.9580628850  MEMB      175             0.0000000000
     20131       175  SAPC      C1            -34.2486246465      -20.6324776937      -18.9761192122  MEMB      175             0.0000000000
     20132       175  SAPC      HA            -33.9651705338      -21.0015269003      -19.9849687727  MEMB      175             0.0000000000
     20133       175  SAPC      HB            -35.1837794542      -21.1961417050      -18.7709618198  MEMB      175             0.0000000000
     20134       175  SAPC      C2            -34.6206488647      -19.0733452954      -18.7899388712  MEMB      175             0.0000000000
     20135       175  SAPC      HS            -34.1156949603      -18.5939486988      -19.6556877146  MEMB      175             0.0000000000
     20136       175  SAPC      O21           -34.1499304754      -18.4855931073      -17.5549428420  MEMB      175             0.0000000000
     20137       175  SAPC      C21           -32.8239622647      -18.1252703319      -17.3388059525  MEMB      175             0.0000000000
     20138       175  SAPC      O22           -31.9100576737      -18.3033580760      -18.1441103086  MEMB      175             0.0000000000
     20139       175  SAPC      C22           -32.6671541662      -17.5532183199      -15.9251598215  MEMB      175             0.0000000000
     20140       175  SAPC      H2R           -33.1890046686      -16.5730710366      -15.9612801981  MEMB      175             0.0000000000
     20141       175  SAPC      H2S           -32.9614571642      -18.3109001572      -15.1677794279  MEMB      175             0.0000000000
     20142       175  SAPC      C3            -36.1047035504      -18.8455177159      -18.8040276858  MEMB      175             0.0000000000
     20143       175  SAPC      HX            -36.4419202166      -19.0206999286      -19.8480186511  MEMB      175             0.0000000000
     20144       175  SAPC      HY            -36.2761395953      -17.7562014608      -18.6686714519  MEMB      175             0.0000000000
     20145       175  SAPC      O31           -36.8171069632      -19.7078264849      -17.9429892016  MEMB      175             0.0000000000
     20146       175  SAPC      C31           -37.1326287217      -19.2227959092      -16.7221048161  MEMB      175             0.0000000000
     20147       175  SAPC      O32           -37.1798087318      -18.0649909809      -16.4744668252  MEMB      175             0.0000000000
     20148       175  SAPC      C32           -37.5652994161      -20.4067189107      -15.9164368378  MEMB      175             0.0000000000
     20149       175  SAPC      H2X           -37.1918057351      -21.3806597806      -16.2988797140  MEMB      175             0.0000000000
     20150       175  SAPC      H2Y           -38.6654788621      -20.5450556450      -15.9856387462  MEMB      175             0.0000000000
     20151       175  SAPC      C23           -31.1943756704      -17.5379277253      -15.6270016092  MEMB      175             0.0000000000
     20152       175  SAPC      H3R           -30.6356751378      -16.8483669919      -16.2953435713  MEMB      175             0.0000000000
     20153       175  SAPC      H3S           -30.7694270019      -18.5461533016      -15.8199291043  MEMB      175             0.0000000000
     20154       175  SAPC      C24           -30.8840504112      -17.0291413259      -14.1364754217  MEMB      175             0.0000000000
     20155       175  SAPC      H4R           -31.2902141234      -15.9962163179      -14.0873018403  MEMB      175             0.0000000000
     20156       175  SAPC      H4S           -29.7764239078      -16.9841378113      -14.0625907777  MEMB      175             0.0000000000
     20157       175  SAPC      C25           -31.4207207593      -17.9177070513      -13.0170126982  MEMB      175             0.0000000000
     20158       175  SAPC      H5R           -30.9215101627      -18.8930692506      -12.9197643575  MEMB      175             0.0000000000
     20159       175  SAPC      C26           -32.4235258296      -17.6083222447      -12.1757106845  MEMB      175             0.0000000000
     20160       175  SAPC      H6R           -32.7470758873      -18.3476007399      -11.4281933397  MEMB      175             0.0000000000
     20161       175  SAPC      C27           -33.2813841813      -16.3897383239      -12.0841570901  MEMB      175             0.0000000000
     20162       175  SAPC      H7R           -34.3576370927      -16.6251533460      -11.9406976139  MEMB      175             0.0000000000
     20163       175  SAPC      H7S           -33.1750692774      -15.7594097432      -12.9928395457  MEMB      175             0.0000000000
     20164       175  SAPC      C28           -32.8379451883      -15.4306447033      -11.0135401152  MEMB      175             0.0000000000
     20165       175  SAPC      H8R           -32.1630437887      -14.6469568069      -11.3881620227  MEMB      175             0.0000000000
     20166       175  SAPC      C29           -33.1954160573      -15.2055719410       -9.7237255987  MEMB      175             0.0000000000
     20167       175  SAPC      H9R           -32.8461705213      -14.2719518201       -9.2585580299  MEMB      175             0.0000000000
     20168       175  SAPC      C210          -34.2107551122      -15.9778483988       -8.9785685505  MEMB      175             0.0000000000
     20169       175  SAPC      H10R          -34.3174935651      -16.9625989354       -9.4817538390  MEMB      175             0.0000000000
     20170       175  SAPC      H10S          -35.2184441569      -15.5154353895       -9.0496853105  MEMB      175             0.0000000000
     20171       175  SAPC      C211          -33.8519517932      -16.2420781525       -7.5487007004  MEMB      175             0.0000000000
     20172       175  SAPC      H11R          -32.7637096857      -16.2654942815       -7.3900161566  MEMB      175             0.0000000000
     20173       175  SAPC      C212          -34.6388083132      -16.5281987931       -6.4841993287  MEMB      175             0.0000000000
     20174       175  SAPC      H12R          -34.1393100346      -16.7425073607       -5.5278657175  MEMB      175             0.0000000000
     20175       175  SAPC      C213          -36.1640243315      -16.6783412059       -6.4900376219  MEMB      175             0.0000000000
     20176       175  SAPC      H13R          -36.4251416732      -17.4752848353       -7.2187475112  MEMB      175             0.0000000000
     20177       175  SAPC      H13S          -36.7602216124      -15.7982340508       -6.8129639306  MEMB      175             0.0000000000
     20178       175  SAPC      C214          -36.6377653936      -17.0907805618       -5.1664619082  MEMB      175             0.0000000000
     20179       175  SAPC      H14R          -36.8710613546      -16.2842649689       -4.4557560347  MEMB      175             0.0000000000
     20180       175  SAPC      C215          -36.7121729793      -18.2959254510       -4.6886681577  MEMB      175             0.0000000000
     20181       175  SAPC      H15R          -37.2162720818      -18.3286912748       -3.7115230711  MEMB      175             0.0000000000
     20182       175  SAPC      C216          -36.3925654451      -19.6661465694       -5.2955741669  MEMB      175             0.0000000000
     20183       175  SAPC      H16R          -36.1556948011      -19.4773738526       -6.3644894099  MEMB      175             0.0000000000
     20184       175  SAPC      H16S          -37.2459516477      -20.3615174985       -5.1455316067  MEMB      175             0.0000000000
     20185       175  SAPC      C217          -35.2605534115      -20.3427511389       -4.5583577458  MEMB      175             0.0000000000
     20186       175  SAPC      H17R          -34.4552596868      -19.6076250002       -4.3452559450  MEMB      175             0.0000000000
     20187       175  SAPC      H17S          -34.8846711004      -21.1688773329       -5.1990986083  MEMB      175             0.0000000000
     20188       175  SAPC      C218          -35.6047297692      -20.8734597106       -3.1517232542  MEMB      175             0.0000000000
     20189       175  SAPC      H18R          -35.9746552348      -21.9196247656       -3.2066287521  MEMB      175             0.0000000000
     20190       175  SAPC      H18S          -36.4653077144      -20.2671038760       -2.7966733768  MEMB      175             0.0000000000
     20191       175  SAPC      C219          -34.4861335766      -20.6421157971       -2.1461181968  MEMB      175             0.0000000000
     20192       175  SAPC      H19R          -34.2037612587      -19.5848770678       -1.9541986106  MEMB      175             0.0000000000
     20193       175  SAPC      H19S          -33.5483471365      -21.0654270982       -2.5652684114  MEMB      175             0.0000000000
     20194       175  SAPC      C220          -34.8702359742      -21.3263318352       -0.7995297587  MEMB      175             0.0000000000
     20195       175  SAPC      H20R          -35.7866471348      -20.9378181734       -0.3060035735  MEMB      175             0.0000000000
     20196       175  SAPC      H20S          -34.0254930932      -20.9825309863       -0.1650770079  MEMB      175             0.0000000000
     20197       175  SAPC      H20T          -34.9141504842      -22.4313757210       -0.9056963393  MEMB      175             0.0000000000
     20198       175  SAPC      C33           -37.3095640576      -20.1596207494      -14.4188550363  MEMB      175             0.0000000000
     20199       175  SAPC      H3X           -37.9814126288      -20.7160463161      -13.7308643877  MEMB      175             0.0000000000
     20200       175  SAPC      H3Y           -37.6202558098      -19.1244824184      -14.1614055705  MEMB      175             0.0000000000
     20201       175  SAPC      C34           -35.8784637543      -20.4945975015      -13.9404410012  MEMB      175             0.0000000000
     20202       175  SAPC      H4X           -35.7436012729      -20.3626847932      -12.8455745202  MEMB      175             0.0000000000
     20203       175  SAPC      H4Y           -35.1754788955      -19.8693732225      -14.5313960062  MEMB      175             0.0000000000
     20204       175  SAPC      C35           -35.4566894090      -21.9586140204      -14.2933501012  MEMB      175             0.0000000000
     20205       175  SAPC      H5X           -35.7055195711      -22.4133152132      -15.2760253767  MEMB      175             0.0000000000
     20206       175  SAPC      H5Y           -35.9680155174      -22.5842425397      -13.5308178283  MEMB      175             0.0000000000
     20207       175  SAPC      C36           -33.9395794759      -22.1597955811      -14.1708106037  MEMB      175             0.0000000000
     20208       175  SAPC      H6X           -33.4675742098      -21.3766672907      -13.5397462203  MEMB      175             0.0000000000
     20209       175  SAPC      H6Y           -33.4844615433      -22.1039524921      -15.1827740731  MEMB      175             0.0000000000
     20210       175  SAPC      C37           -33.6114741184      -23.3841179338      -13.2783546899  MEMB      175             0.0000000000
     20211       175  SAPC      H7X           -32.5145471208      -23.5292026126      -13.1782410611  MEMB      175             0.0000000000
     20212       175  SAPC      H7Y           -33.9958461245      -24.3444941274      -13.6836407567  MEMB      175             0.0000000000
     20213       175  SAPC      C38           -34.2945167488      -23.4571325095      -11.8617891041  MEMB      175             0.0000000000
     20214       175  SAPC      H8X           -34.1073853801      -24.3810125670      -11.2737854280  MEMB      175             0.0000000000
     20215       175  SAPC      H8Y           -35.3920912282      -23.2864839960      -11.8848206871  MEMB      175             0.0000000000
     20216       175  SAPC      C39           -33.6981671948      -22.4421783821      -10.8912113805  MEMB      175             0.0000000000
     20217       175  SAPC      H9X           -33.9057506109      -21.4118138888      -11.2511824001  MEMB      175             0.0000000000
     20218       175  SAPC      H9Y           -32.6264232846      -22.5846163997      -10.6354819154  MEMB      175             0.0000000000
     20219       175  SAPC      C310          -34.4430673914      -22.5348620002       -9.5901350900  MEMB      175             0.0000000000
     20220       175  SAPC      H10X          -34.6828971017      -23.6086675149       -9.4360422002  MEMB      175             0.0000000000
     20221       175  SAPC      H10Y          -35.3659435533      -21.9348489345       -9.7404845321  MEMB      175             0.0000000000
     20222       175  SAPC      C311          -33.5728169131      -22.0045859249       -8.4362711447  MEMB      175             0.0000000000
     20223       175  SAPC      H11X          -32.8163413807      -22.7918396201       -8.2306084472  MEMB      175             0.0000000000
     20224       175  SAPC      H11Y          -34.2115780313      -21.9426525828       -7.5293701956  MEMB      175             0.0000000000
     20225       175  SAPC      C312          -32.8124332520      -20.6659307935       -8.6233883384  MEMB      175             0.0000000000
     20226       175  SAPC      H12X          -33.5714994289      -19.8551438824       -8.5957434146  MEMB      175             0.0000000000
     20227       175  SAPC      H12Y          -32.4308008882      -20.5470464254       -9.6599909275  MEMB      175             0.0000000000
     20228       175  SAPC      C313          -31.8802191278      -20.3048047066       -7.4209216237  MEMB      175             0.0000000000
     20229       175  SAPC      H13X          -31.1081135176      -21.1036578721       -7.4236771532  MEMB      175             0.0000000000
     20230       175  SAPC      H13Y          -32.5026046400      -20.2801270636       -6.5009496917  MEMB      175             0.0000000000
     20231       175  SAPC      C314          -31.0782351545      -18.9592182926       -7.6810098422  MEMB      175             0.0000000000
     20232       175  SAPC      H14X          -31.8053185114      -18.2392227413       -8.1137651897  MEMB      175             0.0000000000
     20233       175  SAPC      H14Y          -30.2881556227      -19.2339208827       -8.4121958275  MEMB      175             0.0000000000
     20234       175  SAPC      C315          -30.5533246784      -18.3346772792       -6.4068157458  MEMB      175             0.0000000000
     20235       175  SAPC      H15X          -29.8178957752      -17.5572994759       -6.7053947257  MEMB      175             0.0000000000
     20236       175  SAPC      H15Y          -30.0270245058      -19.1586786709       -5.8792262664  MEMB      175             0.0000000000
     20237       175  SAPC      C316          -31.5512779861      -17.8312482438       -5.4060776800  MEMB      175             0.0000000000
     20238       175  SAPC      H16X          -32.5640664319      -18.2817323706       -5.3309459990  MEMB      175             0.0000000000
     20239       175  SAPC      H16Y          -31.7745037964      -16.7933588606       -5.7336090972  MEMB      175             0.0000000000
     20240       175  SAPC      C317          -30.9184160611      -17.8635982453       -3.9927724452  MEMB      175             0.0000000000
     20241       175  SAPC      H17X          -30.1300714570      -17.0857084041       -3.9049046174  MEMB      175             0.0000000000
     20242       175  SAPC      H17Y          -30.4708964655      -18.8136078415       -3.6301035945  MEMB      175             0.0000000000
     20243       175  SAPC      C318          -32.0346678806      -17.3854699249       -3.0963046820  MEMB      175             0.0000000000
     20244       175  SAPC      H18X          -32.2912690051      -16.3716333896       -3.4712878253  MEMB      175             0.0000000000
     20245       175  SAPC      H18Y          -31.7652420207      -17.3129170055       -2.0209124468  MEMB      175             0.0000000000
     20246       175  SAPC      H18Z          -33.0033310856      -17.9277152646       -3.1408306307  MEMB      175             0.0000000000
     20247       176  SAPE      N             -22.0206431049      -32.3198734400      -22.4554536125  MEMB      176             0.0000000000
     20248       176  SAPE      HN1           -22.9263452033      -31.9987830207      -22.8532034138  MEMB      176             0.0000000000
     20249       176  SAPE      HN2           -21.5618343703      -32.9316487985      -23.1603121361  MEMB      176             0.0000000000
     20250       176  SAPE      HN3           -22.3503113589      -32.9455764341      -21.6929481529  MEMB      176             0.0000000000
     20251       176  SAPE      C12           -21.0873354133      -31.3459677955      -21.7576268208  MEMB      176             0.0000000000
     20252       176  SAPE      H12A          -21.6132454300      -30.9209115275      -20.8761128901  MEMB      176             0.0000000000
     20253       176  SAPE      H12B          -20.8404457398      -30.4627720247      -22.3847886311  MEMB      176             0.0000000000
     20254       176  SAPE      C11           -19.7648970417      -32.0843565962      -21.3774751390  MEMB      176             0.0000000000
     20255       176  SAPE      H11A          -19.1309479185      -31.2318988228      -21.0522901946  MEMB      176             0.0000000000
     20256       176  SAPE      H11B          -19.4037114148      -32.5697454848      -22.3092817435  MEMB      176             0.0000000000
     20257       176  SAPE      P             -20.3575578811      -32.6655040534      -18.8258952268  MEMB      176             0.0000000000
     20258       176  SAPE      O13           -21.8469262578      -32.4517593039      -18.8149696375  MEMB      176             0.0000000000
     20259       176  SAPE      O14           -19.8876936744      -33.7629097632      -17.8872935819  MEMB      176             0.0000000000
     20260       176  SAPE      O12           -19.9730413673      -33.0234586777      -20.3267527936  MEMB      176             0.0000000000
     20261       176  SAPE      O11           -19.6828452671      -31.2891063395      -18.5545331862  MEMB      176             0.0000000000
     20262       176  SAPE      C1            -18.3565411468      -30.8463954719      -18.7032250738  MEMB      176             0.0000000000
     20263       176  SAPE      HA            -17.7267786713      -31.7148970524      -18.9920596812  MEMB      176             0.0000000000
     20264       176  SAPE      HB            -18.2190846920      -30.1881112598      -19.5875828399  MEMB      176             0.0000000000
     20265       176  SAPE      C2            -17.7626259422      -30.1024951575      -17.4579891775  MEMB      176             0.0000000000
     20266       176  SAPE      HS            -16.6936807556      -29.8370219357      -17.6035964993  MEMB      176             0.0000000000
     20267       176  SAPE      O21           -17.8336263365      -30.9693570801      -16.2953641721  MEMB      176             0.0000000000
     20268       176  SAPE      C21           -16.8817131699      -31.8245550634      -16.1736929938  MEMB      176             0.0000000000
     20269       176  SAPE      O22           -15.8916821292      -31.8784160908      -16.9467048286  MEMB      176             0.0000000000
     20270       176  SAPE      C22           -17.1209383837      -32.7104078116      -14.9205720836  MEMB      176             0.0000000000
     20271       176  SAPE      H2R           -18.2048676342      -32.7669029160      -14.6834494907  MEMB      176             0.0000000000
     20272       176  SAPE      H2S           -16.7566895792      -33.7393001022      -15.1279952148  MEMB      176             0.0000000000
     20273       176  SAPE      C3            -18.4847229880      -28.7451153138      -17.1532834185  MEMB      176             0.0000000000
     20274       176  SAPE      HX            -18.2895845653      -28.0349537967      -17.9850963134  MEMB      176             0.0000000000
     20275       176  SAPE      HY            -18.0820214479      -28.2834518292      -16.2264506658  MEMB      176             0.0000000000
     20276       176  SAPE      O31           -19.9226915271      -29.0131057580      -17.0181206735  MEMB      176             0.0000000000
     20277       176  SAPE      C31           -20.6328341103      -28.3043402928      -16.2588833308  MEMB      176             0.0000000000
     20278       176  SAPE      O32           -20.3168230826      -27.3717340772      -15.5848669490  MEMB      176             0.0000000000
     20279       176  SAPE      C32           -22.0124164364      -28.9040046028      -16.2085307755  MEMB      176             0.0000000000
     20280       176  SAPE      H2X           -22.4513409429      -28.9983754092      -17.2247789388  MEMB      176             0.0000000000
     20281       176  SAPE      H2Y           -22.7258600165      -28.3064944546      -15.6016525884  MEMB      176             0.0000000000
     20282       176  SAPE      C23           -16.4727149711      -32.1207124336      -13.6793603179  MEMB      176             0.0000000000
     20283       176  SAPE      H3R           -15.3840828979      -32.3425187334      -13.6774965408  MEMB      176             0.0000000000
     20284       176  SAPE      H3S           -16.8610938748      -32.7051869567      -12.8180400572  MEMB      176             0.0000000000
     20285       176  SAPE      C24           -16.6024847279      -30.6321080608      -13.4936290146  MEMB      176             0.0000000000
     20286       176  SAPE      H4R           -16.0443115149      -30.2349882532      -14.3683057059  MEMB      176             0.0000000000
     20287       176  SAPE      H4S           -15.9854620642      -30.4938307703      -12.5801281810  MEMB      176             0.0000000000
     20288       176  SAPE      C25           -18.0071810592      -30.0843229993      -13.3985608133  MEMB      176             0.0000000000
     20289       176  SAPE      H5R           -18.7466362079      -30.2238667269      -14.2008907387  MEMB      176             0.0000000000
     20290       176  SAPE      C26           -18.5219419990      -29.4054472564      -12.3587766077  MEMB      176             0.0000000000
     20291       176  SAPE      H6R           -19.6181591060      -29.3776971204      -12.2719555148  MEMB      176             0.0000000000
     20292       176  SAPE      C27           -17.7464578976      -29.1522343928      -11.0242033431  MEMB      176             0.0000000000
     20293       176  SAPE      H7R           -16.6518357235      -29.2878594330      -11.1573545284  MEMB      176             0.0000000000
     20294       176  SAPE      H7S           -18.0123537118      -29.9352969802      -10.2822914564  MEMB      176             0.0000000000
     20295       176  SAPE      C28           -17.9800368567      -27.8054326984      -10.4357634185  MEMB      176             0.0000000000
     20296       176  SAPE      H8R           -17.1491256598      -27.1031455976      -10.5981796937  MEMB      176             0.0000000000
     20297       176  SAPE      C29           -19.1058281373      -27.3607828391       -9.8770371950  MEMB      176             0.0000000000
     20298       176  SAPE      H9R           -19.1402321059      -26.3079685148       -9.5601800593  MEMB      176             0.0000000000
     20299       176  SAPE      C210          -20.4043136520      -28.1197941964       -9.6257880062  MEMB      176             0.0000000000
     20300       176  SAPE      H10R          -20.9311897151      -28.0572368883      -10.6019074163  MEMB      176             0.0000000000
     20301       176  SAPE      H10S          -21.1075861192      -27.4450046572       -9.0925077725  MEMB      176             0.0000000000
     20302       176  SAPE      C211          -20.4323417178      -29.5668222860       -9.1706727624  MEMB      176             0.0000000000
     20303       176  SAPE      H11R          -20.1971954790      -30.2560396218       -9.9951032298  MEMB      176             0.0000000000
     20304       176  SAPE      C212          -20.7782458990      -30.0455260730       -7.9168423371  MEMB      176             0.0000000000
     20305       176  SAPE      H12R          -20.6919219015      -31.1082131235       -7.6462047380  MEMB      176             0.0000000000
     20306       176  SAPE      C213          -21.1505844104      -29.2437116974       -6.7118712381  MEMB      176             0.0000000000
     20307       176  SAPE      H13R          -21.6341563696      -29.9777883360       -6.0324521158  MEMB      176             0.0000000000
     20308       176  SAPE      H13S          -21.8980000939      -28.4438704358       -6.9014627633  MEMB      176             0.0000000000
     20309       176  SAPE      C214          -19.9989617006      -28.5777787065       -6.0940404966  MEMB      176             0.0000000000
     20310       176  SAPE      H14R          -19.2210919768      -28.2645719784       -6.8059536299  MEMB      176             0.0000000000
     20311       176  SAPE      C215          -19.7751340887      -28.4400933100       -4.7484697328  MEMB      176             0.0000000000
     20312       176  SAPE      H15R          -18.8656888884      -27.9312158149       -4.3963989447  MEMB      176             0.0000000000
     20313       176  SAPE      C216          -20.6143244516      -28.9631163142       -3.5699593855  MEMB      176             0.0000000000
     20314       176  SAPE      H16R          -20.2403432426      -29.9314591199       -3.1740158688  MEMB      176             0.0000000000
     20315       176  SAPE      H16S          -21.6438605094      -28.9596516280       -3.9875293600  MEMB      176             0.0000000000
     20316       176  SAPE      C217          -20.6574700150      -27.8947769473       -2.4307135119  MEMB      176             0.0000000000
     20317       176  SAPE      H17R          -21.1191167542      -26.9138290592       -2.6734991938  MEMB      176             0.0000000000
     20318       176  SAPE      H17S          -19.6316375283      -27.7293589365       -2.0374900858  MEMB      176             0.0000000000
     20319       176  SAPE      C218          -21.3884643057      -28.4141858032       -1.2148972787  MEMB      176             0.0000000000
     20320       176  SAPE      H18R          -20.9605293076      -29.3964398177       -0.9210108209  MEMB      176             0.0000000000
     20321       176  SAPE      H18S          -22.4371048028      -28.4237450528       -1.5817524105  MEMB      176             0.0000000000
     20322       176  SAPE      C219          -21.2972152917      -27.4701329303        0.0341423130  MEMB      176             0.0000000000
     20323       176  SAPE      H19R          -21.4546207515      -26.4385188369       -0.3470598242  MEMB      176             0.0000000000
     20324       176  SAPE      H19S          -20.2934878484      -27.3990544551        0.5050991199  MEMB      176             0.0000000000
     20325       176  SAPE      C220          -22.2384558031      -27.8044072818        1.1517949877  MEMB      176             0.0000000000
     20326       176  SAPE      H20R          -22.0578695738      -28.8634708986        1.4348021240  MEMB      176             0.0000000000
     20327       176  SAPE      H20S          -23.2600770655      -27.4644406045        0.8778705392  MEMB      176             0.0000000000
     20328       176  SAPE      H20T          -22.0027730393      -27.1073164624        1.9841630891  MEMB      176             0.0000000000
     20329       176  SAPE      C33           -21.8404887910      -30.3489767270      -15.6468394979  MEMB      176             0.0000000000
     20330       176  SAPE      H3X           -20.8862818823      -30.8296457708      -15.9514169864  MEMB      176             0.0000000000
     20331       176  SAPE      H3Y           -22.6830027420      -30.9452895833      -16.0578168315  MEMB      176             0.0000000000
     20332       176  SAPE      C34           -21.9898186214      -30.3793453308      -14.0883214602  MEMB      176             0.0000000000
     20333       176  SAPE      H4X           -22.9757940401      -29.9476488163      -13.8129830747  MEMB      176             0.0000000000
     20334       176  SAPE      H4Y           -21.2737346138      -29.7408161042      -13.5281204371  MEMB      176             0.0000000000
     20335       176  SAPE      C35           -21.9207392192      -31.7589696932      -13.4998511644  MEMB      176             0.0000000000
     20336       176  SAPE      H5X           -22.8633679246      -32.3419324593      -13.5768331947  MEMB      176             0.0000000000
     20337       176  SAPE      H5Y           -21.6505777894      -31.7526164948      -12.4222180371  MEMB      176             0.0000000000
     20338       176  SAPE      C36           -20.9024627990      -32.7175051693      -14.1421853155  MEMB      176             0.0000000000
     20339       176  SAPE      H6X           -19.9532725908      -32.1957894608      -14.3895147021  MEMB      176             0.0000000000
     20340       176  SAPE      H6Y           -21.3192958425      -33.0113933362      -15.1292014140  MEMB      176             0.0000000000
     20341       176  SAPE      C37           -20.4422247078      -33.8976496515      -13.3207776683  MEMB      176             0.0000000000
     20342       176  SAPE      H7X           -19.7985313080      -34.5538876043      -13.9447417714  MEMB      176             0.0000000000
     20343       176  SAPE      H7Y           -21.2780077326      -34.5416465049      -12.9728468133  MEMB      176             0.0000000000
     20344       176  SAPE      C38           -19.6119754503      -33.5404695867      -12.0993272956  MEMB      176             0.0000000000
     20345       176  SAPE      H8X           -19.2185121726      -32.5107659379      -12.2379564916  MEMB      176             0.0000000000
     20346       176  SAPE      H8Y           -18.7564354458      -34.2467841370      -12.0402326115  MEMB      176             0.0000000000
     20347       176  SAPE      C39           -20.2526724322      -33.8108615129      -10.7237931694  MEMB      176             0.0000000000
     20348       176  SAPE      H9X           -20.3582503280      -34.9126046314      -10.6271673067  MEMB      176             0.0000000000
     20349       176  SAPE      H9Y           -21.3135634121      -33.4826862856      -10.6901416814  MEMB      176             0.0000000000
     20350       176  SAPE      C310          -19.4986988051      -33.2326822031       -9.4384204255  MEMB      176             0.0000000000
     20351       176  SAPE      H10X          -20.0219237049      -33.7047674622       -8.5795300715  MEMB      176             0.0000000000
     20352       176  SAPE      H10Y          -19.6521973443      -32.1382022918       -9.3249614529  MEMB      176             0.0000000000
     20353       176  SAPE      C311          -18.0170686271      -33.5978745473       -9.4170304775  MEMB      176             0.0000000000
     20354       176  SAPE      H11X          -17.4894516501      -33.1180253739      -10.2689030697  MEMB      176             0.0000000000
     20355       176  SAPE      H11Y          -18.0732143975      -34.6939832095       -9.5894099049  MEMB      176             0.0000000000
     20356       176  SAPE      C312          -17.2382690150      -33.0753053078       -8.1657844639  MEMB      176             0.0000000000
     20357       176  SAPE      H12X          -17.0328309145      -31.9913463094       -8.2967393940  MEMB      176             0.0000000000
     20358       176  SAPE      H12Y          -16.2575648071      -33.5590456863       -8.3620897392  MEMB      176             0.0000000000
     20359       176  SAPE      C313          -17.8051935721      -33.3693384349       -6.8452879936  MEMB      176             0.0000000000
     20360       176  SAPE      H13X          -17.9868076300      -34.4113153297       -6.5052571754  MEMB      176             0.0000000000
     20361       176  SAPE      H13Y          -18.7952302948      -32.8773287082       -6.7354022189  MEMB      176             0.0000000000
     20362       176  SAPE      C314          -16.9572097048      -32.6486998685       -5.7938054650  MEMB      176             0.0000000000
     20363       176  SAPE      H14X          -16.8703955061      -31.5705744469       -6.0476359073  MEMB      176             0.0000000000
     20364       176  SAPE      H14Y          -15.8998274533      -32.9891584661       -5.7750523407  MEMB      176             0.0000000000
     20365       176  SAPE      C315          -17.4554495460      -32.8111819948       -4.3166459629  MEMB      176             0.0000000000
     20366       176  SAPE      H15X          -17.7749448642      -33.8297889612       -4.0089392914  MEMB      176             0.0000000000
     20367       176  SAPE      H15Y          -18.3158933522      -32.1132160288       -4.2341782366  MEMB      176             0.0000000000
     20368       176  SAPE      C316          -16.3055937943      -32.3522889996       -3.3381049184  MEMB      176             0.0000000000
     20369       176  SAPE      H16X          -16.2332587062      -31.2550671755       -3.4968286410  MEMB      176             0.0000000000
     20370       176  SAPE      H16Y          -15.3903426732      -32.8630684884       -3.7065364238  MEMB      176             0.0000000000
     20371       176  SAPE      C317          -16.5211907588      -32.5663896786       -1.8312040072  MEMB      176             0.0000000000
     20372       176  SAPE      H17X          -15.8033685320      -31.9814127736       -1.2173193429  MEMB      176             0.0000000000
     20373       176  SAPE      H17Y          -16.3507193981      -33.6294019010       -1.5568582406  MEMB      176             0.0000000000
     20374       176  SAPE      C318          -17.8649562263      -32.3201364559       -1.2612004625  MEMB      176             0.0000000000
     20375       176  SAPE      H18X          -17.8901057158      -31.3697583348       -0.6863356739  MEMB      176             0.0000000000
     20376       176  SAPE      H18Y          -18.3255936310      -33.0825051409       -0.5971766524  MEMB      176             0.0000000000
     20377       176  SAPE      H18Z          -18.7103725172      -32.2363917570       -1.9771462381  MEMB      176             0.0000000000
     20378       177  OSM       N             -35.6800568151       10.1962124312      -21.3388267487  MEMB      177             0.0000000000
     20379       177  OSM       C15           -37.0956054185        9.8900982968      -20.7669257126  MEMB      177             0.0000000000
     20380       177  OSM       H15A          -36.9660609007        9.3114409113      -19.8642774810  MEMB      177             0.0000000000
     20381       177  OSM       H15B          -37.6283336295        9.3005617916      -21.4983948520  MEMB      177             0.0000000000
     20382       177  OSM       H15C          -37.6787806509       10.7527490410      -20.4803239234  MEMB      177             0.0000000000
     20383       177  OSM       C14           -34.7893457027        8.9749523663      -21.0852410246  MEMB      177             0.0000000000
     20384       177  OSM       H14A          -33.7509274378        9.2128770524      -21.2626659842  MEMB      177             0.0000000000
     20385       177  OSM       H14B          -35.0073940697        8.1279499155      -21.7188354518  MEMB      177             0.0000000000
     20386       177  OSM       H14C          -34.9296406398        8.6679696464      -20.0593370257  MEMB      177             0.0000000000
     20387       177  OSM       C13           -35.7600664057       10.4255866680      -22.8407492558  MEMB      177             0.0000000000
     20388       177  OSM       H13A          -36.2429473261        9.6589444499      -23.4285297725  MEMB      177             0.0000000000
     20389       177  OSM       H13B          -34.7788677459       10.6658989628      -23.2227166015  MEMB      177             0.0000000000
     20390       177  OSM       H13C          -36.2949859890       11.3440422119      -23.0323226474  MEMB      177             0.0000000000
     20391       177  OSM       C12           -35.0596880601       11.4526232499      -20.5899233896  MEMB      177             0.0000000000
     20392       177  OSM       H12A          -34.0152230456       11.4422636289      -20.8644876299  MEMB      177             0.0000000000
     20393       177  OSM       H12B          -35.1109871478       11.2194666606      -19.5366398375  MEMB      177             0.0000000000
     20394       177  OSM       C11           -35.6993850497       12.8365109134      -20.8111702604  MEMB      177             0.0000000000
     20395       177  OSM       H11A          -35.4936031599       13.1819981485      -21.8468407461  MEMB      177             0.0000000000
     20396       177  OSM       H11B          -35.1836348302       13.4704129740      -20.0585143374  MEMB      177             0.0000000000
     20397       177  OSM       P             -37.9734739932       14.2525752454      -20.7751728165  MEMB      177             0.0000000000
     20398       177  OSM       O13           -37.2266680712       15.0463361087      -21.7352934012  MEMB      177             0.0000000000
     20399       177  OSM       O14           -39.3665152652       13.9419569780      -21.0914905905  MEMB      177             0.0000000000
     20400       177  OSM       O11           -37.9830693629       14.9382290566      -19.3503889192  MEMB      177             0.0000000000
     20401       177  OSM       O12           -37.0926897581       12.9246526835      -20.6148178760  MEMB      177             0.0000000000
     20402       177  OSM       C1S           -38.1686982510       14.2431167422      -18.1476306999  MEMB      177             0.0000000000
     20403       177  OSM       H1S           -38.4301067391       13.2008423030      -18.4298553602  MEMB      177             0.0000000000
     20404       177  OSM       H1T           -38.9898960957       14.6742924807      -17.5360408725  MEMB      177             0.0000000000
     20405       177  OSM       NF            -36.8107663296       13.1884465844      -16.3075979185  MEMB      177             0.0000000000
     20406       177  OSM       HNF           -36.7672493341       13.4914657375      -15.3587591708  MEMB      177             0.0000000000
     20407       177  OSM       C2S           -36.8542445855       14.2565492978      -17.2268736617  MEMB      177             0.0000000000
     20408       177  OSM       H2S           -35.9197938062       14.0778634925      -17.8006279958  MEMB      177             0.0000000000
     20409       177  OSM       C3S           -36.7587059529       15.5949996542      -16.6117324778  MEMB      177             0.0000000000
     20410       177  OSM       H3S           -37.7221489932       15.8698166267      -16.1315510271  MEMB      177             0.0000000000
     20411       177  OSM       O3            -36.4477888331       16.5275413370      -17.6599581407  MEMB      177             0.0000000000
     20412       177  OSM       HO3           -36.2912220675       16.0339316843      -18.4683121463  MEMB      177             0.0000000000
     20413       177  OSM       C4S           -35.6902311565       15.6421465318      -15.5862021406  MEMB      177             0.0000000000
     20414       177  OSM       H4S           -34.7090360407       15.2555256296      -15.8989006527  MEMB      177             0.0000000000
     20415       177  OSM       C5S           -35.8108555812       16.2024577220      -14.3744919631  MEMB      177             0.0000000000
     20416       177  OSM       H5S           -36.7712286925       16.7144147844      -14.2145438308  MEMB      177             0.0000000000
     20417       177  OSM       C6S           -34.7267147421       16.2447328765      -13.3191634064  MEMB      177             0.0000000000
     20418       177  OSM       H6S           -34.6111540282       17.2780129760      -12.9276299165  MEMB      177             0.0000000000
     20419       177  OSM       H6T           -33.7104522901       16.1236886890      -13.7514599103  MEMB      177             0.0000000000
     20420       177  OSM       C7S           -35.2753772413       15.3628427632      -12.1986774213  MEMB      177             0.0000000000
     20421       177  OSM       H7S           -35.4823399475       14.3434762611      -12.5890353742  MEMB      177             0.0000000000
     20422       177  OSM       H7T           -36.2366925275       15.7708472097      -11.8195653502  MEMB      177             0.0000000000
     20423       177  OSM       C8S           -34.3808888226       15.3597639543      -10.9475909789  MEMB      177             0.0000000000
     20424       177  OSM       H8S           -34.2492587532       16.3857892379      -10.5422924160  MEMB      177             0.0000000000
     20425       177  OSM       H8T           -33.3502576400       15.0184371135      -11.1834223903  MEMB      177             0.0000000000
     20426       177  OSM       C9S           -34.8305746546       14.3185084699       -9.8801291466  MEMB      177             0.0000000000
     20427       177  OSM       H9S           -33.8989349374       14.3414810164       -9.2752818099  MEMB      177             0.0000000000
     20428       177  OSM       H9T           -34.7740696167       13.3437804431      -10.4102550661  MEMB      177             0.0000000000
     20429       177  OSM       C10S          -36.0400701546       14.4394146449       -8.9188894110  MEMB      177             0.0000000000
     20430       177  OSM       H10S          -36.8777510371       13.9407961550       -9.4517973132  MEMB      177             0.0000000000
     20431       177  OSM       H10T          -36.2137660531       15.4667882173       -8.5333324136  MEMB      177             0.0000000000
     20432       177  OSM       C11S          -35.9712479221       13.7989328319       -7.4502152194  MEMB      177             0.0000000000
     20433       177  OSM       H11S          -36.9257990998       13.8688026228       -6.8860598136  MEMB      177             0.0000000000
     20434       177  OSM       H11T          -35.3108110769       14.4809649534       -6.8731744246  MEMB      177             0.0000000000
     20435       177  OSM       C12S          -35.5821639732       12.3170108980       -7.3351105007  MEMB      177             0.0000000000
     20436       177  OSM       H12S          -34.5416862903       12.1885598304       -7.7028439473  MEMB      177             0.0000000000
     20437       177  OSM       H12T          -36.2968061841       11.7421649922       -7.9621349859  MEMB      177             0.0000000000
     20438       177  OSM       C13S          -35.6828952402       11.5799471923       -6.0449472704  MEMB      177             0.0000000000
     20439       177  OSM       H13S          -35.2271667944       10.5812029533       -6.2156588418  MEMB      177             0.0000000000
     20440       177  OSM       H13T          -36.7542727685       11.4171219636       -5.8000815816  MEMB      177             0.0000000000
     20441       177  OSM       C14S          -34.8486995680       12.2369836560       -4.9040345724  MEMB      177             0.0000000000
     20442       177  OSM       H14S          -35.2591535822       13.2316573402       -4.6274964464  MEMB      177             0.0000000000
     20443       177  OSM       H14T          -33.7905680679       12.4265604326       -5.1846400752  MEMB      177             0.0000000000
     20444       177  OSM       C15S          -34.9467420283       11.5568430415       -3.5834684807  MEMB      177             0.0000000000
     20445       177  OSM       H15S          -34.6810935875       10.4883740497       -3.7322159079  MEMB      177             0.0000000000
     20446       177  OSM       H15T          -35.9800704475       11.6216578198       -3.1805374660  MEMB      177             0.0000000000
     20447       177  OSM       C16S          -33.8868608376       12.2061096475       -2.5904751571  MEMB      177             0.0000000000
     20448       177  OSM       H16S          -33.9487439313       13.3153444273       -2.5999557357  MEMB      177             0.0000000000
     20449       177  OSM       H16T          -32.8815974878       11.8682456259       -2.9215571174  MEMB      177             0.0000000000
     20450       177  OSM       C17S          -33.9072965770       11.5529718871       -1.1861967024  MEMB      177             0.0000000000
     20451       177  OSM       H17S          -32.9018143639       11.5616081489       -0.7137000449  MEMB      177             0.0000000000
     20452       177  OSM       H17T          -34.2400017711       10.5009168829       -1.3158448117  MEMB      177             0.0000000000
     20453       177  OSM       C18S          -34.8524172018       12.3469987115       -0.2162668983  MEMB      177             0.0000000000
     20454       177  OSM       H18S          -35.8160123982       12.5624009649       -0.7255871735  MEMB      177             0.0000000000
     20455       177  OSM       H18T          -34.3354760646       13.2642427230        0.1383548578  MEMB      177             0.0000000000
     20456       177  OSM       H18U          -34.9788981407       11.7384523528        0.7046000085  MEMB      177             0.0000000000
     20457       177  OSM       C1F           -36.9570467168       11.8739084413      -16.5465189845  MEMB      177             0.0000000000
     20458       177  OSM       OF            -36.7367924895       11.4072735908      -17.6714709642  MEMB      177             0.0000000000
     20459       177  OSM       C2F           -37.4394782905       11.1451107934      -15.3913652847  MEMB      177             0.0000000000
     20460       177  OSM       H2F           -38.3034419664       11.7098819209      -14.9803649739  MEMB      177             0.0000000000
     20461       177  OSM       H2G           -36.7160656644       11.1135083912      -14.5487525313  MEMB      177             0.0000000000
     20462       177  OSM       C3F           -37.9043315199        9.7285320380      -15.8521676111  MEMB      177             0.0000000000
     20463       177  OSM       H3F           -37.0441541865        9.1854018106      -16.2987386082  MEMB      177             0.0000000000
     20464       177  OSM       H3G           -38.6918076433        9.8093699362      -16.6316977268  MEMB      177             0.0000000000
     20465       177  OSM       C4F           -38.5140919794        8.9062702901      -14.6428801899  MEMB      177             0.0000000000
     20466       177  OSM       H4F           -38.7207038499        7.9102098340      -15.0895302051  MEMB      177             0.0000000000
     20467       177  OSM       H4G           -39.4890526113        9.4237725828      -14.5165305601  MEMB      177             0.0000000000
     20468       177  OSM       C5F           -37.8005044394        8.9846406827      -13.3048033860  MEMB      177             0.0000000000
     20469       177  OSM       H5F           -37.6247869016       10.0546513596      -13.0628914393  MEMB      177             0.0000000000
     20470       177  OSM       H5G           -36.7586088997        8.6529344293      -13.5016426694  MEMB      177             0.0000000000
     20471       177  OSM       C6F           -38.5326956015        8.3589742322      -12.1031620613  MEMB      177             0.0000000000
     20472       177  OSM       H6F           -38.5945125336        7.2701645982      -12.3152794859  MEMB      177             0.0000000000
     20473       177  OSM       H6G           -39.5810315362        8.7227832947      -12.1575260997  MEMB      177             0.0000000000
     20474       177  OSM       C7F           -37.9802885451        8.3610647907      -10.6683959390  MEMB      177             0.0000000000
     20475       177  OSM       H7F           -36.9661301096        7.9087178522      -10.7028323465  MEMB      177             0.0000000000
     20476       177  OSM       H7G           -38.6639785474        7.7774979338      -10.0154497804  MEMB      177             0.0000000000
     20477       177  OSM       C8F           -37.8190052536        9.7534738435       -9.9959731080  MEMB      177             0.0000000000
     20478       177  OSM       H8F           -37.0184555914       10.1090511817      -10.6793510662  MEMB      177             0.0000000000
     20479       177  OSM       H8G           -37.3483229721        9.4840220586       -9.0263470861  MEMB      177             0.0000000000
     20480       177  OSM       C9F           -39.0639228179       10.6850042545      -10.0037763517  MEMB      177             0.0000000000
     20481       177  OSM       H9F           -39.5159918905       10.9800571996      -10.9622005970  MEMB      177             0.0000000000
     20482       177  OSM       C10F          -39.7059536528       10.9355453546       -8.8040636268  MEMB      177             0.0000000000
     20483       177  OSM       H10F          -40.4979521611       11.6961076119       -8.7386172484  MEMB      177             0.0000000000
     20484       177  OSM       C11F          -39.3824042305       10.3524935809       -7.4667818287  MEMB      177             0.0000000000
     20485       177  OSM       H11F          -38.7165599684       11.0688766245       -6.9397451297  MEMB      177             0.0000000000
     20486       177  OSM       H11G          -38.7424184925        9.4592226896       -7.6305087406  MEMB      177             0.0000000000
     20487       177  OSM       C12F          -40.5854556418       10.0165452129       -6.6282825349  MEMB      177             0.0000000000
     20488       177  OSM       H12F          -41.0788731610        9.1500552642       -7.1182361854  MEMB      177             0.0000000000
     20489       177  OSM       H12G          -41.3866970985       10.7858270926       -6.6514793714  MEMB      177             0.0000000000
     20490       177  OSM       C13F          -40.3680058279        9.7109915454       -5.1117949135  MEMB      177             0.0000000000
     20491       177  OSM       H13F          -39.2686044518        9.5596390185       -5.0595445976  MEMB      177             0.0000000000
     20492       177  OSM       H13G          -40.9176093212        8.7799640445       -4.8559740550  MEMB      177             0.0000000000
     20493       177  OSM       C14F          -40.7007890904       10.8723812802       -4.1817070244  MEMB      177             0.0000000000
     20494       177  OSM       H14F          -40.4448711154       10.4017757749       -3.2083855162  MEMB      177             0.0000000000
     20495       177  OSM       H14G          -41.7728214238       11.1538537002       -4.1052783587  MEMB      177             0.0000000000
     20496       177  OSM       C15F          -39.7674887936       12.0556703921       -4.4045555660  MEMB      177             0.0000000000
     20497       177  OSM       H15F          -40.0186114862       12.6437185524       -5.3131010723  MEMB      177             0.0000000000
     20498       177  OSM       H15G          -38.7545261396       11.6031174873       -4.4630692195  MEMB      177             0.0000000000
     20499       177  OSM       C16F          -39.7785423342       13.2221027882       -3.2832149231  MEMB      177             0.0000000000
     20500       177  OSM       H16F          -39.5379057262       12.6434399893       -2.3658476749  MEMB      177             0.0000000000
     20501       177  OSM       H16G          -40.8236109889       13.5769115339       -3.4107412279  MEMB      177             0.0000000000
     20502       177  OSM       C17F          -38.9319134661       14.4663257816       -3.6255526515  MEMB      177             0.0000000000
     20503       177  OSM       H17F          -39.3891599306       15.4627568619       -3.4456306867  MEMB      177             0.0000000000
     20504       177  OSM       H17G          -38.6955983389       14.5697670422       -4.7061904406  MEMB      177             0.0000000000
     20505       177  OSM       C18F          -37.5795706965       14.3835701255       -2.9031050758  MEMB      177             0.0000000000
     20506       177  OSM       H18F          -37.7512211508       14.3396210618       -1.8063246378  MEMB      177             0.0000000000
     20507       177  OSM       H18G          -37.1532032879       15.3942758638       -3.0791855583  MEMB      177             0.0000000000
     20508       177  OSM       H18H          -36.8279139995       13.6576010992       -3.2803347013  MEMB      177             0.0000000000
     20509       178  SOPE      N             -30.1860839989      -14.9789692520      -20.6485198141  MEMB      178             0.0000000000
     20510       178  SOPE      HN1           -30.7348655241      -14.1385179188      -20.3763429748  MEMB      178             0.0000000000
     20511       178  SOPE      HN2           -29.4713596250      -15.2082544033      -19.9286603401  MEMB      178             0.0000000000
     20512       178  SOPE      HN3           -29.6460270684      -14.7609390210      -21.5101469046  MEMB      178             0.0000000000
     20513       178  SOPE      C12           -31.1079548111      -16.1092999097      -21.0243049584  MEMB      178             0.0000000000
     20514       178  SOPE      H12A          -31.3876112853      -16.6776451909      -20.1115635816  MEMB      178             0.0000000000
     20515       178  SOPE      H12B          -30.3839877797      -16.7370870501      -21.5865110641  MEMB      178             0.0000000000
     20516       178  SOPE      C11           -32.2652142024      -15.6535998407      -21.8899124185  MEMB      178             0.0000000000
     20517       178  SOPE      H11A          -32.6693857289      -16.5537995731      -22.4004091360  MEMB      178             0.0000000000
     20518       178  SOPE      H11B          -31.8360867728      -14.9648673064      -22.6487392556  MEMB      178             0.0000000000
     20519       178  SOPE      P             -34.6946952388      -15.5818839768      -20.9987388685  MEMB      178             0.0000000000
     20520       178  SOPE      O13           -34.7083239997      -17.0707186186      -20.8581212084  MEMB      178             0.0000000000
     20521       178  SOPE      O14           -35.6369471208      -15.0200416940      -21.9525521851  MEMB      178             0.0000000000
     20522       178  SOPE      O12           -33.2067955487      -15.0235781325      -21.0777439018  MEMB      178             0.0000000000
     20523       178  SOPE      O11           -34.9231734916      -14.9626955589      -19.5501066456  MEMB      178             0.0000000000
     20524       178  SOPE      C1            -34.9129262269      -13.5889304693      -19.3915669971  MEMB      178             0.0000000000
     20525       178  SOPE      HA            -35.6228252121      -13.1387371760      -20.1179902372  MEMB      178             0.0000000000
     20526       178  SOPE      HB            -33.9155185963      -13.2066216625      -19.6970814376  MEMB      178             0.0000000000
     20527       178  SOPE      C2            -35.1622790382      -13.1298435903      -17.9077586755  MEMB      178             0.0000000000
     20528       178  SOPE      HS            -34.3793186800      -13.5218184507      -17.2239095249  MEMB      178             0.0000000000
     20529       178  SOPE      O21           -36.5085812044      -13.4671203829      -17.4002050375  MEMB      178             0.0000000000
     20530       178  SOPE      C21           -36.5732397205      -14.6584445146      -16.8961380580  MEMB      178             0.0000000000
     20531       178  SOPE      O22           -35.7036322554      -15.5718718018      -16.9268203118  MEMB      178             0.0000000000
     20532       178  SOPE      C22           -37.9797549578      -14.7683740112      -16.1996559215  MEMB      178             0.0000000000
     20533       178  SOPE      H2R           -38.7403755642      -14.4320418239      -16.9363087242  MEMB      178             0.0000000000
     20534       178  SOPE      H2S           -37.9155825801      -13.9980835796      -15.4016237225  MEMB      178             0.0000000000
     20535       178  SOPE      C3            -35.0046622337      -11.5998628711      -17.8907165757  MEMB      178             0.0000000000
     20536       178  SOPE      HX            -35.6462523539      -11.2719538270      -18.7363871399  MEMB      178             0.0000000000
     20537       178  SOPE      HY            -33.9988454062      -11.2218170578      -18.1730900100  MEMB      178             0.0000000000
     20538       178  SOPE      O31           -35.3961560288      -10.9791145782      -16.7326910348  MEMB      178             0.0000000000
     20539       178  SOPE      C31           -34.4710787504      -11.0619159266      -15.7466108111  MEMB      178             0.0000000000
     20540       178  SOPE      O32           -33.3183204958      -11.4770309847      -15.8738939774  MEMB      178             0.0000000000
     20541       178  SOPE      C32           -35.1659145251      -10.5745991952      -14.4461196365  MEMB      178             0.0000000000
     20542       178  SOPE      H2X           -35.9425864468       -9.8298301678      -14.7225624192  MEMB      178             0.0000000000
     20543       178  SOPE      H2Y           -34.4215654596      -10.0596965362      -13.8018054000  MEMB      178             0.0000000000
     20544       178  SOPE      C23           -38.1864184617      -16.2295907237      -15.7271262687  MEMB      178             0.0000000000
     20545       178  SOPE      H3R           -37.2957678126      -16.8724249539      -15.8939394512  MEMB      178             0.0000000000
     20546       178  SOPE      H3S           -39.0655188944      -16.7187623174      -16.1985226644  MEMB      178             0.0000000000
     20547       178  SOPE      C24           -38.5221000531      -16.2985082513      -14.1614028394  MEMB      178             0.0000000000
     20548       178  SOPE      H4R           -39.5146231259      -15.8732129430      -13.8999796866  MEMB      178             0.0000000000
     20549       178  SOPE      H4S           -38.5751924468      -17.3826100037      -13.9242842284  MEMB      178             0.0000000000
     20550       178  SOPE      C25           -37.4033393500      -15.5774028011      -13.3840788594  MEMB      178             0.0000000000
     20551       178  SOPE      H5R           -36.4890487261      -15.7212124806      -13.9986618578  MEMB      178             0.0000000000
     20552       178  SOPE      H5S           -37.5629445020      -14.4845990547      -13.2631360371  MEMB      178             0.0000000000
     20553       178  SOPE      C26           -37.1011926719      -15.9453809871      -11.9067653679  MEMB      178             0.0000000000
     20554       178  SOPE      H6R           -37.9838131620      -15.8730592043      -11.2358916099  MEMB      178             0.0000000000
     20555       178  SOPE      H6S           -36.7525852233      -16.9928721355      -12.0314895406  MEMB      178             0.0000000000
     20556       178  SOPE      C27           -35.9805935280      -15.1590612347      -11.2601807363  MEMB      178             0.0000000000
     20557       178  SOPE      H7R           -34.9937665725      -15.1956514672      -11.7692540015  MEMB      178             0.0000000000
     20558       178  SOPE      H7S           -36.3040187427      -14.1175035019      -11.0483448937  MEMB      178             0.0000000000
     20559       178  SOPE      C28           -35.7502213222      -15.5980547648       -9.7140355584  MEMB      178             0.0000000000
     20560       178  SOPE      H8R           -35.3784000677      -16.6403534158       -9.8124412712  MEMB      178             0.0000000000
     20561       178  SOPE      H8S           -34.9211418094      -14.9726169319       -9.3193511944  MEMB      178             0.0000000000
     20562       178  SOPE      C29           -36.9862932456      -15.3763340600       -8.9019857902  MEMB      178             0.0000000000
     20563       178  SOPE      H91           -37.6256993883      -14.6507709063       -9.4261211422  MEMB      178             0.0000000000
     20564       178  SOPE      C210          -37.3452633938      -15.9326731737       -7.6950931882  MEMB      178             0.0000000000
     20565       178  SOPE      H101          -38.1728389342      -15.5151222562       -7.1028341841  MEMB      178             0.0000000000
     20566       178  SOPE      C211          -36.6244183159      -16.9111044897       -6.8218661020  MEMB      178             0.0000000000
     20567       178  SOPE      H11R          -37.0610149617      -17.8612597606       -7.1972459364  MEMB      178             0.0000000000
     20568       178  SOPE      H11S          -36.9813520802      -16.7842103342       -5.7774442096  MEMB      178             0.0000000000
     20569       178  SOPE      C212          -35.0980555583      -17.0994616783       -6.6295735714  MEMB      178             0.0000000000
     20570       178  SOPE      H12R          -34.6335125377      -17.3353325022       -7.6108411844  MEMB      178             0.0000000000
     20571       178  SOPE      H12S          -34.7922548231      -17.9420430298       -5.9731716479  MEMB      178             0.0000000000
     20572       178  SOPE      C213          -34.3191978356      -15.8996784477       -6.0880411151  MEMB      178             0.0000000000
     20573       178  SOPE      H13R          -34.5156431059      -14.9914447782       -6.6970092505  MEMB      178             0.0000000000
     20574       178  SOPE      H13S          -33.2307821792      -16.0657127403       -5.9393645116  MEMB      178             0.0000000000
     20575       178  SOPE      C214          -34.6659974411      -15.4401584122       -4.5888034087  MEMB      178             0.0000000000
     20576       178  SOPE      H14R          -34.5576749008      -16.3775449025       -4.0023790711  MEMB      178             0.0000000000
     20577       178  SOPE      H14S          -35.7242301378      -15.1141689647       -4.4982751002  MEMB      178             0.0000000000
     20578       178  SOPE      C215          -33.6698194241      -14.3063716920       -4.0362865723  MEMB      178             0.0000000000
     20579       178  SOPE      H15R          -32.6252478878      -14.5025383537       -4.3598759979  MEMB      178             0.0000000000
     20580       178  SOPE      H15S          -33.7096279071      -14.2330814646       -2.9284227124  MEMB      178             0.0000000000
     20581       178  SOPE      C216          -33.8467524878      -12.8358245146       -4.7274960339  MEMB      178             0.0000000000
     20582       178  SOPE      H16R          -33.5219356937      -12.8930551556       -5.7884100111  MEMB      178             0.0000000000
     20583       178  SOPE      H16S          -33.0927914951      -12.2014396208       -4.2142514145  MEMB      178             0.0000000000
     20584       178  SOPE      C217          -35.1761615698      -12.1475520623       -4.5613830320  MEMB      178             0.0000000000
     20585       178  SOPE      H17R          -35.9975725986      -12.8160494486       -4.8971144438  MEMB      178             0.0000000000
     20586       178  SOPE      H17S          -35.1542118765      -11.2331127170       -5.1919704668  MEMB      178             0.0000000000
     20587       178  SOPE      C218          -35.3159157570      -11.5737639618       -3.1129776665  MEMB      178             0.0000000000
     20588       178  SOPE      H18R          -36.3481845523      -11.2371395731       -2.8775499886  MEMB      178             0.0000000000
     20589       178  SOPE      H18S          -34.6162712039      -10.7117087333       -3.0720034840  MEMB      178             0.0000000000
     20590       178  SOPE      H18T          -34.9574278591      -12.3068192043       -2.3590295805  MEMB      178             0.0000000000
     20591       178  SOPE      C33           -35.7417677530      -11.8151190721      -13.7992681318  MEMB      178             0.0000000000
     20592       178  SOPE      H3X           -35.0156992884      -12.6161958181      -13.5434918119  MEMB      178             0.0000000000
     20593       178  SOPE      H3Y           -36.5527797352      -12.1467234026      -14.4823633596  MEMB      178             0.0000000000
     20594       178  SOPE      C34           -36.4982083902      -11.5424224319      -12.4895085788  MEMB      178             0.0000000000
     20595       178  SOPE      H4X           -37.2578873596      -12.3421104054      -12.3564375602  MEMB      178             0.0000000000
     20596       178  SOPE      H4Y           -37.0170221028      -10.5802263458      -12.6878310203  MEMB      178             0.0000000000
     20597       178  SOPE      C35           -35.4865893407      -11.3369005860      -11.3084887098  MEMB      178             0.0000000000
     20598       178  SOPE      H5X           -35.0165356308      -10.3342604149      -11.3983939103  MEMB      178             0.0000000000
     20599       178  SOPE      H5Y           -34.6816171442      -12.1023561874      -11.3289502183  MEMB      178             0.0000000000
     20600       178  SOPE      C36           -36.2046369447      -11.4822710845      -10.0027452140  MEMB      178             0.0000000000
     20601       178  SOPE      H6X           -35.4693871983      -11.3042219061       -9.1890950545  MEMB      178             0.0000000000
     20602       178  SOPE      H6Y           -36.6249020247      -12.4971153989       -9.8360444754  MEMB      178             0.0000000000
     20603       178  SOPE      C37           -37.5018810729      -10.5895375722       -9.9460159052  MEMB      178             0.0000000000
     20604       178  SOPE      H7X           -38.3371702621      -11.0741536687      -10.4953425191  MEMB      178             0.0000000000
     20605       178  SOPE      H7Y           -37.2301402249       -9.6380953071      -10.4512249750  MEMB      178             0.0000000000
     20606       178  SOPE      C38           -37.8900437552      -10.1949641984       -8.5992570050  MEMB      178             0.0000000000
     20607       178  SOPE      H8X           -38.7615797875       -9.5083615524       -8.6568975587  MEMB      178             0.0000000000
     20608       178  SOPE      H8Y           -37.0385871825       -9.6489702785       -8.1396551871  MEMB      178             0.0000000000
     20609       178  SOPE      C39           -38.2907203120      -11.3252099878       -7.6617386607  MEMB      178             0.0000000000
     20610       178  SOPE      H9X           -37.4618900525      -11.9495892623       -7.2648607177  MEMB      178             0.0000000000
     20611       178  SOPE      H9Y           -39.0256117239      -11.9829361023       -8.1732577306  MEMB      178             0.0000000000
     20612       178  SOPE      C310          -38.9566043220      -10.8031492832       -6.4155918615  MEMB      178             0.0000000000
     20613       178  SOPE      H10X          -39.4850615917       -9.8390610389       -6.5755550931  MEMB      178             0.0000000000
     20614       178  SOPE      H10Y          -38.1437914954      -10.6024652022       -5.6852609276  MEMB      178             0.0000000000
     20615       178  SOPE      C311          -39.8693725584      -11.7964945388       -5.7213998663  MEMB      178             0.0000000000
     20616       178  SOPE      H11X          -40.7130112015      -12.0797476587       -6.3865028081  MEMB      178             0.0000000000
     20617       178  SOPE      H11Y          -40.0848098145      -11.3045459018       -4.7488288584  MEMB      178             0.0000000000
     20618       178  SOPE      C312          -39.2065833736      -13.1633683404       -5.3047152025  MEMB      178             0.0000000000
     20619       178  SOPE      H12X          -38.2185058416      -12.9795445441       -4.8311830051  MEMB      178             0.0000000000
     20620       178  SOPE      H12Y          -39.0253299023      -13.7974762317       -6.1987922703  MEMB      178             0.0000000000
     20621       178  SOPE      C313          -40.0901653145      -14.0893199361       -4.4117764060  MEMB      178             0.0000000000
     20622       178  SOPE      H13X          -41.1070556081      -14.3067653328       -4.8028930274  MEMB      178             0.0000000000
     20623       178  SOPE      H13Y          -40.2326652875      -13.5717799197       -3.4390659811  MEMB      178             0.0000000000
     20624       178  SOPE      C314          -39.3317834145      -15.4053105038       -4.2035363663  MEMB      178             0.0000000000
     20625       178  SOPE      H14X          -38.2753564568      -15.2084102513       -3.9215554139  MEMB      178             0.0000000000
     20626       178  SOPE      H14Y          -39.1965310081      -15.9357667543       -5.1703059678  MEMB      178             0.0000000000
     20627       178  SOPE      C315          -40.0592662644      -16.2693885802       -3.1827985730  MEMB      178             0.0000000000
     20628       178  SOPE      H15X          -41.0532026753      -16.4672526158       -3.6380575709  MEMB      178             0.0000000000
     20629       178  SOPE      H15Y          -40.2608273124      -15.7526202086       -2.2201748124  MEMB      178             0.0000000000
     20630       178  SOPE      C316          -39.3404666882      -17.6147380631       -2.9519619008  MEMB      178             0.0000000000
     20631       178  SOPE      H16X          -39.0919610523      -17.9030840897       -3.9957170397  MEMB      178             0.0000000000
     20632       178  SOPE      H16Y          -40.0488986741      -18.3256955750       -2.4755330097  MEMB      178             0.0000000000
     20633       178  SOPE      C317          -37.9761052705      -17.6476240488       -2.2036818678  MEMB      178             0.0000000000
     20634       178  SOPE      H17X          -38.2925035645      -17.3024373994       -1.1961794221  MEMB      178             0.0000000000
     20635       178  SOPE      H17Y          -37.3525123368      -16.8619276520       -2.6813150638  MEMB      178             0.0000000000
     20636       178  SOPE      C318          -37.1640779207      -18.9589372422       -2.0814006395  MEMB      178             0.0000000000
     20637       178  SOPE      H18X          -36.1869145682      -18.7552644999       -1.5935578333  MEMB      178             0.0000000000
     20638       178  SOPE      H18Y          -37.0766461410      -19.3335821385       -3.1236654473  MEMB      178             0.0000000000
     20639       178  SOPE      H18Z          -37.7468711327      -19.6367340707       -1.4216550854  MEMB      178             0.0000000000
     20640       179  SLPC      N              24.4026528477       31.2109901303      -18.6328850692  MEMB      179             0.0000000000
     20641       179  SLPC      C13            25.4484459349       30.3228700937      -19.3697974363  MEMB      179             0.0000000000
     20642       179  SLPC      H13A           25.7924916603       30.8366614172      -20.2552639287  MEMB      179             0.0000000000
     20643       179  SLPC      H13B           26.3340804767       30.1138020934      -18.7881257642  MEMB      179             0.0000000000
     20644       179  SLPC      H13C           24.9962482457       29.3556126074      -19.5320633473  MEMB      179             0.0000000000
     20645       179  SLPC      C14            23.0581649638       30.9329839559      -19.2849601794  MEMB      179             0.0000000000
     20646       179  SLPC      H14A           23.1564214772       31.1670422464      -20.3347041218  MEMB      179             0.0000000000
     20647       179  SLPC      H14B           22.8619741240       29.8710544563      -19.2702994430  MEMB      179             0.0000000000
     20648       179  SLPC      H14C           22.2657221556       31.5256580342      -18.8523263632  MEMB      179             0.0000000000
     20649       179  SLPC      C15            24.7272140071       32.6983899611      -18.7381316882  MEMB      179             0.0000000000
     20650       179  SLPC      H15A           24.9676878370       32.9311303299      -19.7649736131  MEMB      179             0.0000000000
     20651       179  SLPC      H15B           23.9428436555       33.3511578026      -18.3844972573  MEMB      179             0.0000000000
     20652       179  SLPC      H15C           25.5586637486       32.9849176002      -18.1112398975  MEMB      179             0.0000000000
     20653       179  SLPC      C12            24.3021239138       30.7284239927      -17.1550788795  MEMB      179             0.0000000000
     20654       179  SLPC      H12A           25.3032010220       30.8698894208      -16.7752998375  MEMB      179             0.0000000000
     20655       179  SLPC      H12B           24.1537580206       29.6591956204      -17.1213379989  MEMB      179             0.0000000000
     20656       179  SLPC      C11            23.3356193296       31.2749808716      -16.0801211524  MEMB      179             0.0000000000
     20657       179  SLPC      H11A           23.5771277633       32.3302572407      -15.8303482005  MEMB      179             0.0000000000
     20658       179  SLPC      H11B           23.4295966293       30.5723394052      -15.2246772614  MEMB      179             0.0000000000
     20659       179  SLPC      P              20.9513738234       31.7608389932      -15.5328109620  MEMB      179             0.0000000000
     20660       179  SLPC      O13            19.6025460966       31.8101552783      -16.1070364904  MEMB      179             0.0000000000
     20661       179  SLPC      O14            21.1788597467       31.0101449121      -14.2507226331  MEMB      179             0.0000000000
     20662       179  SLPC      O12            21.9946345091       31.2187125919      -16.5986057388  MEMB      179             0.0000000000
     20663       179  SLPC      O11            21.4524940071       33.2415283463      -15.2498497710  MEMB      179             0.0000000000
     20664       179  SLPC      C1             20.8982185754       34.4184928226      -15.8772870117  MEMB      179             0.0000000000
     20665       179  SLPC      HA             21.3759934122       34.4893234642      -16.8778045354  MEMB      179             0.0000000000
     20666       179  SLPC      HB             19.8322799813       34.2673456175      -16.1516054363  MEMB      179             0.0000000000
     20667       179  SLPC      C2             20.9261863911       35.7060699635      -15.0246714951  MEMB      179             0.0000000000
     20668       179  SLPC      HS             20.9574606007       36.6174361237      -15.6593006986  MEMB      179             0.0000000000
     20669       179  SLPC      O21            21.9346896197       35.6135915405      -14.0501812992  MEMB      179             0.0000000000
     20670       179  SLPC      C21            23.1038000572       36.0338280516      -14.2593708178  MEMB      179             0.0000000000
     20671       179  SLPC      O22            23.3577775715       36.8881082454      -15.0875044914  MEMB      179             0.0000000000
     20672       179  SLPC      C22            24.2151853921       35.4469748292      -13.4292123587  MEMB      179             0.0000000000
     20673       179  SLPC      H2R            24.2799794091       34.3423655305      -13.5290176348  MEMB      179             0.0000000000
     20674       179  SLPC      H2S            25.1839553310       35.9832201324      -13.5200253497  MEMB      179             0.0000000000
     20675       179  SLPC      C3             19.5487074832       35.9716280718      -14.3345931205  MEMB      179             0.0000000000
     20676       179  SLPC      HX             18.6353277412       35.9098556838      -14.9640708979  MEMB      179             0.0000000000
     20677       179  SLPC      HY             19.5490332333       36.9819199324      -13.8723901928  MEMB      179             0.0000000000
     20678       179  SLPC      O31            19.2393636447       34.9111372867      -13.3819589861  MEMB      179             0.0000000000
     20679       179  SLPC      C31            19.6230914704       35.2397947785      -12.1153323597  MEMB      179             0.0000000000
     20680       179  SLPC      O32            20.1284435821       36.2933201864      -11.7811338399  MEMB      179             0.0000000000
     20681       179  SLPC      C32            19.1872177177       34.0630906654      -11.2827779623  MEMB      179             0.0000000000
     20682       179  SLPC      H2X            18.4751640483       33.4732230219      -11.8986974392  MEMB      179             0.0000000000
     20683       179  SLPC      H2Y            18.6588364838       34.4591075513      -10.3892990533  MEMB      179             0.0000000000
     20684       179  SLPC      C23            23.9193069079       35.6391358405      -11.9874924706  MEMB      179             0.0000000000
     20685       179  SLPC      H3R            23.2251376067       34.8445052627      -11.6396241542  MEMB      179             0.0000000000
     20686       179  SLPC      H3S            23.4137528199       36.6043323358      -11.7703925271  MEMB      179             0.0000000000
     20687       179  SLPC      C24            25.1628987175       35.6049231603      -11.0696730325  MEMB      179             0.0000000000
     20688       179  SLPC      H4R            24.9444450582       35.9331575623      -10.0309906484  MEMB      179             0.0000000000
     20689       179  SLPC      H4S            25.9380538638       36.3510760869      -11.3466406949  MEMB      179             0.0000000000
     20690       179  SLPC      C25            25.6898047075       34.1896846959      -10.8932169114  MEMB      179             0.0000000000
     20691       179  SLPC      H5R            26.6819255250       34.4273082138      -10.4532706943  MEMB      179             0.0000000000
     20692       179  SLPC      H5S            25.9751770132       33.7597302712      -11.8770988793  MEMB      179             0.0000000000
     20693       179  SLPC      C26            25.0668223629       33.1571561057       -9.8975509787  MEMB      179             0.0000000000
     20694       179  SLPC      H6R            25.8399602804       32.4052161302       -9.6307829205  MEMB      179             0.0000000000
     20695       179  SLPC      H6S            24.1992401946       32.6708529872      -10.3926585650  MEMB      179             0.0000000000
     20696       179  SLPC      C27            24.6564803662       33.6995697695       -8.5434063293  MEMB      179             0.0000000000
     20697       179  SLPC      H7R            24.3484541152       32.7589842302       -8.0386891878  MEMB      179             0.0000000000
     20698       179  SLPC      H7S            23.7940325010       34.3838735936       -8.6925137541  MEMB      179             0.0000000000
     20699       179  SLPC      C28            25.7486698735       34.4481949770       -7.6593909680  MEMB      179             0.0000000000
     20700       179  SLPC      H8R            25.2850971706       34.9007713127       -6.7568409324  MEMB      179             0.0000000000
     20701       179  SLPC      H8S            26.0978628776       35.2222493533       -8.3757881643  MEMB      179             0.0000000000
     20702       179  SLPC      C29            26.9597388411       33.5495114632       -7.3869341463  MEMB      179             0.0000000000
     20703       179  SLPC      H9R            27.7351893859       33.5663555818       -8.1669292083  MEMB      179             0.0000000000
     20704       179  SLPC      C210           27.1019899159       32.7022328113       -6.3124605522  MEMB      179             0.0000000000
     20705       179  SLPC      H10R           28.0528050817       32.1498141231       -6.2844643362  MEMB      179             0.0000000000
     20706       179  SLPC      C211           26.1458460976       32.4581481741       -5.1807980338  MEMB      179             0.0000000000
     20707       179  SLPC      H11R           25.7306104802       31.4398050867       -5.3385245405  MEMB      179             0.0000000000
     20708       179  SLPC      H11S           25.2616134894       33.1207438270       -5.2966451778  MEMB      179             0.0000000000
     20709       179  SLPC      C212           26.7600726721       32.5485348213       -3.7843918526  MEMB      179             0.0000000000
     20710       179  SLPC      H12R           27.2493906313       31.6057715686       -3.4984452336  MEMB      179             0.0000000000
     20711       179  SLPC      C213           26.8818954853       33.6464076621       -3.0641689753  MEMB      179             0.0000000000
     20712       179  SLPC      H13R           27.5383023392       33.5318032064       -2.1889571125  MEMB      179             0.0000000000
     20713       179  SLPC      C214           26.4503356381       35.0210023820       -3.4640090090  MEMB      179             0.0000000000
     20714       179  SLPC      H14R           26.3127361055       35.0797005015       -4.5648911475  MEMB      179             0.0000000000
     20715       179  SLPC      H14S           27.3397749839       35.6485571780       -3.2417611751  MEMB      179             0.0000000000
     20716       179  SLPC      C215           25.1820603596       35.5203695411       -2.6931497589  MEMB      179             0.0000000000
     20717       179  SLPC      H15R           24.3745216941       34.7747184556       -2.8550361894  MEMB      179             0.0000000000
     20718       179  SLPC      H15S           24.9076404264       36.5010617048       -3.1372865003  MEMB      179             0.0000000000
     20719       179  SLPC      C216           25.3303676744       35.7376733993       -1.1712126553  MEMB      179             0.0000000000
     20720       179  SLPC      H16R           26.2159538123       36.3783491209       -0.9722330946  MEMB      179             0.0000000000
     20721       179  SLPC      H16S           25.5843679519       34.7197896009       -0.8055389485  MEMB      179             0.0000000000
     20722       179  SLPC      C217           24.1061320116       36.2205904154       -0.3866429500  MEMB      179             0.0000000000
     20723       179  SLPC      H17R           24.3845641266       36.0991549379        0.6820260167  MEMB      179             0.0000000000
     20724       179  SLPC      H17S           23.2777914166       35.5054449372       -0.5783184938  MEMB      179             0.0000000000
     20725       179  SLPC      C218           23.6505514308       37.6335467680       -0.5550107124  MEMB      179             0.0000000000
     20726       179  SLPC      H18R           24.1905002439       38.5357665354       -0.1961571148  MEMB      179             0.0000000000
     20727       179  SLPC      H18S           22.7131478920       37.7956522776        0.0188496541  MEMB      179             0.0000000000
     20728       179  SLPC      H18T           23.5245781442       37.7177908473       -1.6556274647  MEMB      179             0.0000000000
     20729       179  SLPC      C33            20.4337520856       33.2146790424      -10.9477119755  MEMB      179             0.0000000000
     20730       179  SLPC      H3X            21.3511616569       33.8396244106      -10.9016252601  MEMB      179             0.0000000000
     20731       179  SLPC      H3Y            20.7301630470       32.4916354751      -11.7374393502  MEMB      179             0.0000000000
     20732       179  SLPC      C34            20.2404745320       32.5098424351       -9.6213348944  MEMB      179             0.0000000000
     20733       179  SLPC      H4X            19.3519947719       31.8620214137       -9.7802447030  MEMB      179             0.0000000000
     20734       179  SLPC      H4Y            20.0113990899       33.2386297347       -8.8146656124  MEMB      179             0.0000000000
     20735       179  SLPC      C35            21.4723408079       31.6896887617       -9.2592843239  MEMB      179             0.0000000000
     20736       179  SLPC      H5X            22.3619081588       32.2897462414       -8.9713222461  MEMB      179             0.0000000000
     20737       179  SLPC      H5Y            21.8657840509       31.1405341039      -10.1413002659  MEMB      179             0.0000000000
     20738       179  SLPC      C36            21.1613793521       30.8254630777       -8.0207211390  MEMB      179             0.0000000000
     20739       179  SLPC      H6X            20.2485402241       30.2204177639       -8.2077149337  MEMB      179             0.0000000000
     20740       179  SLPC      H6Y            21.0201212839       31.5132390020       -7.1597159875  MEMB      179             0.0000000000
     20741       179  SLPC      C37            22.3450825734       29.9028299008       -7.6564176542  MEMB      179             0.0000000000
     20742       179  SLPC      H7X            23.3004568526       30.4453831578       -7.4914411194  MEMB      179             0.0000000000
     20743       179  SLPC      H7Y            22.5595464767       29.2347205681       -8.5177860290  MEMB      179             0.0000000000
     20744       179  SLPC      C38            22.0928774155       29.0011310262       -6.4205514104  MEMB      179             0.0000000000
     20745       179  SLPC      H8X            22.6717644931       28.0640619644       -6.5658525397  MEMB      179             0.0000000000
     20746       179  SLPC      H8Y            21.0145241648       28.8154811098       -6.2281725296  MEMB      179             0.0000000000
     20747       179  SLPC      C39            22.7592797820       29.3580438148       -5.0731624690  MEMB      179             0.0000000000
     20748       179  SLPC      H9X            23.8527879526       29.3089653994       -5.2633001343  MEMB      179             0.0000000000
     20749       179  SLPC      H9Y            22.4266595916       28.6729801176       -4.2642290896  MEMB      179             0.0000000000
     20750       179  SLPC      C310           22.3965777016       30.7581679323       -4.5143634557  MEMB      179             0.0000000000
     20751       179  SLPC      H10X           21.3042655349       30.9270670300       -4.4018993301  MEMB      179             0.0000000000
     20752       179  SLPC      H10Y           22.7360446388       31.4447085034       -5.3191893578  MEMB      179             0.0000000000
     20753       179  SLPC      C311           23.0456787610       31.0780542617       -3.1578690297  MEMB      179             0.0000000000
     20754       179  SLPC      H11X           22.9311264898       32.1829133866       -3.1358541931  MEMB      179             0.0000000000
     20755       179  SLPC      H11Y           24.0974104663       30.7235181123       -3.1080138121  MEMB      179             0.0000000000
     20756       179  SLPC      C312           22.4759809331       30.3575559402       -1.8517956557  MEMB      179             0.0000000000
     20757       179  SLPC      H12X           22.8693825126       29.3221770778       -1.7649218095  MEMB      179             0.0000000000
     20758       179  SLPC      H12Y           21.3951050036       30.2823471981       -2.0975022574  MEMB      179             0.0000000000
     20759       179  SLPC      C313           22.6518342566       31.1095565440       -0.5050857999  MEMB      179             0.0000000000
     20760       179  SLPC      H13X           23.5154245864       31.8083257025       -0.4891402204  MEMB      179             0.0000000000
     20761       179  SLPC      H13Y           22.8237822627       30.2870755838        0.2217413767  MEMB      179             0.0000000000
     20762       179  SLPC      C314           21.3650730982       31.8923549158       -0.1175454423  MEMB      179             0.0000000000
     20763       179  SLPC      H14X           20.5836545571       31.1034929856       -0.0800880001  MEMB      179             0.0000000000
     20764       179  SLPC      H14Y           21.1159074879       32.5891693113       -0.9462125805  MEMB      179             0.0000000000
     20765       179  SLPC      C315           21.3211405581       32.6561223236        1.1937114269  MEMB      179             0.0000000000
     20766       179  SLPC      H15X           22.1492575827       33.3967551980        1.1962765132  MEMB      179             0.0000000000
     20767       179  SLPC      H15Y           21.5230200487       32.0337322273        2.0915962267  MEMB      179             0.0000000000
     20768       179  SLPC      C316           19.9962393007       33.5678044022        1.3409749686  MEMB      179             0.0000000000
     20769       179  SLPC      H16X           20.0422300306       34.4322347137        0.6445793759  MEMB      179             0.0000000000
     20770       179  SLPC      H16Y           20.0704755071       34.0128750136        2.3562194700  MEMB      179             0.0000000000
     20771       179  SLPC      C317           18.7028638234       32.8395866525        1.1173310823  MEMB      179             0.0000000000
     20772       179  SLPC      H17X           18.6265378560       32.3290715139        0.1335268610  MEMB      179             0.0000000000
     20773       179  SLPC      H17Y           17.9478954126       33.6544840314        1.1342434990  MEMB      179             0.0000000000
     20774       179  SLPC      C318           18.4040982112       32.0092305576        2.2917109267  MEMB      179             0.0000000000
     20775       179  SLPC      H18X           19.3171823241       31.4581010890        2.6029267394  MEMB      179             0.0000000000
     20776       179  SLPC      H18Y           17.6374075801       31.2311848963        2.0888522699  MEMB      179             0.0000000000
     20777       179  SLPC      H18Z           18.1858900012       32.7027740669        3.1317724020  MEMB      179             0.0000000000
     20778       180  CHL1      C3            -28.7575296687       25.9818828431      -17.3204800000  MEMB      180             0.0000000000
     20779       180  CHL1      H3            -27.9658661534       25.2034940588      -17.2792100000  MEMB      180             0.0000000000
     20780       180  CHL1      O3            -28.9183119313       26.3794087569      -18.6795200000  MEMB      180             0.0000000000
     20781       180  CHL1      H3'           -29.6881490019       26.9529368219      -18.6761300000  MEMB      180             0.0000000000
     20782       180  CHL1      C4            -30.1444081512       25.3853607594      -16.8130000000  MEMB      180             0.0000000000
     20783       180  CHL1      H4A           -30.9329692462       26.1675093295      -16.8401400000  MEMB      180             0.0000000000
     20784       180  CHL1      H4B           -30.5594637878       24.5977581626      -17.4776400000  MEMB      180             0.0000000000
     20785       180  CHL1      C5            -30.0401628712       24.9889900924      -15.3234300000  MEMB      180             0.0000000000
     20786       180  CHL1      C6            -30.4288304829       23.8117605973      -14.8596900000  MEMB      180             0.0000000000
     20787       180  CHL1      H6            -30.8252341012       22.9921980143      -15.4770800000  MEMB      180             0.0000000000
     20788       180  CHL1      C7            -30.4624777133       23.4145490094      -13.4172900000  MEMB      180             0.0000000000
     20789       180  CHL1      H7A           -31.3138908891       22.7516893646      -13.1527000000  MEMB      180             0.0000000000
     20790       180  CHL1      H7B           -29.5647169881       22.8233792108      -13.1364600000  MEMB      180             0.0000000000
     20791       180  CHL1      C8            -30.4023903332       24.6546881447      -12.5054800000  MEMB      180             0.0000000000
     20792       180  CHL1      H8            -31.4193225432       25.1020820172      -12.5028700000  MEMB      180             0.0000000000
     20793       180  CHL1      C14           -29.9840257783       24.2089708618      -11.1210700000  MEMB      180             0.0000000000
     20794       180  CHL1      H14           -29.0698088052       23.6127433557      -11.3284900000  MEMB      180             0.0000000000
     20795       180  CHL1      C15           -30.9276895125       23.1877451547      -10.3926500000  MEMB      180             0.0000000000
     20796       180  CHL1      H15A          -31.9938968874       23.4215962103      -10.5996400000  MEMB      180             0.0000000000
     20797       180  CHL1      H15B          -30.6278378611       22.1708970853      -10.7249600000  MEMB      180             0.0000000000
     20798       180  CHL1      C16           -30.4498969533       23.2481773718       -8.8960000000  MEMB      180             0.0000000000
     20799       180  CHL1      H16A          -31.3224288513       23.2293902463       -8.2085000000  MEMB      180             0.0000000000
     20800       180  CHL1      H16B          -29.7832421136       22.3810003483       -8.7013700000  MEMB      180             0.0000000000
     20801       180  CHL1      C17           -29.5640663274       24.5562950965       -8.8091800000  MEMB      180             0.0000000000
     20802       180  CHL1      H17           -28.4905085854       24.3160632177       -8.6540200000  MEMB      180             0.0000000000
     20803       180  CHL1      C13           -29.7806502804       25.3167766415      -10.1320100000  MEMB      180             0.0000000000
     20804       180  CHL1      C18           -31.1319397041       26.1796086304      -10.0450800000  MEMB      180             0.0000000000
     20805       180  CHL1      H18A          -31.3303525420       26.6781902927      -11.0178900000  MEMB      180             0.0000000000
     20806       180  CHL1      H18B          -32.0329826103       25.5997990330       -9.7513600000  MEMB      180             0.0000000000
     20807       180  CHL1      H18C          -31.1022047318       26.8632142187       -9.1697900000  MEMB      180             0.0000000000
     20808       180  CHL1      C12           -28.6123149063       26.1138858131      -10.5858100000  MEMB      180             0.0000000000
     20809       180  CHL1      H12A          -28.3215930137       26.9162694720       -9.8744900000  MEMB      180             0.0000000000
     20810       180  CHL1      H12B          -27.6942082649       25.4912116705      -10.5252800000  MEMB      180             0.0000000000
     20811       180  CHL1      C11           -28.7993079250       26.6543404527      -12.0096300000  MEMB      180             0.0000000000
     20812       180  CHL1      H11A          -29.5399253899       27.4824715665      -12.0113200000  MEMB      180             0.0000000000
     20813       180  CHL1      H11B          -27.8723009977       27.0811848149      -12.4487000000  MEMB      180             0.0000000000
     20814       180  CHL1      C9            -29.3481402853       25.6206260945      -13.0394400000  MEMB      180             0.0000000000
     20815       180  CHL1      H9            -28.4321111168       25.0015688852      -13.1489200000  MEMB      180             0.0000000000
     20816       180  CHL1      C10           -29.5616596055       26.1085503559      -14.4176600000  MEMB      180             0.0000000000
     20817       180  CHL1      C19           -30.7293862710       27.2485209539      -14.3832600000  MEMB      180             0.0000000000
     20818       180  CHL1      H19A          -31.7261844107       26.9470501922      -13.9961600000  MEMB      180             0.0000000000
     20819       180  CHL1      H19B          -30.3741463230       28.1542060795      -13.8467500000  MEMB      180             0.0000000000
     20820       180  CHL1      H19C          -31.0129343521       27.4890990562      -15.4301800000  MEMB      180             0.0000000000
     20821       180  CHL1      C1            -28.2957156198       26.7079661505      -14.9923100000  MEMB      180             0.0000000000
     20822       180  CHL1      H1A           -28.1189201033       27.6417550370      -14.4168900000  MEMB      180             0.0000000000
     20823       180  CHL1      H1B           -27.4715879275       25.9666942102      -14.9171200000  MEMB      180             0.0000000000
     20824       180  CHL1      C2            -28.2881945346       27.2012204947      -16.4774100000  MEMB      180             0.0000000000
     20825       180  CHL1      H2A           -27.2546216580       27.4032914188      -16.8312800000  MEMB      180             0.0000000000
     20826       180  CHL1      H2B           -29.0685168383       27.9763579223      -16.6341800000  MEMB      180             0.0000000000
     20827       180  CHL1      C20           -29.8412232330       25.2125902661       -7.4132800000  MEMB      180             0.0000000000
     20828       180  CHL1      H20           -30.9375121363       25.3927628750       -7.4178200000  MEMB      180             0.0000000000
     20829       180  CHL1      C21           -28.9634147075       26.5470752186       -7.2990300000  MEMB      180             0.0000000000
     20830       180  CHL1      H21A          -27.9027935993       26.2869205487       -7.5032800000  MEMB      180             0.0000000000
     20831       180  CHL1      H21B          -29.0528198562       26.9612055085       -6.2719800000  MEMB      180             0.0000000000
     20832       180  CHL1      H21C          -29.4693151462       27.2933769995       -7.9482000000  MEMB      180             0.0000000000
     20833       180  CHL1      C22           -29.4250709330       24.3561263406       -6.2765700000  MEMB      180             0.0000000000
     20834       180  CHL1      H22A          -29.4755307772       23.2798191590       -6.5473700000  MEMB      180             0.0000000000
     20835       180  CHL1      H22B          -28.3522481340       24.4982171564       -6.0252400000  MEMB      180             0.0000000000
     20836       180  CHL1      C23           -30.2294645723       24.5701059881       -4.9971500000  MEMB      180             0.0000000000
     20837       180  CHL1      H23A          -30.1528817165       25.6674327027       -4.8411800000  MEMB      180             0.0000000000
     20838       180  CHL1      H23B          -31.3025807879       24.3051055881       -5.1091000000  MEMB      180             0.0000000000
     20839       180  CHL1      C24           -29.7016486509       23.7975823305       -3.8069300000  MEMB      180             0.0000000000
     20840       180  CHL1      H24A          -29.8253649006       22.7007032467       -3.9329500000  MEMB      180             0.0000000000
     20841       180  CHL1      H24B          -28.6335006999       24.0706349567       -3.6697100000  MEMB      180             0.0000000000
     20842       180  CHL1      C25           -30.3856599280       24.2590840161       -2.4898000000  MEMB      180             0.0000000000
     20843       180  CHL1      H25           -31.4644853090       24.0073509229       -2.5740100000  MEMB      180             0.0000000000
     20844       180  CHL1      C26           -29.7707531361       23.5745420269       -1.3028300000  MEMB      180             0.0000000000
     20845       180  CHL1      H26A          -30.0575446382       22.5036952954       -1.2296200000  MEMB      180             0.0000000000
     20846       180  CHL1      H26B          -28.6627196222       23.6181890046       -1.3712800000  MEMB      180             0.0000000000
     20847       180  CHL1      H26C          -30.0163028886       23.8267560359       -0.2490700000  MEMB      180             0.0000000000
     20848       180  CHL1      C27           -30.4815124268       25.7520918820       -2.0914700000  MEMB      180             0.0000000000
     20849       180  CHL1      H27A          -30.8754650955       26.4552982202       -2.8560700000  MEMB      180             0.0000000000
     20850       180  CHL1      H27B          -31.1817350234       25.8865694046       -1.2394600000  MEMB      180             0.0000000000
     20851       180  CHL1      H27C          -29.4861586792       26.1833868011       -1.8515200000  MEMB      180             0.0000000000
     20852       181  SAPE      N             -26.2183708225      -31.0236076792      -18.7686537156  MEMB      181             0.0000000000
     20853       181  SAPE      HN1           -27.0075382508      -31.0132938470      -18.0913737180  MEMB      181             0.0000000000
     20854       181  SAPE      HN2           -26.4756085736      -31.1960884130      -19.7614674751  MEMB      181             0.0000000000
     20855       181  SAPE      HN3           -25.5744699107      -31.7776896825      -18.4550428851  MEMB      181             0.0000000000
     20856       181  SAPE      C12           -25.4415957092      -29.7544726069      -18.7182143264  MEMB      181             0.0000000000
     20857       181  SAPE      H12A          -24.3625342256      -29.9691581264      -18.8726723819  MEMB      181             0.0000000000
     20858       181  SAPE      H12B          -25.4659377674      -29.5039936334      -17.6360919432  MEMB      181             0.0000000000
     20859       181  SAPE      C11           -25.9410453425      -28.7557011855      -19.7491650349  MEMB      181             0.0000000000
     20860       181  SAPE      H11A          -25.7885991983      -29.4633952265      -20.5919285340  MEMB      181             0.0000000000
     20861       181  SAPE      H11B          -25.4074004739      -27.7857731163      -19.8428860285  MEMB      181             0.0000000000
     20862       181  SAPE      P             -28.1035641280      -27.6130390827      -20.5976553560  MEMB      181             0.0000000000
     20863       181  SAPE      O13           -27.1227764665      -26.7068237501      -21.2977527901  MEMB      181             0.0000000000
     20864       181  SAPE      O14           -28.8619220185      -28.4624398427      -21.5202751757  MEMB      181             0.0000000000
     20865       181  SAPE      O12           -27.2945159934      -28.4925132681      -19.5204913980  MEMB      181             0.0000000000
     20866       181  SAPE      O11           -29.1903535415      -26.8418290147      -19.8277922020  MEMB      181             0.0000000000
     20867       181  SAPE      C1            -29.8735306186      -27.3888905554      -18.6654712349  MEMB      181             0.0000000000
     20868       181  SAPE      HA            -30.9372245502      -27.1375192137      -18.8646914468  MEMB      181             0.0000000000
     20869       181  SAPE      HB            -29.8953054307      -28.4916556662      -18.5322198970  MEMB      181             0.0000000000
     20870       181  SAPE      C2            -29.2634190767      -26.6822889793      -17.4403598859  MEMB      181             0.0000000000
     20871       181  SAPE      HS            -29.2819429570      -25.5981338640      -17.6824040719  MEMB      181             0.0000000000
     20872       181  SAPE      O21           -27.9839759438      -27.0723745361      -17.1170350646  MEMB      181             0.0000000000
     20873       181  SAPE      C21           -27.2517748228      -26.2572334633      -16.2897812948  MEMB      181             0.0000000000
     20874       181  SAPE      O22           -27.5483280477      -25.0828277423      -16.1155080309  MEMB      181             0.0000000000
     20875       181  SAPE      C22           -25.9272863889      -27.0208626501      -15.9786899011  MEMB      181             0.0000000000
     20876       181  SAPE      H2R           -26.1353247321      -28.1026379350      -16.1229237196  MEMB      181             0.0000000000
     20877       181  SAPE      H2S           -25.1668986044      -26.6958617869      -16.7206507537  MEMB      181             0.0000000000
     20878       181  SAPE      C3            -30.1341511646      -26.9679723548      -16.1292667595  MEMB      181             0.0000000000
     20879       181  SAPE      HX            -31.2133077931      -26.8302435228      -16.3545943104  MEMB      181             0.0000000000
     20880       181  SAPE      HY            -29.8381283204      -26.3098490593      -15.2845389975  MEMB      181             0.0000000000
     20881       181  SAPE      O31           -29.9599575547      -28.2944894448      -15.6478686571  MEMB      181             0.0000000000
     20882       181  SAPE      C31           -31.0257495726      -29.0078999215      -15.1879985693  MEMB      181             0.0000000000
     20883       181  SAPE      O32           -32.1264568220      -28.5363563922      -15.0498090438  MEMB      181             0.0000000000
     20884       181  SAPE      C32           -30.6003212334      -30.4112732767      -14.8140288609  MEMB      181             0.0000000000
     20885       181  SAPE      H2X           -29.5151294483      -30.5414640416      -15.0133532011  MEMB      181             0.0000000000
     20886       181  SAPE      H2Y           -31.2507287406      -31.1602642615      -15.3143323146  MEMB      181             0.0000000000
     20887       181  SAPE      C23           -25.4064913370      -26.7764302326      -14.6062953523  MEMB      181             0.0000000000
     20888       181  SAPE      H3R           -25.2490710346      -25.6795596018      -14.5262023042  MEMB      181             0.0000000000
     20889       181  SAPE      H3S           -24.3859826873      -27.2154648586      -14.5948308676  MEMB      181             0.0000000000
     20890       181  SAPE      C24           -26.1485395575      -27.5641236998      -13.4873814305  MEMB      181             0.0000000000
     20891       181  SAPE      H4R           -25.3662042402      -27.9505524843      -12.7996712561  MEMB      181             0.0000000000
     20892       181  SAPE      H4S           -26.6577116460      -28.4729362595      -13.8735480506  MEMB      181             0.0000000000
     20893       181  SAPE      C25           -27.2769591936      -26.8570830136      -12.7070340784  MEMB      181             0.0000000000
     20894       181  SAPE      H5R           -28.2878296541      -27.0899644591      -13.0729674845  MEMB      181             0.0000000000
     20895       181  SAPE      C26           -27.0837066482      -25.9992686371      -11.6235321403  MEMB      181             0.0000000000
     20896       181  SAPE      H6R           -28.0451222002      -25.5305035400      -11.3667452907  MEMB      181             0.0000000000
     20897       181  SAPE      C27           -25.8355293269      -25.5732437492      -10.9578390274  MEMB      181             0.0000000000
     20898       181  SAPE      H7R           -26.2015727469      -24.5656877490      -10.6660091358  MEMB      181             0.0000000000
     20899       181  SAPE      H7S           -24.9920539590      -25.4146280664      -11.6633248920  MEMB      181             0.0000000000
     20900       181  SAPE      C28           -25.3901254342      -26.3136407105       -9.6997669432  MEMB      181             0.0000000000
     20901       181  SAPE      H8R           -24.4921508067      -26.9073293969       -9.9259869344  MEMB      181             0.0000000000
     20902       181  SAPE      C29           -26.0397611171      -26.5554292216       -8.5584922669  MEMB      181             0.0000000000
     20903       181  SAPE      H9R           -25.5663246240      -27.1973130914       -7.8009678118  MEMB      181             0.0000000000
     20904       181  SAPE      C210          -27.4139053324      -26.1116070270       -8.1712156481  MEMB      181             0.0000000000
     20905       181  SAPE      H10R          -28.1234041216      -26.7550939910       -8.7341171744  MEMB      181             0.0000000000
     20906       181  SAPE      H10S          -27.5564542801      -25.0742735219       -8.5426187824  MEMB      181             0.0000000000
     20907       181  SAPE      C211          -27.7379098477      -26.2251628257       -6.6500430028  MEMB      181             0.0000000000
     20908       181  SAPE      H11R          -26.9090334411      -26.1773698966       -5.9284617697  MEMB      181             0.0000000000
     20909       181  SAPE      C212          -28.9878450676      -26.1598948771       -6.1007655781  MEMB      181             0.0000000000
     20910       181  SAPE      H12R          -29.1142623069      -26.2369408783       -5.0107738343  MEMB      181             0.0000000000
     20911       181  SAPE      C213          -30.1947636715      -26.0787765592       -6.9625011042  MEMB      181             0.0000000000
     20912       181  SAPE      H13R          -30.2961784906      -27.0549318387       -7.4832280472  MEMB      181             0.0000000000
     20913       181  SAPE      H13S          -30.1583715215      -25.2545081869       -7.7065293574  MEMB      181             0.0000000000
     20914       181  SAPE      C214          -31.4372037476      -26.0092033148       -6.0388909969  MEMB      181             0.0000000000
     20915       181  SAPE      H14R          -31.7782143696      -24.9701790012       -5.9199781246  MEMB      181             0.0000000000
     20916       181  SAPE      C215          -32.0269272880      -27.1549495000       -5.5134627373  MEMB      181             0.0000000000
     20917       181  SAPE      H15R          -32.9172778749      -27.0824055595       -4.8715799135  MEMB      181             0.0000000000
     20918       181  SAPE      C216          -31.5762097369      -28.5959824456       -5.7092918217  MEMB      181             0.0000000000
     20919       181  SAPE      H16R          -30.5831384903      -28.5506036447       -6.2053482800  MEMB      181             0.0000000000
     20920       181  SAPE      H16S          -32.2296159443      -29.3449190200       -6.2057550466  MEMB      181             0.0000000000
     20921       181  SAPE      C217          -31.1871086411      -29.3413412868       -4.3840772616  MEMB      181             0.0000000000
     20922       181  SAPE      H17R          -30.1512933602      -29.7254289361       -4.5019087539  MEMB      181             0.0000000000
     20923       181  SAPE      H17S          -31.7799835977      -30.2806458339       -4.3611121465  MEMB      181             0.0000000000
     20924       181  SAPE      C218          -31.4827127735      -28.6725911256       -3.0579654033  MEMB      181             0.0000000000
     20925       181  SAPE      H18R          -32.5667087641      -28.4342245063       -3.1075122459  MEMB      181             0.0000000000
     20926       181  SAPE      H18S          -30.7794003474      -27.8436795903       -2.8286649810  MEMB      181             0.0000000000
     20927       181  SAPE      C219          -31.4021529419      -29.6215979510       -1.8343180607  MEMB      181             0.0000000000
     20928       181  SAPE      H19R          -32.2787343546      -30.3039122113       -1.8536289725  MEMB      181             0.0000000000
     20929       181  SAPE      H19S          -31.5989380583      -29.0037542998       -0.9321711178  MEMB      181             0.0000000000
     20930       181  SAPE      C220          -30.0923474168      -30.3973789122       -1.7306389691  MEMB      181             0.0000000000
     20931       181  SAPE      H20R          -29.9084262376      -31.0394977328       -2.6184334882  MEMB      181             0.0000000000
     20932       181  SAPE      H20S          -30.2430819961      -31.1011978831       -0.8843309916  MEMB      181             0.0000000000
     20933       181  SAPE      H20T          -29.3658885613      -29.5626369120       -1.8295546790  MEMB      181             0.0000000000
     20934       181  SAPE      C33           -30.9200610262      -30.5986312113      -13.2724540922  MEMB      181             0.0000000000
     20935       181  SAPE      H3X           -31.0703057142      -31.6754811737      -13.0441080559  MEMB      181             0.0000000000
     20936       181  SAPE      H3Y           -31.8717910084      -30.1569513311      -12.9071462536  MEMB      181             0.0000000000
     20937       181  SAPE      C34           -29.7957267450      -30.1376912336      -12.3283149180  MEMB      181             0.0000000000
     20938       181  SAPE      H4X           -29.6650320769      -29.0465287165      -12.4914235683  MEMB      181             0.0000000000
     20939       181  SAPE      H4Y           -28.7868627154      -30.5078970376      -12.6102052034  MEMB      181             0.0000000000
     20940       181  SAPE      C35           -30.0186745023      -30.4122964397      -10.8107987424  MEMB      181             0.0000000000
     20941       181  SAPE      H5X           -29.7205667400      -31.4694273818      -10.6436858591  MEMB      181             0.0000000000
     20942       181  SAPE      H5Y           -31.0895150208      -30.1925284845      -10.6124966080  MEMB      181             0.0000000000
     20943       181  SAPE      C36           -29.2681150747      -29.4160751197       -9.9263022356  MEMB      181             0.0000000000
     20944       181  SAPE      H6X           -29.2684000709      -29.4768166496       -8.8169642685  MEMB      181             0.0000000000
     20945       181  SAPE      H6Y           -29.6772737233      -28.4405849703      -10.2659035370  MEMB      181             0.0000000000
     20946       181  SAPE      C37           -27.7379179679      -29.5330306097      -10.0531101766  MEMB      181             0.0000000000
     20947       181  SAPE      H7X           -27.3041421407      -28.7513388919       -9.3934755418  MEMB      181             0.0000000000
     20948       181  SAPE      H7Y           -27.4189702656      -29.2586189902      -11.0813565486  MEMB      181             0.0000000000
     20949       181  SAPE      C38           -27.1548004279      -30.8322182716       -9.7965567799  MEMB      181             0.0000000000
     20950       181  SAPE      H8X           -26.1195637209      -30.9890483913      -10.1680539347  MEMB      181             0.0000000000
     20951       181  SAPE      H8Y           -27.6262705978      -31.6926462728      -10.3178056868  MEMB      181             0.0000000000
     20952       181  SAPE      C39           -27.1440126400      -31.1920880811       -8.2936951167  MEMB      181             0.0000000000
     20953       181  SAPE      H9X           -26.7780218393      -32.2334149513       -8.1671625986  MEMB      181             0.0000000000
     20954       181  SAPE      H9Y           -28.1991748701      -31.2457503839       -7.9500761594  MEMB      181             0.0000000000
     20955       181  SAPE      C310          -26.2125080578      -30.3480408307       -7.4365534947  MEMB      181             0.0000000000
     20956       181  SAPE      H10X          -26.2866994747      -29.2784599504       -7.7277813329  MEMB      181             0.0000000000
     20957       181  SAPE      H10Y          -25.1802435191      -30.7289935288       -7.5902607890  MEMB      181             0.0000000000
     20958       181  SAPE      C311          -26.4933208218      -30.5400315424       -5.9475158576  MEMB      181             0.0000000000
     20959       181  SAPE      H11X          -26.1889747826      -31.5641125541       -5.6426341536  MEMB      181             0.0000000000
     20960       181  SAPE      H11Y          -27.5698662675      -30.3517187217       -5.7477427473  MEMB      181             0.0000000000
     20961       181  SAPE      C312          -25.7285901477      -29.5411612146       -5.0432824902  MEMB      181             0.0000000000
     20962       181  SAPE      H12X          -26.0919640986      -28.5323358677       -5.3340600623  MEMB      181             0.0000000000
     20963       181  SAPE      H12Y          -24.6627722762      -29.5980892546       -5.3516854568  MEMB      181             0.0000000000
     20964       181  SAPE      C313          -26.0046227100      -29.7492491871       -3.5458006955  MEMB      181             0.0000000000
     20965       181  SAPE      H13X          -25.7055800974      -30.7940736081       -3.3150696576  MEMB      181             0.0000000000
     20966       181  SAPE      H13Y          -27.0972589226      -29.7130118280       -3.3479258902  MEMB      181             0.0000000000
     20967       181  SAPE      C314          -25.1107691066      -28.8377723029       -2.6427255104  MEMB      181             0.0000000000
     20968       181  SAPE      H14X          -24.0473339569      -28.8008782751       -2.9622036148  MEMB      181             0.0000000000
     20969       181  SAPE      H14Y          -25.3035177149      -29.2237793510       -1.6189264852  MEMB      181             0.0000000000
     20970       181  SAPE      C315          -25.6910254970      -27.4160610570       -2.7336654972  MEMB      181             0.0000000000
     20971       181  SAPE      H15X          -25.7534709008      -27.1205022169       -1.6645222583  MEMB      181             0.0000000000
     20972       181  SAPE      H15Y          -26.7619455970      -27.3188404492       -3.0129493345  MEMB      181             0.0000000000
     20973       181  SAPE      C316          -24.6333751442      -26.3664565160       -3.2959853537  MEMB      181             0.0000000000
     20974       181  SAPE      H16X          -24.6775763069      -26.5535741675       -4.3902218450  MEMB      181             0.0000000000
     20975       181  SAPE      H16Y          -23.6035221499      -26.5614038736       -2.9275839661  MEMB      181             0.0000000000
     20976       181  SAPE      C317          -24.8244402074      -24.8824295076       -2.9826950410  MEMB      181             0.0000000000
     20977       181  SAPE      H17X          -25.7860595231      -24.4660425884       -3.3517908704  MEMB      181             0.0000000000
     20978       181  SAPE      H17Y          -24.0219660303      -24.3457103339       -3.5325042389  MEMB      181             0.0000000000
     20979       181  SAPE      C318          -24.6382467483      -24.5498987320       -1.4659050853  MEMB      181             0.0000000000
     20980       181  SAPE      H18X          -24.8533557517      -23.4976936472       -1.1814520279  MEMB      181             0.0000000000
     20981       181  SAPE      H18Y          -23.6473083286      -24.8497953758       -1.0628863529  MEMB      181             0.0000000000
     20982       181  SAPE      H18Z          -25.3317923531      -25.2631574819       -0.9713559324  MEMB      181             0.0000000000
     20983       182  SAPE      N              18.0087859495      -36.2329355370      -20.4138198665  MEMB      182             0.0000000000
     20984       182  SAPE      HN1            17.4227092723      -35.3743199354      -20.4437097429  MEMB      182             0.0000000000
     20985       182  SAPE      HN2            18.6813586393      -36.0286172997      -21.1803054082  MEMB      182             0.0000000000
     20986       182  SAPE      HN3            17.4417636360      -37.0828874731      -20.6079003021  MEMB      182             0.0000000000
     20987       182  SAPE      C12            18.7083312586      -36.1944039735      -19.1267455810  MEMB      182             0.0000000000
     20988       182  SAPE      H12A           19.3538213614      -37.0899305122      -19.2520280754  MEMB      182             0.0000000000
     20989       182  SAPE      H12B           17.9732438760      -36.4253713220      -18.3263572091  MEMB      182             0.0000000000
     20990       182  SAPE      C11            19.4882466088      -34.9376720355      -19.0009668731  MEMB      182             0.0000000000
     20991       182  SAPE      H11A           20.1448793124      -35.0065350201      -18.1074275303  MEMB      182             0.0000000000
     20992       182  SAPE      H11B           18.9152836101      -34.0279305223      -18.7209583647  MEMB      182             0.0000000000
     20993       182  SAPE      P              21.4681933551      -33.6384751928      -20.3477141726  MEMB      182             0.0000000000
     20994       182  SAPE      O13            22.1933939334      -34.0021036348      -21.6312969093  MEMB      182             0.0000000000
     20995       182  SAPE      O14            20.7219743247      -32.3681375166      -20.1467770071  MEMB      182             0.0000000000
     20996       182  SAPE      O12            20.2900560997      -34.6990038914      -20.1887655908  MEMB      182             0.0000000000
     20997       182  SAPE      O11            22.4130191370      -34.0503329556      -19.1439140216  MEMB      182             0.0000000000
     20998       182  SAPE      C1             23.1945143609      -35.2613974464      -19.4033756807  MEMB      182             0.0000000000
     20999       182  SAPE      HA             22.6366089518      -36.1599920038      -19.7433616237  MEMB      182             0.0000000000
     21000       182  SAPE      HB             23.9759069104      -35.0556218591      -20.1658736987  MEMB      182             0.0000000000
     21001       182  SAPE      C2             23.9789701298      -35.6652990087      -18.1615156188  MEMB      182             0.0000000000
     21002       182  SAPE      HS             24.4561654104      -36.6499677339      -18.3539561191  MEMB      182             0.0000000000
     21003       182  SAPE      O21            23.1884063538      -35.6629729519      -17.0516162114  MEMB      182             0.0000000000
     21004       182  SAPE      C21            22.3502038959      -36.6944618041      -16.9493449813  MEMB      182             0.0000000000
     21005       182  SAPE      O22            22.4227482319      -37.6268879996      -17.6865323849  MEMB      182             0.0000000000
     21006       182  SAPE      C22            21.4196247240      -36.5724233561      -15.7404313559  MEMB      182             0.0000000000
     21007       182  SAPE      H2R            20.6822694456      -35.7651766882      -15.9378675034  MEMB      182             0.0000000000
     21008       182  SAPE      H2S            20.7810776873      -37.4706770782      -15.6000071533  MEMB      182             0.0000000000
     21009       182  SAPE      C3             25.1564698843      -34.7192513843      -17.9982472712  MEMB      182             0.0000000000
     21010       182  SAPE      HX             24.7691998746      -33.6789895404      -18.0451292786  MEMB      182             0.0000000000
     21011       182  SAPE      HY             25.8058799269      -34.9121615836      -18.8788002211  MEMB      182             0.0000000000
     21012       182  SAPE      O31            26.0445667019      -35.0277170331      -16.9561426156  MEMB      182             0.0000000000
     21013       182  SAPE      C31            25.7797255244      -34.4465625140      -15.7896033825  MEMB      182             0.0000000000
     21014       182  SAPE      O32            24.8244198113      -33.7461210217      -15.4893877316  MEMB      182             0.0000000000
     21015       182  SAPE      C32            26.7547275028      -35.0460740969      -14.7944668869  MEMB      182             0.0000000000
     21016       182  SAPE      H2X            27.7314832671      -34.5249812088      -14.8879058976  MEMB      182             0.0000000000
     21017       182  SAPE      H2Y            26.7900866532      -36.1439325873      -14.9611347887  MEMB      182             0.0000000000
     21018       182  SAPE      C23            22.1841288067      -36.1881415857      -14.4265370508  MEMB      182             0.0000000000
     21019       182  SAPE      H3R            22.7359273868      -35.2368201336      -14.5841018585  MEMB      182             0.0000000000
     21020       182  SAPE      H3S            23.0314264201      -36.8873934422      -14.2608418843  MEMB      182             0.0000000000
     21021       182  SAPE      C24            21.2689740385      -35.9195323353      -13.1885177156  MEMB      182             0.0000000000
     21022       182  SAPE      H4R            21.8921280989      -35.9965771136      -12.2719673976  MEMB      182             0.0000000000
     21023       182  SAPE      H4S            20.6174070570      -36.8073469779      -13.0416619061  MEMB      182             0.0000000000
     21024       182  SAPE      C25            20.4816875539      -34.6274159619      -13.2608902911  MEMB      182             0.0000000000
     21025       182  SAPE      H5R            19.4518691938      -34.8851288483      -13.5490879230  MEMB      182             0.0000000000
     21026       182  SAPE      C26            20.8958229539      -33.3883378391      -13.0563489909  MEMB      182             0.0000000000
     21027       182  SAPE      H6R            20.1749123895      -32.5874702439      -13.2774802200  MEMB      182             0.0000000000
     21028       182  SAPE      C27            22.2844768385      -32.9499058359      -12.5885145409  MEMB      182             0.0000000000
     21029       182  SAPE      H7R            22.9121236512      -32.5926470862      -13.4327575356  MEMB      182             0.0000000000
     21030       182  SAPE      H7S            22.8572586508      -33.7183848680      -12.0266579947  MEMB      182             0.0000000000
     21031       182  SAPE      C28            22.2948924686      -31.6864562791      -11.6956442243  MEMB      182             0.0000000000
     21032       182  SAPE      H8R            21.5634326501      -30.9241553670      -12.0020154643  MEMB      182             0.0000000000
     21033       182  SAPE      C29            23.1319211474      -31.3508861798      -10.7378586634  MEMB      182             0.0000000000
     21034       182  SAPE      H9R            22.9279296634      -30.4028842519      -10.2185512623  MEMB      182             0.0000000000
     21035       182  SAPE      C210           24.2789771846      -32.1603140596      -10.2209340029  MEMB      182             0.0000000000
     21036       182  SAPE      H10R           25.2329602200      -31.7688760229      -10.6344723447  MEMB      182             0.0000000000
     21037       182  SAPE      H10S           24.3095806902      -33.1440201466      -10.7364016268  MEMB      182             0.0000000000
     21038       182  SAPE      C211           24.4864163795      -32.3913765349       -8.7007565330  MEMB      182             0.0000000000
     21039       182  SAPE      H11R           25.4233958639      -31.9994473488       -8.2783091179  MEMB      182             0.0000000000
     21040       182  SAPE      C212           23.6534813076      -32.7976059640       -7.8338850344  MEMB      182             0.0000000000
     21041       182  SAPE      H12R           24.0316303628      -32.8098487013       -6.8009989219  MEMB      182             0.0000000000
     21042       182  SAPE      C213           22.2160540153      -33.2682490836       -7.9642995497  MEMB      182             0.0000000000
     21043       182  SAPE      H13R           21.8178280242      -32.6603788517       -8.8046743095  MEMB      182             0.0000000000
     21044       182  SAPE      H13S           21.6174142938      -32.9968562697       -7.0685887754  MEMB      182             0.0000000000
     21045       182  SAPE      C214           22.0982728250      -34.7393615101       -8.3434726635  MEMB      182             0.0000000000
     21046       182  SAPE      H14R           22.9584171441      -35.2081593206       -8.8438532217  MEMB      182             0.0000000000
     21047       182  SAPE      C215           21.0249672786      -35.4778390689       -8.1354812593  MEMB      182             0.0000000000
     21048       182  SAPE      H15R           21.1618628683      -36.4874390267       -8.5501708449  MEMB      182             0.0000000000
     21049       182  SAPE      C216           19.7229079129      -34.9710976574       -7.5461207507  MEMB      182             0.0000000000
     21050       182  SAPE      H16R           18.9140277316      -35.5202987705       -8.0737685446  MEMB      182             0.0000000000
     21051       182  SAPE      H16S           19.6500092226      -33.8695061678       -7.6706310631  MEMB      182             0.0000000000
     21052       182  SAPE      C217           19.6319307583      -35.2045018967       -6.0111403788  MEMB      182             0.0000000000
     21053       182  SAPE      H17R           18.7727279603      -34.5669957329       -5.7116785653  MEMB      182             0.0000000000
     21054       182  SAPE      H17S           20.5747518288      -34.8769155493       -5.5231889741  MEMB      182             0.0000000000
     21055       182  SAPE      C218           19.3213534367      -36.6189195215       -5.5012634436  MEMB      182             0.0000000000
     21056       182  SAPE      H18R           19.8886810823      -37.4083561824       -6.0390833619  MEMB      182             0.0000000000
     21057       182  SAPE      H18S           18.2535675067      -36.9248748355       -5.4779016370  MEMB      182             0.0000000000
     21058       182  SAPE      C219           19.7069504545      -36.8824037497       -4.0479278284  MEMB      182             0.0000000000
     21059       182  SAPE      H19R           20.5756237897      -36.3006528973       -3.6720385006  MEMB      182             0.0000000000
     21060       182  SAPE      H19S           20.0232099624      -37.9367872502       -3.8976760569  MEMB      182             0.0000000000
     21061       182  SAPE      C220           18.5790351769      -36.7778202569       -3.0195172997  MEMB      182             0.0000000000
     21062       182  SAPE      H20R           17.7297968049      -37.4545349381       -3.2544049565  MEMB      182             0.0000000000
     21063       182  SAPE      H20S           18.1111944157      -35.7701339343       -3.0157284368  MEMB      182             0.0000000000
     21064       182  SAPE      H20T           19.0163165758      -36.9559024206       -2.0138367957  MEMB      182             0.0000000000
     21065       182  SAPE      C33            26.1786057264      -34.7835241113      -13.3691497639  MEMB      182             0.0000000000
     21066       182  SAPE      H3X            25.0735965201      -34.6803976696      -13.4205380392  MEMB      182             0.0000000000
     21067       182  SAPE      H3Y            26.6379244262      -33.8280194194      -13.0369480391  MEMB      182             0.0000000000
     21068       182  SAPE      C34            26.4774448973      -35.8709802292      -12.3176979011  MEMB      182             0.0000000000
     21069       182  SAPE      H4X            27.5823874147      -35.9807377859      -12.2806036489  MEMB      182             0.0000000000
     21070       182  SAPE      H4Y            25.9135586328      -36.7638067232      -12.6629727321  MEMB      182             0.0000000000
     21071       182  SAPE      C35            25.9393976392      -35.5915597907      -10.9695966793  MEMB      182             0.0000000000
     21072       182  SAPE      H5X            24.8404312724      -35.5300432267      -11.1206243686  MEMB      182             0.0000000000
     21073       182  SAPE      H5Y            26.3033216863      -34.5669745449      -10.7413305225  MEMB      182             0.0000000000
     21074       182  SAPE      C36            26.4741418863      -36.5005960888       -9.9137483915  MEMB      182             0.0000000000
     21075       182  SAPE      H6X            27.4639012162      -36.9472492627      -10.1486911094  MEMB      182             0.0000000000
     21076       182  SAPE      H6Y            25.7183926469      -37.3113260657       -9.8370590158  MEMB      182             0.0000000000
     21077       182  SAPE      C37            26.5970441558      -35.8059748820       -8.5380848151  MEMB      182             0.0000000000
     21078       182  SAPE      H7X            25.6028804384      -35.3909963493       -8.2665111569  MEMB      182             0.0000000000
     21079       182  SAPE      H7Y            27.3011867774      -34.9468365106       -8.5577228567  MEMB      182             0.0000000000
     21080       182  SAPE      C38            26.9282053236      -36.7459397952       -7.3534685416  MEMB      182             0.0000000000
     21081       182  SAPE      H8X            27.3792734322      -36.2275122700       -6.4804900250  MEMB      182             0.0000000000
     21082       182  SAPE      H8Y            27.7632403926      -37.4082055268       -7.6672233778  MEMB      182             0.0000000000
     21083       182  SAPE      C39            25.8046274387      -37.6752696661       -6.8243334061  MEMB      182             0.0000000000
     21084       182  SAPE      H9X            26.3546180548      -38.3159824039       -6.1023095487  MEMB      182             0.0000000000
     21085       182  SAPE      H9Y            25.3759100691      -38.2339814579       -7.6836140739  MEMB      182             0.0000000000
     21086       182  SAPE      C310           24.6207677372      -36.8965865810       -6.2415830226  MEMB      182             0.0000000000
     21087       182  SAPE      H10X           24.1174217177      -37.6693175437       -5.6220264403  MEMB      182             0.0000000000
     21088       182  SAPE      H10Y           24.0598377406      -36.5030593867       -7.1161200692  MEMB      182             0.0000000000
     21089       182  SAPE      C311           24.8963600557      -35.7061764997       -5.3722412917  MEMB      182             0.0000000000
     21090       182  SAPE      H11X           25.3273808307      -34.8440141441       -5.9247074186  MEMB      182             0.0000000000
     21091       182  SAPE      H11Y           25.6737973935      -36.0747626235       -4.6693501514  MEMB      182             0.0000000000
     21092       182  SAPE      C312           23.6580674547      -35.1313812432       -4.6149536585  MEMB      182             0.0000000000
     21093       182  SAPE      H12X           23.2961187013      -35.8726159433       -3.8707179054  MEMB      182             0.0000000000
     21094       182  SAPE      H12Y           22.8156211739      -34.9247513726       -5.3091504674  MEMB      182             0.0000000000
     21095       182  SAPE      C313           23.9895418031      -33.7973887834       -3.8627059073  MEMB      182             0.0000000000
     21096       182  SAPE      H13X           23.0885778393      -33.3271541758       -3.4138575929  MEMB      182             0.0000000000
     21097       182  SAPE      H13Y           24.4266354857      -33.1239776030       -4.6306817667  MEMB      182             0.0000000000
     21098       182  SAPE      C314           25.1740573648      -33.9147424210       -2.8649891447  MEMB      182             0.0000000000
     21099       182  SAPE      H14X           25.4878462339      -32.9528996532       -2.4059506911  MEMB      182             0.0000000000
     21100       182  SAPE      H14Y           25.9984108226      -34.3045744656       -3.4996485482  MEMB      182             0.0000000000
     21101       182  SAPE      C315           25.0842466757      -34.8826842890       -1.6457528509  MEMB      182             0.0000000000
     21102       182  SAPE      H15X           25.8782824094      -34.5329451555       -0.9518427499  MEMB      182             0.0000000000
     21103       182  SAPE      H15Y           25.3859073499      -35.9072120910       -1.9517993228  MEMB      182             0.0000000000
     21104       182  SAPE      C316           23.7106721057      -34.7630578014       -0.8546285622  MEMB      182             0.0000000000
     21105       182  SAPE      H16X           23.5483206714      -35.7224964227       -0.3184939657  MEMB      182             0.0000000000
     21106       182  SAPE      H16Y           22.8520413384      -34.7073003772       -1.5574538528  MEMB      182             0.0000000000
     21107       182  SAPE      C317           23.5822844796      -33.5988687381        0.0906432783  MEMB      182             0.0000000000
     21108       182  SAPE      H17X           22.5437097841      -33.4646412763        0.4616776431  MEMB      182             0.0000000000
     21109       182  SAPE      H17Y           23.8163254074      -32.6500548750       -0.4378435183  MEMB      182             0.0000000000
     21110       182  SAPE      C318           24.5369567058      -33.5778606233        1.3179935002  MEMB      182             0.0000000000
     21111       182  SAPE      H18X           24.6424062740      -34.5383286854        1.8663561173  MEMB      182             0.0000000000
     21112       182  SAPE      H18Y           24.2065915816      -32.8979739222        2.1322008673  MEMB      182             0.0000000000
     21113       182  SAPE      H18Z           25.5388587280      -33.3270175277        0.9086153626  MEMB      182             0.0000000000
     21114       183  CHL1      C3             33.5588113113      -21.5014646395      -17.3375100000  MEMB      183             0.0000000000
     21115       183  CHL1      H3             32.5954882240      -20.9480357896      -17.3436600000  MEMB      183             0.0000000000
     21116       183  CHL1      O3             34.0701078887      -21.7466169605      -18.6624900000  MEMB      183             0.0000000000
     21117       183  CHL1      H3'            33.5102856830      -22.4244541822      -19.0481600000  MEMB      183             0.0000000000
     21118       183  CHL1      C4             34.5914948826      -20.5416926305      -16.6418700000  MEMB      183             0.0000000000
     21119       183  CHL1      H4A            35.6685440173      -20.7829710411      -16.7686900000  MEMB      183             0.0000000000
     21120       183  CHL1      H4B            34.3557117795      -19.5208787322      -17.0115400000  MEMB      183             0.0000000000
     21121       183  CHL1      C5             34.2807036946      -20.4306640144      -15.1396100000  MEMB      183             0.0000000000
     21122       183  CHL1      C6             33.9891192363      -19.1991550653      -14.5840100000  MEMB      183             0.0000000000
     21123       183  CHL1      H6             34.1819887178      -18.2804054555      -15.1573400000  MEMB      183             0.0000000000
     21124       183  CHL1      C7             33.6246519211      -18.9973639340      -13.1906100000  MEMB      183             0.0000000000
     21125       183  CHL1      H7A            33.9121457609      -17.9433450859      -12.9888200000  MEMB      183             0.0000000000
     21126       183  CHL1      H7B            32.5230602918      -18.8642988496      -13.1350100000  MEMB      183             0.0000000000
     21127       183  CHL1      C8             34.1563742718      -20.1070436672      -12.2680000000  MEMB      183             0.0000000000
     21128       183  CHL1      H8             35.2672364660      -20.1132038990      -12.2520900000  MEMB      183             0.0000000000
     21129       183  CHL1      C14            33.5945814466      -19.9860738548      -10.8689000000  MEMB      183             0.0000000000
     21130       183  CHL1      H14            32.5013996781      -20.1299382228      -11.0052400000  MEMB      183             0.0000000000
     21131       183  CHL1      C15            33.7509158132      -18.6121772404      -10.3041400000  MEMB      183             0.0000000000
     21132       183  CHL1      H15A           34.6103918042      -18.0439075519      -10.7197000000  MEMB      183             0.0000000000
     21133       183  CHL1      H15B           32.8613405674      -17.9879615099      -10.5350900000  MEMB      183             0.0000000000
     21134       183  CHL1      C16            33.6596379825      -18.8063716588       -8.8149800000  MEMB      183             0.0000000000
     21135       183  CHL1      H16A           34.5902182309      -18.5142294595       -8.2830200000  MEMB      183             0.0000000000
     21136       183  CHL1      H16B           32.7817885598      -18.2402418773       -8.4365500000  MEMB      183             0.0000000000
     21137       183  CHL1      C17            33.3769349233      -20.3207411390       -8.6487500000  MEMB      183             0.0000000000
     21138       183  CHL1      H17            32.3190545580      -20.5358874033       -8.9112600000  MEMB      183             0.0000000000
     21139       183  CHL1      C13            33.9970466685      -21.0594869828       -9.8743600000  MEMB      183             0.0000000000
     21140       183  CHL1      C18            35.5678890915      -21.1013121332       -9.7949200000  MEMB      183             0.0000000000
     21141       183  CHL1      H18A           35.9072127449      -21.6512140910      -10.6986900000  MEMB      183             0.0000000000
     21142       183  CHL1      H18B           36.0311656369      -20.0915826519       -9.7835500000  MEMB      183             0.0000000000
     21143       183  CHL1      H18C           35.7896289217      -21.7845260164       -8.9473500000  MEMB      183             0.0000000000
     21144       183  CHL1      C12            33.4059712585      -22.3894674228      -10.3284200000  MEMB      183             0.0000000000
     21145       183  CHL1      H12A           33.8411799959      -23.2239409879       -9.7380200000  MEMB      183             0.0000000000
     21146       183  CHL1      H12B           32.3128292534      -22.5764694787      -10.2622700000  MEMB      183             0.0000000000
     21147       183  CHL1      C11            33.8497831511      -22.7145458731      -11.8813700000  MEMB      183             0.0000000000
     21148       183  CHL1      H11A           34.9304313244      -22.9721885565      -11.8936100000  MEMB      183             0.0000000000
     21149       183  CHL1      H11B           33.3137347727      -23.6417717568      -12.1767200000  MEMB      183             0.0000000000
     21150       183  CHL1      C9             33.6658495679      -21.4857317494      -12.8307100000  MEMB      183             0.0000000000
     21151       183  CHL1      H9             32.5680329419      -21.3158014530      -12.8457200000  MEMB      183             0.0000000000
     21152       183  CHL1      C10            34.1530910579      -21.7051380246      -14.2822800000  MEMB      183             0.0000000000
     21153       183  CHL1      C19            35.6161117795      -22.3149227236      -14.2861900000  MEMB      183             0.0000000000
     21154       183  CHL1      H19A           35.6748309854      -23.2974215540      -13.7708500000  MEMB      183             0.0000000000
     21155       183  CHL1      H19B           36.0850296072      -22.4688937698      -15.2815400000  MEMB      183             0.0000000000
     21156       183  CHL1      H19C           36.3634616238      -21.5946130255      -13.8900100000  MEMB      183             0.0000000000
     21157       183  CHL1      C1             33.1264640585      -22.6199567474      -15.0622300000  MEMB      183             0.0000000000
     21158       183  CHL1      H1A            33.0369344191      -23.5830024554      -14.5155700000  MEMB      183             0.0000000000
     21159       183  CHL1      H1B            32.1346717790      -22.1545353966      -14.8776600000  MEMB      183             0.0000000000
     21160       183  CHL1      C2             33.4756829612      -22.8462211706      -16.5656100000  MEMB      183             0.0000000000
     21161       183  CHL1      H2A            32.6914572102      -23.5479948361      -16.9217300000  MEMB      183             0.0000000000
     21162       183  CHL1      H2B            34.4316153276      -23.3873217909      -16.7321100000  MEMB      183             0.0000000000
     21163       183  CHL1      C20            33.6505652979      -20.8567191746       -7.1744300000  MEMB      183             0.0000000000
     21164       183  CHL1      H20            34.7401307894      -20.6406168343       -7.1963400000  MEMB      183             0.0000000000
     21165       183  CHL1      C21            33.3306607932      -22.3835034708       -6.9329800000  MEMB      183             0.0000000000
     21166       183  CHL1      H21A           33.8830173600      -23.0187435533       -7.6580200000  MEMB      183             0.0000000000
     21167       183  CHL1      H21B           32.2263527549      -22.5050770757       -6.9401500000  MEMB      183             0.0000000000
     21168       183  CHL1      H21C           33.6875825049      -22.6827463767       -5.9243300000  MEMB      183             0.0000000000
     21169       183  CHL1      C22            32.9478412453      -19.9029630347       -6.1918000000  MEMB      183             0.0000000000
     21170       183  CHL1      H22A           33.3004040834      -18.8509721821       -6.1339700000  MEMB      183             0.0000000000
     21171       183  CHL1      H22B           31.9035025786      -19.9834747429       -6.5621800000  MEMB      183             0.0000000000
     21172       183  CHL1      C23            32.9386710125      -20.4648558345       -4.7367300000  MEMB      183             0.0000000000
     21173       183  CHL1      H23A           32.1799146093      -21.2731288762       -4.6639100000  MEMB      183             0.0000000000
     21174       183  CHL1      H23B           33.9713116350      -20.7713388810       -4.4646000000  MEMB      183             0.0000000000
     21175       183  CHL1      C24            32.5510436320      -19.4795708233       -3.6673200000  MEMB      183             0.0000000000
     21176       183  CHL1      H24A           33.0977184354      -18.5126124430       -3.6886100000  MEMB      183             0.0000000000
     21177       183  CHL1      H24B           31.5468437236      -19.1121434721       -3.9688100000  MEMB      183             0.0000000000
     21178       183  CHL1      C25            32.6955557507      -20.0315981864       -2.2152100000  MEMB      183             0.0000000000
     21179       183  CHL1      H25            32.3736971433      -21.0946550237       -2.2405000000  MEMB      183             0.0000000000
     21180       183  CHL1      C26            34.1492343678      -20.0016715411       -1.7056200000  MEMB      183             0.0000000000
     21181       183  CHL1      H26A           34.1526897857      -20.2378169465       -0.6200100000  MEMB      183             0.0000000000
     21182       183  CHL1      H26B           34.7610494797      -20.7850797669       -2.2018500000  MEMB      183             0.0000000000
     21183       183  CHL1      H26C           34.5913003502      -19.0104050638       -1.9428800000  MEMB      183             0.0000000000
     21184       183  CHL1      C27            31.8818221436      -19.2063920403       -1.1887600000  MEMB      183             0.0000000000
     21185       183  CHL1      H27A           31.8614020991      -19.6602415421       -0.1749000000  MEMB      183             0.0000000000
     21186       183  CHL1      H27B           32.2734915589      -18.1885889840       -0.9766200000  MEMB      183             0.0000000000
     21187       183  CHL1      H27C           30.8696874896      -19.0200890814       -1.6073300000  MEMB      183             0.0000000000
     21188       184  SAPE      N              31.8157160239      -30.0319145056      -21.4103837733  MEMB      184             0.0000000000
     21189       184  SAPE      HN1            32.1387472355      -29.6889231391      -22.3375342552  MEMB      184             0.0000000000
     21190       184  SAPE      HN2            32.2363835306      -29.4035278046      -20.6964027604  MEMB      184             0.0000000000
     21191       184  SAPE      HN3            32.3504681692      -30.9078646483      -21.2420044592  MEMB      184             0.0000000000
     21192       184  SAPE      C12            30.3327188880      -30.1355367473      -21.4819474766  MEMB      184             0.0000000000
     21193       184  SAPE      H12A           30.1460744907      -31.1644460932      -21.8572212874  MEMB      184             0.0000000000
     21194       184  SAPE      H12B           29.9760852333      -29.2091659211      -21.9809168841  MEMB      184             0.0000000000
     21195       184  SAPE      C11            29.7837241355      -30.0783555047      -20.1279004712  MEMB      184             0.0000000000
     21196       184  SAPE      H11A           30.0290888304      -30.9648408981      -19.5047948062  MEMB      184             0.0000000000
     21197       184  SAPE      H11B           28.6728264380      -30.0921918243      -20.1338758029  MEMB      184             0.0000000000
     21198       184  SAPE      P              29.7886667543      -27.4176878374      -19.4485733528  MEMB      184             0.0000000000
     21199       184  SAPE      O13            30.7635637200      -26.5494278231      -18.7607164148  MEMB      184             0.0000000000
     21200       184  SAPE      O14            29.5454206358      -26.9911990044      -20.8032472106  MEMB      184             0.0000000000
     21201       184  SAPE      O12            30.2908205462      -28.8968651718      -19.3249297988  MEMB      184             0.0000000000
     21202       184  SAPE      O11            28.3841324981      -27.4129070023      -18.6423015116  MEMB      184             0.0000000000
     21203       184  SAPE      C1             27.3671210143      -26.4647274558      -18.7406765534  MEMB      184             0.0000000000
     21204       184  SAPE      HA             27.6965994170      -25.4233790229      -18.9440444476  MEMB      184             0.0000000000
     21205       184  SAPE      HB             26.6098011339      -26.9238374680      -19.4115010925  MEMB      184             0.0000000000
     21206       184  SAPE      C2             26.5810622374      -26.3262637197      -17.4443697974  MEMB      184             0.0000000000
     21207       184  SAPE      HS             25.7392946701      -25.6436009726      -17.6887457481  MEMB      184             0.0000000000
     21208       184  SAPE      O21            27.4682920457      -25.8488138404      -16.4816273535  MEMB      184             0.0000000000
     21209       184  SAPE      C21            26.9854612972      -25.4211231561      -15.2897376672  MEMB      184             0.0000000000
     21210       184  SAPE      O22            25.7849189159      -25.3097088070      -14.9615522741  MEMB      184             0.0000000000
     21211       184  SAPE      C22            28.1342420283      -25.0495605936      -14.4142717384  MEMB      184             0.0000000000
     21212       184  SAPE      H2R            28.5387352994      -24.0909118089      -14.8037562785  MEMB      184             0.0000000000
     21213       184  SAPE      H2S            27.8855700337      -24.7346164604      -13.3782728992  MEMB      184             0.0000000000
     21214       184  SAPE      C3             25.9317611918      -27.7035056400      -16.9236281523  MEMB      184             0.0000000000
     21215       184  SAPE      HX             25.2980228106      -28.1505156343      -17.7191649089  MEMB      184             0.0000000000
     21216       184  SAPE      HY             25.2976736897      -27.4415342556      -16.0497718733  MEMB      184             0.0000000000
     21217       184  SAPE      O31            26.9297519361      -28.6359814257      -16.4228979829  MEMB      184             0.0000000000
     21218       184  SAPE      C31            26.8969094591      -29.8816301102      -16.7857092729  MEMB      184             0.0000000000
     21219       184  SAPE      O32            26.1686639753      -30.3081986049      -17.6802239347  MEMB      184             0.0000000000
     21220       184  SAPE      C32            27.7895166144      -30.7597795281      -15.8357131306  MEMB      184             0.0000000000
     21221       184  SAPE      H2X            28.6184220627      -31.1148304732      -16.4846932848  MEMB      184             0.0000000000
     21222       184  SAPE      H2Y            27.2718889661      -31.6530264639      -15.4252345955  MEMB      184             0.0000000000
     21223       184  SAPE      C23            29.4009392863      -25.9014590752      -14.5546320764  MEMB      184             0.0000000000
     21224       184  SAPE      H3R            29.8367053339      -25.6702981375      -15.5501186929  MEMB      184             0.0000000000
     21225       184  SAPE      H3S            29.1225738123      -26.9769997029      -14.5614168212  MEMB      184             0.0000000000
     21226       184  SAPE      C24            30.5766705539      -25.7065165704      -13.6441859559  MEMB      184             0.0000000000
     21227       184  SAPE      H4R            30.8775591122      -24.6393909769      -13.7151079215  MEMB      184             0.0000000000
     21228       184  SAPE      H4S            31.4871803179      -26.2569563967      -13.9640438032  MEMB      184             0.0000000000
     21229       184  SAPE      C25            30.2901398996      -26.1653902287      -12.2062535278  MEMB      184             0.0000000000
     21230       184  SAPE      H5R            29.5453704329      -25.5428247650      -11.6888261335  MEMB      184             0.0000000000
     21231       184  SAPE      C26            30.6535135817      -27.3016447776      -11.6517721531  MEMB      184             0.0000000000
     21232       184  SAPE      H6R            30.2960337470      -27.5785739487      -10.6490165672  MEMB      184             0.0000000000
     21233       184  SAPE      C27            31.4449119608      -28.3897659109      -12.2869942698  MEMB      184             0.0000000000
     21234       184  SAPE      H7R            31.0904789665      -28.5185192425      -13.3320398857  MEMB      184             0.0000000000
     21235       184  SAPE      H7S            31.3082334250      -29.3087147677      -11.6777545060  MEMB      184             0.0000000000
     21236       184  SAPE      C28            32.9612441791      -28.1756369993      -12.3117497057  MEMB      184             0.0000000000
     21237       184  SAPE      H8R            33.2382484966      -27.8180355878      -13.3144409137  MEMB      184             0.0000000000
     21238       184  SAPE      C29            33.8569571019      -28.3298821800      -11.3177276383  MEMB      184             0.0000000000
     21239       184  SAPE      H9R            34.9209882311      -28.2581896764      -11.5873529681  MEMB      184             0.0000000000
     21240       184  SAPE      C210           33.7080844429      -28.7789279546       -9.8468126861  MEMB      184             0.0000000000
     21241       184  SAPE      H10R           34.4879262764      -29.5634775550       -9.7436141069  MEMB      184             0.0000000000
     21242       184  SAPE      H10S           32.7151403714      -29.2219044468       -9.6184387075  MEMB      184             0.0000000000
     21243       184  SAPE      C211           34.0214450795      -27.6581663239       -8.9041651309  MEMB      184             0.0000000000
     21244       184  SAPE      H11R           35.0414285403      -27.2509210358       -8.9656923230  MEMB      184             0.0000000000
     21245       184  SAPE      C212           33.2165854300      -26.9565875662       -8.0795697749  MEMB      184             0.0000000000
     21246       184  SAPE      H12R           33.7281417275      -26.1871186236       -7.4827221965  MEMB      184             0.0000000000
     21247       184  SAPE      C213           31.7272107164      -27.1375034145       -7.9396759200  MEMB      184             0.0000000000
     21248       184  SAPE      H13R           31.5177493285      -27.7176117690       -7.0155968846  MEMB      184             0.0000000000
     21249       184  SAPE      H13S           31.2362379795      -27.6874411075       -8.7708407877  MEMB      184             0.0000000000
     21250       184  SAPE      C214           31.0086160188      -25.8159088306       -7.8837747247  MEMB      184             0.0000000000
     21251       184  SAPE      H14R           31.3812861839      -25.0133757467       -8.5372718830  MEMB      184             0.0000000000
     21252       184  SAPE      C215           29.9603177195      -25.4363216404       -7.1330477777  MEMB      184             0.0000000000
     21253       184  SAPE      H15R           29.5630847280      -24.4168868031       -7.2468848529  MEMB      184             0.0000000000
     21254       184  SAPE      C216           29.1971394730      -26.3144332784       -6.1834455995  MEMB      184             0.0000000000
     21255       184  SAPE      H16R           29.9100880698      -27.0917177132       -5.8343693027  MEMB      184             0.0000000000
     21256       184  SAPE      H16S           28.3272760470      -26.8300418598       -6.6436699664  MEMB      184             0.0000000000
     21257       184  SAPE      C217           28.8104060598      -25.5628915324       -4.8801044049  MEMB      184             0.0000000000
     21258       184  SAPE      H17R           28.2826983940      -24.6368436293       -5.1936021825  MEMB      184             0.0000000000
     21259       184  SAPE      H17S           29.6962956935      -25.3475354589       -4.2451695089  MEMB      184             0.0000000000
     21260       184  SAPE      C218           27.8367510074      -26.2870445054       -3.9498637533  MEMB      184             0.0000000000
     21261       184  SAPE      H18R           28.3847818486      -27.1590538342       -3.5332301421  MEMB      184             0.0000000000
     21262       184  SAPE      H18S           26.9342122184      -26.5988305005       -4.5177840919  MEMB      184             0.0000000000
     21263       184  SAPE      C219           27.3498296891      -25.4530077491       -2.7566407695  MEMB      184             0.0000000000
     21264       184  SAPE      H19R           26.6770938199      -24.5808937663       -2.9021230221  MEMB      184             0.0000000000
     21265       184  SAPE      H19S           28.2605730467      -24.9381500844       -2.3827571106  MEMB      184             0.0000000000
     21266       184  SAPE      C220           26.7427933914      -26.3316912873       -1.6519657659  MEMB      184             0.0000000000
     21267       184  SAPE      H20R           26.5707961420      -25.6784721198       -0.7698982981  MEMB      184             0.0000000000
     21268       184  SAPE      H20S           27.4900843193      -27.1348313327       -1.4763434862  MEMB      184             0.0000000000
     21269       184  SAPE      H20T           25.7600021104      -26.7798502369       -1.9119584233  MEMB      184             0.0000000000
     21270       184  SAPE      C33            28.2572819764      -30.0814765848      -14.5461934073  MEMB      184             0.0000000000
     21271       184  SAPE      H3X            28.7332801446      -29.1065944494      -14.7856750930  MEMB      184             0.0000000000
     21272       184  SAPE      H3Y            29.0462615976      -30.7536139554      -14.1461140235  MEMB      184             0.0000000000
     21273       184  SAPE      C34            27.1732767188      -29.7871334131      -13.5281865118  MEMB      184             0.0000000000
     21274       184  SAPE      H4X            26.5784531474      -30.6854510805      -13.2570202957  MEMB      184             0.0000000000
     21275       184  SAPE      H4Y            26.4173717383      -29.1385526361      -14.0203975561  MEMB      184             0.0000000000
     21276       184  SAPE      C35            27.6526032731      -28.9984646095      -12.3365389742  MEMB      184             0.0000000000
     21277       184  SAPE      H5X            28.3049231389      -28.1962574878      -12.7430656820  MEMB      184             0.0000000000
     21278       184  SAPE      H5Y            28.2810457281      -29.6929687571      -11.7390064224  MEMB      184             0.0000000000
     21279       184  SAPE      C36            26.5395021584      -28.5270450533      -11.4207712898  MEMB      184             0.0000000000
     21280       184  SAPE      H6X            25.8467932409      -29.3624016664      -11.1827489972  MEMB      184             0.0000000000
     21281       184  SAPE      H6Y            25.9527904068      -27.7602919357      -11.9704797166  MEMB      184             0.0000000000
     21282       184  SAPE      C37            26.9844343371      -28.1568590942       -9.9804742219  MEMB      184             0.0000000000
     21283       184  SAPE      H7X            27.4034285779      -27.1329381270      -10.0822124063  MEMB      184             0.0000000000
     21284       184  SAPE      H7Y            27.7619260463      -28.8394555890       -9.5756418829  MEMB      184             0.0000000000
     21285       184  SAPE      C38            25.9289988861      -27.8310397520       -8.9239121704  MEMB      184             0.0000000000
     21286       184  SAPE      H8X            25.1421141129      -27.3420773421       -9.5371399369  MEMB      184             0.0000000000
     21287       184  SAPE      H8Y            26.4555800293      -27.1479814626       -8.2235803985  MEMB      184             0.0000000000
     21288       184  SAPE      C39            25.2280471836      -28.9571311272       -8.1227101139  MEMB      184             0.0000000000
     21289       184  SAPE      H9X            24.6891102942      -29.6023709046       -8.8490249338  MEMB      184             0.0000000000
     21290       184  SAPE      H9Y            24.4501518029      -28.4328704906       -7.5274361134  MEMB      184             0.0000000000
     21291       184  SAPE      C310           26.1460472007      -29.6714326675       -7.1095363067  MEMB      184             0.0000000000
     21292       184  SAPE      H10X           26.6132812206      -28.9010342336       -6.4595368959  MEMB      184             0.0000000000
     21293       184  SAPE      H10Y           26.9171458587      -30.0788469638       -7.7978251663  MEMB      184             0.0000000000
     21294       184  SAPE      C311           25.5409394753      -30.8602429511       -6.2928995396  MEMB      184             0.0000000000
     21295       184  SAPE      H11X           25.6985919622      -31.8375332419       -6.7972512452  MEMB      184             0.0000000000
     21296       184  SAPE      H11Y           24.4652844568      -30.6302054501       -6.1367914831  MEMB      184             0.0000000000
     21297       184  SAPE      C312           26.2354370405      -30.9672041222       -4.9188756036  MEMB      184             0.0000000000
     21298       184  SAPE      H12X           25.7535085554      -31.7431146289       -4.2863978590  MEMB      184             0.0000000000
     21299       184  SAPE      H12Y           26.1963177094      -29.9715285049       -4.4275288050  MEMB      184             0.0000000000
     21300       184  SAPE      C313           27.7347686957      -31.2733363343       -5.1147454752  MEMB      184             0.0000000000
     21301       184  SAPE      H13X           28.2062069744      -30.5935008659       -5.8562914140  MEMB      184             0.0000000000
     21302       184  SAPE      H13Y           27.7979340571      -32.2630866261       -5.6154701704  MEMB      184             0.0000000000
     21303       184  SAPE      C314           28.6188472134      -31.2901820172       -3.8900678288  MEMB      184             0.0000000000
     21304       184  SAPE      H14X           29.6289583130      -31.6716418782       -4.1517640449  MEMB      184             0.0000000000
     21305       184  SAPE      H14Y           28.2241067183      -31.9759799410       -3.1102079060  MEMB      184             0.0000000000
     21306       184  SAPE      C315           28.8701381297      -29.9933180625       -3.0624155224  MEMB      184             0.0000000000
     21307       184  SAPE      H15X           28.2626788872      -29.8711717431       -2.1402465995  MEMB      184             0.0000000000
     21308       184  SAPE      H15Y           28.5371960535      -29.2187421023       -3.7859495692  MEMB      184             0.0000000000
     21309       184  SAPE      C316           30.3682706250      -29.7504369069       -2.7039902834  MEMB      184             0.0000000000
     21310       184  SAPE      H16X           30.7980093327      -29.5730360075       -3.7130364344  MEMB      184             0.0000000000
     21311       184  SAPE      H16Y           30.7166823255      -30.7606666706       -2.4000714753  MEMB      184             0.0000000000
     21312       184  SAPE      C317           30.5562079845      -28.6040432037       -1.7217038211  MEMB      184             0.0000000000
     21313       184  SAPE      H17X           29.7494820429      -27.9027650176       -2.0245616725  MEMB      184             0.0000000000
     21314       184  SAPE      H17Y           31.5332532112      -28.1550448399       -2.0011753965  MEMB      184             0.0000000000
     21315       184  SAPE      C318           30.5003126363      -28.9791450091       -0.2070750099  MEMB      184             0.0000000000
     21316       184  SAPE      H18X           29.6792610479      -29.7090201937       -0.0413112403  MEMB      184             0.0000000000
     21317       184  SAPE      H18Y           30.1942420505      -28.1243562056        0.4332206132  MEMB      184             0.0000000000
     21318       184  SAPE      H18Z           31.4400100968      -29.4086750523        0.2013281541  MEMB      184             0.0000000000
     21319       185  OSM       N             -25.8573645661       31.7068306522      -22.0917300520  MEMB      185             0.0000000000
     21320       185  OSM       C15           -24.7685600576       30.7356132415      -22.1303688851  MEMB      185             0.0000000000
     21321       185  OSM       H15A          -24.0123313753       30.9682896031      -21.3952635750  MEMB      185             0.0000000000
     21322       185  OSM       H15B          -24.3416972904       30.7153661661      -23.1222247968  MEMB      185             0.0000000000
     21323       185  OSM       H15C          -25.1316058834       29.7793953936      -21.7836052819  MEMB      185             0.0000000000
     21324       185  OSM       C14           -27.0315868587       31.2453108341      -22.9310169867  MEMB      185             0.0000000000
     21325       185  OSM       H14A          -27.4833722166       30.3322066728      -22.5725047900  MEMB      185             0.0000000000
     21326       185  OSM       H14B          -26.5717896471       31.0531908686      -23.8891800319  MEMB      185             0.0000000000
     21327       185  OSM       H14C          -27.8059828241       31.9749163504      -23.1164526594  MEMB      185             0.0000000000
     21328       185  OSM       C13           -26.3277521937       31.9160423939      -20.6941856289  MEMB      185             0.0000000000
     21329       185  OSM       H13A          -26.7572857463       30.9481473945      -20.4818645766  MEMB      185             0.0000000000
     21330       185  OSM       H13B          -27.1173196980       32.6521992804      -20.6616870316  MEMB      185             0.0000000000
     21331       185  OSM       H13C          -25.5105593188       32.1378596410      -20.0238178032  MEMB      185             0.0000000000
     21332       185  OSM       C12           -25.3466760143       33.0235103919      -22.6889656820  MEMB      185             0.0000000000
     21333       185  OSM       H12A          -26.1438578188       33.7495892869      -22.7498810034  MEMB      185             0.0000000000
     21334       185  OSM       H12B          -25.0554594638       32.8588477377      -23.7158440335  MEMB      185             0.0000000000
     21335       185  OSM       C11           -24.1359252783       33.6982619164      -21.9600998312  MEMB      185             0.0000000000
     21336       185  OSM       H11A          -23.9108620143       34.6611968954      -22.4664828276  MEMB      185             0.0000000000
     21337       185  OSM       H11B          -23.2405434046       33.0405823268      -21.9684544385  MEMB      185             0.0000000000
     21338       185  OSM       P             -23.5575220161       35.0250973687      -19.7268815377  MEMB      185             0.0000000000
     21339       185  OSM       O13           -22.1329117562       34.7995260528      -19.9378724386  MEMB      185             0.0000000000
     21340       185  OSM       O14           -24.0890445220       36.3876141530      -19.9865071008  MEMB      185             0.0000000000
     21341       185  OSM       O11           -23.9722858667       34.4671167066      -18.2373967159  MEMB      185             0.0000000000
     21342       185  OSM       O12           -24.3117507649       33.9329090899      -20.6149751463  MEMB      185             0.0000000000
     21343       185  OSM       C1S           -25.3606229811       34.1485685339      -18.2448225738  MEMB      185             0.0000000000
     21344       185  OSM       H1S           -25.4033325655       33.1524464716      -18.7349629213  MEMB      185             0.0000000000
     21345       185  OSM       H1T           -26.1127945958       34.7741498722      -18.7713267769  MEMB      185             0.0000000000
     21346       185  OSM       NF            -25.5128231258       35.1446920062      -16.0417818280  MEMB      185             0.0000000000
     21347       185  OSM       HNF           -24.6831517307       35.1154207485      -15.4896971618  MEMB      185             0.0000000000
     21348       185  OSM       C2S           -25.8900870545       33.9397605073      -16.8118155368  MEMB      185             0.0000000000
     21349       185  OSM       H2S           -26.9913976842       33.8796069500      -16.6783329680  MEMB      185             0.0000000000
     21350       185  OSM       C3S           -25.1945452681       32.7557901991      -16.2174892503  MEMB      185             0.0000000000
     21351       185  OSM       H3S           -24.1243156050       33.0433562231      -16.2964521113  MEMB      185             0.0000000000
     21352       185  OSM       O3            -25.4709051971       31.4914296353      -16.9006730274  MEMB      185             0.0000000000
     21353       185  OSM       HO3           -25.8909316488       31.6086512189      -17.7559139704  MEMB      185             0.0000000000
     21354       185  OSM       C4S           -25.6148616256       32.6723154103      -14.7391453215  MEMB      185             0.0000000000
     21355       185  OSM       H4S           -24.8671150765       33.1181949675      -14.0667863800  MEMB      185             0.0000000000
     21356       185  OSM       C5S           -26.7713056442       32.1466392890      -14.3135823949  MEMB      185             0.0000000000
     21357       185  OSM       H5S           -27.4542205307       31.7836168552      -15.0957856384  MEMB      185             0.0000000000
     21358       185  OSM       C6S           -27.3040358190       31.9946907062      -12.9194068970  MEMB      185             0.0000000000
     21359       185  OSM       H6S           -27.4105928017       30.9088063127      -12.7100703500  MEMB      185             0.0000000000
     21360       185  OSM       H6T           -28.2036972564       32.6417840306      -12.8406629350  MEMB      185             0.0000000000
     21361       185  OSM       C7S           -26.3826340136       32.4577253035      -11.7738596722  MEMB      185             0.0000000000
     21362       185  OSM       H7S           -26.1679195956       33.5178835167      -12.0274006575  MEMB      185             0.0000000000
     21363       185  OSM       H7T           -25.4580463854       31.8628034485      -11.6140885890  MEMB      185             0.0000000000
     21364       185  OSM       C8S           -27.1797541190       32.5894704365      -10.4458558443  MEMB      185             0.0000000000
     21365       185  OSM       H8S           -26.9416922383       31.7457172642       -9.7634129893  MEMB      185             0.0000000000
     21366       185  OSM       H8T           -28.2587113182       32.5476084722      -10.7074282710  MEMB      185             0.0000000000
     21367       185  OSM       C9S           -26.9211304694       33.9618015867       -9.7080533086  MEMB      185             0.0000000000
     21368       185  OSM       H9S           -27.7688742565       34.1862082437       -9.0259296481  MEMB      185             0.0000000000
     21369       185  OSM       H9T           -26.9685436954       34.6860755920      -10.5491836642  MEMB      185             0.0000000000
     21370       185  OSM       C10S          -25.5745287725       34.0224838570       -9.0967745454  MEMB      185             0.0000000000
     21371       185  OSM       H10S          -25.2108864978       35.0194621835       -8.7679592600  MEMB      185             0.0000000000
     21372       185  OSM       H10T          -24.7843084988       33.6975404832       -9.8069051810  MEMB      185             0.0000000000
     21373       185  OSM       C11S          -25.2527803457       33.1547177057       -7.8477068509  MEMB      185             0.0000000000
     21374       185  OSM       H11S          -25.3214938176       32.1545497107       -8.3265210629  MEMB      185             0.0000000000
     21375       185  OSM       H11T          -26.0299032319       33.2421758725       -7.0585606334  MEMB      185             0.0000000000
     21376       185  OSM       C12S          -23.8145092418       33.3477454403       -7.2447151384  MEMB      185             0.0000000000
     21377       185  OSM       H12S          -23.4670322302       34.4020303618       -7.2901469627  MEMB      185             0.0000000000
     21378       185  OSM       H12T          -23.1869210462       32.9083871302       -8.0493381496  MEMB      185             0.0000000000
     21379       185  OSM       C13S          -23.6079868679       32.5888833914       -5.9286059290  MEMB      185             0.0000000000
     21380       185  OSM       H13S          -24.0398640633       31.5657029546       -5.9586876672  MEMB      185             0.0000000000
     21381       185  OSM       H13T          -24.1036611368       33.2306144029       -5.1691266336  MEMB      185             0.0000000000
     21382       185  OSM       C14S          -22.1713820964       32.2653174365       -5.6245244669  MEMB      185             0.0000000000
     21383       185  OSM       H14S          -21.4902032805       33.1333840847       -5.7540488073  MEMB      185             0.0000000000
     21384       185  OSM       H14T          -21.9146954846       31.4512072353       -6.3356205666  MEMB      185             0.0000000000
     21385       185  OSM       C15S          -21.9109404778       31.7761996127       -4.1724526899  MEMB      185             0.0000000000
     21386       185  OSM       H15S          -22.1909946026       32.6210384891       -3.5075177953  MEMB      185             0.0000000000
     21387       185  OSM       H15T          -20.8530173369       31.4988270574       -3.9770461592  MEMB      185             0.0000000000
     21388       185  OSM       C16S          -22.7445204967       30.4733742808       -3.8054966319  MEMB      185             0.0000000000
     21389       185  OSM       H16S          -22.4780218800       29.7083181575       -4.5657538798  MEMB      185             0.0000000000
     21390       185  OSM       H16T          -23.8218804728       30.7164716871       -3.9259952520  MEMB      185             0.0000000000
     21391       185  OSM       C17S          -22.3863996610       29.9391839743       -2.4383247263  MEMB      185             0.0000000000
     21392       185  OSM       H17S          -21.2947735244       30.1078650692       -2.3190780521  MEMB      185             0.0000000000
     21393       185  OSM       H17T          -22.6987275941       28.8825343055       -2.2959745562  MEMB      185             0.0000000000
     21394       185  OSM       C18S          -23.1616444443       30.6144587941       -1.3522601765  MEMB      185             0.0000000000
     21395       185  OSM       H18S          -22.8254658112       30.1982355479       -0.3785748753  MEMB      185             0.0000000000
     21396       185  OSM       H18T          -24.2458222188       30.3742479052       -1.3865851581  MEMB      185             0.0000000000
     21397       185  OSM       H18U          -23.1796020083       31.7061115465       -1.5579122843  MEMB      185             0.0000000000
     21398       185  OSM       C1F           -25.9696960609       36.3366972482      -16.4385240387  MEMB      185             0.0000000000
     21399       185  OSM       OF            -26.9482954643       36.4362863831      -17.2041376903  MEMB      185             0.0000000000
     21400       185  OSM       C2F           -25.2052824728       37.5623335998      -15.9685875979  MEMB      185             0.0000000000
     21401       185  OSM       H2F           -24.5504027056       37.9096602137      -16.7961250913  MEMB      185             0.0000000000
     21402       185  OSM       H2G           -24.5055298562       37.2597282254      -15.1604436944  MEMB      185             0.0000000000
     21403       185  OSM       C3F           -26.1967845573       38.6668922419      -15.4944191926  MEMB      185             0.0000000000
     21404       185  OSM       H3F           -26.9936427561       38.9143243241      -16.2279824228  MEMB      185             0.0000000000
     21405       185  OSM       H3G           -25.6061314815       39.6058917113      -15.4333456164  MEMB      185             0.0000000000
     21406       185  OSM       C4F           -26.7955215193       38.4798446809      -14.0383500414  MEMB      185             0.0000000000
     21407       185  OSM       H4F           -27.2439226719       37.4633590219      -14.0345357797  MEMB      185             0.0000000000
     21408       185  OSM       H4G           -27.6079353577       39.2337000287      -13.9608474878  MEMB      185             0.0000000000
     21409       185  OSM       C5F           -25.7993081164       38.5077408489      -12.8697071046  MEMB      185             0.0000000000
     21410       185  OSM       H5F           -25.3707630185       39.5278166917      -12.7691309799  MEMB      185             0.0000000000
     21411       185  OSM       H5G           -24.9385380316       37.8364330579      -13.0764477193  MEMB      185             0.0000000000
     21412       185  OSM       C6F           -26.5165501034       38.1754522865      -11.6128879656  MEMB      185             0.0000000000
     21413       185  OSM       H6F           -27.1253798531       37.2614374515      -11.7808874463  MEMB      185             0.0000000000
     21414       185  OSM       H6G           -27.1536142932       39.0428261272      -11.3369656429  MEMB      185             0.0000000000
     21415       185  OSM       C7F           -25.5390832501       37.8802159659      -10.4779506550  MEMB      185             0.0000000000
     21416       185  OSM       H7F           -24.7073306118       37.3440922764      -10.9830054611  MEMB      185             0.0000000000
     21417       185  OSM       H7G           -26.0236408343       37.2445979034       -9.7062547648  MEMB      185             0.0000000000
     21418       185  OSM       C8F           -24.8500105534       39.2237850217      -10.0055538594  MEMB      185             0.0000000000
     21419       185  OSM       H8F           -25.6369798011       39.9230703225       -9.6505884717  MEMB      185             0.0000000000
     21420       185  OSM       H8G           -24.3633406325       39.6703641864      -10.8988846397  MEMB      185             0.0000000000
     21421       185  OSM       C9F           -23.8931316955       38.8761039524       -8.8695815812  MEMB      185             0.0000000000
     21422       185  OSM       H9F           -22.8403909670       38.7288320444       -9.1525093658  MEMB      185             0.0000000000
     21423       185  OSM       C10F          -24.3384469047       38.7853640755       -7.6150942248  MEMB      185             0.0000000000
     21424       185  OSM       H10F          -23.6094364878       38.5132217088       -6.8376091907  MEMB      185             0.0000000000
     21425       185  OSM       C11F          -25.7631816945       38.9029906299       -7.0847356978  MEMB      185             0.0000000000
     21426       185  OSM       H11F          -26.5850965869       38.5939285829       -7.7653656759  MEMB      185             0.0000000000
     21427       185  OSM       H11G          -25.9084244294       39.9880959138       -6.8955997298  MEMB      185             0.0000000000
     21428       185  OSM       C12F          -25.9331127896       38.0267768303       -5.8164945087  MEMB      185             0.0000000000
     21429       185  OSM       H12F          -27.0272639937       37.9379620557       -5.6454207199  MEMB      185             0.0000000000
     21430       185  OSM       H12G          -25.5214568812       38.6029919806       -4.9604362116  MEMB      185             0.0000000000
     21431       185  OSM       C13F          -25.4126124082       36.6044249016       -5.8448554733  MEMB      185             0.0000000000
     21432       185  OSM       H13F          -24.4883285390       36.4213079752       -6.4334885375  MEMB      185             0.0000000000
     21433       185  OSM       H13G          -26.2704318301       35.9918442884       -6.1958714595  MEMB      185             0.0000000000
     21434       185  OSM       C14F          -24.9016379238       36.2368983272       -4.3810313683  MEMB      185             0.0000000000
     21435       185  OSM       H14F          -23.9395273803       36.7581937243       -4.1888982512  MEMB      185             0.0000000000
     21436       185  OSM       H14G          -24.9121841932       35.1351472474       -4.2383628201  MEMB      185             0.0000000000
     21437       185  OSM       C15F          -25.9866500991       36.6287504652       -3.2410090676  MEMB      185             0.0000000000
     21438       185  OSM       H15F          -25.8665032214       37.7246989915       -3.1039598236  MEMB      185             0.0000000000
     21439       185  OSM       H15G          -25.5131785983       36.2577590849       -2.3069265766  MEMB      185             0.0000000000
     21440       185  OSM       C16F          -27.3704447591       36.1676756667       -3.4033987217  MEMB      185             0.0000000000
     21441       185  OSM       H16F          -27.7343055379       36.4647928532       -4.4102002311  MEMB      185             0.0000000000
     21442       185  OSM       H16G          -28.0480856450       36.6821470942       -2.6889458578  MEMB      185             0.0000000000
     21443       185  OSM       C17F          -27.7150322697       34.7035198542       -3.2503679815  MEMB      185             0.0000000000
     21444       185  OSM       H17F          -27.2001941217       34.0654396152       -4.0001138246  MEMB      185             0.0000000000
     21445       185  OSM       H17G          -28.7565631843       34.4037194791       -3.4946107861  MEMB      185             0.0000000000
     21446       185  OSM       C18F          -27.3204504256       34.1543523780       -1.8809590529  MEMB      185             0.0000000000
     21447       185  OSM       H18F          -27.9560880637       33.2755419634       -1.6401715626  MEMB      185             0.0000000000
     21448       185  OSM       H18G          -27.5954869660       34.8581300614       -1.0664807267  MEMB      185             0.0000000000
     21449       185  OSM       H18H          -26.2281197660       34.0799420909       -1.6922842804  MEMB      185             0.0000000000
     21450       186  SAPS      N              37.9684967591       26.0545374393      -19.4084798504  MEMB      186             0.0000000000
     21451       186  SAPS      HN1            38.6010423532       26.6032581183      -18.7917209972  MEMB      186             0.0000000000
     21452       186  SAPS      HN2            38.4061473229       25.1261319963      -19.5761859523  MEMB      186             0.0000000000
     21453       186  SAPS      HN3            37.8583206531       26.4706968601      -20.3551965807  MEMB      186             0.0000000000
     21454       186  SAPS      C12            36.4947590946       26.0119566919      -18.8721152834  MEMB      186             0.0000000000
     21455       186  SAPS      H12A           36.6191265508       25.4010709188      -17.9902131612  MEMB      186             0.0000000000
     21456       186  SAPS      C13            35.9432067986       27.3999293035      -18.5302959902  MEMB      186             0.0000000000
     21457       186  SAPS      O13A           36.6683157529       28.4177099627      -18.6808738097  MEMB      186             0.0000000000
     21458       186  SAPS      O13B           34.6639670779       27.4339628621      -18.2682423433  MEMB      186             0.0000000000
     21459       186  SAPS      C11            35.5390120501       25.4300212720      -20.0184797757  MEMB      186             0.0000000000
     21460       186  SAPS      H11A           35.4140057105       26.1105538092      -20.8877149934  MEMB      186             0.0000000000
     21461       186  SAPS      H11B           34.5135853089       25.2802102830      -19.6180080080  MEMB      186             0.0000000000
     21462       186  SAPS      P              34.8633518539       23.3022130093      -21.3837460311  MEMB      186             0.0000000000
     21463       186  SAPS      O13            33.9054263283       24.1973753747      -22.0761614670  MEMB      186             0.0000000000
     21464       186  SAPS      O14            35.6691430330       22.2676822668      -22.0592688085  MEMB      186             0.0000000000
     21465       186  SAPS      O12            35.9096973846       24.1222686310      -20.5159479804  MEMB      186             0.0000000000
     21466       186  SAPS      O11            34.0770690310       22.5444802579      -20.1863886887  MEMB      186             0.0000000000
     21467       186  SAPS      C1             34.8081518024       22.0470937849      -19.0457475433  MEMB      186             0.0000000000
     21468       186  SAPS      HA             35.0607353949       20.9660514550      -19.0889943451  MEMB      186             0.0000000000
     21469       186  SAPS      HB             35.7844163309       22.5417789978      -18.8546584591  MEMB      186             0.0000000000
     21470       186  SAPS      C2             33.9279487628       22.3100678333      -17.7301118937  MEMB      186             0.0000000000
     21471       186  SAPS      HS             33.1545973735       21.5142865747      -17.7847100629  MEMB      186             0.0000000000
     21472       186  SAPS      O21            33.4180167990       23.6043061785      -17.7473124773  MEMB      186             0.0000000000
     21473       186  SAPS      C21            32.3135092762       23.7872501138      -17.0912719380  MEMB      186             0.0000000000
     21474       186  SAPS      O22            31.5693116676       22.9071475817      -16.7238020434  MEMB      186             0.0000000000
     21475       186  SAPS      C22            32.2519221175       25.3003510154      -16.8032670929  MEMB      186             0.0000000000
     21476       186  SAPS      H2R            33.2669629422       25.6910276417      -17.0299488311  MEMB      186             0.0000000000
     21477       186  SAPS      H2S            31.5599449094       25.7567494226      -17.5429895825  MEMB      186             0.0000000000
     21478       186  SAPS      C3             34.8059782660       22.1278750566      -16.5129473544  MEMB      186             0.0000000000
     21479       186  SAPS      HX             35.3614020832       21.1656767099      -16.5129330754  MEMB      186             0.0000000000
     21480       186  SAPS      HY             34.0255982614       22.0916534770      -15.7230003733  MEMB      186             0.0000000000
     21481       186  SAPS      O31            35.6260696883       23.2771000368      -16.3185809531  MEMB      186             0.0000000000
     21482       186  SAPS      C31            36.3205489363       23.2520357635      -15.1223939034  MEMB      186             0.0000000000
     21483       186  SAPS      O32            36.3173881428       22.3039479404      -14.3505649231  MEMB      186             0.0000000000
     21484       186  SAPS      C32            37.1362652054       24.4633524217      -15.0105832989  MEMB      186             0.0000000000
     21485       186  SAPS      H2X            36.6296655480       25.4313107834      -15.2124113566  MEMB      186             0.0000000000
     21486       186  SAPS      H2Y            38.0236641488       24.4885028662      -15.6785738818  MEMB      186             0.0000000000
     21487       186  SAPS      C23            31.7278134397       25.5597669131      -15.3821533565  MEMB      186             0.0000000000
     21488       186  SAPS      H3R            30.6967167061       25.2171689369      -15.1502323965  MEMB      186             0.0000000000
     21489       186  SAPS      H3S            31.7362179481       26.6493378628      -15.1651610555  MEMB      186             0.0000000000
     21490       186  SAPS      C24            32.6057477902       24.8402181060      -14.2467074804  MEMB      186             0.0000000000
     21491       186  SAPS      H4R            33.5476413817       25.4294177545      -14.2476917452  MEMB      186             0.0000000000
     21492       186  SAPS      H4S            32.9696646499       23.8345287489      -14.5474971565  MEMB      186             0.0000000000
     21493       186  SAPS      C25            32.0157097561       24.8229688183      -12.9126344729  MEMB      186             0.0000000000
     21494       186  SAPS      H5R            31.4376135594       25.7470972210      -12.7650146673  MEMB      186             0.0000000000
     21495       186  SAPS      C26            31.9956881392       23.9232588641      -11.9292196330  MEMB      186             0.0000000000
     21496       186  SAPS      H6R            31.4431981667       24.1516431374      -11.0058594123  MEMB      186             0.0000000000
     21497       186  SAPS      C27            32.6662290329       22.5410937255      -11.9414757838  MEMB      186             0.0000000000
     21498       186  SAPS      H7R            32.7707130375       22.1671251246      -12.9824136560  MEMB      186             0.0000000000
     21499       186  SAPS      H7S            32.1943842330       21.7466461082      -11.3245993897  MEMB      186             0.0000000000
     21500       186  SAPS      C28            34.1409102224       22.5345611892      -11.5298167017  MEMB      186             0.0000000000
     21501       186  SAPS      H8R            34.8663570905       22.4081678589      -12.3469770923  MEMB      186             0.0000000000
     21502       186  SAPS      C29            34.4504931229       22.8038152175      -10.2388896620  MEMB      186             0.0000000000
     21503       186  SAPS      H9R            35.5063041311       22.9310019944       -9.9576657782  MEMB      186             0.0000000000
     21504       186  SAPS      C210           33.4950338270       23.0707946091       -9.0926385215  MEMB      186             0.0000000000
     21505       186  SAPS      H10R           32.5401678204       23.3433509299       -9.5909004052  MEMB      186             0.0000000000
     21506       186  SAPS      H10S           33.8826617690       23.9679633453       -8.5642882958  MEMB      186             0.0000000000
     21507       186  SAPS      C211           33.2709184972       21.7858205731       -8.2631087966  MEMB      186             0.0000000000
     21508       186  SAPS      H11R           33.1325152619       20.9288388218       -8.9387022080  MEMB      186             0.0000000000
     21509       186  SAPS      C212           33.1237735380       21.5546925903       -6.9565775025  MEMB      186             0.0000000000
     21510       186  SAPS      H12R           32.9586653167       20.4984531693       -6.6975462108  MEMB      186             0.0000000000
     21511       186  SAPS      C213           33.1424575297       22.5237020681       -5.8842889681  MEMB      186             0.0000000000
     21512       186  SAPS      H13R           33.5284823956       23.5583059009       -6.0063568698  MEMB      186             0.0000000000
     21513       186  SAPS      H13S           33.8253677934       22.0929948689       -5.1211074448  MEMB      186             0.0000000000
     21514       186  SAPS      C214           31.7863921892       22.6523034848       -5.2624919300  MEMB      186             0.0000000000
     21515       186  SAPS      H14R           31.3696661325       23.6554837107       -5.4356070654  MEMB      186             0.0000000000
     21516       186  SAPS      C215           31.1361724028       21.8728783657       -4.4025750250  MEMB      186             0.0000000000
     21517       186  SAPS      H15R           30.1498934109       22.1433310500       -3.9974717925  MEMB      186             0.0000000000
     21518       186  SAPS      C216           31.6988733626       20.5867073240       -3.9325598386  MEMB      186             0.0000000000
     21519       186  SAPS      H16R           32.6526290575       20.2291064453       -4.3761731087  MEMB      186             0.0000000000
     21520       186  SAPS      H16S           30.9391012122       19.8459282972       -4.2616710755  MEMB      186             0.0000000000
     21521       186  SAPS      C217           31.7778800239       20.4303823278       -2.4220885005  MEMB      186             0.0000000000
     21522       186  SAPS      H17R           31.8946936229       19.3303683486       -2.3189104059  MEMB      186             0.0000000000
     21523       186  SAPS      H17S           30.7998417589       20.5756296695       -1.9154647133  MEMB      186             0.0000000000
     21524       186  SAPS      C218           32.9494623371       21.1002495522       -1.7098820963  MEMB      186             0.0000000000
     21525       186  SAPS      H18R           32.3923720399       21.8800853498       -1.1478974412  MEMB      186             0.0000000000
     21526       186  SAPS      H18S           33.6023459919       21.5886349062       -2.4645621302  MEMB      186             0.0000000000
     21527       186  SAPS      C219           33.7923509962       20.2561678253       -0.8183083208  MEMB      186             0.0000000000
     21528       186  SAPS      H19R           34.2822991166       19.5361387520       -1.5081133893  MEMB      186             0.0000000000
     21529       186  SAPS      H19S           33.1660468675       19.7834121423       -0.0318183733  MEMB      186             0.0000000000
     21530       186  SAPS      C220           34.7367439603       21.1914510866        0.0150220792  MEMB      186             0.0000000000
     21531       186  SAPS      H20R           35.4524499328       20.8331668302        0.7855528818  MEMB      186             0.0000000000
     21532       186  SAPS      H20S           34.1081334117       21.8748675438        0.6250329434  MEMB      186             0.0000000000
     21533       186  SAPS      H20T           35.3885144580       21.7015581627       -0.7261306023  MEMB      186             0.0000000000
     21534       186  SAPS      C33            37.6833115793       24.5227421063      -13.5529620941  MEMB      186             0.0000000000
     21535       186  SAPS      H3X            38.3961511250       23.6716095041      -13.5948426169  MEMB      186             0.0000000000
     21536       186  SAPS      H3Y            37.0266472203       24.3928735339      -12.6662566312  MEMB      186             0.0000000000
     21537       186  SAPS      C34            38.4988175635       25.7826377506      -13.1591134074  MEMB      186             0.0000000000
     21538       186  SAPS      H4X            39.1198805650       26.1089385732      -14.0205823818  MEMB      186             0.0000000000
     21539       186  SAPS      H4Y            39.1330254958       25.4708218660      -12.3018667734  MEMB      186             0.0000000000
     21540       186  SAPS      C35            37.7073896682       27.0641192423      -12.7897485410  MEMB      186             0.0000000000
     21541       186  SAPS      H5X            36.9323625774       27.2036155648      -13.5734544670  MEMB      186             0.0000000000
     21542       186  SAPS      H5Y            38.4563469186       27.8823524915      -12.7274707927  MEMB      186             0.0000000000
     21543       186  SAPS      C36            36.9632410024       26.9686615176      -11.4156789489  MEMB      186             0.0000000000
     21544       186  SAPS      H6X            37.1215771652       28.0190815349      -11.0903046081  MEMB      186             0.0000000000
     21545       186  SAPS      H6Y            37.4558178535       26.2529250854      -10.7232845448  MEMB      186             0.0000000000
     21546       186  SAPS      C37            35.4514479473       26.7238530834      -11.3756290788  MEMB      186             0.0000000000
     21547       186  SAPS      H7X            35.3537725487       25.6176250472      -11.4078800428  MEMB      186             0.0000000000
     21548       186  SAPS      H7Y            35.0083464026       27.1797330221      -12.2867571889  MEMB      186             0.0000000000
     21549       186  SAPS      C38            34.8262625240       27.1323785242      -10.1203372592  MEMB      186             0.0000000000
     21550       186  SAPS      H8X            33.8784077910       26.5536315879      -10.0896100540  MEMB      186             0.0000000000
     21551       186  SAPS      H8Y            34.7353739813       28.2394916040      -10.1393444233  MEMB      186             0.0000000000
     21552       186  SAPS      C39            35.6014982155       26.7211566637       -8.8957710888  MEMB      186             0.0000000000
     21553       186  SAPS      H9X            36.5237687309       27.3285752443       -8.7741948169  MEMB      186             0.0000000000
     21554       186  SAPS      H9Y            35.9719581230       25.6761158266       -8.9662703318  MEMB      186             0.0000000000
     21555       186  SAPS      C310           34.7890153461       26.9434824594       -7.5778142304  MEMB      186             0.0000000000
     21556       186  SAPS      H10X           33.9709615727       26.2007691395       -7.6939447588  MEMB      186             0.0000000000
     21557       186  SAPS      H10Y           34.3926098145       27.9809861646       -7.5500730621  MEMB      186             0.0000000000
     21558       186  SAPS      C311           35.5662237246       26.6696207154       -6.3668334882  MEMB      186             0.0000000000
     21559       186  SAPS      H11X           36.6168303535       27.0096730429       -6.4889427989  MEMB      186             0.0000000000
     21560       186  SAPS      H11Y           35.6089413832       25.5682061234       -6.5060523946  MEMB      186             0.0000000000
     21561       186  SAPS      C312           34.8387233250       26.9896785182       -5.1033020530  MEMB      186             0.0000000000
     21562       186  SAPS      H12X           33.8667046440       26.4518029237       -5.0895033962  MEMB      186             0.0000000000
     21563       186  SAPS      H12Y           34.5151329966       28.0523686791       -5.1206233979  MEMB      186             0.0000000000
     21564       186  SAPS      C313           35.7848823570       26.6709648336       -3.9627087051  MEMB      186             0.0000000000
     21565       186  SAPS      H13X           36.6287301294       27.3825656778       -4.0886681394  MEMB      186             0.0000000000
     21566       186  SAPS      H13Y           36.0784936789       25.6002426998       -4.0035435769  MEMB      186             0.0000000000
     21567       186  SAPS      C314           35.2526572075       27.0480290500       -2.5691780417  MEMB      186             0.0000000000
     21568       186  SAPS      H14X           35.1194845440       28.1427768299       -2.4345937924  MEMB      186             0.0000000000
     21569       186  SAPS      H14Y           35.9437308779       26.6893645673       -1.7766518951  MEMB      186             0.0000000000
     21570       186  SAPS      C315           33.9073218343       26.3865471007       -2.2298271644  MEMB      186             0.0000000000
     21571       186  SAPS      H15X           33.8629431137       25.3317972253       -2.5760273344  MEMB      186             0.0000000000
     21572       186  SAPS      H15Y           33.0098059260       26.8976934849       -2.6391133673  MEMB      186             0.0000000000
     21573       186  SAPS      C316           33.7646173980       26.2726753252       -0.6709572855  MEMB      186             0.0000000000
     21574       186  SAPS      H16X           33.7910007993       27.3034607081       -0.2573066297  MEMB      186             0.0000000000
     21575       186  SAPS      H16Y           34.7435028774       25.8594377757       -0.3463982389  MEMB      186             0.0000000000
     21576       186  SAPS      C317           32.6191768418       25.4934381571       -0.2298365580  MEMB      186             0.0000000000
     21577       186  SAPS      H17X           32.8390953292       25.0551218419        0.7670764856  MEMB      186             0.0000000000
     21578       186  SAPS      H17Y           32.4893378829       24.5881752186       -0.8606795216  MEMB      186             0.0000000000
     21579       186  SAPS      C318           31.2516689037       26.1892313032       -0.0681387339  MEMB      186             0.0000000000
     21580       186  SAPS      H18X           31.2497225186       26.6860588195        0.9255808990  MEMB      186             0.0000000000
     21581       186  SAPS      H18Y           30.4884985449       25.3928779018       -0.2012292047  MEMB      186             0.0000000000
     21582       186  SAPS      H18Z           31.0279756443       27.0299929185       -0.7590804110  MEMB      186             0.0000000000
     21583       187  OSM       N              28.5394891605      -33.6756527493      -22.2635182279  MEMB      187             0.0000000000
     21584       187  OSM       C15            27.7983030018      -32.3685071423      -22.5586929250  MEMB      187             0.0000000000
     21585       187  OSM       H15A           27.4391127040      -31.9720819355      -21.6204873915  MEMB      187             0.0000000000
     21586       187  OSM       H15B           27.1349546484      -32.3492017361      -23.4107468493  MEMB      187             0.0000000000
     21587       187  OSM       H15C           28.5375595897      -31.6619657482      -22.9061103730  MEMB      187             0.0000000000
     21588       187  OSM       C14            29.3326170233      -34.0767015134      -23.5423932388  MEMB      187             0.0000000000
     21589       187  OSM       H14A           28.5623183270      -34.0765262140      -24.2993874122  MEMB      187             0.0000000000
     21590       187  OSM       H14B           29.8282342206      -35.0360661788      -23.5228226805  MEMB      187             0.0000000000
     21591       187  OSM       H14C           30.0973592187      -33.3999118340      -23.8938550117  MEMB      187             0.0000000000
     21592       187  OSM       C13            29.4453546052      -33.3714725080      -21.1180805438  MEMB      187             0.0000000000
     21593       187  OSM       H13A           29.9980380585      -34.2583874914      -20.8454586336  MEMB      187             0.0000000000
     21594       187  OSM       H13B           28.8124718876      -33.0224465666      -20.3155592910  MEMB      187             0.0000000000
     21595       187  OSM       H13C           30.1111574464      -32.5876639628      -21.4478543728  MEMB      187             0.0000000000
     21596       187  OSM       C12            27.4842188060      -34.7954164887      -22.0730295338  MEMB      187             0.0000000000
     21597       187  OSM       H12A           26.9840676401      -34.9512753972      -23.0174643018  MEMB      187             0.0000000000
     21598       187  OSM       H12B           26.7263847564      -34.4585478791      -21.3812151524  MEMB      187             0.0000000000
     21599       187  OSM       C11            28.0804941987      -36.1528213428      -21.4594476577  MEMB      187             0.0000000000
     21600       187  OSM       H11A           28.7084869993      -36.6221829335      -22.2466234265  MEMB      187             0.0000000000
     21601       187  OSM       H11B           27.1857325025      -36.7612953382      -21.2074916314  MEMB      187             0.0000000000
     21602       187  OSM       P              29.6864060310      -37.0426913624      -19.6372318191  MEMB      187             0.0000000000
     21603       187  OSM       O13            29.2039456709      -38.4139757989      -19.9795159291  MEMB      187             0.0000000000
     21604       187  OSM       O14            30.9868796494      -36.6306427220      -20.0537219421  MEMB      187             0.0000000000
     21605       187  OSM       O11            29.4862468436      -36.6918518706      -18.1063234968  MEMB      187             0.0000000000
     21606       187  OSM       O12            28.7109291596      -35.9372567028      -20.2080446690  MEMB      187             0.0000000000
     21607       187  OSM       C1S            28.6815702588      -37.5166345214      -17.2900599147  MEMB      187             0.0000000000
     21608       187  OSM       H1S            29.1735045169      -38.5069982627      -17.1828152830  MEMB      187             0.0000000000
     21609       187  OSM       H1T            27.6855966779      -37.6544104163      -17.7626859937  MEMB      187             0.0000000000
     21610       187  OSM       NF             29.1520713710      -37.5029263078      -14.8540297672  MEMB      187             0.0000000000
     21611       187  OSM       HNF            28.6057409293      -37.8680917863      -14.1042390120  MEMB      187             0.0000000000
     21612       187  OSM       C2S            28.3863470441      -36.8708851806      -15.8737228686  MEMB      187             0.0000000000
     21613       187  OSM       H2S            28.6199119325      -35.7847831722      -15.8860081090  MEMB      187             0.0000000000
     21614       187  OSM       C3S            26.9107505903      -37.0998496946      -15.5698997569  MEMB      187             0.0000000000
     21615       187  OSM       H3S            26.7428907420      -38.1972671887      -15.6125484701  MEMB      187             0.0000000000
     21616       187  OSM       O3             25.9356666067      -36.6200678725      -16.5897648154  MEMB      187             0.0000000000
     21617       187  OSM       HO3            26.5301044134      -36.3310264384      -17.2859677924  MEMB      187             0.0000000000
     21618       187  OSM       C4S            26.6727917450      -36.4734372079      -14.2122875763  MEMB      187             0.0000000000
     21619       187  OSM       H4S            26.7132009269      -37.1841502273      -13.3736848440  MEMB      187             0.0000000000
     21620       187  OSM       C5S            26.3319911605      -35.2055319840      -13.9853643653  MEMB      187             0.0000000000
     21621       187  OSM       H5S            26.2610556888      -34.4702945980      -14.8004677773  MEMB      187             0.0000000000
     21622       187  OSM       C6S            26.0338695341      -34.4481168724      -12.6793083663  MEMB      187             0.0000000000
     21623       187  OSM       H6S            24.9859675040      -34.7136300103      -12.4229384451  MEMB      187             0.0000000000
     21624       187  OSM       H6T            26.0897481125      -33.3445907117      -12.7951897562  MEMB      187             0.0000000000
     21625       187  OSM       C7S            26.8286681447      -34.9712421236      -11.4349245828  MEMB      187             0.0000000000
     21626       187  OSM       H7S            27.8993922576      -34.9061993168      -11.7241310846  MEMB      187             0.0000000000
     21627       187  OSM       H7T            26.6663163817      -36.0701105511      -11.4561630408  MEMB      187             0.0000000000
     21628       187  OSM       C8S            26.4124952590      -34.2796375661      -10.0733964059  MEMB      187             0.0000000000
     21629       187  OSM       H8S            25.3029672962      -34.3259680127      -10.1068981851  MEMB      187             0.0000000000
     21630       187  OSM       H8T            26.6307972372      -33.1922291461      -10.1382666340  MEMB      187             0.0000000000
     21631       187  OSM       C9S            26.8046516733      -34.9362842411       -8.7582588831  MEMB      187             0.0000000000
     21632       187  OSM       H9S            27.9074513182      -34.9552374278       -8.6248606402  MEMB      187             0.0000000000
     21633       187  OSM       H9T            26.4123182840      -35.9749711541       -8.7973113442  MEMB      187             0.0000000000
     21634       187  OSM       C10S           26.2402988961      -34.2395232943       -7.4662147045  MEMB      187             0.0000000000
     21635       187  OSM       H10S           25.1604229595      -34.3930916227       -7.2550148205  MEMB      187             0.0000000000
     21636       187  OSM       H10T           26.3321977816      -33.1526561079       -7.6773912823  MEMB      187             0.0000000000
     21637       187  OSM       C11S           27.0303600077      -34.6280699690       -6.2077911660  MEMB      187             0.0000000000
     21638       187  OSM       H11S           28.0393683224      -34.1632560180       -6.1947062191  MEMB      187             0.0000000000
     21639       187  OSM       H11T           27.2795347815      -35.7102657577       -6.2407372852  MEMB      187             0.0000000000
     21640       187  OSM       C12S           26.3157360663      -34.3596902347       -4.8594346102  MEMB      187             0.0000000000
     21641       187  OSM       H12S           25.3199793430      -34.8500756416       -4.9075146011  MEMB      187             0.0000000000
     21642       187  OSM       H12T           26.1006337486      -33.3266500946       -4.5117564587  MEMB      187             0.0000000000
     21643       187  OSM       C13S           27.1149395849      -34.9580713218       -3.7514430913  MEMB      187             0.0000000000
     21644       187  OSM       H13S           27.6268752783      -35.8550054802       -4.1610179860  MEMB      187             0.0000000000
     21645       187  OSM       H13T           26.4853260664      -35.2474456957       -2.8830132656  MEMB      187             0.0000000000
     21646       187  OSM       C14S           28.1555950377      -34.0064623349       -3.1535789588  MEMB      187             0.0000000000
     21647       187  OSM       H14S           27.6168059231      -33.0785362943       -2.8655158223  MEMB      187             0.0000000000
     21648       187  OSM       H14T           28.9004244464      -33.7185651387       -3.9260212077  MEMB      187             0.0000000000
     21649       187  OSM       C15S           28.9678779940      -34.5789183041       -1.9661398723  MEMB      187             0.0000000000
     21650       187  OSM       H15S           29.9715615454      -34.8824374147       -2.3333139510  MEMB      187             0.0000000000
     21651       187  OSM       H15T           28.4094251051      -35.4795631047       -1.6325372784  MEMB      187             0.0000000000
     21652       187  OSM       C16S           29.2295981070      -33.5255105735       -0.8964064644  MEMB      187             0.0000000000
     21653       187  OSM       H16S           29.6185232064      -32.7275123262       -1.5644313205  MEMB      187             0.0000000000
     21654       187  OSM       H16T           30.0546857244      -33.9018898375       -0.2546193387  MEMB      187             0.0000000000
     21655       187  OSM       C17S           28.0072349031      -33.1736860876       -0.0417228787  MEMB      187             0.0000000000
     21656       187  OSM       H17S           27.5716911142      -34.1085097131        0.3714702218  MEMB      187             0.0000000000
     21657       187  OSM       H17T           27.2777309016      -32.6021747122       -0.6545192523  MEMB      187             0.0000000000
     21658       187  OSM       C18S           28.3282838947      -32.2138634559        1.1432271393  MEMB      187             0.0000000000
     21659       187  OSM       H18S           27.4749351121      -32.0363630436        1.8321461828  MEMB      187             0.0000000000
     21660       187  OSM       H18T           28.6114656247      -31.1783430697        0.8571742980  MEMB      187             0.0000000000
     21661       187  OSM       H18U           29.1219812226      -32.7203724788        1.7329849567  MEMB      187             0.0000000000
     21662       187  OSM       C1F            30.5131596712      -37.4517032301      -14.8718657895  MEMB      187             0.0000000000
     21663       187  OSM       OF             31.2232269063      -36.7947180268      -15.6183561688  MEMB      187             0.0000000000
     21664       187  OSM       C2F            31.1468941684      -38.3851797201      -13.9275863809  MEMB      187             0.0000000000
     21665       187  OSM       H2F            31.3432489779      -39.3234120918      -14.4892678516  MEMB      187             0.0000000000
     21666       187  OSM       H2G            30.4991672723      -38.6105656753      -13.0535314587  MEMB      187             0.0000000000
     21667       187  OSM       C3F            32.3743793722      -37.7334736256      -13.3958096335  MEMB      187             0.0000000000
     21668       187  OSM       H3F            33.2024228423      -37.5788550891      -14.1202110702  MEMB      187             0.0000000000
     21669       187  OSM       H3G            32.7273988604      -38.2610436300      -12.4840152439  MEMB      187             0.0000000000
     21670       187  OSM       C4F            32.2335546359      -36.3223872052      -12.7442433724  MEMB      187             0.0000000000
     21671       187  OSM       H4F            31.8175759636      -35.6159225231      -13.4940369767  MEMB      187             0.0000000000
     21672       187  OSM       H4G            33.2018086279      -35.9161399433      -12.3812447826  MEMB      187             0.0000000000
     21673       187  OSM       C5F            31.1454664799      -36.1322819935      -11.6205811539  MEMB      187             0.0000000000
     21674       187  OSM       H5F            30.1461464380      -36.2448082728      -12.0928294328  MEMB      187             0.0000000000
     21675       187  OSM       H5G            31.2260687068      -35.0902220514      -11.2438383947  MEMB      187             0.0000000000
     21676       187  OSM       C6F            31.3801272829      -37.0477757688      -10.4262861884  MEMB      187             0.0000000000
     21677       187  OSM       H6F            32.4688820090      -36.9649580719      -10.2211640020  MEMB      187             0.0000000000
     21678       187  OSM       H6G            31.2070251102      -38.1373836056      -10.5570974537  MEMB      187             0.0000000000
     21679       187  OSM       C7F            30.6387552104      -36.6873239869       -9.1322207235  MEMB      187             0.0000000000
     21680       187  OSM       H7F            29.6236622776      -37.1350379994       -9.0734013417  MEMB      187             0.0000000000
     21681       187  OSM       H7G            30.4557121442      -35.5922653674       -9.1729982166  MEMB      187             0.0000000000
     21682       187  OSM       C8F            31.4511472659      -36.8284078532       -7.8069262626  MEMB      187             0.0000000000
     21683       187  OSM       H8F            30.7717898745      -36.4744832511       -7.0022327072  MEMB      187             0.0000000000
     21684       187  OSM       H8G            32.3425939209      -36.1756526219       -7.9233504325  MEMB      187             0.0000000000
     21685       187  OSM       C9F            31.9519821619      -38.1887736332       -7.5125886566  MEMB      187             0.0000000000
     21686       187  OSM       H9F            32.9303064958      -38.3464352011       -7.9901068394  MEMB      187             0.0000000000
     21687       187  OSM       C10F           31.4222689449      -39.1769931532       -6.7268229566  MEMB      187             0.0000000000
     21688       187  OSM       H10F           32.0321786682      -40.0852335812       -6.6123242771  MEMB      187             0.0000000000
     21689       187  OSM       C11F           30.0942625389      -39.1509444422       -5.9217062176  MEMB      187             0.0000000000
     21690       187  OSM       H11F           29.4328364366      -40.0320750532       -6.0646937422  MEMB      187             0.0000000000
     21691       187  OSM       H11G           29.4474676155      -38.2843064805       -6.1764922657  MEMB      187             0.0000000000
     21692       187  OSM       C12F           30.3310218126      -38.9930747075       -4.4246019298  MEMB      187             0.0000000000
     21693       187  OSM       H12F           29.3678245652      -39.3392587807       -3.9924816082  MEMB      187             0.0000000000
     21694       187  OSM       H12G           30.4885177294      -37.9351032039       -4.1242487669  MEMB      187             0.0000000000
     21695       187  OSM       C13F           31.3461717638      -39.9602998093       -3.7781832968  MEMB      187             0.0000000000
     21696       187  OSM       H13F           32.4021212764      -39.6238730294       -3.8563396562  MEMB      187             0.0000000000
     21697       187  OSM       H13G           31.1170517567      -40.9650983069       -4.1931596266  MEMB      187             0.0000000000
     21698       187  OSM       C14F           31.0426030115      -40.1791414524       -2.3216856040  MEMB      187             0.0000000000
     21699       187  OSM       H14F           31.8014087770      -40.7832747358       -1.7798767465  MEMB      187             0.0000000000
     21700       187  OSM       H14G           30.0522015236      -40.6825386578       -2.3175660101  MEMB      187             0.0000000000
     21701       187  OSM       C15F           30.7771374297      -38.9420906725       -1.4283140918  MEMB      187             0.0000000000
     21702       187  OSM       H15F           29.9854948600      -38.4826877797       -2.0580540202  MEMB      187             0.0000000000
     21703       187  OSM       H15G           31.6438196439      -38.2469799250       -1.4262883470  MEMB      187             0.0000000000
     21704       187  OSM       C16F           30.2060256876      -39.1490100013        0.0277329937  MEMB      187             0.0000000000
     21705       187  OSM       H16F           30.8150395733      -39.9534209750        0.4928626784  MEMB      187             0.0000000000
     21706       187  OSM       H16G           29.2066161518      -39.6314716547       -0.0245392404  MEMB      187             0.0000000000
     21707       187  OSM       C17F           29.9718910380      -37.9046566354        0.8884753339  MEMB      187             0.0000000000
     21708       187  OSM       H17F           30.7506443670      -37.1253308993        0.7452428290  MEMB      187             0.0000000000
     21709       187  OSM       H17G           30.0338182922      -38.0661647680        1.9859287037  MEMB      187             0.0000000000
     21710       187  OSM       C18F           28.6009469215      -37.1689588014        0.5754734530  MEMB      187             0.0000000000
     21711       187  OSM       H18F           28.3620743744      -37.2754993621       -0.5043005993  MEMB      187             0.0000000000
     21712       187  OSM       H18G           28.6140917002      -36.0756841343        0.7727005410  MEMB      187             0.0000000000
     21713       187  OSM       H18H           27.8220451507      -37.6672163579        1.1914045691  MEMB      187             0.0000000000
     21714       188  OSM       N              30.2612961694       29.4296755341      -21.7837487476  MEMB      188             0.0000000000
     21715       188  OSM       C15            29.2040595778       30.1444087765      -21.0432614819  MEMB      188             0.0000000000
     21716       188  OSM       H15A           28.4386603033       29.5071697778      -20.6255408492  MEMB      188             0.0000000000
     21717       188  OSM       H15B           28.6240113629       30.7214882885      -21.7481893533  MEMB      188             0.0000000000
     21718       188  OSM       H15C           29.5170712156       30.7388545467      -20.1976504255  MEMB      188             0.0000000000
     21719       188  OSM       C14            31.0175317102       28.6625335161      -20.7184064238  MEMB      188             0.0000000000
     21720       188  OSM       H14A           31.5322005505       29.4159749899      -20.1406159947  MEMB      188             0.0000000000
     21721       188  OSM       H14B           31.6453612872       27.9242340622      -21.1950025413  MEMB      188             0.0000000000
     21722       188  OSM       H14C           30.2478661153       28.1137278235      -20.1960777135  MEMB      188             0.0000000000
     21723       188  OSM       C13            29.6546721485       28.4145339864      -22.7597837256  MEMB      188             0.0000000000
     21724       188  OSM       H13A           29.0402496079       28.9577387828      -23.4625024031  MEMB      188             0.0000000000
     21725       188  OSM       H13B           29.0832724432       27.7564103750      -22.1219938859  MEMB      188             0.0000000000
     21726       188  OSM       H13C           30.4364847351       27.8400443809      -23.2342631936  MEMB      188             0.0000000000
     21727       188  OSM       C12            31.2879994943       30.3890237293      -22.4468358306  MEMB      188             0.0000000000
     21728       188  OSM       H12A           30.7823995309       30.8836954741      -23.2629660139  MEMB      188             0.0000000000
     21729       188  OSM       H12B           32.0762389616       29.8425245826      -22.9432402062  MEMB      188             0.0000000000
     21730       188  OSM       C11            31.9414630913       31.5088486508      -21.5900461229  MEMB      188             0.0000000000
     21731       188  OSM       H11A           32.6692870395       32.0891645116      -22.1965332448  MEMB      188             0.0000000000
     21732       188  OSM       H11B           32.3524851303       31.0925980639      -20.6455265190  MEMB      188             0.0000000000
     21733       188  OSM       P              31.3455025525       33.6850140539      -20.1732514857  MEMB      188             0.0000000000
     21734       188  OSM       O13            32.7464083212       34.1426764204      -20.3268848804  MEMB      188             0.0000000000
     21735       188  OSM       O14            30.2921278801       34.7598771295      -20.2790321247  MEMB      188             0.0000000000
     21736       188  OSM       O11            31.2299191668       33.0313682338      -18.7021945977  MEMB      188             0.0000000000
     21737       188  OSM       O12            31.0138255898       32.4588314715      -21.1765545760  MEMB      188             0.0000000000
     21738       188  OSM       C1S            30.1057160834       32.1440828705      -18.5293556510  MEMB      188             0.0000000000
     21739       188  OSM       H1S            30.4914017171       31.1660866547      -18.8886479695  MEMB      188             0.0000000000
     21740       188  OSM       H1T            29.1936599347       32.5108771334      -19.0469815657  MEMB      188             0.0000000000
     21741       188  OSM       NF             29.0385159413       30.8529869163      -16.6298820527  MEMB      188             0.0000000000
     21742       188  OSM       HNF            28.1472949196       31.0971129387      -16.2555340038  MEMB      188             0.0000000000
     21743       188  OSM       C2S            29.8499302469       31.9804374455      -16.9566678630  MEMB      188             0.0000000000
     21744       188  OSM       H2S            30.8614179828       31.8628916033      -16.5123743565  MEMB      188             0.0000000000
     21745       188  OSM       C3S            29.1806030657       33.1516793792      -16.2876296357  MEMB      188             0.0000000000
     21746       188  OSM       H3S            28.0973561056       33.2779358951      -16.4996583141  MEMB      188             0.0000000000
     21747       188  OSM       O3             29.8179279167       34.3689537019      -16.5346489785  MEMB      188             0.0000000000
     21748       188  OSM       HO3            30.3766407297       34.1570026342      -17.2859921791  MEMB      188             0.0000000000
     21749       188  OSM       C4S            29.2027648448       32.8643915081      -14.7521416664  MEMB      188             0.0000000000
     21750       188  OSM       H4S            30.1721427336       32.6665523054      -14.2713439850  MEMB      188             0.0000000000
     21751       188  OSM       C5S            28.1045023646       32.8229277157      -14.0302398720  MEMB      188             0.0000000000
     21752       188  OSM       H5S            27.1620912242       33.0179757065      -14.5629852198  MEMB      188             0.0000000000
     21753       188  OSM       C6S            27.9949258259       32.4789865851      -12.5813918555  MEMB      188             0.0000000000
     21754       188  OSM       H6S            27.3502939213       31.5745260083      -12.5545242024  MEMB      188             0.0000000000
     21755       188  OSM       H6T            27.3644016584       33.2502650507      -12.0895692549  MEMB      188             0.0000000000
     21756       188  OSM       C7S            29.3341142739       32.4543369989      -11.8015826067  MEMB      188             0.0000000000
     21757       188  OSM       H7S            29.9541656869       33.3125131490      -12.1383175868  MEMB      188             0.0000000000
     21758       188  OSM       H7T            29.8547573756       31.5309549318      -12.1341745102  MEMB      188             0.0000000000
     21759       188  OSM       C8S            29.1276809995       32.3865826604      -10.2887399356  MEMB      188             0.0000000000
     21760       188  OSM       H8S            28.7354556893       31.4177592235       -9.9120943574  MEMB      188             0.0000000000
     21761       188  OSM       H8T            28.2858483586       33.0915456482      -10.1194281578  MEMB      188             0.0000000000
     21762       188  OSM       C9S            30.3132397896       33.0716286738       -9.5954156334  MEMB      188             0.0000000000
     21763       188  OSM       H9S            30.1664839617       33.2707955179       -8.5123101331  MEMB      188             0.0000000000
     21764       188  OSM       H9T            30.3478813496       34.0119012454      -10.1861849745  MEMB      188             0.0000000000
     21765       188  OSM       C10S           31.6558821377       32.2877446745       -9.8498025375  MEMB      188             0.0000000000
     21766       188  OSM       H10S           32.3917741524       32.7303528472       -9.1449037026  MEMB      188             0.0000000000
     21767       188  OSM       H10T           31.9419763238       32.4900153702      -10.9041071343  MEMB      188             0.0000000000
     21768       188  OSM       C11S           31.6286859258       30.8227486701       -9.4744721003  MEMB      188             0.0000000000
     21769       188  OSM       H11S           32.5820151811       30.2833970292       -9.6604403798  MEMB      188             0.0000000000
     21770       188  OSM       H11T           30.7906031118       30.2555529691       -9.9329769286  MEMB      188             0.0000000000
     21771       188  OSM       C12S           31.4914052673       30.5158774835       -7.9571252266  MEMB      188             0.0000000000
     21772       188  OSM       H12S           30.5880661415       30.8309467365       -7.3922972332  MEMB      188             0.0000000000
     21773       188  OSM       H12T           32.3001551925       31.0617142610       -7.4257996009  MEMB      188             0.0000000000
     21774       188  OSM       C13S           31.7195808726       28.9883875538       -7.6521115284  MEMB      188             0.0000000000
     21775       188  OSM       H13S           32.7443038854       28.6960335664       -7.3377985896  MEMB      188             0.0000000000
     21776       188  OSM       H13T           31.6680258764       28.4870699996       -8.6422346854  MEMB      188             0.0000000000
     21777       188  OSM       C14S           30.6368494357       28.4084298916       -6.7490649886  MEMB      188             0.0000000000
     21778       188  OSM       H14S           30.7779002476       27.3105985673       -6.6531890747  MEMB      188             0.0000000000
     21779       188  OSM       H14T           29.6903786723       28.6066204333       -7.2960889776  MEMB      188             0.0000000000
     21780       188  OSM       C15S           30.4895190413       29.0765439513       -5.3770100329  MEMB      188             0.0000000000
     21781       188  OSM       H15S           29.6297898726       28.6029757381       -4.8565097271  MEMB      188             0.0000000000
     21782       188  OSM       H15T           30.3248952648       30.1747351188       -5.4115976920  MEMB      188             0.0000000000
     21783       188  OSM       C16S           31.6702907262       28.8776736697       -4.3902854190  MEMB      188             0.0000000000
     21784       188  OSM       H16S           32.5894127941       29.2967055701       -4.8528310171  MEMB      188             0.0000000000
     21785       188  OSM       H16T           31.7058248818       27.7789175276       -4.2296834664  MEMB      188             0.0000000000
     21786       188  OSM       C17S           31.3659811726       29.5429725424       -3.0064326922  MEMB      188             0.0000000000
     21787       188  OSM       H17S           30.3894799164       29.0757075099       -2.7565742235  MEMB      188             0.0000000000
     21788       188  OSM       H17T           31.2879212011       30.6172261621       -3.2788418474  MEMB      188             0.0000000000
     21789       188  OSM       C18S           32.3341277588       29.1465093934       -1.9239642657  MEMB      188             0.0000000000
     21790       188  OSM       H18S           33.3695050699       29.3766797340       -2.2546258627  MEMB      188             0.0000000000
     21791       188  OSM       H18T           32.3074699686       28.0358324881       -1.9212907069  MEMB      188             0.0000000000
     21792       188  OSM       H18U           32.0578645946       29.4632064922       -0.8955179436  MEMB      188             0.0000000000
     21793       188  OSM       C1F            29.2878215939       29.5965805650      -17.0558382536  MEMB      188             0.0000000000
     21794       188  OSM       OF             30.3992803220       29.2435571687      -17.4467064485  MEMB      188             0.0000000000
     21795       188  OSM       C2F            28.1822449806       28.5681733792      -16.9227686793  MEMB      188             0.0000000000
     21796       188  OSM       H2F            28.1592955178       27.9800113318      -17.8650318178  MEMB      188             0.0000000000
     21797       188  OSM       H2G            27.2551743413       29.1651527579      -16.7868390161  MEMB      188             0.0000000000
     21798       188  OSM       C3F            28.4178456986       27.6904359638      -15.6793673919  MEMB      188             0.0000000000
     21799       188  OSM       H3F            29.2722391920       26.9863347100      -15.7719646741  MEMB      188             0.0000000000
     21800       188  OSM       H3G            27.4958026265       27.0708850909      -15.6616305801  MEMB      188             0.0000000000
     21801       188  OSM       C4F            28.4160550364       28.3393872201      -14.3054195440  MEMB      188             0.0000000000
     21802       188  OSM       H4F            28.0716778042       29.3678986970      -14.5460218312  MEMB      188             0.0000000000
     21803       188  OSM       H4G            29.4687278003       28.4165830988      -13.9586601599  MEMB      188             0.0000000000
     21804       188  OSM       C5F            27.5786477784       27.7365095657      -13.2390832229  MEMB      188             0.0000000000
     21805       188  OSM       H5F            28.0052655415       26.7568743889      -12.9347261489  MEMB      188             0.0000000000
     21806       188  OSM       H5G            26.5408052189       27.4819961352      -13.5431017525  MEMB      188             0.0000000000
     21807       188  OSM       C6F            27.4093016615       28.6245880101      -11.9974573849  MEMB      188             0.0000000000
     21808       188  OSM       H6F            26.8395568537       29.5738779344      -12.0899801754  MEMB      188             0.0000000000
     21809       188  OSM       H6G            28.4327189459       29.0148459100      -11.8113478719  MEMB      188             0.0000000000
     21810       188  OSM       C7F            26.9248804861       27.8464976763      -10.6854906164  MEMB      188             0.0000000000
     21811       188  OSM       H7F            27.7290313180       27.0910786803      -10.5550892509  MEMB      188             0.0000000000
     21812       188  OSM       H7G            25.8892349108       27.5913780327      -10.9964140114  MEMB      188             0.0000000000
     21813       188  OSM       C8F            27.0566286911       28.6404821710       -9.3954669451  MEMB      188             0.0000000000
     21814       188  OSM       H8F            28.1255391902       28.9337451648       -9.3196517975  MEMB      188             0.0000000000
     21815       188  OSM       H8G            27.0383581828       27.9445445818       -8.5296390514  MEMB      188             0.0000000000
     21816       188  OSM       C9F            26.1245905268       29.7841572699       -9.3478521540  MEMB      188             0.0000000000
     21817       188  OSM       H9F            25.8212923322       30.2116853897      -10.3149246976  MEMB      188             0.0000000000
     21818       188  OSM       C10F           25.7913912875       30.4780293838       -8.2738398788  MEMB      188             0.0000000000
     21819       188  OSM       H10F           25.1908489236       31.3966049860       -8.3484584225  MEMB      188             0.0000000000
     21820       188  OSM       C11F           26.2386017119       30.2549706418       -6.8442551380  MEMB      188             0.0000000000
     21821       188  OSM       H11F           26.7692362955       29.2978842872       -6.6525958784  MEMB      188             0.0000000000
     21822       188  OSM       H11G           25.3004826225       30.4297129888       -6.2752920391  MEMB      188             0.0000000000
     21823       188  OSM       C12F           27.1259793096       31.3720696712       -6.2251287093  MEMB      188             0.0000000000
     21824       188  OSM       H12F           26.7386822733       32.3596361109       -6.5553325678  MEMB      188             0.0000000000
     21825       188  OSM       H12G           28.1301402840       31.2081918992       -6.6713649567  MEMB      188             0.0000000000
     21826       188  OSM       C13F           27.2973761943       31.1766398561       -4.7032334620  MEMB      188             0.0000000000
     21827       188  OSM       H13F           27.6254162559       30.1322092024       -4.5138251763  MEMB      188             0.0000000000
     21828       188  OSM       H13G           26.3328901606       31.2878263933       -4.1631188815  MEMB      188             0.0000000000
     21829       188  OSM       C14F           28.2131319491       32.1445038961       -3.9743563954  MEMB      188             0.0000000000
     21830       188  OSM       H14F           27.7914390322       33.1720952985       -3.9978493263  MEMB      188             0.0000000000
     21831       188  OSM       H14G           29.2145727869       32.0427921472       -4.4445617891  MEMB      188             0.0000000000
     21832       188  OSM       C15F           28.3634450318       31.8340026361       -2.4587206830  MEMB      188             0.0000000000
     21833       188  OSM       H15F           28.5823973316       30.7581460660       -2.2886810248  MEMB      188             0.0000000000
     21834       188  OSM       H15G           27.3988662386       31.9669168113       -1.9237050343  MEMB      188             0.0000000000
     21835       188  OSM       C16F           29.4721254062       32.5095186825       -1.5808548699  MEMB      188             0.0000000000
     21836       188  OSM       H16F           29.1280336105       33.5566710417       -1.4415926486  MEMB      188             0.0000000000
     21837       188  OSM       H16G           30.4426460812       32.6392542077       -2.1058113840  MEMB      188             0.0000000000
     21838       188  OSM       C17F           29.6550049914       31.9795870197       -0.1430503155  MEMB      188             0.0000000000
     21839       188  OSM       H17F           30.5349458295       32.4057438325        0.3846001805  MEMB      188             0.0000000000
     21840       188  OSM       H17G           29.8516715429       30.8864750592       -0.1156732718  MEMB      188             0.0000000000
     21841       188  OSM       C18F           28.4487073081       32.2515705598        0.6911426929  MEMB      188             0.0000000000
     21842       188  OSM       H18F           28.5602041643       31.8925428472        1.7366046521  MEMB      188             0.0000000000
     21843       188  OSM       H18G           27.4905503537       31.8868327137        0.2630989651  MEMB      188             0.0000000000
     21844       188  OSM       H18H           28.3847132553       33.3593359949        0.7466562308  MEMB      188             0.0000000000
     21845       189  OSM       N             -37.4168210047      -28.5266095685      -21.3460043238  MEMB      189             0.0000000000
     21846       189  OSM       C15           -37.0389669049      -29.5890348535      -20.4167729363  MEMB      189             0.0000000000
     21847       189  OSM       H15A          -37.8329412714      -30.3112299404      -20.2966116386  MEMB      189             0.0000000000
     21848       189  OSM       H15B          -36.9415301261      -29.2085040283      -19.4107399245  MEMB      189             0.0000000000
     21849       189  OSM       H15C          -36.0494125306      -30.0043750017      -20.5379122752  MEMB      189             0.0000000000
     21850       189  OSM       C14           -37.0335618785      -28.8228234945      -22.7601422446  MEMB      189             0.0000000000
     21851       189  OSM       H14A          -35.9965236231      -29.1075460657      -22.8595634246  MEMB      189             0.0000000000
     21852       189  OSM       H14B          -37.2080611406      -27.9477443709      -23.3685717637  MEMB      189             0.0000000000
     21853       189  OSM       H14C          -37.6499903533      -29.6454426282      -23.0913730315  MEMB      189             0.0000000000
     21854       189  OSM       C13           -38.8623076499      -28.3003276822      -21.3284378674  MEMB      189             0.0000000000
     21855       189  OSM       H13A          -39.1688808094      -28.0230125078      -20.3306858231  MEMB      189             0.0000000000
     21856       189  OSM       H13B          -39.3286768055      -29.2596293910      -21.4976710033  MEMB      189             0.0000000000
     21857       189  OSM       H13C          -39.2249577505      -27.5331991601      -21.9965686810  MEMB      189             0.0000000000
     21858       189  OSM       C12           -36.7187710555      -27.2321577247      -21.0048317430  MEMB      189             0.0000000000
     21859       189  OSM       H12A          -36.8644746421      -27.1164951475      -19.9409743239  MEMB      189             0.0000000000
     21860       189  OSM       H12B          -37.2743306766      -26.3606594141      -21.3182711006  MEMB      189             0.0000000000
     21861       189  OSM       C11           -35.1966825258      -27.1644563518      -21.3604778202  MEMB      189             0.0000000000
     21862       189  OSM       H11A          -34.7802197839      -26.3193041874      -20.7717524253  MEMB      189             0.0000000000
     21863       189  OSM       H11B          -35.1142428964      -26.7544001582      -22.3897389410  MEMB      189             0.0000000000
     21864       189  OSM       P             -32.9859490785      -28.2443744248      -20.5759029018  MEMB      189             0.0000000000
     21865       189  OSM       O13           -32.1874766927      -29.3408154339      -21.2373083337  MEMB      189             0.0000000000
     21866       189  OSM       O14           -32.5492889648      -26.8780557114      -20.6564509348  MEMB      189             0.0000000000
     21867       189  OSM       O11           -33.2324436737      -28.5291026164      -19.0988815847  MEMB      189             0.0000000000
     21868       189  OSM       O12           -34.4450160694      -28.3309099346      -21.2147893118  MEMB      189             0.0000000000
     21869       189  OSM       C1S           -34.5016515667      -28.6145600562      -18.5152676243  MEMB      189             0.0000000000
     21870       189  OSM       H1S           -35.1178758567      -29.4794859067      -18.8415985493  MEMB      189             0.0000000000
     21871       189  OSM       H1T           -35.0958461584      -27.6837916865      -18.6374317190  MEMB      189             0.0000000000
     21872       189  OSM       NF            -35.5838909981      -29.3126999406      -16.3668099930  MEMB      189             0.0000000000
     21873       189  OSM       HNF           -36.0661966394      -28.7992162009      -15.6613143059  MEMB      189             0.0000000000
     21874       189  OSM       C2S           -34.3156035121      -28.8134096462      -17.0013581948  MEMB      189             0.0000000000
     21875       189  OSM       H2S           -33.5300948394      -29.5953331027      -16.9245938417  MEMB      189             0.0000000000
     21876       189  OSM       C3S           -33.8201535999      -27.5140162288      -16.3301857880  MEMB      189             0.0000000000
     21877       189  OSM       H3S           -34.5455230944      -26.6859216833      -16.4799168391  MEMB      189             0.0000000000
     21878       189  OSM       O3            -32.6296172947      -26.9899270819      -16.9013948012  MEMB      189             0.0000000000
     21879       189  OSM       HO3           -32.5085109951      -27.5847521660      -17.6451126498  MEMB      189             0.0000000000
     21880       189  OSM       C4S           -33.6544196467      -27.7914755701      -14.8418383881  MEMB      189             0.0000000000
     21881       189  OSM       H4S           -32.8550471984      -28.4818937927      -14.5347126747  MEMB      189             0.0000000000
     21882       189  OSM       C5S           -34.1857758453      -27.0191640108      -13.8403013688  MEMB      189             0.0000000000
     21883       189  OSM       H5S           -34.7545015662      -26.1240841691      -14.1325053709  MEMB      189             0.0000000000
     21884       189  OSM       C6S           -33.9192335094      -27.3630934289      -12.3980566341  MEMB      189             0.0000000000
     21885       189  OSM       H6S           -34.8132573066      -26.8953888493      -11.9329809802  MEMB      189             0.0000000000
     21886       189  OSM       H6T           -32.9469351879      -27.0629216555      -11.9521260590  MEMB      189             0.0000000000
     21887       189  OSM       C7S           -34.0108594749      -28.8567318466      -12.0892145871  MEMB      189             0.0000000000
     21888       189  OSM       H7S           -33.5517230970      -29.5052096328      -12.8657399689  MEMB      189             0.0000000000
     21889       189  OSM       H7T           -35.0812394682      -29.1500216945      -12.1400927635  MEMB      189             0.0000000000
     21890       189  OSM       C8S           -33.5867195630      -29.2060299683      -10.6303468492  MEMB      189             0.0000000000
     21891       189  OSM       H8S           -32.5627790028      -28.8642734970      -10.3675357574  MEMB      189             0.0000000000
     21892       189  OSM       H8T           -33.4854293722      -30.3076553913      -10.5279614218  MEMB      189             0.0000000000
     21893       189  OSM       C9S           -34.4259691448      -28.6702019835       -9.4752093970  MEMB      189             0.0000000000
     21894       189  OSM       H9S           -35.3861014040      -29.1149023004       -9.8138960136  MEMB      189             0.0000000000
     21895       189  OSM       H9T           -34.5890167408      -27.5712335337       -9.4729927946  MEMB      189             0.0000000000
     21896       189  OSM       C10S          -33.8746764499      -29.1130646037       -8.0294276045  MEMB      189             0.0000000000
     21897       189  OSM       H10S          -34.4631390802      -28.5543707380       -7.2705508690  MEMB      189             0.0000000000
     21898       189  OSM       H10T          -32.8484818042      -28.6960567284       -7.9436942768  MEMB      189             0.0000000000
     21899       189  OSM       C11S          -33.9698600665      -30.6558274814       -7.8148663553  MEMB      189             0.0000000000
     21900       189  OSM       H11S          -33.2660592037      -31.1580629039       -8.5125375045  MEMB      189             0.0000000000
     21901       189  OSM       H11T          -34.9593658711      -30.9916026729       -8.1922974111  MEMB      189             0.0000000000
     21902       189  OSM       C12S          -33.6955863169      -31.3212231409       -6.4595197056  MEMB      189             0.0000000000
     21903       189  OSM       H12S          -32.8550152561      -30.7057204759       -6.0736212240  MEMB      189             0.0000000000
     21904       189  OSM       H12T          -33.4165073399      -32.3912008581       -6.5671461893  MEMB      189             0.0000000000
     21905       189  OSM       C13S          -34.9870863767      -31.2878763040       -5.5360741371  MEMB      189             0.0000000000
     21906       189  OSM       H13S          -35.8326908363      -31.8632865201       -5.9698673619  MEMB      189             0.0000000000
     21907       189  OSM       H13T          -35.4897044947      -30.2980484603       -5.4920631472  MEMB      189             0.0000000000
     21908       189  OSM       C14S          -34.6766284794      -31.8633136779       -4.1509297640  MEMB      189             0.0000000000
     21909       189  OSM       H14S          -34.1582635205      -32.8459724478       -4.1516320785  MEMB      189             0.0000000000
     21910       189  OSM       H14T          -35.6293433771      -32.0942220364       -3.6281151963  MEMB      189             0.0000000000
     21911       189  OSM       C15S          -34.0432514804      -30.8477885779       -3.2568358804  MEMB      189             0.0000000000
     21912       189  OSM       H15S          -34.7817870751      -30.0212508415       -3.1811940290  MEMB      189             0.0000000000
     21913       189  OSM       H15T          -33.0543854756      -30.6374581793       -3.7175153713  MEMB      189             0.0000000000
     21914       189  OSM       C16S          -33.7582632172      -31.3545597647       -1.8626652591  MEMB      189             0.0000000000
     21915       189  OSM       H16S          -33.1165716058      -32.2474708460       -2.0216067048  MEMB      189             0.0000000000
     21916       189  OSM       H16T          -34.7226006586      -31.5949658800       -1.3660967648  MEMB      189             0.0000000000
     21917       189  OSM       C17S          -33.0332625439      -30.2529452907       -1.0532548571  MEMB      189             0.0000000000
     21918       189  OSM       H17S          -33.7200856050      -29.3824008747       -0.9843519965  MEMB      189             0.0000000000
     21919       189  OSM       H17T          -32.1228857929      -29.8300226661       -1.5293550290  MEMB      189             0.0000000000
     21920       189  OSM       C18S          -32.5778545966      -30.7868660389        0.3240076760  MEMB      189             0.0000000000
     21921       189  OSM       H18S          -33.4562353738      -31.2230947581        0.8459980511  MEMB      189             0.0000000000
     21922       189  OSM       H18T          -32.3551124083      -29.9420296559        1.0102725063  MEMB      189             0.0000000000
     21923       189  OSM       H18U          -31.6794039885      -31.4248780254        0.1824178097  MEMB      189             0.0000000000
     21924       189  OSM       C1F           -36.1332904866      -30.5453467482      -16.5928756976  MEMB      189             0.0000000000
     21925       189  OSM       OF            -35.4897448477      -31.5352957981      -17.0531744003  MEMB      189             0.0000000000
     21926       189  OSM       C2F           -37.5702735499      -30.6704717537      -16.2330201542  MEMB      189             0.0000000000
     21927       189  OSM       H2F           -38.0846246941      -31.3229377202      -16.9706187207  MEMB      189             0.0000000000
     21928       189  OSM       H2G           -38.0863896042      -29.6995610733      -16.3920098265  MEMB      189             0.0000000000
     21929       189  OSM       C3F           -37.8580029405      -31.3548219270      -14.9143602404  MEMB      189             0.0000000000
     21930       189  OSM       H3F           -37.3922970290      -32.3624238528      -14.8676963984  MEMB      189             0.0000000000
     21931       189  OSM       H3G           -38.9436344591      -31.5896488866      -14.9384795183  MEMB      189             0.0000000000
     21932       189  OSM       C4F           -37.7310098350      -30.4388640122      -13.6604545702  MEMB      189             0.0000000000
     21933       189  OSM       H4F           -37.9591931913      -29.3810864520      -13.9121690689  MEMB      189             0.0000000000
     21934       189  OSM       H4G           -36.6831822618      -30.4909178649      -13.2948476614  MEMB      189             0.0000000000
     21935       189  OSM       C5F           -38.7242960284      -30.7458129769      -12.4925017326  MEMB      189             0.0000000000
     21936       189  OSM       H5F           -38.5815517229      -31.7780574381      -12.1072532819  MEMB      189             0.0000000000
     21937       189  OSM       H5G           -39.7460511171      -30.6258088852      -12.9119497569  MEMB      189             0.0000000000
     21938       189  OSM       C6F           -38.5977832487      -29.7964701461      -11.2394214296  MEMB      189             0.0000000000
     21939       189  OSM       H6F           -37.7617312501      -30.1795662116      -10.6160637505  MEMB      189             0.0000000000
     21940       189  OSM       H6G           -39.4616495149      -30.0268649401      -10.5798960912  MEMB      189             0.0000000000
     21941       189  OSM       C7F           -38.4499177985      -28.3513890492      -11.4828539120  MEMB      189             0.0000000000
     21942       189  OSM       H7F           -39.2426299431      -28.1126782617      -12.2237625045  MEMB      189             0.0000000000
     21943       189  OSM       H7G           -37.4834274675      -28.0174010792      -11.9172150647  MEMB      189             0.0000000000
     21944       189  OSM       C8F           -38.7344638898      -27.6601344694      -10.1423793584  MEMB      189             0.0000000000
     21945       189  OSM       H8F           -37.7247736239      -27.6620743000       -9.6788686252  MEMB      189             0.0000000000
     21946       189  OSM       H8G           -39.4368526166      -28.2459080329       -9.5116342663  MEMB      189             0.0000000000
     21947       189  OSM       C9F           -39.2867850133      -26.3019917161      -10.2734086527  MEMB      189             0.0000000000
     21948       189  OSM       H9F           -40.1076680142      -26.1655442942      -10.9928064608  MEMB      189             0.0000000000
     21949       189  OSM       C10F          -38.8187817490      -25.1753006449       -9.5758198863  MEMB      189             0.0000000000
     21950       189  OSM       H10F          -39.3612144057      -24.2284156658       -9.7142941192  MEMB      189             0.0000000000
     21951       189  OSM       C11F          -37.6746843445      -25.1836666879       -8.6188446110  MEMB      189             0.0000000000
     21952       189  OSM       H11F          -37.0661711000      -24.2552204388       -8.6637931460  MEMB      189             0.0000000000
     21953       189  OSM       H11G          -36.9771821639      -26.0061394600       -8.8859593006  MEMB      189             0.0000000000
     21954       189  OSM       C12F          -37.9079294389      -25.4286506811       -7.0576478155  MEMB      189             0.0000000000
     21955       189  OSM       H12F          -38.6493364596      -26.2441117644       -6.9174344332  MEMB      189             0.0000000000
     21956       189  OSM       H12G          -38.4268723680      -24.5606142114       -6.5977218039  MEMB      189             0.0000000000
     21957       189  OSM       C13F          -36.5582287382      -25.5978342646       -6.3434420345  MEMB      189             0.0000000000
     21958       189  OSM       H13F          -35.7676880294      -24.8965470938       -6.6863164806  MEMB      189             0.0000000000
     21959       189  OSM       H13G          -36.1362483994      -26.5313373358       -6.7733560681  MEMB      189             0.0000000000
     21960       189  OSM       C14F          -36.7447674418      -25.6025896790       -4.8963251736  MEMB      189             0.0000000000
     21961       189  OSM       H14F          -37.6332040460      -26.2520444292       -4.7439777378  MEMB      189             0.0000000000
     21962       189  OSM       H14G          -36.9513581646      -24.6477558058       -4.3672387866  MEMB      189             0.0000000000
     21963       189  OSM       C15F          -35.5273479402      -26.1782395563       -4.1436044523  MEMB      189             0.0000000000
     21964       189  OSM       H15F          -34.6168969394      -25.8688414375       -4.7000863806  MEMB      189             0.0000000000
     21965       189  OSM       H15G          -35.5314917749      -27.2823988517       -4.0205738857  MEMB      189             0.0000000000
     21966       189  OSM       C16F          -35.3090148684      -25.4651361007       -2.8268375029  MEMB      189             0.0000000000
     21967       189  OSM       H16F          -35.0502222326      -24.4024462841       -3.0218688044  MEMB      189             0.0000000000
     21968       189  OSM       H16G          -34.4007273862      -25.7965786091       -2.2795883590  MEMB      189             0.0000000000
     21969       189  OSM       C17F          -36.4901273119      -25.4894565826       -1.8734424396  MEMB      189             0.0000000000
     21970       189  OSM       H17F          -37.4133737838      -25.2247769837       -2.4319059307  MEMB      189             0.0000000000
     21971       189  OSM       H17G          -36.3281909506      -24.7227638597       -1.0858651483  MEMB      189             0.0000000000
     21972       189  OSM       C18F          -36.9838149741      -26.7965382276       -1.2191419594  MEMB      189             0.0000000000
     21973       189  OSM       H18F          -36.4264407444      -26.9640163308       -0.2727779001  MEMB      189             0.0000000000
     21974       189  OSM       H18G          -36.7832419978      -27.7166379685       -1.8086416431  MEMB      189             0.0000000000
     21975       189  OSM       H18H          -38.0432890325      -26.7883687032       -0.8848253654  MEMB      189             0.0000000000
     21976       190  SAPC      N             -29.4495972748      -33.8637173171      -21.4477664844  MEMB      190             0.0000000000
     21977       190  SAPC      C12           -30.8281993044      -34.3982025074      -21.7034871499  MEMB      190             0.0000000000
     21978       190  SAPC      H12A          -30.8877685753      -34.7244213680      -22.7313162078  MEMB      190             0.0000000000
     21979       190  SAPC      H12B          -31.5384402453      -33.6105196328      -21.4997385584  MEMB      190             0.0000000000
     21980       190  SAPC      C13           -28.4451075374      -34.9901860753      -21.3804066779  MEMB      190             0.0000000000
     21981       190  SAPC      H13A          -28.6839138202      -35.7088501131      -20.6104108626  MEMB      190             0.0000000000
     21982       190  SAPC      H13B          -28.2481569783      -35.4154459179      -22.3534249828  MEMB      190             0.0000000000
     21983       190  SAPC      H13C          -27.5508157542      -34.5066452537      -21.0159474088  MEMB      190             0.0000000000
     21984       190  SAPC      C14           -29.0370179192      -32.9850017200      -22.5875328211  MEMB      190             0.0000000000
     21985       190  SAPC      H14A          -29.5352272664      -32.0277958507      -22.6316277546  MEMB      190             0.0000000000
     21986       190  SAPC      H14B          -27.9890700830      -32.8423222578      -22.3687911620  MEMB      190             0.0000000000
     21987       190  SAPC      H14C          -29.1016351340      -33.4764625249      -23.5470591760  MEMB      190             0.0000000000
     21988       190  SAPC      C15           -29.3107974649      -33.0660113378      -20.1658201669  MEMB      190             0.0000000000
     21989       190  SAPC      H15A          -28.2752719664      -32.7616499475      -20.1277253444  MEMB      190             0.0000000000
     21990       190  SAPC      H15B          -29.9606668619      -32.2078544747      -20.2532068578  MEMB      190             0.0000000000
     21991       190  SAPC      H15C          -29.5717503919      -33.6406346546      -19.2894004945  MEMB      190             0.0000000000
     21992       190  SAPC      C11           -31.3424305116      -35.5557328989      -20.8836185518  MEMB      190             0.0000000000
     21993       190  SAPC      H11A          -30.7080698938      -36.4094852781      -21.2045770270  MEMB      190             0.0000000000
     21994       190  SAPC      H11B          -32.3876887447      -35.7885268349      -21.1795292374  MEMB      190             0.0000000000
     21995       190  SAPC      P             -31.8406178353      -36.1227650364      -18.3703669466  MEMB      190             0.0000000000
     21996       190  SAPC      O13           -32.4248518069      -35.1697105430      -17.3602641331  MEMB      190             0.0000000000
     21997       190  SAPC      O14           -32.8120254841      -37.0781959285      -18.9478566735  MEMB      190             0.0000000000
     21998       190  SAPC      O12           -31.1575303875      -35.2143065133      -19.5115160516  MEMB      190             0.0000000000
     21999       190  SAPC      O11           -30.6993624523      -36.9545021690      -17.6413643431  MEMB      190             0.0000000000
     22000       190  SAPC      C1            -29.6356779933      -37.6720337171      -18.2056941624  MEMB      190             0.0000000000
     22001       190  SAPC      HA            -30.0363291384      -38.6106589278      -18.6447640573  MEMB      190             0.0000000000
     22002       190  SAPC      HB            -29.2118219646      -37.0264920858      -19.0044075417  MEMB      190             0.0000000000
     22003       190  SAPC      C2            -28.5381516715      -37.9140042639      -17.1337907062  MEMB      190             0.0000000000
     22004       190  SAPC      HS            -27.7289287097      -38.5518579931      -17.5492679314  MEMB      190             0.0000000000
     22005       190  SAPC      O21           -29.1294218099      -38.3638056080      -15.9398525515  MEMB      190             0.0000000000
     22006       190  SAPC      C21           -28.4516512199      -39.2897982826      -15.2452474817  MEMB      190             0.0000000000
     22007       190  SAPC      O22           -27.3703474157      -39.7379930353      -15.5624677662  MEMB      190             0.0000000000
     22008       190  SAPC      C22           -29.3908414917      -39.9391519496      -14.1588532379  MEMB      190             0.0000000000
     22009       190  SAPC      H2R           -30.2646761330      -39.2685941377      -14.0136410993  MEMB      190             0.0000000000
     22010       190  SAPC      H2S           -29.7711515185      -40.9408241416      -14.4526865110  MEMB      190             0.0000000000
     22011       190  SAPC      C3            -27.8455258260      -36.5630202866      -16.8210148885  MEMB      190             0.0000000000
     22012       190  SAPC      HX            -27.4400697061      -36.0976141130      -17.7447699344  MEMB      190             0.0000000000
     22013       190  SAPC      HY            -26.9644607365      -36.7780329154      -16.1792873829  MEMB      190             0.0000000000
     22014       190  SAPC      O31           -28.6895474670      -35.6719215520      -16.1911370895  MEMB      190             0.0000000000
     22015       190  SAPC      C31           -28.2350354490      -34.6086532505      -15.5035421189  MEMB      190             0.0000000000
     22016       190  SAPC      O32           -27.0497360975      -34.2948328948      -15.2771658030  MEMB      190             0.0000000000
     22017       190  SAPC      C32           -29.4529111163      -33.9430107817      -14.8530972436  MEMB      190             0.0000000000
     22018       190  SAPC      H2X           -30.2417415086      -33.7901403380      -15.6203638726  MEMB      190             0.0000000000
     22019       190  SAPC      H2Y           -29.0676048308      -33.0536397613      -14.3100692040  MEMB      190             0.0000000000
     22020       190  SAPC      C23           -28.5485239944      -40.0684301382      -12.8635135163  MEMB      190             0.0000000000
     22021       190  SAPC      H3R           -27.7854631915      -39.2720589878      -12.7299012800  MEMB      190             0.0000000000
     22022       190  SAPC      H3S           -28.0136610347      -41.0361955315      -12.9715542520  MEMB      190             0.0000000000
     22023       190  SAPC      C24           -29.3679650013      -40.0286551513      -11.6272520238  MEMB      190             0.0000000000
     22024       190  SAPC      H4R           -28.8473898614      -40.2125533954      -10.6631441709  MEMB      190             0.0000000000
     22025       190  SAPC      H4S           -30.0189761612      -40.9288509592      -11.6396257884  MEMB      190             0.0000000000
     22026       190  SAPC      C25           -30.2935756326      -38.7567675433      -11.5990669862  MEMB      190             0.0000000000
     22027       190  SAPC      H5R           -31.2994898111      -38.8514750007      -12.0340011130  MEMB      190             0.0000000000
     22028       190  SAPC      C26           -29.9240669494      -37.6788095337      -10.9387536224  MEMB      190             0.0000000000
     22029       190  SAPC      H6R           -30.6140419531      -36.8223049519      -10.9204729258  MEMB      190             0.0000000000
     22030       190  SAPC      C27           -28.6908226018      -37.4064479045      -10.1457689470  MEMB      190             0.0000000000
     22031       190  SAPC      H7R           -28.0271771739      -38.2903845174      -10.0337335564  MEMB      190             0.0000000000
     22032       190  SAPC      H7S           -29.0193662200      -37.0132996349       -9.1599630530  MEMB      190             0.0000000000
     22033       190  SAPC      C28           -27.7450448799      -36.3861799875      -10.8006883122  MEMB      190             0.0000000000
     22034       190  SAPC      H8R           -27.2166416888      -36.6447948551      -11.7301554845  MEMB      190             0.0000000000
     22035       190  SAPC      C29           -27.5147024266      -35.1394899401      -10.4179723399  MEMB      190             0.0000000000
     22036       190  SAPC      H9R           -26.6958557732      -34.5900143811      -10.9053811264  MEMB      190             0.0000000000
     22037       190  SAPC      C210          -28.1607275740      -34.4249995625       -9.1899299566  MEMB      190             0.0000000000
     22038       190  SAPC      H10R          -29.1479713205      -34.9323686675       -9.1425251498  MEMB      190             0.0000000000
     22039       190  SAPC      H10S          -28.2872909779      -33.3654338226       -9.4991599468  MEMB      190             0.0000000000
     22040       190  SAPC      C211          -27.3804375169      -34.5735180681       -7.8483624850  MEMB      190             0.0000000000
     22041       190  SAPC      H11R          -26.5613669422      -35.3074727866       -7.8691893469  MEMB      190             0.0000000000
     22042       190  SAPC      C212          -27.6063934721      -33.8239774724       -6.7669269883  MEMB      190             0.0000000000
     22043       190  SAPC      H12R          -27.1295629315      -34.0977038610       -5.8141905691  MEMB      190             0.0000000000
     22044       190  SAPC      C213          -28.6051510515      -32.7137578618       -6.6805605011  MEMB      190             0.0000000000
     22045       190  SAPC      H13R          -29.6439771000      -33.0978945970       -6.5933794993  MEMB      190             0.0000000000
     22046       190  SAPC      H13S          -28.6612246471      -32.1416539652       -7.6312836198  MEMB      190             0.0000000000
     22047       190  SAPC      C214          -28.4056232948      -31.6519810582       -5.6026004664  MEMB      190             0.0000000000
     22048       190  SAPC      H14R          -27.9595405908      -30.6897007504       -5.8941938642  MEMB      190             0.0000000000
     22049       190  SAPC      C215          -28.6083990973      -31.8541729736       -4.3284703066  MEMB      190             0.0000000000
     22050       190  SAPC      H15R          -28.4939535686      -30.9218358918       -3.7560628306  MEMB      190             0.0000000000
     22051       190  SAPC      C216          -29.0671432324      -33.0811770091       -3.6090973763  MEMB      190             0.0000000000
     22052       190  SAPC      H16R          -29.6077690183      -33.7721757337       -4.2906877810  MEMB      190             0.0000000000
     22053       190  SAPC      H16S          -29.8117806084      -32.8011083676       -2.8335998323  MEMB      190             0.0000000000
     22054       190  SAPC      C217          -28.0287632733      -33.8352535470       -2.7651255772  MEMB      190             0.0000000000
     22055       190  SAPC      H17R          -27.2788316248      -34.2426551377       -3.4764251088  MEMB      190             0.0000000000
     22056       190  SAPC      H17S          -28.5247508957      -34.6970086089       -2.2694498283  MEMB      190             0.0000000000
     22057       190  SAPC      C218          -27.6078766611      -33.1169509337       -1.4616684204  MEMB      190             0.0000000000
     22058       190  SAPC      H18R          -28.5570937518      -33.0741223433       -0.8859305030  MEMB      190             0.0000000000
     22059       190  SAPC      H18S          -27.3572347598      -32.0437391408       -1.6020802355  MEMB      190             0.0000000000
     22060       190  SAPC      C219          -26.3921385998      -33.7946631430       -0.7388014735  MEMB      190             0.0000000000
     22061       190  SAPC      H19R          -25.4565318668      -33.6195574657       -1.3117760688  MEMB      190             0.0000000000
     22062       190  SAPC      H19S          -26.6402636325      -34.8760259138       -0.7971923975  MEMB      190             0.0000000000
     22063       190  SAPC      C220          -26.0535921038      -33.3671477799        0.6703691307  MEMB      190             0.0000000000
     22064       190  SAPC      H20R          -25.7885155019      -32.2895708688        0.7240639412  MEMB      190             0.0000000000
     22065       190  SAPC      H20S          -25.1424721016      -33.9340068706        0.9582091047  MEMB      190             0.0000000000
     22066       190  SAPC      H20T          -26.9080001986      -33.5655798758        1.3522281645  MEMB      190             0.0000000000
     22067       190  SAPC      C33           -29.9786546003      -34.8144308284      -13.6795033950  MEMB      190             0.0000000000
     22068       190  SAPC      H3X           -29.2884651348      -34.6395940291      -12.8266308468  MEMB      190             0.0000000000
     22069       190  SAPC      H3Y           -29.8634970289      -35.9028234549      -13.8704517312  MEMB      190             0.0000000000
     22070       190  SAPC      C34           -31.4893259739      -34.5319204434      -13.4304978544  MEMB      190             0.0000000000
     22071       190  SAPC      H4X           -31.8300976654      -35.4688126968      -12.9401622776  MEMB      190             0.0000000000
     22072       190  SAPC      H4Y           -32.0275398339      -34.4545527939      -14.3993426747  MEMB      190             0.0000000000
     22073       190  SAPC      C35           -31.8358387940      -33.3418182660      -12.5569826950  MEMB      190             0.0000000000
     22074       190  SAPC      H5X           -32.9205260486      -33.1095108969      -12.4952747380  MEMB      190             0.0000000000
     22075       190  SAPC      H5Y           -31.2876587738      -32.5129054545      -13.0536951959  MEMB      190             0.0000000000
     22076       190  SAPC      C36           -31.1194867426      -33.4224065959      -11.1390955410  MEMB      190             0.0000000000
     22077       190  SAPC      H6X           -30.0302042522      -33.3651690455      -11.3500660212  MEMB      190             0.0000000000
     22078       190  SAPC      H6Y           -31.3222384367      -34.4424712979      -10.7483514396  MEMB      190             0.0000000000
     22079       190  SAPC      C37           -31.5849931756      -32.2799543198      -10.1357959156  MEMB      190             0.0000000000
     22080       190  SAPC      H7X           -31.6899576138      -31.2776638722      -10.6034678167  MEMB      190             0.0000000000
     22081       190  SAPC      H7Y           -30.6925497338      -32.1704384760       -9.4832068123  MEMB      190             0.0000000000
     22082       190  SAPC      C38           -32.9366136425      -32.5134569687       -9.3333036409  MEMB      190             0.0000000000
     22083       190  SAPC      H8X           -33.8683946769      -32.3741274974       -9.9221098101  MEMB      190             0.0000000000
     22084       190  SAPC      H8Y           -33.0025397250      -31.8214762614       -8.4666220688  MEMB      190             0.0000000000
     22085       190  SAPC      C39           -33.0750019582      -33.9273636867       -8.6871894296  MEMB      190             0.0000000000
     22086       190  SAPC      H9X           -33.3148223436      -34.6771246468       -9.4711954683  MEMB      190             0.0000000000
     22087       190  SAPC      H9Y           -33.9604548420      -33.8668385540       -8.0188846106  MEMB      190             0.0000000000
     22088       190  SAPC      C310          -31.9490147996      -34.5329829797       -7.8162012109  MEMB      190             0.0000000000
     22089       190  SAPC      H10X          -31.9639383103      -33.9753633710       -6.8553899180  MEMB      190             0.0000000000
     22090       190  SAPC      H10Y          -30.9524909239      -34.3862038822       -8.2849408697  MEMB      190             0.0000000000
     22091       190  SAPC      C311          -32.1476450281      -36.0034225742       -7.5264323576  MEMB      190             0.0000000000
     22092       190  SAPC      H11X          -31.7735300769      -36.6591477650       -8.3415292811  MEMB      190             0.0000000000
     22093       190  SAPC      H11Y          -33.2532796475      -36.0532401550       -7.4294194230  MEMB      190             0.0000000000
     22094       190  SAPC      C312          -31.3625447814      -36.3602514597       -6.2482037918  MEMB      190             0.0000000000
     22095       190  SAPC      H12X          -31.5988767187      -35.6789345202       -5.4030558561  MEMB      190             0.0000000000
     22096       190  SAPC      H12Y          -30.2836674056      -36.4148095145       -6.5077576685  MEMB      190             0.0000000000
     22097       190  SAPC      C313          -31.6273262796      -37.7998820017       -5.7900407751  MEMB      190             0.0000000000
     22098       190  SAPC      H13X          -31.1507286318      -38.5661755043       -6.4380921350  MEMB      190             0.0000000000
     22099       190  SAPC      H13Y          -32.6994187496      -38.0906637968       -5.7704353211  MEMB      190             0.0000000000
     22100       190  SAPC      C314          -30.9931604697      -38.1365541103       -4.3815143942  MEMB      190             0.0000000000
     22101       190  SAPC      H14X          -31.5120013292      -38.9673744585       -3.8572401055  MEMB      190             0.0000000000
     22102       190  SAPC      H14Y          -31.0690525591      -37.2378045043       -3.7328157289  MEMB      190             0.0000000000
     22103       190  SAPC      C315          -29.4856802679      -38.3746222021       -4.3931607028  MEMB      190             0.0000000000
     22104       190  SAPC      H15X          -28.9936725241      -37.4268059672       -4.6995817266  MEMB      190             0.0000000000
     22105       190  SAPC      H15Y          -29.2290676510      -38.9586668635       -5.3027553718  MEMB      190             0.0000000000
     22106       190  SAPC      C316          -28.8586017190      -38.9215870889       -3.0698533279  MEMB      190             0.0000000000
     22107       190  SAPC      H16X          -27.7896471865      -39.1090147038       -3.3076100477  MEMB      190             0.0000000000
     22108       190  SAPC      H16Y          -29.4084126827      -39.8636730906       -2.8588952084  MEMB      190             0.0000000000
     22109       190  SAPC      C317          -28.8413160492      -37.9320782325       -1.9308262142  MEMB      190             0.0000000000
     22110       190  SAPC      H17X          -29.8242312661      -37.6492946215       -1.4969682166  MEMB      190             0.0000000000
     22111       190  SAPC      H17Y          -28.3238445010      -37.0316785985       -2.3255713273  MEMB      190             0.0000000000
     22112       190  SAPC      C318          -28.1418048953      -38.4298330105       -0.6794408181  MEMB      190             0.0000000000
     22113       190  SAPC      H18X          -27.0866363661      -38.6652973901       -0.9353649983  MEMB      190             0.0000000000
     22114       190  SAPC      H18Y          -28.6125458709      -39.3350604729       -0.2397966613  MEMB      190             0.0000000000
     22115       190  SAPC      H18Z          -28.3319705600      -37.6271844770        0.0648116813  MEMB      190             0.0000000000
     22116       191  CHL1      C3            -34.4454698232       32.1332500081      -17.3676600000  MEMB      191             0.0000000000
     22117       191  CHL1      H3            -34.2576681394       33.2201598745      -17.2347500000  MEMB      191             0.0000000000
     22118       191  CHL1      O3            -34.1480743768       31.6035279919      -18.6323400000  MEMB      191             0.0000000000
     22119       191  CHL1      H3'           -34.7101248677       32.0568304875      -19.2649600000  MEMB      191             0.0000000000
     22120       191  CHL1      C4            -33.5925100200       31.2871981526      -16.3681500000  MEMB      191             0.0000000000
     22121       191  CHL1      H4A           -33.8218111377       30.2179205602      -16.5640500000  MEMB      191             0.0000000000
     22122       191  CHL1      H4B           -32.5491606873       31.6132936732      -16.5666900000  MEMB      191             0.0000000000
     22123       191  CHL1      C5            -33.9171941678       31.6625570356      -14.9289000000  MEMB      191             0.0000000000
     22124       191  CHL1      C6            -32.9960733912       32.0810434138      -14.0355000000  MEMB      191             0.0000000000
     22125       191  CHL1      H6            -31.9235261291       32.0419679099      -14.2766000000  MEMB      191             0.0000000000
     22126       191  CHL1      C7            -33.1451292937       32.5058489342      -12.6006400000  MEMB      191             0.0000000000
     22127       191  CHL1      H7A           -32.4349800024       31.9234100307      -11.9755200000  MEMB      191             0.0000000000
     22128       191  CHL1      H7B           -33.0038890615       33.6052996625      -12.5258600000  MEMB      191             0.0000000000
     22129       191  CHL1      C8            -34.6099201043       32.0460042978      -12.1826400000  MEMB      191             0.0000000000
     22130       191  CHL1      H8            -34.6675257067       30.9401666219      -12.0924700000  MEMB      191             0.0000000000
     22131       191  CHL1      C14           -34.9343494631       32.7017758153      -10.8747000000  MEMB      191             0.0000000000
     22132       191  CHL1      H14           -34.9530839031       33.7974536477      -11.0576300000  MEMB      191             0.0000000000
     22133       191  CHL1      C15           -33.8735699414       32.4791754880       -9.7707600000  MEMB      191             0.0000000000
     22134       191  CHL1      H15A          -33.3459131111       31.5114157108       -9.6317300000  MEMB      191             0.0000000000
     22135       191  CHL1      H15B          -33.1266887492       33.2779533982       -9.9668300000  MEMB      191             0.0000000000
     22136       191  CHL1      C16           -34.7236674043       32.6602953727       -8.5288900000  MEMB      191             0.0000000000
     22137       191  CHL1      H16A          -34.7549220960       31.7511587733       -7.8910600000  MEMB      191             0.0000000000
     22138       191  CHL1      H16B          -34.3306504076       33.3540137714       -7.7551900000  MEMB      191             0.0000000000
     22139       191  CHL1      C17           -36.1696163892       33.0341223269       -8.9540800000  MEMB      191             0.0000000000
     22140       191  CHL1      H17           -36.1968641894       34.1130589647       -9.2176700000  MEMB      191             0.0000000000
     22141       191  CHL1      C13           -36.3351683905       32.4042411021      -10.2876400000  MEMB      191             0.0000000000
     22142       191  CHL1      C18           -36.6172186275       30.9157752138      -10.1648900000  MEMB      191             0.0000000000
     22143       191  CHL1      H18A          -36.0703085061       30.4573111284       -9.3134100000  MEMB      191             0.0000000000
     22144       191  CHL1      H18B          -37.6949863489       30.7489555276       -9.9529800000  MEMB      191             0.0000000000
     22145       191  CHL1      H18C          -36.2996494536       30.3881276190      -11.0895800000  MEMB      191             0.0000000000
     22146       191  CHL1      C12           -37.3818981732       33.0365462363      -11.2884100000  MEMB      191             0.0000000000
     22147       191  CHL1      H12A          -38.4450460020       32.8654756162      -11.0149800000  MEMB      191             0.0000000000
     22148       191  CHL1      H12B          -37.2046200963       34.1326757229      -11.3256400000  MEMB      191             0.0000000000
     22149       191  CHL1      C11           -37.1336924413       32.5512890971      -12.7550000000  MEMB      191             0.0000000000
     22150       191  CHL1      H11A          -37.3920533332       31.4708146291      -12.7670700000  MEMB      191             0.0000000000
     22151       191  CHL1      H11B          -37.7330985681       33.1114977500      -13.5041400000  MEMB      191             0.0000000000
     22152       191  CHL1      C9            -35.6609924503       32.4730961499      -13.2856100000  MEMB      191             0.0000000000
     22153       191  CHL1      H9            -35.3855407525       33.5339240519      -13.4675100000  MEMB      191             0.0000000000
     22154       191  CHL1      C10           -35.4272017164       31.7109640844      -14.5988800000  MEMB      191             0.0000000000
     22155       191  CHL1      C19           -35.9782649519       30.2601445457      -14.5560900000  MEMB      191             0.0000000000
     22156       191  CHL1      H19A          -35.5098155890       29.7859223078      -13.6672700000  MEMB      191             0.0000000000
     22157       191  CHL1      H19B          -37.0866366625       30.3144142422      -14.5022900000  MEMB      191             0.0000000000
     22158       191  CHL1      H19C          -35.6634057445       29.6575045321      -15.4347300000  MEMB      191             0.0000000000
     22159       191  CHL1      C1            -36.2814213233       32.4636380614      -15.6579300000  MEMB      191             0.0000000000
     22160       191  CHL1      H1A           -37.3763540737       32.3249911064      -15.5305900000  MEMB      191             0.0000000000
     22161       191  CHL1      H1B           -36.1475772586       33.5662447377      -15.6322800000  MEMB      191             0.0000000000
     22162       191  CHL1      C2            -35.9438079073       31.9508979598      -17.1051300000  MEMB      191             0.0000000000
     22163       191  CHL1      H2A           -36.4972248252       32.6375564476      -17.7808100000  MEMB      191             0.0000000000
     22164       191  CHL1      H2B           -36.2847487747       30.9289241007      -17.3765000000  MEMB      191             0.0000000000
     22165       191  CHL1      C20           -37.2595521247       32.8814100442       -7.8164100000  MEMB      191             0.0000000000
     22166       191  CHL1      H20           -37.4687710106       31.7911885538       -7.8606500000  MEMB      191             0.0000000000
     22167       191  CHL1      C21           -38.6371596456       33.5865551464       -8.1306300000  MEMB      191             0.0000000000
     22168       191  CHL1      H21A          -38.4943837072       34.5991424129       -8.5649200000  MEMB      191             0.0000000000
     22169       191  CHL1      H21B          -39.1943699791       33.7783574801       -7.1888000000  MEMB      191             0.0000000000
     22170       191  CHL1      H21C          -39.3217955149       32.9646855221       -8.7461500000  MEMB      191             0.0000000000
     22171       191  CHL1      C22           -36.6689114688       33.2155395762       -6.3771600000  MEMB      191             0.0000000000
     22172       191  CHL1      H22A          -35.7787036017       32.5946202456       -6.1398700000  MEMB      191             0.0000000000
     22173       191  CHL1      H22B          -36.3344142009       34.2746001246       -6.4055000000  MEMB      191             0.0000000000
     22174       191  CHL1      C23           -37.6240469587       33.0934922765       -5.1789400000  MEMB      191             0.0000000000
     22175       191  CHL1      H23A          -38.4872449753       33.7927800356       -5.1927000000  MEMB      191             0.0000000000
     22176       191  CHL1      H23B          -38.0358562651       32.0616429245       -5.1839000000  MEMB      191             0.0000000000
     22177       191  CHL1      C24           -36.7873447577       33.2321067901       -3.9330900000  MEMB      191             0.0000000000
     22178       191  CHL1      H24A          -36.0035219233       32.4451875022       -3.9595600000  MEMB      191             0.0000000000
     22179       191  CHL1      H24B          -36.4317571610       34.2845989801       -3.9209700000  MEMB      191             0.0000000000
     22180       191  CHL1      C25           -37.6480470996       33.0853595502       -2.6931300000  MEMB      191             0.0000000000
     22181       191  CHL1      H25           -38.4410613709       33.8634474799       -2.6965800000  MEMB      191             0.0000000000
     22182       191  CHL1      C26           -38.4455033491       31.7691705644       -2.5531100000  MEMB      191             0.0000000000
     22183       191  CHL1      H26A          -38.9760461073       31.4463771558       -3.4743300000  MEMB      191             0.0000000000
     22184       191  CHL1      H26B          -37.7837509780       30.9213541724       -2.2745200000  MEMB      191             0.0000000000
     22185       191  CHL1      H26C          -39.2771007974       31.8983245107       -1.8278000000  MEMB      191             0.0000000000
     22186       191  CHL1      C27           -36.8541722941       33.3630915102       -1.4636300000  MEMB      191             0.0000000000
     22187       191  CHL1      H27A          -35.7906105946       33.0421471806       -1.4517700000  MEMB      191             0.0000000000
     22188       191  CHL1      H27B          -36.6703413483       34.4447047607       -1.2885600000  MEMB      191             0.0000000000
     22189       191  CHL1      H27C          -37.4107887887       32.9041167274       -0.6187400000  MEMB      191             0.0000000000
     22190       192  SOPE      N              34.8583922119      -32.3681598053      -18.9836209826  MEMB      192             0.0000000000
     22191       192  SOPE      HN1            34.1030587583      -32.5006910584      -18.2811204539  MEMB      192             0.0000000000
     22192       192  SOPE      HN2            35.7711422413      -32.6839416184      -18.5979144982  MEMB      192             0.0000000000
     22193       192  SOPE      HN3            34.8847305019      -31.3815083403      -19.3113780732  MEMB      192             0.0000000000
     22194       192  SOPE      C12            34.3376791724      -33.1973352754      -20.0691257704  MEMB      192             0.0000000000
     22195       192  SOPE      H12A           33.8866739612      -32.4491743005      -20.7555442665  MEMB      192             0.0000000000
     22196       192  SOPE      H12B           33.5044508239      -33.7994109414      -19.6477513725  MEMB      192             0.0000000000
     22197       192  SOPE      C11            35.4182912262      -33.8904457697      -20.8196056467  MEMB      192             0.0000000000
     22198       192  SOPE      H11A           36.1475074766      -34.4153688222      -20.1661377127  MEMB      192             0.0000000000
     22199       192  SOPE      H11B           36.1119834731      -33.1472458316      -21.2676748006  MEMB      192             0.0000000000
     22200       192  SOPE      P              34.4613181994      -36.2518321968      -21.7023870722  MEMB      192             0.0000000000
     22201       192  SOPE      O13            35.3081472533      -37.1425764434      -22.4691135215  MEMB      192             0.0000000000
     22202       192  SOPE      O14            32.9411966696      -36.2350514681      -21.8956285536  MEMB      192             0.0000000000
     22203       192  SOPE      O12            35.0333188607      -34.7160978680      -21.9214460432  MEMB      192             0.0000000000
     22204       192  SOPE      O11            34.8267396080      -36.5242827706      -20.1390724413  MEMB      192             0.0000000000
     22205       192  SOPE      C1             34.2895596187      -37.7408476638      -19.5649635639  MEMB      192             0.0000000000
     22206       192  SOPE      HA             35.0445758172      -38.0701666257      -18.8194299337  MEMB      192             0.0000000000
     22207       192  SOPE      HB             34.1260195576      -38.5531584691      -20.3050492476  MEMB      192             0.0000000000
     22208       192  SOPE      C2             32.9577963165      -37.3294990838      -18.8609239889  MEMB      192             0.0000000000
     22209       192  SOPE      HS             32.2786349067      -37.0053529553      -19.6782306397  MEMB      192             0.0000000000
     22210       192  SOPE      O21            33.2469526158      -36.3512336808      -17.9274472655  MEMB      192             0.0000000000
     22211       192  SOPE      C21            32.3401847869      -35.7355013785      -17.2797060825  MEMB      192             0.0000000000
     22212       192  SOPE      O22            31.1217980999      -35.7679177119      -17.4805359873  MEMB      192             0.0000000000
     22213       192  SOPE      C22            33.0906054507      -34.7841867492      -16.3462924246  MEMB      192             0.0000000000
     22214       192  SOPE      H2R            32.9834865520      -33.7578652966      -16.7580093760  MEMB      192             0.0000000000
     22215       192  SOPE      H2S            34.1684102137      -35.0129740575      -16.2037644640  MEMB      192             0.0000000000
     22216       192  SOPE      C3             32.2712281971      -38.5477580779      -18.1980875221  MEMB      192             0.0000000000
     22217       192  SOPE      HX             32.2335757376      -39.2645272504      -19.0461121008  MEMB      192             0.0000000000
     22218       192  SOPE      HY             31.2573665610      -38.2479551488      -17.8567317531  MEMB      192             0.0000000000
     22219       192  SOPE      O31            33.0815559613      -39.1949428873      -17.2494547860  MEMB      192             0.0000000000
     22220       192  SOPE      C31            32.8554749293      -38.8012349964      -16.0046803191  MEMB      192             0.0000000000
     22221       192  SOPE      O32            31.8559481806      -38.1894982124      -15.6013932562  MEMB      192             0.0000000000
     22222       192  SOPE      C32            33.9901811793      -39.2717856130      -15.0897727068  MEMB      192             0.0000000000
     22223       192  SOPE      H2X            34.2551185717      -40.2508499017      -15.5431629440  MEMB      192             0.0000000000
     22224       192  SOPE      H2Y            33.5686362394      -39.4574000446      -14.0787490594  MEMB      192             0.0000000000
     22225       192  SOPE      C23            32.6490065540      -34.8826782191      -14.9142088384  MEMB      192             0.0000000000
     22226       192  SOPE      H3R            32.7890648233      -35.8768341357      -14.4384371487  MEMB      192             0.0000000000
     22227       192  SOPE      H3S            31.5946451058      -34.5325682535      -14.9223087550  MEMB      192             0.0000000000
     22228       192  SOPE      C24            33.5764750354      -33.9453554893      -14.0868759676  MEMB      192             0.0000000000
     22229       192  SOPE      H4R            34.5318456666      -34.4721217366      -13.8768636048  MEMB      192             0.0000000000
     22230       192  SOPE      H4S            33.8573432023      -32.9775791567      -14.5546826182  MEMB      192             0.0000000000
     22231       192  SOPE      C25            32.9565609247      -33.5650158160      -12.6658296178  MEMB      192             0.0000000000
     22232       192  SOPE      H5R            33.5001390325      -32.7953238415      -12.0772572812  MEMB      192             0.0000000000
     22233       192  SOPE      H5S            31.9278167856      -33.1492878176      -12.7221960676  MEMB      192             0.0000000000
     22234       192  SOPE      C26            32.9139930018      -34.7603835689      -11.6436445031  MEMB      192             0.0000000000
     22235       192  SOPE      H6R            32.2941962112      -35.5963615138      -12.0326349915  MEMB      192             0.0000000000
     22236       192  SOPE      H6S            33.8238550517      -35.3927919508      -11.5628243757  MEMB      192             0.0000000000
     22237       192  SOPE      C27            32.2921481128      -34.3262009030      -10.2989356874  MEMB      192             0.0000000000
     22238       192  SOPE      H7R            31.8170594092      -33.3335896852      -10.4516930601  MEMB      192             0.0000000000
     22239       192  SOPE      H7S            31.3992579403      -34.9021071638       -9.9742810561  MEMB      192             0.0000000000
     22240       192  SOPE      C28            33.3390805548      -34.6487051523       -9.1576815811  MEMB      192             0.0000000000
     22241       192  SOPE      H8R            33.2645782938      -35.7567250015       -9.1250872199  MEMB      192             0.0000000000
     22242       192  SOPE      H8S            34.3559283719      -34.2753970814       -9.4046280668  MEMB      192             0.0000000000
     22243       192  SOPE      C29            32.8486828434      -34.0971803313       -7.8771743971  MEMB      192             0.0000000000
     22244       192  SOPE      H91            31.8496110650      -34.4417972900       -7.5720587145  MEMB      192             0.0000000000
     22245       192  SOPE      C210           33.4054259725      -33.1826652208       -7.0556182972  MEMB      192             0.0000000000
     22246       192  SOPE      H101           32.8774471623      -32.8709224604       -6.1423527358  MEMB      192             0.0000000000
     22247       192  SOPE      C211           34.7157720332      -32.5305811937       -7.3606636910  MEMB      192             0.0000000000
     22248       192  SOPE      H11R           34.9597468440      -31.5717783802       -6.8551992422  MEMB      192             0.0000000000
     22249       192  SOPE      H11S           34.6769980418      -32.3972173049       -8.4629481046  MEMB      192             0.0000000000
     22250       192  SOPE      C212           35.8974283760      -33.4904637256       -7.0451294635  MEMB      192             0.0000000000
     22251       192  SOPE      H12R           35.9702846295      -34.1944028503       -7.9015660043  MEMB      192             0.0000000000
     22252       192  SOPE      H12S           35.5979845975      -34.2068509338       -6.2504947066  MEMB      192             0.0000000000
     22253       192  SOPE      C213           37.2252967061      -32.7817345182       -6.8083586457  MEMB      192             0.0000000000
     22254       192  SOPE      H13R           37.3625769346      -31.9601369132       -7.5435137123  MEMB      192             0.0000000000
     22255       192  SOPE      H13S           37.8679232903      -33.6716869688       -6.9796379717  MEMB      192             0.0000000000
     22256       192  SOPE      C214           37.4971420236      -32.1319151643       -5.4613388880  MEMB      192             0.0000000000
     22257       192  SOPE      H14R           36.5434231839      -31.6024546597       -5.2505954300  MEMB      192             0.0000000000
     22258       192  SOPE      H14S           38.4475103877      -31.5806054489       -5.6261974388  MEMB      192             0.0000000000
     22259       192  SOPE      C215           37.5011438361      -33.2741463667       -4.4137565319  MEMB      192             0.0000000000
     22260       192  SOPE      H15R           38.0611002771      -34.1274465794       -4.8526736998  MEMB      192             0.0000000000
     22261       192  SOPE      H15S           36.4703911858      -33.5737128522       -4.1271730273  MEMB      192             0.0000000000
     22262       192  SOPE      C216           38.2484114639      -32.9193976799       -3.0438740711  MEMB      192             0.0000000000
     22263       192  SOPE      H16R           37.9921850026      -33.7394713729       -2.3394963375  MEMB      192             0.0000000000
     22264       192  SOPE      H16S           37.6639727714      -32.0767748358       -2.6163940909  MEMB      192             0.0000000000
     22265       192  SOPE      C217           39.6796555215      -32.4791706616       -3.1034850663  MEMB      192             0.0000000000
     22266       192  SOPE      H17R           39.7613491327      -31.7096982507       -3.9007057078  MEMB      192             0.0000000000
     22267       192  SOPE      H17S           40.2547635272      -33.3641006233       -3.4505745378  MEMB      192             0.0000000000
     22268       192  SOPE      C218           40.2535394515      -31.9161320934       -1.8768017455  MEMB      192             0.0000000000
     22269       192  SOPE      H18R           39.6968246470      -31.0580185150       -1.4431757231  MEMB      192             0.0000000000
     22270       192  SOPE      H18S           41.2593409294      -31.4863680705       -2.0717056977  MEMB      192             0.0000000000
     22271       192  SOPE      H18T           40.4377016315      -32.7557732395       -1.1729490408  MEMB      192             0.0000000000
     22272       192  SOPE      C33            35.0868742555      -38.2864293348      -15.4709230977  MEMB      192             0.0000000000
     22273       192  SOPE      H3X            34.6786027058      -37.2761032171      -15.2544139122  MEMB      192             0.0000000000
     22274       192  SOPE      H3Y            35.3178682774      -38.3035148725      -16.5575099095  MEMB      192             0.0000000000
     22275       192  SOPE      C34            36.3796794925      -38.5347409689      -14.8705110232  MEMB      192             0.0000000000
     22276       192  SOPE      H4X            37.1643363026      -37.9642804568      -15.4119995304  MEMB      192             0.0000000000
     22277       192  SOPE      H4Y            36.7427509122      -39.5829734705      -14.9314063299  MEMB      192             0.0000000000
     22278       192  SOPE      C35            36.5689370093      -38.2454549982      -13.3823609443  MEMB      192             0.0000000000
     22279       192  SOPE      H5X            37.6472931162      -38.4009240374      -13.1648786554  MEMB      192             0.0000000000
     22280       192  SOPE      H5Y            36.0075846040      -38.9121171412      -12.6933276363  MEMB      192             0.0000000000
     22281       192  SOPE      C36            36.4220247362      -36.7126709260      -13.0087631940  MEMB      192             0.0000000000
     22282       192  SOPE      H6X            35.3679962329      -36.4620955134      -13.2548454639  MEMB      192             0.0000000000
     22283       192  SOPE      H6Y            37.0958101380      -36.0333506873      -13.5734382869  MEMB      192             0.0000000000
     22284       192  SOPE      C37            36.6139443065      -36.3246287157      -11.5289339492  MEMB      192             0.0000000000
     22285       192  SOPE      H7X            36.7333745945      -35.2232805733      -11.6131349128  MEMB      192             0.0000000000
     22286       192  SOPE      H7Y            37.6385850337      -36.6341230459      -11.2311995744  MEMB      192             0.0000000000
     22287       192  SOPE      C38            35.6857290043      -36.8928345138      -10.4602514056  MEMB      192             0.0000000000
     22288       192  SOPE      H8X            34.7055932957      -37.1362677030      -10.9232793515  MEMB      192             0.0000000000
     22289       192  SOPE      H8Y            35.5026443086      -36.0671587214       -9.7397929123  MEMB      192             0.0000000000
     22290       192  SOPE      C39            35.9905152615      -38.3438136262       -9.9092342954  MEMB      192             0.0000000000
     22291       192  SOPE      H9X            37.0420095339      -38.6472694988       -9.7179355957  MEMB      192             0.0000000000
     22292       192  SOPE      H9Y            35.7252947531      -39.0419104616      -10.7318157207  MEMB      192             0.0000000000
     22293       192  SOPE      C310           35.2290643067      -38.7325565994       -8.6503358516  MEMB      192             0.0000000000
     22294       192  SOPE      H10X           35.1241564255      -39.8235979277       -8.4688301046  MEMB      192             0.0000000000
     22295       192  SOPE      H10Y           34.1592674095      -38.4508732984       -8.7528558459  MEMB      192             0.0000000000
     22296       192  SOPE      C311           35.9350934755      -38.2841954636       -7.3151488891  MEMB      192             0.0000000000
     22297       192  SOPE      H11X           36.3081023876      -37.2388695509       -7.3649412531  MEMB      192             0.0000000000
     22298       192  SOPE      H11Y           36.7472888761      -39.0156133151       -7.1159316065  MEMB      192             0.0000000000
     22299       192  SOPE      C312           34.9875268751      -38.4916479871       -6.1544340333  MEMB      192             0.0000000000
     22300       192  SOPE      H12X           34.3841229839      -39.4224023175       -6.2170528714  MEMB      192             0.0000000000
     22301       192  SOPE      H12Y           34.1991945604      -37.7098125253       -6.1942630903  MEMB      192             0.0000000000
     22302       192  SOPE      C313           35.7338761715      -38.3691416057       -4.7715677134  MEMB      192             0.0000000000
     22303       192  SOPE      H13X           36.6305272129      -39.0226143008       -4.8291143490  MEMB      192             0.0000000000
     22304       192  SOPE      H13Y           35.0426598102      -38.8311159444       -4.0346015378  MEMB      192             0.0000000000
     22305       192  SOPE      C314           36.1616397678      -36.9573867009       -4.4257389514  MEMB      192             0.0000000000
     22306       192  SOPE      H14X           35.2932308281      -36.2693326365       -4.5080075696  MEMB      192             0.0000000000
     22307       192  SOPE      H14Y           36.8986389312      -36.7003959626       -5.2163772734  MEMB      192             0.0000000000
     22308       192  SOPE      C315           36.9325848227      -36.8016280972       -3.1496112043  MEMB      192             0.0000000000
     22309       192  SOPE      H15X           37.3218243785      -35.7659299137       -3.2503232993  MEMB      192             0.0000000000
     22310       192  SOPE      H15Y           37.8954278200      -37.3514326291       -3.2201042778  MEMB      192             0.0000000000
     22311       192  SOPE      C316           36.0927321696      -36.8610270408       -1.8382949883  MEMB      192             0.0000000000
     22312       192  SOPE      H16X           35.9302631691      -37.9099001114       -1.5099805979  MEMB      192             0.0000000000
     22313       192  SOPE      H16Y           35.0997992734      -36.3847163980       -1.9850369496  MEMB      192             0.0000000000
     22314       192  SOPE      C317           36.6843714952      -36.3326946679       -0.5892105014  MEMB      192             0.0000000000
     22315       192  SOPE      H17X           35.9504674675      -36.5300672977        0.2211910440  MEMB      192             0.0000000000
     22316       192  SOPE      H17Y           36.7897281490      -35.2309953239       -0.6865725964  MEMB      192             0.0000000000
     22317       192  SOPE      C318           37.9754473600      -37.0216080778       -0.0637735515  MEMB      192             0.0000000000
     22318       192  SOPE      H18X           38.9000841662      -36.6865283254       -0.5805809608  MEMB      192             0.0000000000
     22319       192  SOPE      H18Y           37.8923381327      -38.1240036039       -0.1739468167  MEMB      192             0.0000000000
     22320       192  SOPE      H18Z           38.0777216980      -36.7805243349        1.0159204881  MEMB      192             0.0000000000
