* GENERATED BY CHARMM-GUI (HTTP://WWW.CHARMM-GUI.ORG) V3.7 ON OCT, 22. 2024. JOB
* GENERATES LIPID PACKING USING BIG SPHERES
*  DATE:    10/22/24      9:42:11      CREATED BY USER: apache
*
       192  EXT
         1         1  CHL1      POLO           26.0090077103       12.4155624315       12.0616371998  HEAD      1               0.0000000000
         2         2  CHL1      POLO           -5.9155574098      -13.5582574246       12.1344114552  HEAD      2               0.0000000000
         3         3  CHL1      POLO           23.4746872756      -15.4614441153       11.8683858101  HEAD      3               0.0000000000
         4         4  CHL1      POLO           13.1991746925      -24.1255451973       11.8904408923  HEAD      4               0.0000000000
         5         5  CHL1      POLO          -17.1369723261       20.1506036690       12.0472830371  HEAD      5               0.0000000000
         6         6  CHL1      POLO          -24.0380966515       -3.4378995682       12.0654684306  HEAD      6               0.0000000000
         7         7  CHL1      POLO           -0.8178294176        1.4057440793       12.0956511109  HEAD      7               0.0000000000
         8         8  CHL1      POLO          -21.8330026760        4.7704940790       11.9919561466  HEAD      8               0.0000000000
         9         9  CHL1      POLO           18.0455640451       -9.3886166694       11.9133224360  HEAD      9               0.0000000000
        10        10  CHL1      POLO            9.5306743603       10.0104962591       11.9601646846  HEAD      10              0.0000000000
        11        11  CHL1      POLO           20.4985039334       -2.0289367940       12.0930872506  HEAD      11              0.0000000000
        12        12  CHL1      POLO          -26.1257074441      -33.0908111373       11.9396221280  HEAD      12              0.0000000000
        13        13  CHL1      POLO           11.9802939930       17.1992334083       11.9860062235  HEAD      13              0.0000000000
        14        14  CHL1      POLO           26.3662178914      -29.4529219912       11.8786660764  HEAD      14              0.0000000000
        15        15  CHL1      POLO           18.7441511210       30.8063284947       12.1722745379  HEAD      15              0.0000000000
        16        16  CHL1      POLO            3.9543400512       16.2758376148       11.8331882168  HEAD      16              0.0000000000
        17        17  CHL1      POLO           -9.3405350124       21.6688557985       12.0262457507  HEAD      17              0.0000000000
        18        18  CHL1      POLO          -24.8866835957       18.6168578011       11.8654627092  HEAD      18              0.0000000000
        19        19  CHL1      POLO           -0.7775465233      -19.4241605026       11.9483264238  HEAD      19              0.0000000000
        20        20  CHL1      POLO            0.8853928712       30.2865888839       11.9782343705  HEAD      20              0.0000000000
        21        21  CHL1      POLO          -27.1226255889       10.6991988331       11.9661661835  HEAD      21              0.0000000000
        22        22  CHL1      POLO           28.4396123138       -0.7122326332       12.0938750975  HEAD      22              0.0000000000
        23        23  CHL1      POLO            7.5485199971      -18.0728617392       12.1045851587  HEAD      23              0.0000000000
        24        24  CHL1      POLO            2.0941026663      -12.2191263007       12.0424189293  HEAD      24              0.0000000000
        25        25  CHL1      POLO           15.5674522855      -16.7868200074       11.9686922707  HEAD      25              0.0000000000
        26        26  CHL1      POLO            1.5930528977        8.8297810000       11.7899645218  HEAD      26              0.0000000000
        27        27  CHL1      POLO           15.7175328609       23.7394487526       11.9807395499  HEAD      27              0.0000000000
        28        28  CHL1      POLO          -28.9357517910      -19.2743363731       11.9018953735  HEAD      28              0.0000000000
        29        29  POPC      POLO           15.0797821823        3.8096523909       12.0751980163  HEAD      29              0.0000000000
        30        30  POPC      POLO           -3.2633884143       -6.1361232263       11.8791316358  HEAD      30              0.0000000000
        31        31  POPC      POLO           28.4537547970       19.6994389023       11.8257808821  HEAD      31              0.0000000000
        32        32  POPC      POLO           -7.1535936181       29.3727557270       11.9457878285  HEAD      32              0.0000000000
        33        33  SLPC      POLO           22.9647173599        5.3820157092       12.0557455031  HEAD      33              0.0000000000
        34        34  SLPC      POLO           29.5498251888       29.9328994918       11.9295938935  HEAD      34              0.0000000000
        35        35  SLPC      POLO          -18.1893219341      -31.6833470289       11.9725261554  HEAD      35              0.0000000000
        36        36  SLPC      POLO           25.9016121045       -8.1813930408       12.0872203941  HEAD      36              0.0000000000
        37        37  SLPC      POLO          -21.2565181719      -17.3509271983       11.9706318149  HEAD      37              0.0000000000
        38        38  SLPC      POLO          -14.0055503644        6.3597786379       11.8438355664  HEAD      38              0.0000000000
        39        39  SLPC      POLO            7.1842407160        2.5811909219       12.0410712532  HEAD      39              0.0000000000
        40        40  SLPC      POLO            4.4446129331       -4.7809469990       11.9329111398  HEAD      40              0.0000000000
        41        41  SOPE      POLO           -3.8951817669       15.3287186373       12.0205895059  HEAD      41              0.0000000000
        42        42  SOPE      POLO          -23.5774878975      -25.4096614672       12.1937785571  HEAD      42              0.0000000000
        43        43  SOPE      POLO            9.6682911872      -30.6859394672       12.0968426284  HEAD      43              0.0000000000
        44        44  SOPE      POLO          -33.8182878150      -34.6512776848       12.0784404538  HEAD      44              0.0000000000
        45        45  SOPE      POLO            1.5939613429      -32.3992087293       11.8908850843  HEAD      45              0.0000000000
        46        46  SOPE      POLO           36.4760629707        0.8611139426       12.0037338918  HEAD      46              0.0000000000
        47        47  SAPI      POLO          -18.8779403686       -9.3191993766       12.0390039347  HEAD      47              0.0000000000
        48        48  SAPI      POLO            6.4907432683       35.5012873805       12.2070479030  HEAD      48              0.0000000000
        49        49  SAPC      POLO          -29.2972004839        2.5358056515       11.9512132795  HEAD      49              0.0000000000
        50        50  SAPC      POLO           17.3636120435       11.2472646044       11.9957443744  HEAD      50              0.0000000000
        51        51  SAPC      POLO          -14.8467577709       27.7675400830       12.0721756515  HEAD      51              0.0000000000
        52        52  SAPC      POLO          -22.7128682448       26.3434095700       12.1218684619  HEAD      52              0.0000000000
        53        53  SAPC      POLO           34.2726314722      -28.4149450407       11.8376150483  HEAD      53              0.0000000000
        54        54  SAPC      POLO           10.0846362536      -10.8230127366       12.0966059622  HEAD      54              0.0000000000
        55        55  SAPC      POLO           20.6258654990       17.9984789010       11.9634957507  HEAD      55              0.0000000000
        56        56  SAPC      POLO           -5.0613789750      -36.2826844314       11.9896548847  HEAD      56              0.0000000000
        57        57  SAPE      POLO          -32.4574755362       16.9373176256       11.9809581696  HEAD      57              0.0000000000
        58        58  SAPE      POLO           23.5634753422       25.3048265993       12.0141857529  HEAD      58              0.0000000000
        59        59  SAPE      POLO          -30.4873059749       24.7881618104       12.0066185243  HEAD      59              0.0000000000
        60        60  SAPE      POLO            4.5515069691      -25.1229184787       12.1011270355  HEAD      60              0.0000000000
        61        61  SAPE      POLO          -20.4660991129       34.1503764949       11.8898291797  HEAD      61              0.0000000000
        62        62  SAPE      POLO          -16.3180842410       -1.4808050447       11.9806589654  HEAD      62              0.0000000000
        63        63  SAPE      POLO           31.8108197419      -35.9186683312       12.1591122244  HEAD      63              0.0000000000
        64        64  SAPE      POLO          -34.6023267374        8.4845674177       12.1040502863  HEAD      64              0.0000000000
        65        65  SAPE      POLO          -36.1517893027       31.2015040204       12.0318278427  HEAD      65              0.0000000000
        66        66  SAPE      POLO          -26.4891823394      -11.3005217190       11.7404289692  HEAD      66              0.0000000000
        67        67  SAPE      POLO           18.4544346686      -30.2287509592       12.0057976704  HEAD      67              0.0000000000
        68        68  SAPE      POLO           -8.6162636809      -21.1630238925       12.1068482846  HEAD      68              0.0000000000
        69        69  SAPE      POLO           35.2571369961       23.1915641574       12.1252503144  HEAD      69              0.0000000000
        70        70  SAPE      POLO          -10.6702677898      -29.8047693636       12.0768687242  HEAD      70              0.0000000000
        71        71  SAPS      POLO          -13.6930832563      -15.3521030813       12.1160118419  HEAD      71              0.0000000000
        72        72  SAPS      POLO            6.4187424812       23.5345685868       12.0177297574  HEAD      72              0.0000000000
        73        73  SAPS      POLO          -34.2354369038      -12.9794453897       11.9947998625  HEAD      73              0.0000000000
        74        74  SAPS      POLO           31.3916144185      -14.2534407106       12.0140531570  HEAD      74              0.0000000000
        75        75  SAPS      POLO           33.7431794598       14.2270586103       12.0473791868  HEAD      75              0.0000000000
        76        76  SAPS      POLO           23.9912958977       36.3779829413       11.9735720582  HEAD      76              0.0000000000
        77        77  SAPS      POLO          -16.0599489841      -23.6329209610       11.9298808794  HEAD      77              0.0000000000
        78        78  SAPS      POLO           -3.3853052455      -26.7958297406       12.0350915661  HEAD      78              0.0000000000
        79        79  OSM       POLO           -1.5666971670       22.8317957840       12.0146572130  HEAD      79              0.0000000000
        80        80  OSM       POLO           28.8959747439      -21.8502120383       12.0302972056  HEAD      80              0.0000000000
        81        81  OSM       POLO          -11.6880853847       13.9020841035       11.9443616189  HEAD      81              0.0000000000
        82        82  OSM       POLO           12.4454169097       -3.5318022550       12.1384884505  HEAD      82              0.0000000000
        83        83  OSM       POLO           -6.2523560177        7.8488619355       12.0804351757  HEAD      83              0.0000000000
        84        84  OSM       POLO          -28.3416793385       32.5953966904       11.9997310764  HEAD      84              0.0000000000
        85        85  OSM       POLO           21.0703129448      -22.9066283538       12.1378000677  HEAD      85              0.0000000000
        86        86  OSM       POLO          -12.8545990527       35.5360181466       12.0484790291  HEAD      86              0.0000000000
        87        87  OSM       POLO          -19.4361897051       12.5770155365       12.1083548666  HEAD      87              0.0000000000
        88        88  OSM       POLO           33.8010038047       -6.8083087910       11.8123712884  HEAD      88              0.0000000000
        89        89  OSM       POLO           31.2011482705        6.5659464545       12.0444412524  HEAD      89              0.0000000000
        90        90  OSM       POLO          -31.3980679789      -27.1114951335       11.9187212208  HEAD      90              0.0000000000
        91        91  OSM       POLO           36.6337916904      -20.6999239479       11.8641265958  HEAD      91              0.0000000000
        92        92  OSM       POLO          -11.1214958878       -7.6245913830       12.0892149995  HEAD      92              0.0000000000
        93        93  OSM       POLO           14.3056016448      -36.6939130465       11.8527434911  HEAD      93              0.0000000000
        94        94  OSM       POLO           10.9274539568       29.5527135419       11.9163766514  HEAD      94              0.0000000000
        95        95  OSM       POLO           -8.6643803969        0.1397305573       11.9569614214  HEAD      95              0.0000000000
        96        96  OSM       POLO          -31.6621400358       -5.3307817384       12.0611496495  HEAD      96              0.0000000000
        97        97  CHL1      POLO           15.3837568279       17.8219510398      -12.0436163038  HEAD      97              0.0000000000
        98        98  CHL1      POLO           28.1197352484       11.7828939201      -12.1529157532  HEAD      98              0.0000000000
        99        99  CHL1      POLO           -4.5364428054       11.2595894007      -11.9939140315  HEAD      99              0.0000000000
       100       100  CHL1      POLO           -0.9372939797       18.0942897614      -12.0154217293  HEAD      100             0.0000000000
       101       101  CHL1      POLO           -4.3013920751      -17.2691369481      -11.9528079157  HEAD      101             0.0000000000
       102       102  CHL1      POLO          -28.8379207982       26.1806457771      -11.9522425511  HEAD      102             0.0000000000
       103       103  CHL1      POLO           -1.3292192674       31.8031316944      -11.9788633906  HEAD      103             0.0000000000
       104       104  CHL1      POLO          -16.2629644818      -24.8370944407      -12.0552603625  HEAD      104             0.0000000000
       105       105  CHL1      POLO          -28.5401699407       12.5803742557      -11.9737265475  HEAD      105             0.0000000000
       106       106  CHL1      POLO            3.6097726536       -2.7474963225      -12.0508006394  HEAD      106             0.0000000000
       107       107  CHL1      POLO            3.8376705364      -17.0096000217      -12.0816948501  HEAD      107             0.0000000000
       108       108  CHL1      POLO          -12.6554398802      -32.1493554687      -12.0085448016  HEAD      108             0.0000000000
       109       109  CHL1      POLO            7.1722997627       17.6583634195      -11.9634282871  HEAD      109             0.0000000000
       110       110  CHL1      POLO           27.3192232215       24.8874178446      -11.9331003018  HEAD      110             0.0000000000
       111       111  CHL1      POLO          -12.1163981400      -17.3899250128      -12.0455835822  HEAD      111             0.0000000000
       112       112  CHL1      POLO          -23.8903632347       -8.3818429864      -11.9608580392  HEAD      112             0.0000000000
       113       113  CHL1      POLO            9.5893646575      -21.9650236467      -11.9928486559  HEAD      113             0.0000000000
       114       114  CHL1      POLO          -32.7759641188       19.2929291815      -11.9879540740  HEAD      114             0.0000000000
       115       115  CHL1      POLO          -20.4771225301       12.4430125637      -11.8803737300  HEAD      115             0.0000000000
       116       116  CHL1      POLO          -34.2967721041       31.8683890348      -12.0033202017  HEAD      116             0.0000000000
       117       117  CHL1      POLO           33.8144595774      -21.6240407710      -12.0826363648  HEAD      117             0.0000000000
       118       118  CHL1      POLO           16.7492067599       -8.3446531932      -12.0843463369  HEAD      118             0.0000000000
       119       119  CHL1      POLO          -27.7838706958      -15.0353344216      -12.0600665742  HEAD      119             0.0000000000
       120       120  CHL1      POLO           -8.3171124334      -24.6103766588      -11.9326328248  HEAD      120             0.0000000000
       121       121  CHL1      POLO          -20.0162919474       -1.6981598779      -11.9227641624  HEAD      121             0.0000000000
       122       122  CHL1      POLO           21.3913431804      -14.8920017813      -11.9069383727  HEAD      122             0.0000000000
       123       123  CHL1      POLO           -0.4883321178        4.0534560366      -11.9729053477  HEAD      123             0.0000000000
       124       124  CHL1      POLO           32.8518252181        5.5052816369      -11.9427153507  HEAD      124             0.0000000000
       125       125  POPC      POLO            7.6610653481       -9.5769531063      -12.1284249897  HEAD      125             0.0000000000
       126       126  POPC      POLO           -0.4604491126      -24.4692919676      -12.0733661707  HEAD      126             0.0000000000
       127       127  POPC      POLO          -16.7698645262       33.9481869221      -12.0041111985  HEAD      127             0.0000000000
       128       128  POPC      POLO          -16.2115059303        5.1100356855      -12.0720632484  HEAD      128             0.0000000000
       129       129  SLPC      POLO           17.7384172836      -21.6783753604      -12.0577239076  HEAD      129             0.0000000000
       130       130  SLPC      POLO            7.5503326170        4.2745667467      -12.0320207547  HEAD      130             0.0000000000
       131       131  SLPC      POLO          -12.5999688539       26.6850929763      -11.9642856164  HEAD      131             0.0000000000
       132       132  SLPC      POLO           22.7685571530       31.4736381037      -11.8873192181  HEAD      132             0.0000000000
       133       133  SLPC      POLO            3.0095119057       24.8425316140      -11.9665668654  HEAD      133             0.0000000000
       134       134  SLPC      POLO           31.8166526096       18.5422253167      -11.9375983643  HEAD      134             0.0000000000
       135       135  SLPC      POLO          -24.7919522484       19.4736606527      -12.0946735102  HEAD      135             0.0000000000
       136       136  SLPC      POLO          -27.9917096225       -1.4202123220      -11.9949681557  HEAD      136             0.0000000000
       137       137  SOPE      POLO          -35.8138844118      -14.7938578911      -11.9920171500  HEAD      137             0.0000000000
       138       138  SOPE      POLO          -16.6674571359       19.6063838058      -12.1753697729  HEAD      138             0.0000000000
       139       139  SOPE      POLO           19.1627876483       24.6737982055      -11.9122747476  HEAD      139             0.0000000000
       140       140  SOPE      POLO           14.7638336550       31.3087805737      -11.9668362435  HEAD      140             0.0000000000
       141       141  SOPE      POLO           34.6481354486      -35.0407227050      -11.9067281226  HEAD      141             0.0000000000
       142       142  SOPE      POLO            6.7716124903       31.5327021295      -12.0360673974  HEAD      142             0.0000000000
       143       143  SAPI      POLO           11.4821695243       11.0829433290      -11.9202217861  HEAD      143             0.0000000000
       144       144  SAPI      POLO           25.7953022608      -21.7088545588      -12.0418051344  HEAD      144             0.0000000000
       145       145  SAPC      POLO          -15.9592508348       -8.8644398077      -12.1464615371  HEAD      145             0.0000000000
       146       146  SAPC      POLO           33.3492113230       -8.0649433360      -12.0224810000  HEAD      146             0.0000000000
       147       147  SAPC      POLO           -4.5842584332      -32.0854761663      -12.1740220381  HEAD      147             0.0000000000
       148       148  SAPC      POLO          -12.0961103022       -2.1805126891      -12.0611355837  HEAD      148             0.0000000000
       149       149  SAPC      POLO          -30.6679580344      -35.0362120213      -11.9952447142  HEAD      149             0.0000000000
       150       150  SAPC      POLO          -31.5406547004      -21.6769947000      -11.9748108687  HEAD      150             0.0000000000
       151       151  SAPC      POLO          -32.2276665474        5.5524597120      -11.9898970851  HEAD      151             0.0000000000
       152       152  SAPC      POLO          -12.6103560600       11.9613202279      -12.0226912732  HEAD      152             0.0000000000
       153       153  SAPE      POLO          -20.5776175346      -32.3678669945      -11.9204993376  HEAD      153             0.0000000000
       154       154  SAPE      POLO           29.5167978340      -14.8542443454      -12.0316105848  HEAD      154             0.0000000000
       155       155  SAPE      POLO          -27.2717680334      -28.4563033190      -12.2293171537  HEAD      155             0.0000000000
       156       156  SAPE      POLO          -36.1393531310       -1.1735609898      -12.0759875025  HEAD      156             0.0000000000
       157       157  SAPE      POLO            2.5192024790      -35.1345646533      -11.9135381043  HEAD      157             0.0000000000
       158       158  SAPE      POLO           24.6349538906        4.8061244608      -12.0742433172  HEAD      158             0.0000000000
       159       159  SAPE      POLO           11.0512379670       24.5060332976      -12.0066688655  HEAD      159             0.0000000000
       160       160  SAPE      POLO          -23.5079599706      -21.9182016646      -12.0054364325  HEAD      160             0.0000000000
       161       161  SAPE      POLO           20.6625318701       -1.7487853469      -12.0146619574  HEAD      161             0.0000000000
       162       162  SAPE      POLO           18.4668737347      -35.2975474286      -11.8870201662  HEAD      162             0.0000000000
       163       163  SAPE      POLO           30.0880954459      -28.4392367075      -11.9560798780  HEAD      163             0.0000000000
       164       164  SAPE      POLO           19.8058071028       11.1327303353      -11.9829021274  HEAD      164             0.0000000000
       165       165  SAPE      POLO            3.4555581546       10.9246529958      -12.0855684035  HEAD      165             0.0000000000
       166       166  SAPE      POLO           14.1329681660      -28.4620722817      -12.0356468234  HEAD      166             0.0000000000
       167       167  SAPS      POLO           35.6093131982       25.1983760932      -12.0989287223  HEAD      167             0.0000000000
       168       168  SAPS      POLO           22.1049680293      -28.4966232302      -12.0863380731  HEAD      168             0.0000000000
       169       169  SAPS      POLO           -8.8981730837       18.5689348223      -12.0770000358  HEAD      169             0.0000000000
       170       170  SAPS      POLO           23.5367862390       18.0557639381      -12.0678798765  HEAD      170             0.0000000000
       171       171  SAPS      POLO           -8.2656312142        4.5120785782      -12.0269385873  HEAD      171             0.0000000000
       172       172  SAPS      POLO           -4.9563185358       25.1456060650      -12.0306190657  HEAD      172             0.0000000000
       173       173  SAPS      POLO            6.1097423774      -28.5980807166      -11.9862819717  HEAD      173             0.0000000000
       174       174  SAPS      POLO          -24.2694794151        5.5860210312      -11.9732142749  HEAD      174             0.0000000000
       175       175  OSM       POLO           15.8178426817        4.5272466329      -12.1063042437  HEAD      175             0.0000000000
       176       176  OSM       POLO          -36.7024149054       12.2617939666      -12.0417765446  HEAD      176             0.0000000000
       177       177  OSM       POLO          -31.7784906936       -8.1060787679      -11.8136512107  HEAD      177             0.0000000000
       178       178  OSM       POLO           13.1357153638      -15.2291071821      -12.0272177696  HEAD      178             0.0000000000
       179       179  OSM       POLO           11.8983511691       -2.3192290314      -12.0142061133  HEAD      179             0.0000000000
       180       180  OSM       POLO           29.1892057251       -1.5068579699      -12.0537043570  HEAD      180             0.0000000000
       181       181  OSM       POLO           26.4968133371      -35.2329082206      -12.0148125471  HEAD      181             0.0000000000
       182       182  OSM       POLO           -8.2871964196      -10.0577795812      -12.0179526768  HEAD      182             0.0000000000
       183       183  OSM       POLO          -19.6487128547      -15.4250518455      -12.0134822810  HEAD      183             0.0000000000
       184       184  OSM       POLO          -24.6846708526       33.3579848388      -12.0928640146  HEAD      184             0.0000000000
       185       185  OSM       POLO           -0.3096285610      -10.1361757159      -12.0158588328  HEAD      185             0.0000000000
       186       186  OSM       POLO           -4.3248499866       -2.8927961633      -12.0352514339  HEAD      186             0.0000000000
       187       187  OSM       POLO          -20.6873693092       26.6787765267      -12.1246212445  HEAD      187             0.0000000000
       188       188  OSM       POLO           10.4858414266      -35.2162376143      -11.9250324825  HEAD      188             0.0000000000
       189       189  OSM       POLO           25.1392169405       -8.1095154084      -12.0222047406  HEAD      189             0.0000000000
       190       190  OSM       POLO           -8.8243165134       34.0681376882      -11.9643795711  HEAD      190             0.0000000000
       191       191  OSM       POLO           30.9086186949       31.5115264641      -12.1606411997  HEAD      191             0.0000000000
       192       192  OSM       POLO          -35.2424805446      -28.2689697867      -12.0375852573  HEAD      192             0.0000000000
